Generated by trjconv : CNT in water t= 278.00000
33518
    1C        C    1   2.843   2.769   4.746
    1C        C    2   2.895   2.714   4.865
    1C        C    3   2.841   2.772   4.981
    1C        C    4   2.850   2.770   4.257
    1C        C    5   2.903   2.732   4.383
    1C        C    6   2.840   2.766   4.505
    1C        C    7   3.012   2.638   4.623
    1C        C    8   2.894   2.717   4.626
    1C        C    9   3.074   2.601   4.744
    1C        C   10   3.007   2.629   4.865
    1C        C   11   3.180   2.489   4.971
    1C        C   12   3.060   2.561   4.975
    1C        C   13   2.842   2.768   3.770
    1C        C   14   2.895   2.720   3.892
    1C        C   15   2.838   2.765   4.013
    1C        C   16   3.015   2.643   4.137
    1C        C   17   2.898   2.722   4.133
    1C        C   18   3.080   2.612   4.259
    1C        C   19   3.018   2.650   4.380
    1C        C   20   3.208   2.553   4.502
    1C        C   21   3.077   2.608   4.501
    1C        C   22   3.277   2.531   4.623
    1C        C   23   3.206   2.549   4.744
    1C        C   24   3.411   2.472   4.863
    1C        C   25   3.271   2.503   4.862
    1C        C   26   3.489   2.468   4.979
    1C        C   27   2.841   2.764   3.281
    1C        C   28   2.903   2.727   3.402
    1C        C   29   2.850   2.773   3.525
    1C        C   30   3.017   2.646   3.648
    1C        C   31   2.901   2.727   3.648
    1C        C   32   3.077   2.609   3.771
    1C        C   33   3.012   2.642   3.892
    1C        C   34   3.206   2.556   4.014
    1C        C   35   3.074   2.606   4.014
    1C        C   36   3.276   2.535   4.135
    1C        C   37   3.210   2.557   4.258
    1C        C   38   3.415   2.504   4.379
    1C        C   39   3.276   2.533   4.380
    1C        C   40   3.486   2.501   4.501
    1C        C   41   3.416   2.505   4.624
    1C        C   42   3.629   2.479   4.742
    1C        C   43   3.487   2.475   4.743
    1C        C   44   3.703   2.486   4.862
    1C        C   45   3.628   2.476   4.980
    1C        C   46   2.836   2.750   2.794
    1C        C   47   2.889   2.706   2.918
    1C        C   48   2.837   2.755   3.040
    1C        C   49   3.018   2.641   3.157
    1C        C   50   2.897   2.714   3.161
    1C        C   51   3.079   2.607   3.281
    1C        C   52   3.018   2.645   3.402
    1C        C   53   3.204   2.550   3.524
    1C        C   54   3.074   2.605   3.526
    1C        C   55   3.272   2.530   3.646
    1C        C   56   3.206   2.553   3.769
    1C        C   57   3.414   2.514   3.893
    1C        C   58   3.275   2.538   3.892
    1C        C   59   3.486   2.507   4.015
    1C        C   60   3.414   2.504   4.136
    1C        C   61   3.627   2.498   4.257
    1C        C   62   3.486   2.493   4.258
    1C        C   63   3.699   2.508   4.378
    1C        C   64   3.627   2.496   4.499
    1C        C   65   3.832   2.541   4.619
    1C        C   66   3.698   2.496   4.620
    1C        C   67   3.903   2.559   4.740
    1C        C   68   3.839   2.524   4.861
    1C        C   69   4.046   2.588   4.975
    1C        C   70   3.920   2.525   4.975
    1C        C   71   2.823   2.734   2.309
    1C        C   72   2.886   2.696   2.430
    1C        C   73   2.836   2.750   2.550
    1C        C   74   3.010   2.628   2.672
    1C        C   75   2.894   2.708   2.672
    1C        C   76   3.070   2.590   2.794
    1C        C   77   3.006   2.626   2.915
    1C        C   78   3.204   2.543   3.035
    1C        C   79   3.075   2.600   3.035
    1C        C   80   3.272   2.532   3.158
    1C        C   81   3.209   2.552   3.282
    1C        C   82   3.415   2.507   3.402
    1C        C   83   3.276   2.528   3.405
    1C        C   84   3.483   2.497   3.525
    1C        C   85   3.412   2.506   3.647
    1C        C   86   3.624   2.505   3.768
    1C        C   87   3.482   2.507   3.770
    1C        C   88   3.695   2.509   3.890
    1C        C   89   3.627   2.505   4.014
    1C        C   90   3.835   2.549   4.135
    1C        C   91   3.698   2.515   4.136
    1C        C   92   3.902   2.570   4.257
    1C        C   93   3.835   2.546   4.379
    1C        C   94   4.030   2.632   4.498
    1C        C   95   3.903   2.569   4.500
    1C        C   96   4.090   2.670   4.620
    1C        C   97   4.029   2.624   4.739
    1C        C   98   4.189   2.764   4.860
    1C        C   99   4.100   2.652   4.859
    1C        C  100   4.210   2.841   4.975
    1C        C  101   2.813   2.723   2.071
    1C        C  102   2.987   2.590   2.190
    1C        C  103   2.872   2.675   2.189
    1C        C  104   3.062   2.572   2.309
    1C        C  105   3.003   2.616   2.430
    1C        C  106   3.201   2.534   2.548
    1C        C  107   3.070   2.588   2.551
    1C        C  108   3.269   2.518   2.671
    1C        C  109   3.200   2.535   2.793
    1C        C  110   3.411   2.495   2.912
    1C        C  111   3.271   2.513   2.913
    1C        C  112   3.482   2.495   3.034
    1C        C  113   3.411   2.505   3.156
    1C        C  114   3.623   2.496   3.279
    1C        C  115   3.482   2.494   3.278
    1C        C  116   3.694   2.509   3.401
    1C        C  117   3.624   2.503   3.524
    1C        C  118   3.832   2.541   3.643
    1C        C  119   3.694   2.510   3.646
    1C        C  120   3.895   2.568   3.767
    1C        C  121   3.832   2.543   3.890
    1C        C  122   4.027   2.633   4.011
    1C        C  123   3.900   2.570   4.011
    1C        C  124   4.089   2.668   4.133
    1C        C  125   4.030   2.631   4.256
    1C        C  126   4.195   2.766   4.377
    1C        C  127   4.092   2.670   4.377
    1C        C  128   4.243   2.820   4.498
    1C        C  129   4.190   2.770   4.619
    1C        C  130   4.322   2.938   4.740
    1C        C  131   4.243   2.819   4.741
    1C        C  132   4.352   3.006   4.860
    1C        C  133   4.279   2.962   4.971
    1C        C  134   3.169   2.469   2.080
    1C        C  135   3.035   2.511   2.080
    1C        C  136   3.257   2.474   2.188
    1C        C  137   3.193   2.518   2.306
    1C        C  138   3.405   2.473   2.427
    1C        C  139   3.268   2.509   2.426
    1C        C  140   3.480   2.480   2.546
    1C        C  141   3.408   2.496   2.667
    1C        C  142   3.621   2.495   2.789
    1C        C  143   3.480   2.493   2.789
    1C        C  144   3.691   2.507   2.912
    1C        C  145   3.623   2.495   3.035
    1C        C  146   3.831   2.530   3.154
    1C        C  147   3.694   2.496   3.157
    1C        C  148   3.898   2.559   3.275
    1C        C  149   3.832   2.539   3.397
    1C        C  150   4.026   2.623   3.522
    1C        C  151   3.896   2.568   3.520
    1C        C  152   4.085   2.662   3.644
    1C        C  153   4.021   2.633   3.767
    1C        C  154   4.196   2.757   3.888
    1C        C  155   4.083   2.672   3.888
    1C        C  156   4.243   2.812   4.009
    1C        C  157   4.197   2.759   4.132
    1C        C  158   4.338   2.919   4.250
    1C        C  159   4.250   2.809   4.254
    1C        C  160   4.373   2.985   4.370
    1C        C  161   4.330   2.931   4.493
    1C        C  162   4.437   3.113   4.614
    1C        C  163   4.362   2.993   4.616
    1C        C  164   4.465   3.183   4.733
    1C        C  165   4.432   3.123   4.856
    1C        C  166   4.515   3.320   4.971
    1C        C  167   4.477   3.186   4.972
    1C        C  168   3.475   2.426   2.072
    1C        C  169   3.396   2.449   2.186
    1C        C  170   3.615   2.462   2.306
    1C        C  171   3.473   2.455   2.304
    1C        C  172   3.690   2.486   2.423
    1C        C  173   3.621   2.488   2.546
    1C        C  174   3.830   2.535   2.665
    1C        C  175   3.693   2.501   2.668
    1C        C  176   3.897   2.555   2.787
    1C        C  177   3.828   2.538   2.909
    1C        C  178   4.024   2.619   3.030
    1C        C  179   3.897   2.557   3.031
    1C        C  180   4.083   2.658   3.152
    1C        C  181   4.023   2.625   3.276
    1C        C  182   4.197   2.746   3.397
    1C        C  183   4.085   2.659   3.399
    1C        C  184   4.246   2.797   3.519
    1C        C  185   4.196   2.749   3.642
    1C        C  186   4.336   2.911   3.763
    1C        C  187   4.248   2.800   3.764
    1C        C  188   4.376   2.975   3.882
    1C        C  189   4.331   2.922   4.005
    1C        C  190   4.440   3.104   4.127
    1C        C  191   4.374   2.979   4.127
    1C        C  192   4.467   3.173   4.247
    1C        C  193   4.440   3.109   4.370
    1C        C  194   4.499   3.314   4.489
    1C        C  195   4.467   3.176   4.492
    1C        C  196   4.515   3.387   4.610
    1C        C  197   4.505   3.320   4.734
    1C        C  198   4.555   3.534   4.848
    1C        C  199   4.526   3.394   4.853
    1C        C  200   4.583   3.616   4.962
    1C        C  201   3.614   2.413   2.073
    1C        C  202   3.823   2.511   2.181
    1C        C  203   3.692   2.454   2.186
    1C        C  204   3.897   2.534   2.300
    1C        C  205   3.828   2.513   2.422
    1C        C  206   4.023   2.611   2.541
    1C        C  207   3.896   2.549   2.541
    1C        C  208   4.083   2.654   2.662
    1C        C  209   4.024   2.618   2.785
    1C        C  210   4.192   2.746   2.908
    1C        C  211   4.085   2.654   2.908
    1C        C  212   4.244   2.796   3.030
    1C        C  213   4.194   2.746   3.152
    1C        C  214   4.332   2.906   3.269
    1C        C  215   4.246   2.793   3.274
    1C        C  216   4.366   2.967   3.391
    1C        C  217   4.333   2.909   3.516
    1C        C  218   4.432   3.095   3.636
    1C        C  219   4.372   2.968   3.638
    1C        C  220   4.461   3.163   3.757
    1C        C  221   4.438   3.102   3.882
    1C        C  222   4.500   3.305   4.000
    1C        C  223   4.463   3.168   4.004
    1C        C  224   4.518   3.377   4.120
    1C        C  225   4.504   3.309   4.243
    1C        C  226   4.521   3.521   4.364
    1C        C  227   4.510   3.380   4.365
    1C        C  228   4.518   3.597   4.483
    1C        C  229   4.525   3.528   4.606
    1C        C  230   4.505   3.740   4.727
    1C        C  231   4.543   3.603   4.724
    1C        C  232   4.491   3.815   4.845
    1C        C  233   4.542   3.749   4.958
    1C        C  234   4.016   2.611   2.061
    1C        C  235   3.894   2.544   2.065
    1C        C  236   4.083   2.642   2.180
    1C        C  237   4.025   2.597   2.300
    1C        C  238   4.196   2.731   2.421
    1C        C  239   4.088   2.639   2.419
    1C        C  240   4.249   2.782   2.542
    1C        C  241   4.199   2.735   2.666
    1C        C  242   4.333   2.903   2.782
    1C        C  243   4.244   2.793   2.786
    1C        C  244   4.377   2.959   2.904
    1C        C  245   4.330   2.908   3.027
    1C        C  246   4.434   3.094   3.148
    1C        C  247   4.370   2.968   3.148
    1C        C  248   4.461   3.158   3.271
    1C        C  249   4.427   3.095   3.393
    1C        C  250   4.489   3.299   3.509
    1C        C  251   4.453   3.163   3.514
    1C        C  252   4.502   3.368   3.632
    1C        C  253   4.497   3.300   3.756
    1C        C  254   4.517   3.513   3.872
    1C        C  255   4.512   3.372   3.876
    1C        C  256   4.510   3.583   3.995
    1C        C  257   4.516   3.519   4.120
    1C        C  258   4.493   3.731   4.239
    1C        C  259   4.514   3.591   4.241
    1C        C  260   4.472   3.802   4.359
    1C        C  261   4.489   3.735   4.482
    1C        C  262   4.433   3.940   4.601
    1C        C  263   4.478   3.806   4.604
    1C        C  264   4.401   4.009   4.720
    1C        C  265   4.432   3.943   4.841
    1C        C  266   4.319   4.132   4.957
    1C        C  267   4.392   4.014   4.955
    1C        C  268   4.254   2.778   2.061
    1C        C  269   4.194   2.730   2.179
    1C        C  270   4.339   2.890   2.297
    1C        C  271   4.248   2.780   2.299
    1C        C  272   4.378   2.950   2.418
    1C        C  273   4.339   2.891   2.541
    1C        C  274   4.444   3.082   2.659
    1C        C  275   4.376   2.958   2.659
    1C        C  276   4.465   3.152   2.780
    1C        C  277   4.444   3.084   2.902
    1C        C  278   4.504   3.288   3.021
    1C        C  279   4.468   3.152   3.024
    1C        C  280   4.515   3.363   3.141
    1C        C  281   4.499   3.294   3.264
    1C        C  282   4.508   3.507   3.384
    1C        C  283   4.497   3.366   3.385
    1C        C  284   4.512   3.577   3.507
    1C        C  285   4.510   3.509   3.630
    1C        C  286   4.490   3.724   3.749
    1C        C  287   4.509   3.584   3.750
    1C        C  288   4.474   3.792   3.872
    1C        C  289   4.488   3.723   3.994
    1C        C  290   4.423   3.927   4.114
    1C        C  291   4.474   3.795   4.115
    1C        C  292   4.391   3.996   4.233
    1C        C  293   4.417   3.932   4.356
    1C        C  294   4.326   4.123   4.476
    1C        C  295   4.395   4.000   4.479
    1C        C  296   4.281   4.184   4.595
    1C        C  297   4.326   4.129   4.718
    1C        C  298   4.197   4.309   4.833
    1C        C  299   4.282   4.194   4.837
    1C        C  300   4.163   4.395   4.942
    1C        C  301   4.346   2.882   2.060
    1C        C  302   4.462   3.070   2.174
    1C        C  303   4.385   2.949   2.176
    1C        C  304   4.482   3.140   2.296
    1C        C  305   4.441   3.076   2.416
    1C        C  306   4.505   3.282   2.535
    1C        C  307   4.472   3.145   2.536
    1C        C  308   4.514   3.356   2.655
    1C        C  309   4.500   3.289   2.778
    1C        C  310   4.522   3.501   2.896
    1C        C  311   4.514   3.360   2.900
    1C        C  312   4.520   3.573   3.017
    1C        C  313   4.522   3.504   3.140
    1C        C  314   4.487   3.715   3.262
    1C        C  315   4.509   3.576   3.261
    1C        C  316   4.472   3.785   3.384
    1C        C  317   4.490   3.717   3.506
    1C        C  318   4.427   3.924   3.626
    1C        C  319   4.473   3.790   3.625
    1C        C  320   4.399   3.989   3.748
    1C        C  321   4.425   3.924   3.872
    1C        C  322   4.321   4.112   3.989
    1C        C  323   4.396   3.993   3.992
    1C        C  324   4.274   4.169   4.109
    1C        C  325   4.320   4.118   4.233
    1C        C  326   4.183   4.280   4.353
    1C        C  327   4.283   4.180   4.354
    1C        C  328   4.132   4.337   4.471
    1C        C  329   4.185   4.287   4.592
    1C        C  330   4.017   4.426   4.710
    1C        C  331   4.135   4.346   4.711
    1C        C  332   3.964   4.486   4.826
    1C        C  333   4.045   4.470   4.939
    1C        C  334   4.545   3.263   2.061
    1C        C  335   4.528   3.124   2.059
    1C        C  336   4.535   3.348   2.172
    1C        C  337   4.516   3.278   2.293
    1C        C  338   4.518   3.493   2.407
    1C        C  339   4.523   3.352   2.413
    1C        C  340   4.515   3.565   2.529
    1C        C  341   4.518   3.497   2.653
    1C        C  342   4.491   3.710   2.769
    1C        C  343   4.515   3.571   2.773
    1C        C  344   4.477   3.780   2.891
    1C        C  345   4.488   3.711   3.014
    1C        C  346   4.415   3.909   3.134
    1C        C  347   4.462   3.776   3.136
    1C        C  348   4.387   3.976   3.256
    1C        C  349   4.422   3.918   3.380
    1C        C  350   4.320   4.103   3.501
    1C        C  351   4.398   3.985   3.501
    1C        C  352   4.278   4.163   3.622
    1C        C  353   4.322   4.107   3.744
    1C        C  354   4.176   4.263   3.864
    1C        C  355   4.275   4.163   3.865
    1C        C  356   4.122   4.314   3.985
    1C        C  357   4.177   4.272   4.108
    1C        C  358   4.010   4.399   4.228
    1C        C  359   4.129   4.324   4.230
    1C        C  360   3.945   4.437   4.348
    1C        C  361   4.012   4.412   4.469
    1C        C  362   3.823   4.515   4.590
    1C        C  363   3.951   4.456   4.589
    1C        C  364   3.757   4.548   4.711
    1C        C  365   3.835   4.545   4.828
    1C        C  366   3.626   4.588   4.946
    1C        C  367   3.765   4.577   4.945
    1C        C  368   4.516   3.565   2.051
    1C        C  369   4.527   3.488   2.168
    1C        C  370   4.502   3.705   2.284
    1C        C  371   4.520   3.565   2.286
    1C        C  372   4.482   3.777   2.404
    1C        C  373   4.499   3.705   2.524
    1C        C  374   4.427   3.908   2.644
    1C        C  375   4.471   3.773   2.645
    1C        C  376   4.390   3.968   2.766
    1C        C  377   4.421   3.909   2.891
    1C        C  378   4.314   4.092   3.010
    1C        C  379   4.396   3.978   3.012
    1C        C  380   4.267   4.147   3.131
    1C        C  381   4.314   4.097   3.255
    1C        C  382   4.176   4.255   3.377
    1C        C  383   4.275   4.154   3.378
    1C        C  384   4.119   4.302   3.498
    1C        C  385   4.176   4.261   3.621
    1C        C  386   4.004   4.389   3.739
    1C        C  387   4.119   4.306   3.742
    1C        C  388   3.942   4.426   3.861
    1C        C  389   4.002   4.389   3.983
    1C        C  390   3.814   4.480   4.107
    1C        C  391   3.944   4.426   4.106
    1C        C  392   3.743   4.503   4.227
    1C        C  393   3.812   4.485   4.349
    1C        C  394   3.611   4.545   4.471
    1C        C  395   3.751   4.527   4.469
    1C        C  396   3.541   4.559   4.593
    1C        C  397   3.617   4.562   4.712
    1C        C  398   3.406   4.558   4.836
    1C        C  399   3.545   4.581   4.832
    1C        C  400   3.341   4.514   4.952
    1C        C  401   4.508   3.704   2.046
    1C        C  402   4.452   3.914   2.163
    1C        C  403   4.492   3.779   2.164
    1C        C  404   4.409   3.978   2.282
    1C        C  405   4.436   3.911   2.403
    1C        C  406   4.319   4.091   2.523
    1C        C  407   4.401   3.976   2.523
    1C        C  408   4.276   4.147   2.645
    1C        C  409   4.315   4.088   2.767
    1C        C  410   4.174   4.251   2.886
    1C        C  411   4.272   4.149   2.887
    1C        C  412   4.122   4.298   3.008
    1C        C  413   4.169   4.249   3.133
    1C        C  414   3.999   4.373   3.250
    1C        C  415   4.117   4.295   3.256
    1C        C  416   3.936   4.407   3.372
    1C        C  417   4.000   4.378   3.495
    1C        C  418   3.810   4.472   3.616
    1C        C  419   3.940   4.417   3.617
    1C        C  420   3.743   4.489   3.739
    1C        C  421   3.810   4.476   3.863
    1C        C  422   3.608   4.534   3.983
    1C        C  423   3.747   4.506   3.986
    1C        C  424   3.535   4.538   4.104
    1C        C  425   3.604   4.529   4.227
    1C        C  426   3.397   4.545   4.354
    1C        C  427   3.538   4.551   4.350
    1C        C  428   3.325   4.549   4.476
    1C        C  429   3.400   4.556   4.595
    1C        C  430   3.192   4.516   4.718
    1C        C  431   3.330   4.547   4.718
    1C        C  432   3.124   4.496   4.842
    1C        C  433   3.203   4.497   4.957
    1C        C  434   4.384   4.123   2.049
    1C        C  435   4.439   3.994   2.049
    1C        C  436   4.300   4.164   2.158
    1C        C  437   4.331   4.097   2.279
    1C        C  438   4.174   4.243   2.400
    1C        C  439   4.279   4.148   2.400
    1C        C  440   4.123   4.294   2.521
    1C        C  441   4.177   4.249   2.643
    1C        C  442   4.003   4.375   2.765
    1C        C  443   4.121   4.297   2.763
    1C        C  444   3.940   4.408   2.886
    1C        C  445   4.004   4.374   3.008
    1C        C  446   3.810   4.469   3.128
    1C        C  447   3.939   4.410   3.128
    1C        C  448   3.742   4.487   3.250
    1C        C  449   3.807   4.463   3.373
    1C        C  450   3.602   4.523   3.497
    1C        C  451   3.740   4.492   3.495
    1C        C  452   3.534   4.534   3.619
    1C        C  453   3.606   4.523   3.740
    1C        C  454   3.395   4.543   3.862
    1C        C  455   3.536   4.543   3.862
    1C        C  456   3.325   4.534   3.984
    1C        C  457   3.394   4.536   4.108
    1C        C  458   3.189   4.503   4.234
    1C        C  459   3.327   4.532   4.232
    1C        C  460   3.120   4.489   4.357
    1C        C  461   3.187   4.517   4.478
    1C        C  462   2.991   4.435   4.604
    1C        C  463   3.119   4.494   4.599
    1C        C  464   2.930   4.399   4.727
    1C        C  465   2.992   4.440   4.848
    1C        C  466   2.799   4.336   4.961
    1C        C  467   2.911   4.421   4.965
    1C        C  468   4.118   4.283   2.041
    1C        C  469   4.187   4.252   2.159
    1C        C  470   4.001   4.368   2.276
    1C        C  471   4.122   4.293   2.278
    1C        C  472   3.938   4.396   2.399
    1C        C  473   4.003   4.369   2.522
    1C        C  474   3.811   4.465   2.641
    1C        C  475   3.940   4.408   2.642
    1C        C  476   3.741   4.484   2.762
    1C        C  477   3.807   4.457   2.884
    1C        C  478   3.602   4.511   3.009
    1C        C  479   3.740   4.481   3.006
    1C        C  480   3.531   4.526   3.131
    1C        C  481   3.603   4.517   3.252
    1C        C  482   3.391   4.526   3.375
    1C        C  483   3.533   4.528   3.374
    1C        C  484   3.320   4.529   3.497
    1C        C  485   3.392   4.538   3.618
    1C        C  486   3.187   4.497   3.744
    1C        C  487   3.322   4.536   3.741
    1C        C  488   3.124   4.474   3.868
    1C        C  489   3.189   4.498   3.991
    1C        C  490   2.991   4.423   4.115
    1C        C  491   3.122   4.476   4.113
    1C        C  492   2.931   4.389   4.238
    1C        C  493   2.994   4.424   4.359
    1C        C  494   2.826   4.299   4.483
    1C        C  495   2.935   4.389   4.483
    1C        C  496   2.772   4.254   4.606
    1C        C  497   2.819   4.311   4.726
    1C        C  498   2.665   4.161   4.846
    1C        C  499   2.756   4.270   4.845
    1C        C  500   2.592   4.113   4.955
    1C        C  501   4.001   4.358   2.039
    1C        C  502   3.807   4.457   2.154
    1C        C  503   3.937   4.403   2.156
    1C        C  504   3.740   4.472   2.277
    1C        C  505   3.808   4.452   2.399
    1C        C  506   3.601   4.507   2.521
    1C        C  507   3.739   4.477   2.520
    1C        C  508   3.530   4.517   2.642
    1C        C  509   3.602   4.511   2.763
    1C        C  510   3.392   4.528   2.887
    1C        C  511   3.533   4.520   2.886
    1C        C  512   3.318   4.522   3.008
    1C        C  513   3.390   4.531   3.129
    1C        C  514   3.182   4.494   3.254
    1C        C  515   3.321   4.522   3.252
    1C        C  516   3.117   4.465   3.376
    1C        C  517   3.183   4.495   3.498
    1C        C  518   2.993   4.410   3.625
    1C        C  519   3.118   4.475   3.622
    1C        C  520   2.936   4.374   3.749
    1C        C  521   3.000   4.407   3.870
    1C        C  522   2.830   4.284   3.993
    1C        C  523   2.934   4.380   3.993
    1C        C  524   2.782   4.238   4.118
    1C        C  525   2.828   4.292   4.240
    1C        C  526   2.698   4.128   4.364
    1C        C  527   2.775   4.246   4.363
    1C        C  528   2.660   4.072   4.488
    1C        C  529   2.687   4.141   4.608
    1C        C  530   2.589   3.953   4.731
    1C        C  531   2.645   4.084   4.730
    1C        C  532   2.545   3.896   4.853
    1C        C  533   2.523   3.991   4.958
    1C        C  534   3.612   4.561   2.040
    1C        C  535   3.740   4.505   2.040
    1C        C  536   3.532   4.531   2.156
    1C        C  537   3.601   4.500   2.276
    1C        C  538   3.389   4.509   2.399
    1C        C  539   3.531   4.508   2.399
    1C        C  540   3.318   4.507   2.521
    1C        C  541   3.388   4.516   2.643
    1C        C  542   3.182   4.486   2.766
    1C        C  543   3.320   4.514   2.766
    1C        C  544   3.115   4.462   2.888
    1C        C  545   3.182   4.484   3.010
    1C        C  546   2.988   4.406   3.134
    1C        C  547   3.114   4.470   3.133
    1C        C  548   2.933   4.365   3.258
    1C        C  549   2.989   4.406   3.381
    1C        C  550   2.823   4.280   3.502
    1C        C  551   2.929   4.372   3.504
    1C        C  552   2.776   4.232   3.627
    1C        C  553   2.828   4.283   3.748
    1C        C  554   2.697   4.118   3.874
    1C        C  555   2.783   4.230   3.871
    1C        C  556   2.656   4.063   3.997
    1C        C  557   2.695   4.127   4.117
    1C        C  558   2.607   3.938   4.244
    1C        C  559   2.663   4.067   4.241
    1C        C  560   2.571   3.878   4.366
    1C        C  561   2.594   3.947   4.487
    1C        C  562   2.530   3.747   4.611
    1C        C  563   2.566   3.883   4.610
    1C        C  564   2.516   3.678   4.734
    1C        C  565   2.527   3.754   4.854
    1C        C  566   2.522   3.543   4.975
    1C        C  567   2.532   3.682   4.975
    1C        C  568   3.324   4.477   2.039
    1C        C  569   3.391   4.513   2.157
    1C        C  570   3.178   4.482   2.277
    1C        C  571   3.317   4.510   2.278
    1C        C  572   3.110   4.464   2.399
    1C        C  573   3.179   4.481   2.521
    1C        C  574   2.986   4.403   2.646
    1C        C  575   3.112   4.467   2.645
    1C        C  576   2.927   4.362   2.768
    1C        C  577   2.993   4.391   2.890
    1C        C  578   2.825   4.268   3.014
    1C        C  579   2.931   4.362   3.013
    1C        C  580   2.770   4.225   3.137
    1C        C  581   2.826   4.273   3.257
    1C        C  582   2.696   4.109   3.385
    1C        C  583   2.778   4.224   3.380
    1C        C  584   2.661   4.051   3.509
    1C        C  585   2.693   4.118   3.629
    1C        C  586   2.594   3.932   3.754
    1C        C  587   2.658   4.058   3.752
    1C        C  588   2.572   3.868   3.878
    1C        C  589   2.602   3.933   4.000
    1C        C  590   2.545   3.731   4.126
    1C        C  591   2.585   3.867   4.124
    1C        C  592   2.531   3.665   4.250
    1C        C  593   2.536   3.741   4.369
    1C        C  594   2.517   3.531   4.495
    1C        C  595   2.519   3.673   4.492
    1C        C  596   2.516   3.461   4.618
    1C        C  597   2.513   3.536   4.738
    1C        C  598   2.529   3.324   4.859
    1C        C  599   2.520   3.464   4.859
    1C        C  600   2.522   3.242   4.973
    1C        C  601   3.194   4.432   2.042
    1C        C  602   2.979   4.390   2.158
    1C        C  603   3.114   4.437   2.158
    1C        C  604   2.921   4.359   2.284
    1C        C  605   2.983   4.402   2.403
    1C        C  606   2.819   4.269   2.526
    1C        C  607   2.926   4.361   2.525
    1C        C  608   2.768   4.218   2.648
    1C        C  609   2.821   4.269   2.769
    1C        C  610   2.688   4.105   2.893
    1C        C  611   2.775   4.217   2.892
    1C        C  612   2.653   4.047   3.017
    1C        C  613   2.689   4.109   3.139
    1C        C  614   2.593   3.923   3.262
    1C        C  615   2.656   4.050   3.263
    1C        C  616   2.567   3.862   3.387
    1C        C  617   2.599   3.924   3.510
    1C        C  618   2.533   3.725   3.633
    1C        C  619   2.569   3.862   3.633
    1C        C  620   2.522   3.662   3.759
    1C        C  621   2.533   3.732   3.880
    1C        C  622   2.509   3.524   4.007
    1C        C  623   2.521   3.664   4.004
    1C        C  624   2.513   3.453   4.130
    1C        C  625   2.514   3.525   4.252
    1C        C  626   2.535   3.317   4.378
    1C        C  627   2.514   3.456   4.376
    1C        C  628   2.552   3.247   4.500
    1C        C  629   2.538   3.322   4.618
    1C        C  630   2.585   3.113   4.742
    1C        C  631   2.547   3.250   4.740
    1C        C  632   2.612   3.044   4.863
    1C        C  633   2.560   3.107   4.980
    1C        C  634   2.780   4.306   2.058
    1C        C  635   2.890   4.392   2.046
    1C        C  636   2.748   4.227   2.169
    1C        C  637   2.809   4.271   2.288
    1C        C  638   2.678   4.101   2.407
    1C        C  639   2.761   4.216   2.409
    1C        C  640   2.644   4.042   2.530
    1C        C  641   2.685   4.104   2.650
    1C        C  642   2.579   3.920   2.773
    1C        C  643   2.646   4.045   2.772
    1C        C  644   2.560   3.854   2.896
    1C        C  645   2.591   3.920   3.017
    1C        C  646   2.525   3.721   3.142
    1C        C  647   2.565   3.856   3.140
    1C        C  648   2.512   3.654   3.266
    1C        C  649   2.527   3.727   3.386
    1C        C  650   2.506   3.518   3.517
    1C        C  651   2.517   3.658   3.510
    1C        C  652   2.514   3.448   3.640
    1C        C  653   2.513   3.521   3.762
    1C        C  654   2.527   3.312   3.887
    1C        C  655   2.508   3.452   3.885
    1C        C  656   2.551   3.248   4.010
    1C        C  657   2.534   3.314   4.134
    1C        C  658   2.602   3.114   4.259
    1C        C  659   2.551   3.246   4.257
    1C        C  660   2.629   3.047   4.380
    1C        C  661   2.599   3.113   4.501
    1C        C  662   2.703   2.931   4.622
    1C        C  663   2.623   3.047   4.623
    1C        C  664   2.747   2.874   4.744
    1C        C  665   2.695   2.927   4.866
    1C        C  666   2.744   2.871   4.985
    1C        C  667   2.676   4.020   2.051
    1C        C  668   2.679   4.103   2.164
    1C        C  669   2.586   3.910   2.289
    1C        C  670   2.639   4.042   2.285
    1C        C  671   2.560   3.844   2.411
    1C        C  672   2.581   3.915   2.532
    1C        C  673   2.509   3.716   2.656
    1C        C  674   2.546   3.853   2.654
    1C        C  675   2.501   3.646   2.778
    1C        C  676   2.520   3.718   2.898
    1C        C  677   2.496   3.509   3.028
    1C        C  678   2.509   3.649   3.021
    1C        C  679   2.499   3.440   3.151
    1C        C  680   2.497   3.514   3.272
    1C        C  681   2.527   3.306   3.396
    1C        C  682   2.508   3.446   3.395
    1C        C  683   2.544   3.239   3.519
    1C        C  684   2.533   3.308   3.642
    1C        C  685   2.599   3.111   3.767
    1C        C  686   2.549   3.243   3.766
    1C        C  687   2.635   3.053   3.891
    1C        C  688   2.610   3.119   4.013
    1C        C  689   2.709   2.933   4.138
    1C        C  690   2.635   3.053   4.136
    1C        C  691   2.753   2.872   4.257
    1C        C  692   2.709   2.931   4.378
    1C        C  693   2.750   2.874   4.501
    1C        C  694   2.626   3.889   2.055
    1C        C  695   2.525   3.699   2.171
    1C        C  696   2.578   3.830   2.173
    1C        C  697   2.507   3.636   2.296
    1C        C  698   2.519   3.709   2.416
    1C        C  699   2.487   3.499   2.539
    1C        C  700   2.496   3.640   2.537
    1C        C  701   2.499   3.433   2.664
    1C        C  702   2.491   3.505   2.786
    1C        C  703   2.513   3.294   2.911
    1C        C  704   2.495   3.434   2.908
    1C        C  705   2.528   3.225   3.033
    1C        C  706   2.519   3.300   3.153
    1C        C  707   2.577   3.096   3.276
    1C        C  708   2.541   3.233   3.276
    1C        C  709   2.620   3.041   3.399
    1C        C  710   2.594   3.107   3.522
    1C        C  711   2.706   2.929   3.646
    1C        C  712   2.627   3.046   3.645
    1C        C  713   2.750   2.875   3.770
    1C        C  714   2.711   2.934   3.892
    1C        C  715   2.751   2.877   4.015
    1C        C  716   2.441   3.496   2.063
    1C        C  717   2.485   3.628   2.056
    1C        C  718   2.464   3.418   2.181
    1C        C  719   2.484   3.496   2.298
    1C        C  720   2.509   3.285   2.422
    1C        C  721   2.483   3.424   2.420
    1C        C  722   2.535   3.220   2.545
    1C        C  723   2.526   3.295   2.664
    1C        C  724   2.591   3.098   2.790
    1C        C  725   2.539   3.229   2.789
    1C        C  726   2.622   3.033   2.912
    1C        C  727   2.586   3.095   3.033
    1C        C  728   2.699   2.919   3.156
    1C        C  729   2.612   3.030   3.156
    1C        C  730   2.748   2.871   3.280
    1C        C  731   2.707   2.929   3.402
    1C        C  732   2.752   2.875   3.524
    1C        C  733   2.491   3.194   2.068
    1C        C  734   2.486   3.277   2.181
    1C        C  735   2.576   3.080   2.301
    1C        C  736   2.525   3.212   2.302
    1C        C  737   2.608   3.019   2.424
    1C        C  738   2.586   3.088   2.545
    1C        C  739   2.699   2.912   2.670
    1C        C  740   2.624   3.032   2.669
    1C        C  741   2.743   2.857   2.792
    1C        C  742   2.696   2.913   2.913
    1C        C  743   2.744   2.861   3.036
    1C        C  744   2.542   3.065   2.068
    1C        C  745   2.682   2.892   2.184
    1C        C  746   2.602   3.008   2.182
    1C        C  747   2.728   2.839   2.307
    1C        C  748   2.686   2.901   2.427
    1C        C  749   2.740   2.853   2.549
    1C        C  750   2.728   2.832   2.066
    1C        C  751   3.664   2.327   1.964
    1C        O  752   3.723   2.218   1.987
    1C        O  753   3.666   2.353   1.826
    1C        C  754   4.593   3.055   1.946
    1C        O  755   4.586   3.107   1.831
    1C        O  756   4.707   2.975   1.961
    1C        C  757   4.460   4.226   1.975
    1C        O  758   4.576   4.254   2.015
    1C        O  759   4.440   4.210   1.837
    1C        C  760   3.587   4.660   1.933
    1C        O  761   3.659   4.762   1.918
    1C        O  762   3.524   4.631   1.811
    1C        C  763   2.881   4.503   1.948
    1C        O  764   2.935   4.493   1.835
    1C        O  765   2.797   4.613   1.970
    1C        C  766   2.331   3.469   1.967
    1C        O  767   2.358   3.436   1.849
    1C        O  768   2.211   3.537   1.987
    1C        C  769   4.707   3.602   5.043
    1C        O  770   4.715   3.520   5.138
    1C        O  771   4.786   3.714   5.069
    1C        C  772   4.282   4.461   5.001
    1C        O  773   4.310   4.447   5.123
    1C        O  774   4.324   4.583   4.947
    1C        C  775   4.135   2.552   5.087
    1C        O  776   4.196   2.443   5.070
    1C        O  777   4.106   2.564   5.224
    1C        C  778   2.913   4.504   5.087
    1C        O  779   2.847   4.611   5.081
    1C        O  780   2.945   4.450   5.212
    1C        C  781   2.461   3.026   5.055
    1C        O  782   2.353   2.995   4.999
    1C        O  783   2.462   3.021   5.194
    1C        C  784   2.396   3.991   5.033
    1C        O  785   2.300   4.069   5.007
    1C        O  786   2.416   3.986   5.171
    1C        C  787   2.952   2.417   2.002
    1C        O  788   2.948   2.421   1.876
    1C        O  789   2.864   2.330   2.067
    1C        C  790   3.166   2.367   5.054
    1C        O  791   3.163   2.245   5.022
    1C        O  792   3.196   2.377   5.190
    1C        H  793   4.289   3.015   5.063
    1C        H  794   4.200   2.795   5.071
    1C        H  795   4.478   3.134   5.066
    1C        H  796   4.500   3.373   5.063
    1C        H  797   4.553   3.807   5.048
    1C        H  798   4.421   3.975   5.050
    1C        H  799   4.264   4.154   5.047
    1C        H  800   4.030   4.544   5.015
    1C        H  801   3.815   4.633   5.022
    1C        H  802   3.587   4.631   5.036
    1C        H  803   3.397   4.446   5.013
    1C        H  804   3.158   4.535   5.047
    1C        H  805   3.869   2.527   5.069
    1C        H  806   3.671   2.439   5.071
    1C        H  807   3.007   2.564   5.068
    1C        H  808   3.430   2.467   5.068
    1C        H  809   2.898   2.762   5.071
    1C        H  810   2.683   2.877   5.073
    1C        H  811   2.484   3.286   5.063
    1C        H  812   2.536   3.490   5.067
    1C        H  813   2.475   3.729   5.052
    1C        H  814   2.591   4.168   5.047
    1C        H  815   2.768   4.295   5.055
    1C        H  816   2.743   2.891   1.978
    1C        H  817   2.811   2.657   1.987
    1C        H  818   3.193   2.399   2.002
    1C        H  819   3.430   2.440   1.975
    1C        H  820   3.846   2.529   1.971
    1C        H  821   4.048   2.648   1.966
    1C        H  822   4.226   2.734   1.968
    1C        H  823   4.408   2.894   1.973
    1C        H  824   4.614   3.306   1.991
    1C        H  825   4.493   3.514   1.960
    1C        H  826   4.479   3.749   1.954
    1C        H  827   3.796   4.522   1.951
    1C        H  828   3.984   4.421   1.954
    1C        H  829   4.143   4.235   1.948
    1C        H  830   4.491   3.961   1.961
    1C        H  831   2.620   3.838   1.962
    1C        H  832   2.753   4.035   1.979
    1C        H  833   2.695   4.335   2.001
    1C        H  834   3.366   4.509   1.946
    1C        H  835   3.157   4.396   1.948
    1C        H  836   2.531   3.012   1.976
    1C        H  837   2.442   3.220   1.976
    1C        H  838   2.491   3.674   1.960
    2V3OU   H29  839   2.812   3.545   2.735
    2V3OU   C27  840   2.792   3.500   2.835
    2V3OU   H27  841   2.729   3.566   2.901
    2V3OU   H28  842   2.734   3.405   2.820
    2V3OU   O11  843   2.909   3.479   2.915
    2V3OU   C15  844   2.921   3.395   3.024
    2V3OU   C13  845   3.048   3.372   3.081
    2V3OU   C14  846   3.074   3.269   3.171
    2V3OU   C16  847   2.972   3.187   3.220
    2V3OU    H6  848   2.990   3.098   3.282
    2V3OU   C12  849   3.211   3.221   3.202
    2V3OU    O2  850   3.231   3.124   3.278
    2V3OU   C10  851   3.322   3.302   3.150
    2V3OU    C8  852   3.456   3.270   3.173
    2V3OU   O10  853   3.487   3.152   3.233
    2V3OU   H26  854   3.402   3.115   3.261
    2V3OU    C6  855   3.564   3.346   3.118
    2V3OU    C5  856   3.540   3.463   3.048
    2V3OU    C4  857   3.702   3.292   3.134
    2V3OU    H4  858   3.720   3.228   3.226
    2V3OU    H5  859   3.712   3.219   3.049
    2V3OU    C2  860   3.816   3.393   3.121
    2V3OU    O6  861   3.807   3.466   3.244
    2V3OU   H21  862   3.759   3.549   3.226
    2V3OU    C3  863   3.782   3.491   3.008
    2V3OU    H2  864   3.862   3.568   3.002
    2V3OU    H3  865   3.779   3.436   2.910
    2V3OU   C25  866   3.952   3.324   3.105
    2V3OU    O7  867   4.002   3.296   2.996
    2V3OU   C26  868   4.031   3.289   3.230
    2V3OU   H22  869   4.064   3.382   3.282
    2V3OU   H23  870   4.120   3.227   3.202
    2V3OU    O8  871   3.962   3.209   3.324
    2V3OU   H24  872   3.916   3.265   3.388
    2V3OU    C1  873   3.649   3.563   3.020
    2V3OU    H1  874   3.626   3.615   2.923
    2V3OU    O3  875   3.654   3.652   3.132
    2V3OU   C19  876   3.615   3.789   3.131
    2V3OU    H9  877   3.521   3.804   3.069
    2V3OU    O4  878   3.710   3.853   3.049
    2V3OU   C20  879   3.842   3.878   3.097
    2V3OU   H10  880   3.885   3.775   3.111
    2V3OU   C24  881   3.606   3.854   3.270
    2V3OU   H16  882   3.536   3.795   3.334
    2V3OU   H17  883   3.563   3.957   3.260
    2V3OU   C23  884   3.746   3.871   3.330
    2V3OU   H15  885   3.785   3.767   3.352
    2V3OU    N1  886   3.731   3.955   3.447
    2V3OU   H19  887   3.803   3.931   3.512
    2V3OU   H20  888   3.641   3.930   3.484
    2V3OU   C21  889   3.846   3.943   3.235
    2V3OU   H11  890   3.944   3.924   3.288
    2V3OU    O5  891   3.829   4.084   3.227
    2V3OU   H18  892   3.784   4.107   3.310
    2V3OU   C22  893   3.910   3.950   2.981
    2V3OU   H12  894   3.859   4.046   2.955
    2V3OU   H13  895   3.903   3.889   2.887
    2V3OU   H14  896   4.021   3.958   2.998
    2V3OU   C11  897   3.160   3.465   3.058
    2V3OU    O1  898   3.136   3.581   3.020
    2V3OU    C9  899   3.300   3.419   3.072
    2V3OU    C7  900   3.403   3.499   3.026
    2V3OU    O9  901   3.387   3.610   2.946
    2V3OU   H25  902   3.291   3.621   2.935
    2V3OU   C17  903   2.818   3.308   3.065
    2V3OU    H7  904   2.723   3.346   3.028
    2V3OU   C18  905   2.849   3.213   3.161
    2V3OU    H8  906   2.781   3.162   3.231
    3SOL     OW  907   2.350   5.301   6.509
    3SOL    HW1  908   2.323   5.217   6.557
    3SOL    HW2  909   2.418   5.279   6.439
    4SOL     OW  910   6.677   0.697   2.081
    4SOL    HW1  911   6.666   0.674   2.177
    4SOL    HW2  912   6.655   0.618   2.025
    5SOL     OW  913   4.211   2.210   2.417
    5SOL    HW1  914   4.139   2.152   2.379
    5SOL    HW2  915   4.283   2.223   2.348
    6SOL     OW  916   4.421   1.754   1.377
    6SOL    HW1  917   4.402   1.851   1.392
    6SOL    HW2  918   4.446   1.712   1.465
    7SOL     OW  919   0.633   3.636   3.856
    7SOL    HW1  920   0.537   3.616   3.840
    7SOL    HW2  921   0.650   3.641   3.955
    8SOL     OW  922   2.931   1.493   5.704
    8SOL    HW1  923   2.951   1.541   5.619
    8SOL    HW2  924   2.950   1.395   5.693
    9SOL     OW  925   4.794   1.627   5.851
    9SOL    HW1  926   4.781   1.685   5.771
    9SOL    HW2  927   4.706   1.606   5.892
   10SOL     OW  928   2.219   5.092   4.946
   10SOL    HW1  929   2.148   5.161   4.958
   10SOL    HW2  930   2.218   5.058   4.852
   11SOL     OW  931   2.654   1.202   5.535
   11SOL    HW1  932   2.639   1.207   5.437
   11SOL    HW2  933   2.727   1.136   5.554
   12SOL     OW  934   2.797   5.231   3.490
   12SOL    HW1  935   2.805   5.173   3.408
   12SOL    HW2  936   2.841   5.319   3.473
   13SOL     OW  937   3.531   6.544   4.214
   13SOL    HW1  938   3.616   6.572   4.260
   13SOL    HW2  939   3.466   6.512   4.281
   14SOL     OW  940   3.530   5.070   6.445
   14SOL    HW1  941   3.576   5.014   6.376
   14SOL    HW2  942   3.590   5.144   6.475
   15SOL     OW  943   0.775   6.689   1.082
   15SOL    HW1  944   0.747   6.595   1.105
   15SOL    HW2  945   0.872   6.689   1.059
   16SOL     OW  946   5.829   2.873   6.075
   16SOL    HW1  947   5.767   2.835   6.144
   16SOL    HW2  948   5.866   2.960   6.107
   17SOL     OW  949   5.804   5.086   6.628
   17SOL    HW1  950   5.711   5.104   6.659
   17SOL    HW2  951   5.869   5.133   6.689
   18SOL     OW  952   2.975   1.377   5.292
   18SOL    HW1  953   2.985   1.380   5.193
   18SOL    HW2  954   2.948   1.466   5.327
   19SOL     OW  955   0.154   1.581   2.876
   19SOL    HW1  956   0.217   1.512   2.914
   19SOL    HW2  957   0.200   1.630   2.802
   20SOL     OW  958   4.609   1.726   4.487
   20SOL    HW1  959   4.571   1.818   4.501
   20SOL    HW2  960   4.659   1.698   4.569
   21SOL     OW  961   3.396   0.731   2.002
   21SOL    HW1  962   3.395   0.782   2.087
   21SOL    HW2  963   3.347   0.645   2.014
   22SOL     OW  964   1.458   6.333   6.789
   22SOL    HW1  965   1.361   6.351   6.771
   22SOL    HW2  966   1.488   6.254   6.736
   23SOL     OW  967   4.853   5.292   2.398
   23SOL    HW1  968   4.804   5.273   2.482
   23SOL    HW2  969   4.939   5.339   2.419
   24SOL     OW  970   3.343   0.535   2.690
   24SOL    HW1  971   3.438   0.513   2.711
   24SOL    HW2  972   3.325   0.630   2.714
   25SOL     OW  973   3.557   6.885   3.612
   25SOL    HW1  974   3.550   6.796   3.567
   25SOL    HW2  975   3.648   6.895   3.653
   26SOL     OW  976   6.834   1.152   0.625
   26SOL    HW1  977   6.783   1.217   0.682
   26SOL    HW2  978   6.906   1.200   0.575
   27SOL     OW  979   2.321   1.043   2.070
   27SOL    HW1  980   2.229   1.064   2.038
   27SOL    HW2  981   2.328   1.068   2.167
   28SOL     OW  982   1.803   0.100   5.018
   28SOL    HW1  983   1.788   0.030   4.948
   28SOL    HW2  984   1.725   0.163   5.019
   29SOL     OW  985   6.071   1.783   1.740
   29SOL    HW1  986   6.061   1.747   1.647
   29SOL    HW2  987   6.168   1.786   1.764
   30SOL     OW  988   4.426   0.604   3.352
   30SOL    HW1  989   4.476   0.629   3.435
   30SOL    HW2  990   4.384   0.686   3.313
   31SOL     OW  991   0.477   2.465   6.559
   31SOL    HW1  992   0.484   2.564   6.547
   31SOL    HW2  993   0.549   2.420   6.507
   32SOL     OW  994   0.321   1.684   3.115
   32SOL    HW1  995   0.316   1.585   3.102
   32SOL    HW2  996   0.386   1.723   3.050
   33SOL     OW  997   1.067   4.318   4.955
   33SOL    HW1  998   1.074   4.398   5.015
   33SOL    HW2  999   1.088   4.345   4.861
   34SOL     OW 1000   2.736   6.674   4.946
   34SOL    HW1 1001   2.768   6.625   5.027
   34SOL    HW2 1002   2.689   6.758   4.973
   35SOL     OW 1003   4.789   3.038   5.996
   35SOL    HW1 1004   4.847   3.040   5.915
   35SOL    HW2 1005   4.845   3.013   6.075
   36SOL     OW 1006   4.891   1.942   4.575
   36SOL    HW1 1007   4.926   2.035   4.584
   36SOL    HW2 1008   4.834   1.935   4.494
   37SOL     OW 1009   1.374   1.498   5.557
   37SOL    HW1 1010   1.328   1.503   5.646
   37SOL    HW2 1011   1.446   1.567   5.553
   38SOL     OW 1012   0.616   5.553   2.712
   38SOL    HW1 1013   0.656   5.557   2.621
   38SOL    HW2 1014   0.689   5.545   2.780
   39SOL     OW 1015   6.203   4.350   6.191
   39SOL    HW1 1016   6.155   4.376   6.275
   39SOL    HW2 1017   6.190   4.421   6.122
   40SOL     OW 1018   4.590   1.991   0.745
   40SOL    HW1 1019   4.660   1.982   0.816
   40SOL    HW2 1020   4.591   2.083   0.707
   41SOL     OW 1021   6.627   4.269   3.814
   41SOL    HW1 1022   6.539   4.308   3.785
   41SOL    HW2 1023   6.695   4.282   3.742
   42SOL     OW 1024   3.273   5.404   3.927
   42SOL    HW1 1025   3.178   5.427   3.904
   42SOL    HW2 1026   3.283   5.304   3.926
   43SOL     OW 1027   4.957   6.925   5.664
   43SOL    HW1 1028   5.037   6.874   5.634
   43SOL    HW2 1029   4.897   6.942   5.585
   44SOL     OW 1030   4.726   2.304   5.996
   44SOL    HW1 1031   4.770   2.373   5.939
   44SOL    HW2 1032   4.648   2.345   6.043
   45SOL     OW 1033   4.688   4.901   1.207
   45SOL    HW1 1034   4.760   4.839   1.237
   45SOL    HW2 1035   4.616   4.904   1.276
   46SOL     OW 1036   0.620   2.883   3.786
   46SOL    HW1 1037   0.689   2.903   3.716
   46SOL    HW2 1038   0.664   2.874   3.875
   47SOL     OW 1039   4.480   4.142   0.935
   47SOL    HW1 1040   4.426   4.111   0.857
   47SOL    HW2 1041   4.459   4.238   0.954
   48SOL     OW 1042   6.675   2.625   5.950
   48SOL    HW1 1043   6.622   2.691   5.897
   48SOL    HW2 1044   6.649   2.630   6.046
   49SOL     OW 1045   5.735   3.439   2.505
   49SOL    HW1 1046   5.719   3.483   2.417
   49SOL    HW2 1047   5.811   3.374   2.496
   50SOL     OW 1048   5.370   0.996   4.973
   50SOL    HW1 1049   5.419   0.942   5.040
   50SOL    HW2 1050   5.350   1.087   5.010
   51SOL     OW 1051   2.414   6.605   3.238
   51SOL    HW1 1052   2.361   6.531   3.196
   51SOL    HW2 1053   2.451   6.664   3.166
   52SOL     OW 1054   6.160   2.868   2.366
   52SOL    HW1 1055   6.213   2.875   2.281
   52SOL    HW2 1056   6.192   2.789   2.419
   53SOL     OW 1057   4.352   1.172   3.686
   53SOL    HW1 1058   4.432   1.134   3.732
   53SOL    HW2 1059   4.361   1.271   3.679
   54SOL     OW 1060   5.085   5.246   0.935
   54SOL    HW1 1061   5.015   5.183   0.968
   54SOL    HW2 1062   5.161   5.247   1.000
   55SOL     OW 1063   2.030   2.653   5.684
   55SOL    HW1 1064   2.117   2.672   5.730
   55SOL    HW2 1065   1.988   2.573   5.727
   56SOL     OW 1066   0.217   0.678   1.497
   56SOL    HW1 1067   0.255   0.712   1.411
   56SOL    HW2 1068   0.265   0.722   1.573
   57SOL     OW 1069   4.349   1.010   1.192
   57SOL    HW1 1070   4.373   0.953   1.113
   57SOL    HW2 1071   4.395   1.098   1.184
   58SOL     OW 1072   1.173   0.143   5.030
   58SOL    HW1 1073   1.126   0.221   4.988
   58SOL    HW2 1074   1.260   0.128   4.984
   59SOL     OW 1075   0.022   2.622   6.341
   59SOL    HW1 1076   6.944   2.619   6.366
   59SOL    HW2 1077   0.031   2.603   6.243
   60SOL     OW 1078   5.238   2.677   4.523
   60SOL    HW1 1079   5.299   2.738   4.473
   60SOL    HW2 1080   5.149   2.721   4.537
   61SOL     OW 1081   6.518   1.972   4.166
   61SOL    HW1 1082   6.580   2.006   4.096
   61SOL    HW2 1083   6.560   1.895   4.214
   62SOL     OW 1084   2.096   0.826   1.918
   62SOL    HW1 1085   2.085   0.924   1.935
   62SOL    HW2 1086   2.012   0.790   1.879
   63SOL     OW 1087   4.860   0.612   4.398
   63SOL    HW1 1088   4.762   0.594   4.409
   63SOL    HW2 1089   4.911   0.530   4.424
   64SOL     OW 1090   0.141   2.885   5.745
   64SOL    HW1 1091   0.110   2.921   5.657
   64SOL    HW2 1092   0.195   2.802   5.730
   65SOL     OW 1093   0.819   4.466   6.546
   65SOL    HW1 1094   0.861   4.412   6.473
   65SOL    HW2 1095   0.728   4.497   6.516
   66SOL     OW 1096   3.490   0.752   3.825
   66SOL    HW1 1097   3.443   0.729   3.910
   66SOL    HW2 1098   3.424   0.786   3.758
   67SOL     OW 1099   6.682   2.370   5.795
   67SOL    HW1 1100   6.721   2.283   5.825
   67SOL    HW2 1101   6.691   2.437   5.868
   68SOL     OW 1102   0.261   1.485   6.935
   68SOL    HW1 1103   0.351   1.523   6.955
   68SOL    HW2 1104   0.192   1.557   6.940
   69SOL     OW 1105   1.054   2.854   5.984
   69SOL    HW1 1106   1.097   2.934   5.943
   69SOL    HW2 1107   1.022   2.793   5.912
   70SOL     OW 1108   4.961   4.527   4.225
   70SOL    HW1 1109   4.969   4.428   4.233
   70SOL    HW2 1110   4.990   4.555   4.133
   71SOL     OW 1111   4.278   2.144   3.602
   71SOL    HW1 1112   4.322   2.076   3.543
   71SOL    HW2 1113   4.348   2.202   3.643
   72SOL     OW 1114   1.277   0.945   3.512
   72SOL    HW1 1115   1.231   0.862   3.481
   72SOL    HW2 1116   1.216   0.996   3.572
   73SOL     OW 1117   3.712   0.223   1.532
   73SOL    HW1 1118   3.620   0.214   1.494
   73SOL    HW2 1119   3.765   0.287   1.476
   74SOL     OW 1120   3.837   0.480   0.021
   74SOL    HW1 1121   3.857   0.577   0.036
   74SOL    HW2 1122   3.923   0.430   0.010
   75SOL     OW 1123   4.277   0.440   1.270
   75SOL    HW1 1124   4.293   0.538   1.274
   75SOL    HW2 1125   4.245   0.408   1.359
   76SOL     OW 1126   2.776   3.282   0.928
   76SOL    HW1 1127   2.689   3.265   0.973
   76SOL    HW2 1128   2.777   3.236   0.839
   77SOL     OW 1129   1.056   0.339   3.376
   77SOL    HW1 1130   1.108   0.369   3.456
   77SOL    HW2 1131   0.980   0.402   3.360
   78SOL     OW 1132   5.038   1.471   0.528
   78SOL    HW1 1133   4.956   1.458   0.584
   78SOL    HW2 1134   5.045   1.567   0.501
   79SOL     OW 1135   3.251   5.403   1.066
   79SOL    HW1 1136   3.297   5.314   1.063
   79SOL    HW2 1137   3.316   5.475   1.044
   80SOL     OW 1138   4.816   0.898   3.449
   80SOL    HW1 1139   4.916   0.902   3.438
   80SOL    HW2 1140   4.794   0.851   3.534
   81SOL     OW 1141   2.205   0.111   2.226
   81SOL    HW1 1142   2.168   0.019   2.213
   81SOL    HW2 1143   2.305   0.108   2.223
   82SOL     OW 1144   5.597   5.099   0.933
   82SOL    HW1 1145   5.649   5.032   0.986
   82SOL    HW2 1146   5.505   5.064   0.917
   83SOL     OW 1147   0.144   0.154   0.500
   83SOL    HW1 1148   0.191   0.187   0.418
   83SOL    HW2 1149   0.071   0.218   0.525
   84SOL     OW 1150   6.442   3.255   2.805
   84SOL    HW1 1151   6.416   3.178   2.747
   84SOL    HW2 1152   6.361   3.307   2.832
   85SOL     OW 1153   1.874   1.491   2.976
   85SOL    HW1 1154   1.904   1.584   2.998
   85SOL    HW2 1155   1.938   1.425   3.016
   86SOL     OW 1156   0.321   1.476   6.437
   86SOL    HW1 1157   0.256   1.523   6.497
   86SOL    HW2 1158   0.413   1.482   6.476
   87SOL     OW 1159   5.107   4.063   0.939
   87SOL    HW1 1160   5.066   3.976   0.965
   87SOL    HW2 1161   5.069   4.092   0.851
   88SOL     OW 1162   2.907   1.628   6.408
   88SOL    HW1 1163   2.819   1.618   6.362
   88SOL    HW2 1164   2.977   1.578   6.357
   89SOL     OW 1165   2.488   2.972   6.865
   89SOL    HW1 1166   2.453   2.977   6.958
   89SOL    HW2 1167   2.586   2.951   6.867
   90SOL     OW 1168   3.972   5.642   2.317
   90SOL    HW1 1169   3.951   5.561   2.372
   90SOL    HW2 1170   3.984   5.721   2.378
   91SOL     OW 1171   6.501   3.998   6.174
   91SOL    HW1 1172   6.581   3.960   6.220
   91SOL    HW2 1173   6.511   4.097   6.167
   92SOL     OW 1174   4.936   4.309   1.354
   92SOL    HW1 1175   5.026   4.354   1.361
   92SOL    HW2 1176   4.948   4.216   1.320
   93SOL     OW 1177   3.115   3.655   0.309
   93SOL    HW1 1178   3.120   3.709   0.225
   93SOL    HW2 1179   3.179   3.692   0.376
   94SOL     OW 1180   3.089   5.759   6.740
   94SOL    HW1 1181   3.089   5.849   6.782
   94SOL    HW2 1182   3.127   5.692   6.805
   95SOL     OW 1183   2.142   1.020   2.413
   95SOL    HW1 1184   2.071   1.037   2.482
   95SOL    HW2 1185   2.199   0.944   2.443
   96SOL     OW 1186   3.943   6.622   5.339
   96SOL    HW1 1187   3.973   6.713   5.309
   96SOL    HW2 1188   3.844   6.614   5.327
   97SOL     OW 1189   2.287   3.279   6.213
   97SOL    HW1 1190   2.337   3.243   6.292
   97SOL    HW2 1191   2.352   3.298   6.140
   98SOL     OW 1192   1.007   2.378   0.484
   98SOL    HW1 1193   0.964   2.369   0.573
   98SOL    HW2 1194   1.046   2.290   0.456
   99SOL     OW 1195   4.725   3.494   1.749
   99SOL    HW1 1196   4.678   3.525   1.666
   99SOL    HW2 1197   4.702   3.398   1.766
  100SOL     OW 1198   0.827   6.185   3.698
  100SOL    HW1 1199   0.742   6.205   3.650
  100SOL    HW2 1200   0.872   6.271   3.723
  101SOL     OW 1201   0.976   4.471   2.025
  101SOL    HW1 1202   1.014   4.388   1.985
  101SOL    HW2 1203   1.049   4.538   2.040
  102SOL     OW 1204   3.537   5.431   2.127
  102SOL    HW1 1205   3.509   5.335   2.131
  102SOL    HW2 1206   3.596   5.445   2.048
  103SOL     OW 1207   2.426   1.831   1.746
  103SOL    HW1 1208   2.385   1.784   1.668
  103SOL    HW2 1209   2.374   1.914   1.765
  104SOL     OW 1210   1.192   5.940   2.562
  104SOL    HW1 1211   1.186   6.003   2.639
  104SOL    HW2 1212   1.108   5.946   2.508
  105SOL     OW 1213   6.033   1.184   6.310
  105SOL    HW1 1214   5.940   1.147   6.306
  105SOL    HW2 1215   6.034   1.263   6.372
  106SOL     OW 1216   3.517   5.889   3.443
  106SOL    HW1 1217   3.592   5.863   3.382
  106SOL    HW2 1218   3.553   5.933   3.525
  107SOL     OW 1219   0.480   1.058   6.752
  107SOL    HW1 1220   0.526   1.147   6.745
  107SOL    HW2 1221   0.407   1.064   6.820
  108SOL     OW 1222   4.101   6.818   5.948
  108SOL    HW1 1223   4.010   6.849   5.918
  108SOL    HW2 1224   4.119   6.852   6.040
  109SOL     OW 1225   2.895   1.491   3.070
  109SOL    HW1 1226   2.912   1.521   2.976
  109SOL    HW2 1227   2.927   1.397   3.081
  110SOL     OW 1228   3.195   4.872   4.118
  110SOL    HW1 1229   3.224   4.779   4.094
  110SOL    HW2 1230   3.245   4.938   4.063
  111SOL     OW 1231   2.256   1.118   3.794
  111SOL    HW1 1232   2.338   1.150   3.748
  111SOL    HW2 1233   2.175   1.144   3.741
  112SOL     OW 1234   3.246   5.660   0.163
  112SOL    HW1 1235   3.226   5.755   0.188
  112SOL    HW2 1236   3.188   5.599   0.217
  113SOL     OW 1237   0.980   6.359   2.707
  113SOL    HW1 1238   0.985   6.375   2.608
  113SOL    HW2 1239   0.906   6.296   2.727
  114SOL     OW 1240   0.840   6.262   1.332
  114SOL    HW1 1241   0.808   6.289   1.423
  114SOL    HW2 1242   0.924   6.312   1.311
  115SOL     OW 1243   5.046   0.675   3.052
  115SOL    HW1 1244   5.026   0.607   2.981
  115SOL    HW2 1245   5.145   0.686   3.061
  116SOL     OW 1246   6.883   6.407   1.256
  116SOL    HW1 1247   6.863   6.322   1.305
  116SOL    HW2 1248   6.974   6.439   1.281
  117SOL     OW 1249   0.000   1.525   0.962
  117SOL    HW1 1250   0.050   1.577   1.032
  117SOL    HW2 1251   6.964   1.588   0.907
  118SOL     OW 1252   1.617   1.392   2.294
  118SOL    HW1 1253   1.675   1.468   2.266
  118SOL    HW2 1254   1.537   1.387   2.235
  119SOL     OW 1255   0.359   0.257   6.908
  119SOL    HW1 1256   0.294   0.202   6.854
  119SOL    HW2 1257   0.310   0.303   6.982
  120SOL     OW 1258   5.053   1.421   5.522
  120SOL    HW1 1259   4.979   1.406   5.588
  120SOL    HW2 1260   5.125   1.353   5.537
  121SOL     OW 1261   1.492   2.901   0.450
  121SOL    HW1 1262   1.420   2.857   0.395
  121SOL    HW2 1263   1.494   2.859   0.541
  122SOL     OW 1264   1.534   4.089   0.096
  122SOL    HW1 1265   1.601   4.070   0.024
  122SOL    HW2 1266   1.443   4.096   0.056
  123SOL     OW 1267   1.306   2.289   2.790
  123SOL    HW1 1268   1.291   2.257   2.696
  123SOL    HW2 1269   1.336   2.384   2.788
  124SOL     OW 1270   3.871   2.892   0.828
  124SOL    HW1 1271   3.806   2.963   0.804
  124SOL    HW2 1272   3.958   2.909   0.781
  125SOL     OW 1273   4.113   2.407   0.530
  125SOL    HW1 1274   4.144   2.500   0.551
  125SOL    HW2 1275   4.153   2.378   0.443
  126SOL     OW 1276   3.280   3.421   1.911
  126SOL    HW1 1277   3.293   3.349   1.843
  126SOL    HW2 1278   3.260   3.508   1.865
  127SOL     OW 1279   0.926   5.027   6.469
  127SOL    HW1 1280   1.004   4.970   6.442
  127SOL    HW2 1281   0.891   5.075   6.388
  128SOL     OW 1282   4.851   3.182   1.209
  128SOL    HW1 1283   4.760   3.206   1.174
  128SOL    HW2 1284   4.893   3.263   1.250
  129SOL     OW 1285   2.790   3.327   6.742
  129SOL    HW1 1286   2.863   3.387   6.774
  129SOL    HW2 1287   2.709   3.340   6.798
  130SOL     OW 1288   1.163   1.171   4.330
  130SOL    HW1 1289   1.121   1.155   4.419
  130SOL    HW2 1290   1.125   1.107   4.263
  131SOL     OW 1291   4.790   0.555   3.186
  131SOL    HW1 1292   4.825   0.525   3.274
  131SOL    HW2 1293   4.866   0.575   3.125
  132SOL     OW 1294   2.788   2.332   1.673
  132SOL    HW1 1295   2.705   2.380   1.643
  132SOL    HW2 1296   2.826   2.378   1.753
  133SOL     OW 1297   5.213   1.043   4.295
  133SOL    HW1 1298   5.177   0.951   4.313
  133SOL    HW2 1299   5.266   1.074   4.375
  134SOL     OW 1300   0.194   1.112   2.681
  134SOL    HW1 1301   0.110   1.160   2.654
  134SOL    HW2 1302   0.183   1.014   2.665
  135SOL     OW 1303   4.886   3.360   4.313
  135SOL    HW1 1304   4.874   3.346   4.215
  135SOL    HW2 1305   4.858   3.453   4.338
  136SOL     OW 1306   1.437   4.954   5.535
  136SOL    HW1 1307   1.527   4.988   5.509
  136SOL    HW2 1308   1.368   5.022   5.513
  137SOL     OW 1309   4.451   1.468   3.396
  137SOL    HW1 1310   4.357   1.495   3.372
  137SOL    HW2 1311   4.514   1.499   3.326
  138SOL     OW 1312   1.210   3.862   2.767
  138SOL    HW1 1313   1.131   3.801   2.764
  138SOL    HW2 1314   1.219   3.909   2.680
  139SOL     OW 1315   2.174   6.256   5.208
  139SOL    HW1 1316   2.243   6.241   5.138
  139SOL    HW2 1317   2.131   6.345   5.193
  140SOL     OW 1318   1.962   6.821   3.873
  140SOL    HW1 1319   2.050   6.773   3.870
  140SOL    HW2 1320   1.918   6.815   3.784
  141SOL     OW 1321   0.171   2.420   4.931
  141SOL    HW1 1322   0.083   2.444   4.891
  141SOL    HW2 1323   0.182   2.467   5.018
  142SOL     OW 1324   2.118   3.678   2.203
  142SOL    HW1 1325   2.078   3.762   2.165
  142SOL    HW2 1326   2.176   3.635   2.134
  143SOL     OW 1327   5.522   4.815   0.745
  143SOL    HW1 1328   5.450   4.751   0.773
  143SOL    HW2 1329   5.480   4.901   0.718
  144SOL     OW 1330   1.996   4.529   5.628
  144SOL    HW1 1331   2.060   4.606   5.619
  144SOL    HW2 1332   2.038   4.457   5.683
  145SOL     OW 1333   1.467   4.901   1.868
  145SOL    HW1 1334   1.409   4.891   1.948
  145SOL    HW2 1335   1.561   4.918   1.896
  146SOL     OW 1336   5.358   0.490   6.661
  146SOL    HW1 1337   5.442   0.543   6.663
  146SOL    HW2 1338   5.301   0.515   6.739
  147SOL     OW 1339   5.674   1.719   6.139
  147SOL    HW1 1340   5.687   1.689   6.045
  147SOL    HW2 1341   5.578   1.741   6.154
  148SOL     OW 1342   0.009   5.549   1.468
  148SOL    HW1 1343   0.056   5.464   1.444
  148SOL    HW2 1344   0.076   5.617   1.497
  149SOL     OW 1345   3.729   1.992   4.994
  149SOL    HW1 1346   3.650   2.019   5.048
  149SOL    HW2 1347   3.813   2.023   5.041
  150SOL     OW 1348   5.523   0.005   6.722
  150SOL    HW1 1349   5.505   0.102   6.741
  150SOL    HW2 1350   5.621   7.009   6.718
  151SOL     OW 1351   3.596   0.644   1.308
  151SOL    HW1 1352   3.520   0.694   1.267
  151SOL    HW2 1353   3.560   0.564   1.358
  152SOL     OW 1354   0.119   1.792   1.103
  152SOL    HW1 1355   0.185   1.743   1.160
  152SOL    HW2 1356   0.160   1.813   1.015
  153SOL     OW 1357   2.744   6.873   3.200
  153SOL    HW1 1358   2.660   6.841   3.156
  153SOL    HW2 1359   2.815   6.803   3.191
  154SOL     OW 1360   0.634   3.391   0.726
  154SOL    HW1 1361   0.622   3.452   0.647
  154SOL    HW2 1362   0.651   3.298   0.695
  155SOL     OW 1363   1.310   1.283   4.110
  155SOL    HW1 1364   1.351   1.222   4.043
  155SOL    HW2 1365   1.274   1.230   4.186
  156SOL     OW 1366   6.788   0.816   0.760
  156SOL    HW1 1367   6.765   0.828   0.664
  156SOL    HW2 1368   6.706   0.828   0.816
  157SOL     OW 1369   5.619   4.269   0.384
  157SOL    HW1 1370   5.623   4.186   0.439
  157SOL    HW2 1371   5.659   4.345   0.435
  158SOL     OW 1372   1.493   3.064   1.729
  158SOL    HW1 1373   1.438   3.090   1.809
  158SOL    HW2 1374   1.467   3.122   1.651
  159SOL     OW 1375   4.239   4.867   1.773
  159SOL    HW1 1376   4.268   4.950   1.821
  159SOL    HW2 1377   4.201   4.892   1.684
  160SOL     OW 1378   5.563   6.902   0.746
  160SOL    HW1 1379   5.511   6.884   0.829
  160SOL    HW2 1380   5.658   6.872   0.759
  161SOL     OW 1381   1.351   0.408   3.116
  161SOL    HW1 1382   1.271   0.468   3.118
  161SOL    HW2 1383   1.393   0.411   3.026
  162SOL     OW 1384   3.758   6.064   0.520
  162SOL    HW1 1385   3.687   6.035   0.456
  162SOL    HW2 1386   3.841   6.087   0.469
  163SOL     OW 1387   6.750   5.868   2.213
  163SOL    HW1 1388   6.677   5.825   2.266
  163SOL    HW2 1389   6.749   5.833   2.119
  164SOL     OW 1390   1.267   4.033   3.329
  164SOL    HW1 1391   1.245   4.129   3.345
  164SOL    HW2 1392   1.184   3.984   3.301
  165SOL     OW 1393   4.819   4.126   6.798
  165SOL    HW1 1394   4.907   4.145   6.843
  165SOL    HW2 1395   4.821   4.160   6.704
  166SOL     OW 1396   0.668   3.166   2.287
  166SOL    HW1 1397   0.584   3.210   2.257
  166SOL    HW2 1398   0.727   3.233   2.331
  167SOL     OW 1399   5.904   2.102   0.070
  167SOL    HW1 1400   5.819   2.059   0.098
  167SOL    HW2 1401   5.893   2.141   6.998
  168SOL     OW 1402   3.618   1.748   0.702
  168SOL    HW1 1403   3.711   1.785   0.699
  168SOL    HW2 1404   3.607   1.694   0.785
  169SOL     OW 1405   6.546   2.543   0.875
  169SOL    HW1 1406   6.446   2.549   0.875
  169SOL    HW2 1407   6.585   2.635   0.883
  170SOL     OW 1408   6.834   6.549   2.563
  170SOL    HW1 1409   6.885   6.527   2.480
  170SOL    HW2 1410   6.899   6.557   2.639
  171SOL     OW 1411   2.633   4.896   7.010
  171SOL    HW1 1412   2.637   4.959   6.933
  171SOL    HW2 1413   2.689   4.931   0.066
  172SOL     OW 1414   6.270   1.646   3.445
  172SOL    HW1 1415   6.312   1.620   3.358
  172SOL    HW2 1416   6.335   1.633   3.519
  173SOL     OW 1417   5.785   1.190   3.832
  173SOL    HW1 1418   5.801   1.277   3.785
  173SOL    HW2 1419   5.845   1.120   3.794
  174SOL     OW 1420   4.364   4.993   4.035
  174SOL    HW1 1421   4.354   5.079   3.985
  174SOL    HW2 1422   4.301   4.925   3.997
  175SOL     OW 1423   3.378   0.577   1.070
  175SOL    HW1 1424   3.313   0.509   1.037
  175SOL    HW2 1425   3.449   0.592   1.000
  176SOL     OW 1426   6.192   4.818   2.214
  176SOL    HW1 1427   6.184   4.913   2.245
  176SOL    HW2 1428   6.205   4.816   2.115
  177SOL     OW 1429   5.119   2.933   4.273
  177SOL    HW1 1430   5.106   2.834   4.285
  177SOL    HW2 1431   5.045   2.982   4.317
  178SOL     OW 1432   3.216   4.217   5.443
  178SOL    HW1 1433   3.184   4.238   5.350
  178SOL    HW2 1434   3.298   4.159   5.437
  179SOL     OW 1435   3.617   1.143   6.476
  179SOL    HW1 1436   3.692   1.208   6.488
  179SOL    HW2 1437   3.586   1.111   6.566
  180SOL     OW 1438   1.923   0.173   0.772
  180SOL    HW1 1439   1.894   0.228   0.849
  180SOL    HW2 1440   2.023   0.162   0.774
  181SOL     OW 1441   3.034   3.466   6.091
  181SOL    HW1 1442   3.121   3.420   6.108
  181SOL    HW2 1443   2.999   3.439   6.002
  182SOL     OW 1444   3.849   1.855   6.074
  182SOL    HW1 1445   3.757   1.892   6.060
  182SOL    HW2 1446   3.891   1.898   6.154
  183SOL     OW 1447   3.202   1.844   3.325
  183SOL    HW1 1448   3.215   1.938   3.358
  183SOL    HW2 1449   3.171   1.846   3.230
  184SOL     OW 1450   0.380   6.484   3.951
  184SOL    HW1 1451   0.286   6.456   3.934
  184SOL    HW2 1452   0.402   6.564   3.896
  185SOL     OW 1453   1.357   1.253   4.812
  185SOL    HW1 1454   1.418   1.255   4.891
  185SOL    HW2 1455   1.267   1.223   4.840
  186SOL     OW 1456   6.039   1.595   4.138
  186SOL    HW1 1457   5.978   1.531   4.184
  186SOL    HW2 1458   6.129   1.591   4.180
  187SOL     OW 1459   5.135   6.863   2.325
  187SOL    HW1 1460   5.184   6.834   2.407
  187SOL    HW2 1461   5.037   6.856   2.340
  188SOL     OW 1462   1.169   3.411   3.689
  188SOL    HW1 1463   1.265   3.427   3.667
  188SOL    HW2 1464   1.127   3.354   3.618
  189SOL     OW 1465   1.470   5.901   0.186
  189SOL    HW1 1466   1.466   5.828   0.118
  189SOL    HW2 1467   1.518   5.980   0.147
  190SOL     OW 1468   6.380   4.066   5.643
  190SOL    HW1 1469   6.416   4.003   5.574
  190SOL    HW2 1470   6.364   4.155   5.602
  191SOL     OW 1471   6.151   0.691   0.189
  191SOL    HW1 1472   6.218   0.762   0.167
  191SOL    HW2 1473   6.111   0.710   0.279
  192SOL     OW 1474   0.763   5.205   1.864
  192SOL    HW1 1475   0.664   5.215   1.859
  192SOL    HW2 1476   0.787   5.108   1.861
  193SOL     OW 1477   4.815   3.737   5.357
  193SOL    HW1 1478   4.778   3.827   5.382
  193SOL    HW2 1479   4.799   3.721   5.260
  194SOL     OW 1480   3.899   6.557   3.241
  194SOL    HW1 1481   3.990   6.582   3.274
  194SOL    HW2 1482   3.830   6.613   3.287
  195SOL     OW 1483   1.378   1.005   4.491
  195SOL    HW1 1484   1.410   0.999   4.397
  195SOL    HW2 1485   1.346   0.916   4.522
  196SOL     OW 1486   2.216   0.206   6.855
  196SOL    HW1 1487   2.197   0.109   6.844
  196SOL    HW2 1488   2.154   0.259   6.798
  197SOL     OW 1489   2.719   0.046   1.338
  197SOL    HW1 1490   2.775   6.984   1.351
  197SOL    HW2 1491   2.631   0.020   1.298
  198SOL     OW 1492   4.573   6.228   1.917
  198SOL    HW1 1493   4.630   6.283   1.855
  198SOL    HW2 1494   4.497   6.284   1.950
  199SOL     OW 1495   6.723   1.246   3.936
  199SOL    HW1 1496   6.634   1.277   3.969
  199SOL    HW2 1497   6.777   1.325   3.906
  200SOL     OW 1498   0.895   4.402   1.673
  200SOL    HW1 1499   0.858   4.374   1.762
  200SOL    HW2 1500   0.858   4.342   1.602
  201SOL     OW 1501   5.561   0.418   6.134
  201SOL    HW1 1502   5.635   0.431   6.200
  201SOL    HW2 1503   5.505   0.501   6.130
  202SOL     OW 1504   5.216   0.531   5.458
  202SOL    HW1 1505   5.133   0.588   5.464
  202SOL    HW2 1506   5.192   0.440   5.425
  203SOL     OW 1507   4.574   2.432   4.558
  203SOL    HW1 1508   4.577   2.518   4.508
  203SOL    HW2 1509   4.491   2.428   4.614
  204SOL     OW 1510   6.357   0.553   6.379
  204SOL    HW1 1511   6.297   0.517   6.307
  204SOL    HW2 1512   6.452   0.542   6.352
  205SOL     OW 1513   0.998   0.732   2.911
  205SOL    HW1 1514   0.907   0.721   2.951
  205SOL    HW2 1515   1.008   0.825   2.876
  206SOL     OW 1516   0.391   5.250   2.163
  206SOL    HW1 1517   0.365   5.334   2.116
  206SOL    HW2 1518   0.415   5.271   2.257
  207SOL     OW 1519   4.289   0.561   4.141
  207SOL    HW1 1520   4.258   0.604   4.226
  207SOL    HW2 1521   4.345   0.626   4.090
  208SOL     OW 1522   5.098   3.827   5.511
  208SOL    HW1 1523   5.056   3.738   5.492
  208SOL    HW2 1524   5.056   3.897   5.454
  209SOL     OW 1525   0.757   4.927   4.772
  209SOL    HW1 1526   0.725   4.847   4.721
  209SOL    HW2 1527   0.680   4.987   4.791
  210SOL     OW 1528   4.062   2.110   1.213
  210SOL    HW1 1529   4.039   2.144   1.304
  210SOL    HW2 1530   4.139   2.163   1.176
  211SOL     OW 1531   1.757   6.382   3.239
  211SOL    HW1 1532   1.806   6.445   3.299
  211SOL    HW2 1533   1.658   6.397   3.249
  212SOL     OW 1534   1.295   4.423   1.275
  212SOL    HW1 1535   1.323   4.339   1.322
  212SOL    HW2 1536   1.241   4.480   1.337
  213SOL     OW 1537   3.615   1.025   5.748
  213SOL    HW1 1538   3.608   1.097   5.816
  213SOL    HW2 1539   3.572   1.055   5.662
  214SOL     OW 1540   4.227   5.458   1.875
  214SOL    HW1 1541   4.158   5.468   1.947
  214SOL    HW2 1542   4.268   5.547   1.855
  215SOL     OW 1543   2.681   4.092   0.999
  215SOL    HW1 1544   2.642   4.140   1.078
  215SOL    HW2 1545   2.714   4.159   0.933
  216SOL     OW 1546   1.823   5.827   4.530
  216SOL    HW1 1547   1.905   5.874   4.560
  216SOL    HW2 1548   1.782   5.877   4.454
  217SOL     OW 1549   2.290   2.729   3.517
  217SOL    HW1 1550   2.310   2.822   3.548
  217SOL    HW2 1551   2.221   2.688   3.577
  218SOL     OW 1552   0.941   2.819   4.284
  218SOL    HW1 1553   0.876   2.826   4.359
  218SOL    HW2 1554   1.012   2.889   4.294
  219SOL     OW 1555   3.336   6.753   5.778
  219SOL    HW1 1556   3.312   6.764   5.875
  219SOL    HW2 1557   3.392   6.670   5.767
  220SOL     OW 1558   3.826   6.483   0.099
  220SOL    HW1 1559   3.787   6.575   0.095
  220SOL    HW2 1560   3.874   6.463   0.014
  221SOL     OW 1561   6.627   3.916   2.956
  221SOL    HW1 1562   6.687   3.898   3.034
  221SOL    HW2 1563   6.666   3.875   2.874
  222SOL     OW 1564   2.608   5.050   5.686
  222SOL    HW1 1565   2.683   4.989   5.715
  222SOL    HW2 1566   2.557   5.007   5.612
  223SOL     OW 1567   5.925   3.682   1.233
  223SOL    HW1 1568   5.839   3.698   1.281
  223SOL    HW2 1569   5.920   3.722   1.141
  224SOL     OW 1570   2.692   1.706   3.903
  224SOL    HW1 1571   2.779   1.661   3.883
  224SOL    HW2 1572   2.642   1.722   3.819
  225SOL     OW 1573   5.845   1.861   5.303
  225SOL    HW1 1574   5.851   1.803   5.222
  225SOL    HW2 1575   5.761   1.840   5.353
  226SOL     OW 1576   1.901   0.491   6.132
  226SOL    HW1 1577   1.982   0.543   6.106
  226SOL    HW2 1578   1.827   0.554   6.155
  227SOL     OW 1579   1.537   4.036   2.657
  227SOL    HW1 1580   1.516   3.987   2.742
  227SOL    HW2 1581   1.612   3.990   2.610
  228SOL     OW 1582   3.398   6.219   3.729
  228SOL    HW1 1583   3.477   6.161   3.747
  228SOL    HW2 1584   3.337   6.218   3.809
  229SOL     OW 1585   5.044   5.923   0.510
  229SOL    HW1 1586   4.948   5.935   0.485
  229SOL    HW2 1587   5.073   5.830   0.486
  230SOL     OW 1588   2.593   4.650   2.389
  230SOL    HW1 1589   2.547   4.568   2.423
  230SOL    HW2 1590   2.630   4.702   2.466
  231SOL     OW 1591   6.377   1.648   6.808
  231SOL    HW1 1592   6.370   1.596   6.893
  231SOL    HW2 1593   6.300   1.711   6.802
  232SOL     OW 1594   1.258   4.120   6.028
  232SOL    HW1 1595   1.162   4.149   6.026
  232SOL    HW2 1596   1.317   4.201   6.038
  233SOL     OW 1597   2.316   1.473   4.399
  233SOL    HW1 1598   2.275   1.460   4.489
  233SOL    HW2 1599   2.283   1.403   4.336
  234SOL     OW 1600   4.275   5.956   5.331
  234SOL    HW1 1601   4.363   5.990   5.300
  234SOL    HW2 1602   4.221   6.032   5.368
  235SOL     OW 1603   3.143   2.988   1.582
  235SOL    HW1 1604   3.082   3.064   1.563
  235SOL    HW2 1605   3.238   3.020   1.583
  236SOL     OW 1606   5.738   2.600   6.298
  236SOL    HW1 1607   5.663   2.657   6.266
  236SOL    HW2 1608   5.805   2.656   6.347
  237SOL     OW 1609   6.373   5.920   1.852
  237SOL    HW1 1610   6.287   5.875   1.874
  237SOL    HW2 1611   6.423   5.866   1.784
  238SOL     OW 1612   6.061   2.020   0.303
  238SOL    HW1 1613   6.014   2.068   0.377
  238SOL    HW2 1614   6.010   2.030   0.218
  239SOL     OW 1615   0.353   5.617   6.181
  239SOL    HW1 1616   0.320   5.523   6.192
  239SOL    HW2 1617   0.450   5.622   6.205
  240SOL     OW 1618   0.336   2.471   5.443
  240SOL    HW1 1619   0.384   2.394   5.483
  240SOL    HW2 1620   0.242   2.474   5.477
  241SOL     OW 1621   1.535   6.709   4.963
  241SOL    HW1 1622   1.444   6.748   4.947
  241SOL    HW2 1623   1.560   6.651   4.886
  242SOL     OW 1624   2.970   3.038   5.687
  242SOL    HW1 1625   2.983   3.137   5.697
  242SOL    HW2 1626   2.872   3.019   5.683
  243SOL     OW 1627   4.680   0.764   5.834
  243SOL    HW1 1628   4.717   0.856   5.851
  243SOL    HW2 1629   4.746   0.696   5.865
  244SOL     OW 1630   4.974   2.737   4.535
  244SOL    HW1 1631   4.883   2.778   4.535
  244SOL    HW2 1632   4.971   2.648   4.580
  245SOL     OW 1633   0.146   2.995   5.260
  245SOL    HW1 1634   0.186   2.976   5.171
  245SOL    HW2 1635   0.068   3.057   5.249
  246SOL     OW 1636   5.100   2.289   2.429
  246SOL    HW1 1637   5.049   2.212   2.468
  246SOL    HW2 1638   5.167   2.321   2.496
  247SOL     OW 1639   3.072   1.046   2.318
  247SOL    HW1 1640   2.975   1.044   2.295
  247SOL    HW2 1641   3.111   1.134   2.291
  248SOL     OW 1642   4.127   1.588   3.708
  248SOL    HW1 1643   4.080   1.552   3.789
  248SOL    HW2 1644   4.090   1.679   3.686
  249SOL     OW 1645   4.517   0.198   6.205
  249SOL    HW1 1646   4.515   0.278   6.265
  249SOL    HW2 1647   4.544   0.226   6.113
  250SOL     OW 1648   5.419   2.296   0.576
  250SOL    HW1 1649   5.393   2.298   0.479
  250SOL    HW2 1650   5.350   2.248   0.629
  251SOL     OW 1651   4.554   4.150   6.389
  251SOL    HW1 1652   4.604   4.067   6.363
  251SOL    HW2 1653   4.469   4.156   6.337
  252SOL     OW 1654   5.742   0.614   6.924
  252SOL    HW1 1655   5.842   0.605   6.921
  252SOL    HW2 1656   5.710   0.605   7.019
  253SOL     OW 1657   1.954   4.602   6.879
  253SOL    HW1 1658   1.897   4.520   6.883
  253SOL    HW2 1659   1.903   4.676   6.834
  254SOL     OW 1660   5.323   3.476   3.290
  254SOL    HW1 1661   5.302   3.438   3.379
  254SOL    HW2 1662   5.373   3.409   3.235
  255SOL     OW 1663   1.593   3.185   4.506
  255SOL    HW1 1664   1.657   3.234   4.565
  255SOL    HW2 1665   1.601   3.086   4.524
  256SOL     OW 1666   6.039   4.521   6.392
  256SOL    HW1 1667   6.081   4.597   6.443
  256SOL    HW2 1668   5.954   4.553   6.350
  257SOL     OW 1669   4.251   6.500   4.503
  257SOL    HW1 1670   4.293   6.424   4.552
  257SOL    HW2 1671   4.200   6.464   4.424
  258SOL     OW 1672   5.957   5.013   4.900
  258SOL    HW1 1673   5.950   4.951   4.822
  258SOL    HW2 1674   6.052   5.044   4.909
  259SOL     OW 1675   1.766   2.895   2.148
  259SOL    HW1 1676   1.832   2.875   2.075
  259SOL    HW2 1677   1.735   2.989   2.139
  260SOL     OW 1678   3.998   0.843   0.971
  260SOL    HW1 1679   3.921   0.806   0.919
  260SOL    HW2 1680   4.052   0.903   0.912
  261SOL     OW 1681   0.088   3.744   1.332
  261SOL    HW1 1682   0.016   3.756   1.265
  261SOL    HW2 1683   0.062   3.789   1.417
  262SOL     OW 1684   0.485   3.886   1.316
  262SOL    HW1 1685   0.417   3.914   1.383
  262SOL    HW2 1686   0.577   3.899   1.354
  263SOL     OW 1687   1.099   1.558   3.640
  263SOL    HW1 1688   1.040   1.577   3.718
  263SOL    HW2 1689   1.058   1.486   3.584
  264SOL     OW 1690   4.633   3.895   5.842
  264SOL    HW1 1691   4.545   3.894   5.888
  264SOL    HW2 1692   4.624   3.941   5.754
  265SOL     OW 1693   4.493   4.579   3.561
  265SOL    HW1 1694   4.547   4.514   3.615
  265SOL    HW2 1695   4.445   4.641   3.623
  266SOL     OW 1696   3.692   3.734   5.743
  266SOL    HW1 1697   3.598   3.704   5.760
  266SOL    HW2 1698   3.714   3.809   5.806
  267SOL     OW 1699   6.077   2.467   5.838
  267SOL    HW1 1700   6.133   2.391   5.806
  267SOL    HW2 1701   6.013   2.494   5.765
  268SOL     OW 1702   4.434   6.709   5.434
  268SOL    HW1 1703   4.488   6.788   5.464
  268SOL    HW2 1704   4.496   6.637   5.403
  269SOL     OW 1705   1.811   3.234   0.757
  269SOL    HW1 1706   1.772   3.284   0.680
  269SOL    HW2 1707   1.866   3.295   0.813
  270SOL     OW 1708   6.486   6.843   1.679
  270SOL    HW1 1709   6.428   6.767   1.709
  270SOL    HW2 1710   6.477   6.854   1.580
  271SOL     OW 1711   2.446   2.634   0.683
  271SOL    HW1 1712   2.401   2.564   0.739
  271SOL    HW2 1713   2.478   2.593   0.598
  272SOL     OW 1714   3.255   5.111   3.851
  272SOL    HW1 1715   3.325   5.053   3.892
  272SOL    HW2 1716   3.293   5.157   3.770
  273SOL     OW 1717   1.857   4.994   5.247
  273SOL    HW1 1718   1.939   5.001   5.303
  273SOL    HW2 1719   1.826   4.899   5.245
  274SOL     OW 1720   4.628   2.421   3.999
  274SOL    HW1 1721   4.645   2.341   4.057
  274SOL    HW2 1722   4.678   2.499   4.035
  275SOL     OW 1723   6.073   5.630   6.431
  275SOL    HW1 1724   6.070   5.648   6.529
  275SOL    HW2 1725   6.000   5.567   6.406
  276SOL     OW 1726   0.442   5.296   3.541
  276SOL    HW1 1727   0.465   5.350   3.622
  276SOL    HW2 1728   0.430   5.200   3.569
  277SOL     OW 1729   2.229   3.338   0.980
  277SOL    HW1 1730   2.263   3.246   1.003
  277SOL    HW2 1731   2.281   3.406   1.033
  278SOL     OW 1732   0.165   4.747   1.565
  278SOL    HW1 1733   0.250   4.694   1.568
  278SOL    HW2 1734   0.181   4.837   1.604
  279SOL     OW 1735   0.163   2.653   4.204
  279SOL    HW1 1736   0.211   2.617   4.124
  279SOL    HW2 1737   0.154   2.581   4.273
  280SOL     OW 1738   3.070   6.853   2.988
  280SOL    HW1 1739   2.998   6.784   2.992
  280SOL    HW2 1740   3.029   6.944   2.984
  281SOL     OW 1741   3.379   4.922   2.318
  281SOL    HW1 1742   3.315   4.854   2.353
  281SOL    HW2 1743   3.382   4.917   2.218
  282SOL     OW 1744   3.970   2.108   5.161
  282SOL    HW1 1745   3.981   2.031   5.224
  282SOL    HW2 1746   3.950   2.191   5.212
  283SOL     OW 1747   6.867   0.978   6.086
  283SOL    HW1 1748   6.882   0.910   6.014
  283SOL    HW2 1749   6.951   1.028   6.102
  284SOL     OW 1750   0.249   4.581   5.088
  284SOL    HW1 1751   0.162   4.578   5.039
  284SOL    HW2 1752   0.263   4.673   5.125
  285SOL     OW 1753   5.568   5.565   6.582
  285SOL    HW1 1754   5.642   5.505   6.551
  285SOL    HW2 1755   5.488   5.551   6.523
  286SOL     OW 1756   3.401   4.978   4.798
  286SOL    HW1 1757   3.446   5.052   4.847
  286SOL    HW2 1758   3.317   4.952   4.845
  287SOL     OW 1759   0.758   4.798   6.406
  287SOL    HW1 1760   0.805   4.880   6.438
  287SOL    HW2 1761   0.818   4.748   6.343
  288SOL     OW 1762   4.195   2.276   0.212
  288SOL    HW1 1763   4.099   2.302   0.214
  288SOL    HW2 1764   4.206   2.185   0.254
  289SOL     OW 1765   0.194   5.442   4.929
  289SOL    HW1 1766   0.164   5.408   5.019
  289SOL    HW2 1767   0.142   5.395   4.857
  290SOL     OW 1768   5.087   1.966   3.923
  290SOL    HW1 1769   5.076   2.020   3.840
  290SOL    HW2 1770   5.018   1.994   3.990
  291SOL     OW 1771   3.524   0.606   4.491
  291SOL    HW1 1772   3.475   0.581   4.575
  291SOL    HW2 1773   3.519   0.530   4.426
  292SOL     OW 1774   4.254   2.029   2.965
  292SOL    HW1 1775   4.172   2.068   3.007
  292SOL    HW2 1776   4.255   2.051   2.868
  293SOL     OW 1777   4.389   5.356   2.091
  293SOL    HW1 1778   4.416   5.382   2.184
  293SOL    HW2 1779   4.290   5.358   2.082
  294SOL     OW 1780   6.989   5.435   6.771
  294SOL    HW1 1781   6.987   5.438   6.671
  294SOL    HW2 1782   6.925   5.364   6.802
  295SOL     OW 1783   3.307   1.285   4.842
  295SOL    HW1 1784   3.222   1.295   4.790
  295SOL    HW2 1785   3.303   1.343   4.924
  296SOL     OW 1786   6.083   1.712   2.027
  296SOL    HW1 1787   6.054   1.807   2.023
  296SOL    HW2 1788   6.166   1.700   1.971
  297SOL     OW 1789   2.898   4.898   2.395
  297SOL    HW1 1790   2.847   4.840   2.457
  297SOL    HW2 1791   2.883   4.868   2.301
  298SOL     OW 1792   3.471   6.511   0.615
  298SOL    HW1 1793   3.444   6.607   0.621
  298SOL    HW2 1794   3.571   6.506   0.614
  299SOL     OW 1795   4.839   2.178   0.225
  299SOL    HW1 1796   4.777   2.127   0.284
  299SOL    HW2 1797   4.884   2.250   0.278
  300SOL     OW 1798   5.044   0.989   1.531
  300SOL    HW1 1799   5.038   0.971   1.432
  300SOL    HW2 1800   4.960   1.034   1.561
  301SOL     OW 1801   5.035   2.697   1.103
  301SOL    HW1 1802   5.076   2.687   1.194
  301SOL    HW2 1803   4.971   2.774   1.104
  302SOL     OW 1804   6.926   0.731   3.612
  302SOL    HW1 1805   0.003   0.710   3.593
  302SOL    HW2 1806   6.910   0.829   3.601
  303SOL     OW 1807   6.622   6.908   2.502
  303SOL    HW1 1808   6.693   6.890   2.435
  303SOL    HW2 1809   6.532   6.902   2.459
  304SOL     OW 1810   2.211   6.124   5.726
  304SOL    HW1 1811   2.199   6.222   5.743
  304SOL    HW2 1812   2.208   6.107   5.627
  305SOL     OW 1813   1.390   2.363   0.561
  305SOL    HW1 1814   1.467   2.318   0.607
  305SOL    HW2 1815   1.342   2.422   0.626
  306SOL     OW 1816   1.563   1.048   3.242
  306SOL    HW1 1817   1.559   1.101   3.157
  306SOL    HW2 1818   1.634   1.086   3.301
  307SOL     OW 1819   4.693   5.222   0.489
  307SOL    HW1 1820   4.695   5.177   0.400
  307SOL    HW2 1821   4.615   5.187   0.542
  308SOL     OW 1822   5.757   3.174   4.840
  308SOL    HW1 1823   5.794   3.090   4.802
  308SOL    HW2 1824   5.660   3.182   4.818
  309SOL     OW 1825   2.011   5.891   0.558
  309SOL    HW1 1826   1.975   5.940   0.637
  309SOL    HW2 1827   2.107   5.917   0.543
  310SOL     OW 1828   5.312   6.303   5.581
  310SOL    HW1 1829   5.320   6.282   5.678
  310SOL    HW2 1830   5.331   6.220   5.527
  311SOL     OW 1831   3.695   5.200   3.167
  311SOL    HW1 1832   3.784   5.190   3.211
  311SOL    HW2 1833   3.623   5.179   3.232
  312SOL     OW 1834   4.574   0.889   4.167
  312SOL    HW1 1835   4.511   0.893   4.244
  312SOL    HW2 1836   4.660   0.935   4.192
  313SOL     OW 1837   3.244   3.117   2.152
  313SOL    HW1 1838   3.226   3.112   2.250
  313SOL    HW2 1839   3.167   3.078   2.102
  314SOL     OW 1840   2.611   4.553   0.212
  314SOL    HW1 1841   2.707   4.575   0.194
  314SOL    HW2 1842   2.552   4.607   0.151
  315SOL     OW 1843   1.312   2.945   3.976
  315SOL    HW1 1844   1.399   2.951   4.027
  315SOL    HW2 1845   1.308   2.858   3.928
  316SOL     OW 1846   2.584   1.291   4.559
  316SOL    HW1 1847   2.552   1.207   4.517
  316SOL    HW2 1848   2.597   1.361   4.489
  317SOL     OW 1849   0.066   1.538   1.440
  317SOL    HW1 1850   0.018   1.619   1.405
  317SOL    HW2 1851   0.013   1.456   1.419
  318SOL     OW 1852   0.373   5.708   6.684
  318SOL    HW1 1853   0.335   5.686   6.595
  318SOL    HW2 1854   0.366   5.629   6.744
  319SOL     OW 1855   6.284   1.305   3.701
  319SOL    HW1 1856   6.353   1.232   3.699
  319SOL    HW2 1857   6.329   1.393   3.719
  320SOL     OW 1858   6.127   2.824   0.861
  320SOL    HW1 1859   6.214   2.809   0.814
  320SOL    HW2 1860   6.132   2.908   0.915
  321SOL     OW 1861   3.192   1.293   7.009
  321SOL    HW1 1862   3.109   1.268   6.959
  321SOL    HW2 1863   3.182   1.386   0.026
  322SOL     OW 1864   2.943   3.394   3.762
  322SOL    HW1 1865   2.883   3.468   3.793
  322SOL    HW2 1866   2.953   3.327   3.836
  323SOL     OW 1867   1.541   3.191   6.157
  323SOL    HW1 1868   1.506   3.249   6.083
  323SOL    HW2 1869   1.595   3.117   6.118
  324SOL     OW 1870   2.944   0.810   3.620
  324SOL    HW1 1871   2.850   0.844   3.628
  324SOL    HW2 1872   2.978   0.829   3.528
  325SOL     OW 1873   0.391   2.528   1.937
  325SOL    HW1 1874   0.306   2.486   1.906
  325SOL    HW2 1875   0.444   2.461   1.990
  326SOL     OW 1876   1.102   5.212   6.693
  326SOL    HW1 1877   1.189   5.195   6.740
  326SOL    HW2 1878   1.038   5.138   6.713
  327SOL     OW 1879   1.581   4.561   2.088
  327SOL    HW1 1880   1.531   4.610   2.160
  327SOL    HW2 1881   1.586   4.464   2.110
  328SOL     OW 1882   1.400   5.883   1.732
  328SOL    HW1 1883   1.349   5.958   1.775
  328SOL    HW2 1884   1.338   5.830   1.674
  329SOL     OW 1885   3.120   3.053   4.243
  329SOL    HW1 1886   3.140   3.059   4.145
  329SOL    HW2 1887   3.186   2.993   4.287
  330SOL     OW 1888   3.488   6.008   1.568
  330SOL    HW1 1889   3.472   5.929   1.626
  330SOL    HW2 1890   3.405   6.029   1.516
  331SOL     OW 1891   3.950   5.587   0.418
  331SOL    HW1 1892   3.892   5.508   0.441
  331SOL    HW2 1893   4.043   5.568   0.448
  332SOL     OW 1894   4.860   2.066   5.433
  332SOL    HW1 1895   4.828   2.032   5.345
  332SOL    HW2 1896   4.957   2.090   5.425
  333SOL     OW 1897   3.836   0.392   6.082
  333SOL    HW1 1898   3.849   0.296   6.107
  333SOL    HW2 1899   3.920   0.443   6.102
  334SOL     OW 1900   3.078   1.283   0.949
  334SOL    HW1 1901   3.049   1.360   1.005
  334SOL    HW2 1902   3.009   1.211   0.953
  335SOL     OW 1903   4.188   6.553   5.842
  335SOL    HW1 1904   4.155   6.640   5.880
  335SOL    HW2 1905   4.281   6.566   5.805
  336SOL     OW 1906   3.119   1.178   3.715
  336SOL    HW1 1907   3.217   1.160   3.722
  336SOL    HW2 1908   3.081   1.126   3.638
  337SOL     OW 1909   0.564   2.727   6.487
  337SOL    HW1 1910   0.485   2.782   6.460
  337SOL    HW2 1911   0.643   2.753   6.431
  338SOL     OW 1912   3.004   2.525   1.437
  338SOL    HW1 1913   2.970   2.606   1.390
  338SOL    HW2 1914   2.939   2.449   1.425
  339SOL     OW 1915   4.359   5.933   4.350
  339SOL    HW1 1916   4.295   5.930   4.273
  339SOL    HW2 1917   4.452   5.948   4.317
  340SOL     OW 1918   4.574   4.401   4.946
  340SOL    HW1 1919   4.497   4.373   5.003
  340SOL    HW2 1920   4.588   4.500   4.955
  341SOL     OW 1921   6.299   0.034   4.598
  341SOL    HW1 1922   6.238   6.987   4.553
  341SOL    HW2 1923   6.355   0.079   4.529
  342SOL     OW 1924   6.556   3.372   0.418
  342SOL    HW1 1925   6.614   3.327   0.350
  342SOL    HW2 1926   6.487   3.426   0.371
  343SOL     OW 1927   1.911   5.881   1.242
  343SOL    HW1 1928   1.956   5.872   1.153
  343SOL    HW2 1929   1.966   5.837   1.313
  344SOL     OW 1930   1.391   3.448   1.732
  344SOL    HW1 1931   1.446   3.427   1.814
  344SOL    HW2 1932   1.295   3.457   1.758
  345SOL     OW 1933   4.384   1.838   3.165
  345SOL    HW1 1934   4.482   1.827   3.147
  345SOL    HW2 1935   4.345   1.904   3.101
  346SOL     OW 1936   2.202   1.130   2.978
  346SOL    HW1 1937   2.148   1.191   3.036
  346SOL    HW2 1938   2.141   1.071   2.926
  347SOL     OW 1939   2.788   5.809   6.497
  347SOL    HW1 1940   2.833   5.875   6.437
  347SOL    HW2 1941   2.852   5.735   6.519
  348SOL     OW 1942   5.247   4.145   2.148
  348SOL    HW1 1943   5.285   4.219   2.203
  348SOL    HW2 1944   5.151   4.165   2.128
  349SOL     OW 1945   6.411   5.737   1.089
  349SOL    HW1 1946   6.439   5.667   1.154
  349SOL    HW2 1947   6.324   5.777   1.117
  350SOL     OW 1948   3.233   3.208   0.555
  350SOL    HW1 1949   3.150   3.263   0.564
  350SOL    HW2 1950   3.227   3.129   0.616
  351SOL     OW 1951   1.927   3.765   1.233
  351SOL    HW1 1952   1.909   3.863   1.241
  351SOL    HW2 1953   1.865   3.715   1.293
  352SOL     OW 1954   2.981   0.192   4.617
  352SOL    HW1 1955   2.940   0.275   4.657
  352SOL    HW2 1956   2.971   0.195   4.518
  353SOL     OW 1957   2.338   0.187   0.875
  353SOL    HW1 1958   2.325   0.284   0.894
  353SOL    HW2 1959   2.249   0.142   0.867
  354SOL     OW 1960   3.863   2.481   0.960
  354SOL    HW1 1961   3.840   2.537   0.881
  354SOL    HW2 1962   3.818   2.516   1.041
  355SOL     OW 1963   1.269   3.457   2.246
  355SOL    HW1 1964   1.296   3.373   2.294
  355SOL    HW2 1965   1.235   3.523   2.313
  356SOL     OW 1966   2.883   0.002   6.183
  356SOL    HW1 1967   2.837   7.001   6.270
  356SOL    HW2 1968   2.848   6.959   6.112
  357SOL     OW 1969   6.664   5.727   5.926
  357SOL    HW1 1970   6.727   5.795   5.963
  357SOL    HW2 1971   6.570   5.759   5.939
  358SOL     OW 1972   4.362   6.415   0.543
  358SOL    HW1 1973   4.391   6.463   0.626
  358SOL    HW2 1974   4.427   6.435   0.470
  359SOL     OW 1975   2.415   2.284   1.907
  359SOL    HW1 1976   2.419   2.295   2.007
  359SOL    HW2 1977   2.507   2.278   1.870
  360SOL     OW 1978   1.303   4.847   6.225
  360SOL    HW1 1979   1.402   4.834   6.236
  360SOL    HW2 1980   1.275   4.810   6.136
  361SOL     OW 1981   6.259   6.551   2.968
  361SOL    HW1 1982   6.302   6.631   2.928
  361SOL    HW2 1983   6.328   6.495   3.014
  362SOL     OW 1984   3.421   3.118   0.902
  362SOL    HW1 1985   3.332   3.105   0.945
  362SOL    HW2 1986   3.449   3.214   0.912
  363SOL     OW 1987   5.160   3.909   3.452
  363SOL    HW1 1988   5.116   3.824   3.482
  363SOL    HW2 1989   5.244   3.888   3.402
  364SOL     OW 1990   6.624   4.994   6.939
  364SOL    HW1 1991   6.584   4.953   0.002
  364SOL    HW2 1992   6.723   4.979   6.939
  365SOL     OW 1993   6.151   5.854   1.605
  365SOL    HW1 1994   6.222   5.818   1.666
  365SOL    HW2 1995   6.118   5.942   1.641
  366SOL     OW 1996   5.341   0.603   6.218
  366SOL    HW1 1997   5.313   0.699   6.220
  366SOL    HW2 1998   5.283   0.553   6.154
  367SOL     OW 1999   5.591   3.298   1.408
  367SOL    HW1 2000   5.497   3.266   1.396
  367SOL    HW2 2001   5.608   3.375   1.347
  368SOL     OW 2002   0.215   2.877   4.721
  368SOL    HW1 2003   0.123   2.865   4.759
  368SOL    HW2 2004   0.234   2.975   4.712
  369SOL     OW 2005   6.235   5.261   2.326
  369SOL    HW1 2006   6.194   5.173   2.349
  369SOL    HW2 2007   6.170   5.317   2.275
  370SOL     OW 2008   2.151   1.303   5.208
  370SOL    HW1 2009   2.092   1.280   5.130
  370SOL    HW2 2010   2.167   1.221   5.263
  371SOL     OW 2011   2.339   3.857   5.939
  371SOL    HW1 2012   2.402   3.926   5.975
  371SOL    HW2 2013   2.253   3.901   5.915
  372SOL     OW 2014   1.164   0.167   6.150
  372SOL    HW1 2015   1.252   0.158   6.197
  372SOL    HW2 2016   1.171   0.126   6.059
  373SOL     OW 2017   6.140   6.495   4.127
  373SOL    HW1 2018   6.078   6.488   4.049
  373SOL    HW2 2019   6.092   6.538   4.203
  374SOL     OW 2020   2.991   1.903   3.840
  374SOL    HW1 2021   3.087   1.912   3.817
  374SOL    HW2 2022   2.971   1.807   3.861
  375SOL     OW 2023   0.956   4.374   4.431
  375SOL    HW1 2024   1.045   4.329   4.434
  375SOL    HW2 2025   0.909   4.361   4.518
  376SOL     OW 2026   2.691   1.194   5.232
  376SOL    HW1 2027   2.726   1.279   5.192
  376SOL    HW2 2028   2.592   1.188   5.217
  377SOL     OW 2029   1.371   2.122   1.171
  377SOL    HW1 2030   1.402   2.047   1.230
  377SOL    HW2 2031   1.449   2.161   1.123
  378SOL     OW 2032   4.722   2.653   6.525
  378SOL    HW1 2033   4.780   2.633   6.604
  378SOL    HW2 2034   4.651   2.719   6.551
  379SOL     OW 2035   6.361   3.333   1.067
  379SOL    HW1 2036   6.372   3.421   1.114
  379SOL    HW2 2037   6.397   3.260   1.125
  380SOL     OW 2038   2.130   1.215   0.417
  380SOL    HW1 2039   2.144   1.116   0.418
  380SOL    HW2 2040   2.033   1.234   0.403
  381SOL     OW 2041   1.285   4.038   2.562
  381SOL    HW1 2042   1.372   4.046   2.611
  381SOL    HW2 2043   1.302   4.004   2.469
  382SOL     OW 2044   5.707   0.326   6.910
  382SOL    HW1 2045   5.610   0.303   6.921
  382SOL    HW2 2046   5.718   0.424   6.900
  383SOL     OW 2047   4.051   3.825   6.161
  383SOL    HW1 2048   4.015   3.888   6.230
  383SOL    HW2 2049   3.977   3.792   6.104
  384SOL     OW 2050   6.734   5.844   4.008
  384SOL    HW1 2051   6.781   5.925   4.041
  384SOL    HW2 2052   6.770   5.763   4.053
  385SOL     OW 2053   3.456   4.876   5.610
  385SOL    HW1 2054   3.525   4.846   5.544
  385SOL    HW2 2055   3.469   4.827   5.696
  386SOL     OW 2056   1.882   6.849   5.300
  386SOL    HW1 2057   1.865   6.928   5.360
  386SOL    HW2 2058   1.797   6.819   5.258
  387SOL     OW 2059   1.092   6.769   2.967
  387SOL    HW1 2060   1.044   6.719   2.894
  387SOL    HW2 2061   1.068   6.866   2.962
  388SOL     OW 2062   1.259   1.743   4.936
  388SOL    HW1 2063   1.206   1.716   5.017
  388SOL    HW2 2064   1.307   1.664   4.900
  389SOL     OW 2065   3.976   4.315   1.426
  389SOL    HW1 2066   4.033   4.234   1.411
  389SOL    HW2 2067   4.034   4.397   1.425
  390SOL     OW 2068   3.297   1.178   0.296
  390SOL    HW1 2069   3.392   1.147   0.294
  390SOL    HW2 2070   3.291   1.272   0.264
  391SOL     OW 2071   2.154   3.007   6.320
  391SOL    HW1 2072   2.208   3.091   6.319
  391SOL    HW2 2073   2.215   2.928   6.323
  392SOL     OW 2074   1.316   4.404   0.624
  392SOL    HW1 2075   1.414   4.400   0.603
  392SOL    HW2 2076   1.271   4.468   0.562
  393SOL     OW 2077   1.611   4.617   6.490
  393SOL    HW1 2078   1.639   4.521   6.490
  393SOL    HW2 2079   1.587   4.645   6.398
  394SOL     OW 2080   6.907   2.236   0.695
  394SOL    HW1 2081   6.923   2.314   0.634
  394SOL    HW2 2082   6.809   2.226   0.710
  395SOL     OW 2083   5.288   4.219   3.337
  395SOL    HW1 2084   5.297   4.271   3.422
  395SOL    HW2 2085   5.361   4.152   3.331
  396SOL     OW 2086   2.988   3.656   1.945
  396SOL    HW1 2087   3.035   3.727   1.998
  396SOL    HW2 2088   2.928   3.604   2.005
  397SOL     OW 2089   5.890   1.925   5.815
  397SOL    HW1 2090   5.933   1.915   5.904
  397SOL    HW2 2091   5.908   1.844   5.759
  398SOL     OW 2092   1.531   0.380   2.883
  398SOL    HW1 2093   1.571   0.418   2.800
  398SOL    HW2 2094   1.503   0.285   2.867
  399SOL     OW 2095   5.228   6.266   2.512
  399SOL    HW1 2096   5.324   6.239   2.521
  399SOL    HW2 2097   5.183   6.261   2.601
  400SOL     OW 2098   6.426   6.421   5.595
  400SOL    HW1 2099   6.423   6.434   5.694
  400SOL    HW2 2100   6.336   6.440   5.556
  401SOL     OW 2101   5.750   0.205   6.432
  401SOL    HW1 2102   5.679   0.274   6.445
  401SOL    HW2 2103   5.837   0.251   6.410
  402SOL     OW 2104   6.308   0.221   3.964
  402SOL    HW1 2105   6.231   0.176   3.918
  402SOL    HW2 2106   6.358   0.155   4.019
  403SOL     OW 2107   3.996   1.270   4.549
  403SOL    HW1 2108   4.020   1.228   4.636
  403SOL    HW2 2109   3.899   1.252   4.529
  404SOL     OW 2110   1.501   5.268   3.915
  404SOL    HW1 2111   1.570   5.280   3.843
  404SOL    HW2 2112   1.524   5.187   3.970
  405SOL     OW 2113   2.219   2.910   2.445
  405SOL    HW1 2114   2.197   3.006   2.457
  405SOL    HW2 2115   2.215   2.887   2.348
  406SOL     OW 2116   0.918   4.832   4.988
  406SOL    HW1 2117   0.947   4.877   5.073
  406SOL    HW2 2118   0.888   4.901   4.923
  407SOL     OW 2119   0.267   1.181   4.762
  407SOL    HW1 2120   0.224   1.244   4.826
  407SOL    HW2 2121   0.363   1.206   4.750
  408SOL     OW 2122   2.262   1.956   3.186
  408SOL    HW1 2123   2.178   1.915   3.150
  408SOL    HW2 2124   2.312   2.002   3.113
  409SOL     OW 2125   6.633   3.436   2.503
  409SOL    HW1 2126   6.653   3.466   2.597
  409SOL    HW2 2127   6.535   3.450   2.485
  410SOL     OW 2128   1.522   1.348   1.080
  410SOL    HW1 2129   1.503   1.351   1.178
  410SOL    HW2 2130   1.451   1.398   1.031
  411SOL     OW 2131   6.523   0.786   1.619
  411SOL    HW1 2132   6.517   0.885   1.626
  411SOL    HW2 2133   6.619   0.760   1.605
  412SOL     OW 2134   3.028   5.883   3.292
  412SOL    HW1 2135   2.971   5.868   3.373
  412SOL    HW2 2136   3.122   5.900   3.321
  413SOL     OW 2137   5.945   3.829   2.131
  413SOL    HW1 2138   6.036   3.859   2.159
  413SOL    HW2 2139   5.953   3.749   2.071
  414SOL     OW 2140   3.226   5.086   3.207
  414SOL    HW1 2141   3.275   5.081   3.120
  414SOL    HW2 2142   3.133   5.118   3.191
  415SOL     OW 2143   0.995   6.402   6.458
  415SOL    HW1 2144   0.910   6.454   6.460
  415SOL    HW2 2145   0.975   6.305   6.447
  416SOL     OW 2146   4.778   6.245   4.707
  416SOL    HW1 2147   4.728   6.329   4.685
  416SOL    HW2 2148   4.748   6.172   4.647
  417SOL     OW 2149   2.057   5.911   5.766
  417SOL    HW1 2150   2.109   5.995   5.751
  417SOL    HW2 2151   2.113   5.832   5.742
  418SOL     OW 2152   4.000   6.592   6.593
  418SOL    HW1 2153   3.938   6.617   6.667
  418SOL    HW2 2154   4.024   6.495   6.602
  419SOL     OW 2155   1.779   6.371   1.594
  419SOL    HW1 2156   1.750   6.466   1.585
  419SOL    HW2 2157   1.746   6.319   1.514
  420SOL     OW 2158   6.265   1.681   0.431
  420SOL    HW1 2159   6.178   1.652   0.390
  420SOL    HW2 2160   6.274   1.780   0.423
  421SOL     OW 2161   6.999   3.866   5.005
  421SOL    HW1 2162   6.927   3.884   5.072
  421SOL    HW2 2163   6.964   3.886   4.914
  422SOL     OW 2164   5.370   3.677   1.336
  422SOL    HW1 2165   5.321   3.764   1.343
  422SOL    HW2 2166   5.422   3.660   1.420
  423SOL     OW 2167   0.637   2.651   5.976
  423SOL    HW1 2168   0.637   2.666   6.075
  423SOL    HW2 2169   0.730   2.655   5.941
  424SOL     OW 2170   1.341   5.322   0.904
  424SOL    HW1 2171   1.365   5.353   0.996
  424SOL    HW2 2172   1.370   5.391   0.837
  425SOL     OW 2173   4.765   1.895   3.479
  425SOL    HW1 2174   4.861   1.909   3.458
  425SOL    HW2 2175   4.756   1.830   3.554
  426SOL     OW 2176   2.882   1.598   4.444
  426SOL    HW1 2177   2.805   1.613   4.506
  426SOL    HW2 2178   2.902   1.681   4.393
  427SOL     OW 2179   5.470   6.767   3.815
  427SOL    HW1 2180   5.489   6.739   3.721
  427SOL    HW2 2181   5.535   6.724   3.877
  428SOL     OW 2182   4.403   6.873   3.394
  428SOL    HW1 2183   4.430   6.964   3.426
  428SOL    HW2 2184   4.306   6.858   3.414
  429SOL     OW 2185   0.872   5.218   2.787
  429SOL    HW1 2186   0.864   5.121   2.811
  429SOL    HW2 2187   0.915   5.227   2.698
  430SOL     OW 2188   1.554   6.823   4.267
  430SOL    HW1 2189   1.548   6.749   4.200
  430SOL    HW2 2190   1.462   6.846   4.299
  431SOL     OW 2191   2.719   0.698   1.162
  431SOL    HW1 2192   2.712   0.769   1.231
  431SOL    HW2 2193   2.805   0.707   1.112
  432SOL     OW 2194   6.256   2.573   1.228
  432SOL    HW1 2195   6.207   2.637   1.288
  432SOL    HW2 2196   6.353   2.596   1.226
  433SOL     OW 2197   1.964   6.619   4.921
  433SOL    HW1 2198   1.955   6.686   4.995
  433SOL    HW2 2199   2.045   6.640   4.867
  434SOL     OW 2200   3.884   5.216   3.596
  434SOL    HW1 2201   3.888   5.315   3.610
  434SOL    HW2 2202   3.943   5.170   3.662
  435SOL     OW 2203   4.618   2.353   6.816
  435SOL    HW1 2204   4.621   2.269   6.871
  435SOL    HW2 2205   4.712   2.383   6.798
  436SOL     OW 2206   3.129   4.960   1.551
  436SOL    HW1 2207   3.088   4.869   1.540
  436SOL    HW2 2208   3.201   4.972   1.483
  437SOL     OW 2209   0.747   1.356   6.322
  437SOL    HW1 2210   0.665   1.380   6.375
  437SOL    HW2 2211   0.757   1.257   6.319
  438SOL     OW 2212   2.094   3.900   4.074
  438SOL    HW1 2213   2.050   3.983   4.109
  438SOL    HW2 2214   2.116   3.912   3.977
  439SOL     OW 2215   6.143   6.081   2.307
  439SOL    HW1 2216   6.191   6.085   2.219
  439SOL    HW2 2217   6.154   5.989   2.346
  440SOL     OW 2218   2.564   2.163   5.386
  440SOL    HW1 2219   2.588   2.070   5.415
  440SOL    HW2 2220   2.536   2.162   5.290
  441SOL     OW 2221   0.355   3.353   3.816
  441SOL    HW1 2222   0.270   3.319   3.857
  441SOL    HW2 2223   0.420   3.277   3.808
  442SOL     OW 2224   3.986   6.030   5.557
  442SOL    HW1 2225   3.909   6.053   5.616
  442SOL    HW2 2226   4.029   6.114   5.523
  443SOL     OW 2227   5.816   4.406   4.256
  443SOL    HW1 2228   5.797   4.316   4.297
  443SOL    HW2 2229   5.789   4.478   4.320
  444SOL     OW 2230   4.825   1.028   6.149
  444SOL    HW1 2231   4.857   0.952   6.092
  444SOL    HW2 2232   4.858   1.016   6.242
  445SOL     OW 2233   1.659   5.877   2.691
  445SOL    HW1 2234   1.758   5.871   2.677
  445SOL    HW2 2235   1.612   5.854   2.606
  446SOL     OW 2236   3.855   4.905   2.998
  446SOL    HW1 2237   3.775   4.886   2.941
  446SOL    HW2 2238   3.919   4.828   2.993
  447SOL     OW 2239   0.091   3.086   5.984
  447SOL    HW1 2240   0.054   3.177   5.965
  447SOL    HW2 2241   0.093   3.032   5.899
  448SOL     OW 2242   2.354   0.466   2.779
  448SOL    HW1 2243   2.398   0.479   2.690
  448SOL    HW2 2244   2.332   0.554   2.819
  449SOL     OW 2245   2.570   1.245   3.911
  449SOL    HW1 2246   2.643   1.185   3.879
  449SOL    HW2 2247   2.514   1.274   3.834
  450SOL     OW 2248   1.615   4.813   3.300
  450SOL    HW1 2249   1.544   4.762   3.348
  450SOL    HW2 2250   1.672   4.862   3.365
  451SOL     OW 2251   1.448   2.323   4.850
  451SOL    HW1 2252   1.351   2.339   4.831
  451SOL    HW2 2253   1.503   2.354   4.772
  452SOL     OW 2254   5.245   6.892   0.566
  452SOL    HW1 2255   5.240   6.796   0.539
  452SOL    HW2 2256   5.322   6.935   0.519
  453SOL     OW 2257   3.558   0.787   6.558
  453SOL    HW1 2258   3.598   0.801   6.467
  453SOL    HW2 2259   3.589   0.859   6.619
  454SOL     OW 2260   0.137   4.213   6.180
  454SOL    HW1 2261   0.148   4.214   6.280
  454SOL    HW2 2262   0.057   4.267   6.155
  455SOL     OW 2263   5.343   2.463   4.639
  455SOL    HW1 2264   5.310   2.548   4.600
  455SOL    HW2 2265   5.300   2.385   4.592
  456SOL     OW 2266   0.460   0.300   3.715
  456SOL    HW1 2267   0.393   0.313   3.788
  456SOL    HW2 2268   0.550   0.330   3.746
  457SOL     OW 2269   1.922   3.781   4.926
  457SOL    HW1 2270   1.940   3.812   5.019
  457SOL    HW2 2271   1.925   3.860   4.864
  458SOL     OW 2272   3.092   5.970   2.707
  458SOL    HW1 2273   3.160   6.042   2.711
  458SOL    HW2 2274   3.007   6.005   2.667
  459SOL     OW 2275   2.485   6.843   6.340
  459SOL    HW1 2276   2.392   6.832   6.304
  459SOL    HW2 2277   2.484   6.833   6.439
  460SOL     OW 2278   2.005   6.842   4.307
  460SOL    HW1 2279   2.042   6.916   4.251
  460SOL    HW2 2280   2.000   6.873   4.403
  461SOL     OW 2281   6.767   5.512   5.805
  461SOL    HW1 2282   6.741   5.422   5.840
  461SOL    HW2 2283   6.716   5.582   5.853
  462SOL     OW 2284   4.060   3.330   6.472
  462SOL    HW1 2285   4.042   3.409   6.413
  462SOL    HW2 2286   4.054   3.246   6.418
  463SOL     OW 2287   6.543   6.117   3.980
  463SOL    HW1 2288   6.576   6.037   3.930
  463SOL    HW2 2289   6.443   6.120   3.975
  464SOL     OW 2290   2.959   1.098   5.236
  464SOL    HW1 2291   2.860   1.084   5.229
  464SOL    HW2 2292   2.977   1.192   5.265
  465SOL     OW 2293   0.623   2.179   0.282
  465SOL    HW1 2294   0.667   2.130   0.357
  465SOL    HW2 2295   0.643   2.134   0.195
  466SOL     OW 2296   2.180   6.555   4.029
  466SOL    HW1 2297   2.218   6.470   3.993
  466SOL    HW2 2298   2.150   6.541   4.124
  467SOL     OW 2299   1.886   1.305   1.892
  467SOL    HW1 2300   1.867   1.222   1.839
  467SOL    HW2 2301   1.867   1.385   1.835
  468SOL     OW 2302   3.349   6.219   5.252
  468SOL    HW1 2303   3.278   6.153   5.276
  468SOL    HW2 2304   3.404   6.182   5.177
  469SOL     OW 2305   2.617   3.726   6.274
  469SOL    HW1 2306   2.552   3.661   6.314
  469SOL    HW2 2307   2.701   3.677   6.247
  470SOL     OW 2308   4.472   6.196   0.911
  470SOL    HW1 2309   4.555   6.221   0.960
  470SOL    HW2 2310   4.493   6.126   0.843
  471SOL     OW 2311   2.411   2.604   3.998
  471SOL    HW1 2312   2.450   2.596   4.090
  471SOL    HW2 2313   2.324   2.555   3.995
  472SOL     OW 2314   5.386   4.564   6.474
  472SOL    HW1 2315   5.332   4.638   6.513
  472SOL    HW2 2316   5.483   4.582   6.489
  473SOL     OW 2317   1.220   2.099   2.579
  473SOL    HW1 2318   1.192   2.116   2.484
  473SOL    HW2 2319   1.181   2.013   2.610
  474SOL     OW 2320   5.322   5.662   4.502
  474SOL    HW1 2321   5.294   5.732   4.568
  474SOL    HW2 2322   5.421   5.655   4.501
  475SOL     OW 2323   6.419   2.628   0.180
  475SOL    HW1 2324   6.326   2.664   0.191
  475SOL    HW2 2325   6.417   2.549   0.120
  476SOL     OW 2326   0.070   3.726   2.293
  476SOL    HW1 2327   7.012   3.777   2.330
  476SOL    HW2 2328   0.058   3.628   2.312
  477SOL     OW 2329   2.651   5.869   2.905
  477SOL    HW1 2330   2.593   5.796   2.942
  477SOL    HW2 2331   2.678   5.847   2.811
  478SOL     OW 2332   4.029   6.334   2.619
  478SOL    HW1 2333   3.946   6.344   2.675
  478SOL    HW2 2334   4.100   6.290   2.673
  479SOL     OW 2335   3.578   3.463   5.135
  479SOL    HW1 2336   3.603   3.436   5.228
  479SOL    HW2 2337   3.496   3.412   5.106
  480SOL     OW 2338   2.298   0.422   0.975
  480SOL    HW1 2339   2.300   0.403   1.073
  480SOL    HW2 2340   2.333   0.514   0.958
  481SOL     OW 2341   0.892   6.561   1.564
  481SOL    HW1 2342   0.890   6.472   1.610
  481SOL    HW2 2343   0.954   6.622   1.613
  482SOL     OW 2344   4.592   4.624   2.311
  482SOL    HW1 2345   4.553   4.623   2.403
  482SOL    HW2 2346   4.591   4.531   2.273
  483SOL     OW 2347   6.391   1.970   2.866
  483SOL    HW1 2348   6.461   1.951   2.934
  483SOL    HW2 2349   6.322   2.031   2.906
  484SOL     OW 2350   1.726   3.833   5.527
  484SOL    HW1 2351   1.653   3.767   5.510
  484SOL    HW2 2352   1.813   3.784   5.537
  485SOL     OW 2353   4.067   4.764   2.648
  485SOL    HW1 2354   3.977   4.780   2.606
  485SOL    HW2 2355   4.126   4.717   2.583
  486SOL     OW 2356   6.745   1.276   0.256
  486SOL    HW1 2357   6.673   1.324   0.306
  486SOL    HW2 2358   6.787   1.338   0.190
  487SOL     OW 2359   0.698   0.316   3.142
  487SOL    HW1 2360   0.779   0.258   3.142
  487SOL    HW2 2361   0.654   0.312   3.052
  488SOL     OW 2362   1.344   0.586   2.716
  488SOL    HW1 2363   1.343   0.636   2.802
  488SOL    HW2 2364   1.436   0.591   2.676
  489SOL     OW 2365   5.324   5.942   5.654
  489SOL    HW1 2366   5.356   5.982   5.568
  489SOL    HW2 2367   5.402   5.921   5.712
  490SOL     OW 2368   1.656   6.158   3.468
  490SOL    HW1 2369   1.660   6.058   3.475
  490SOL    HW2 2370   1.704   6.188   3.386
  491SOL     OW 2371   1.315   3.010   1.955
  491SOL    HW1 2372   1.255   3.032   1.879
  491SOL    HW2 2373   1.264   2.957   2.024
  492SOL     OW 2374   1.123   1.054   5.776
  492SOL    HW1 2375   1.037   1.104   5.791
  492SOL    HW2 2376   1.196   1.119   5.756
  493SOL     OW 2377   3.679   6.441   5.614
  493SOL    HW1 2378   3.771   6.415   5.643
  493SOL    HW2 2379   3.631   6.486   5.689
  494SOL     OW 2380   1.297   6.870   6.380
  494SOL    HW1 2381   1.215   6.914   6.341
  494SOL    HW2 2382   1.334   6.929   6.451
  495SOL     OW 2383   4.137   5.656   3.601
  495SOL    HW1 2384   4.152   5.694   3.510
  495SOL    HW2 2385   4.222   5.661   3.653
  496SOL     OW 2386   5.664   2.916   2.030
  496SOL    HW1 2387   5.603   2.979   1.982
  496SOL    HW2 2388   5.696   2.845   1.966
  497SOL     OW 2389   3.305   1.451   4.559
  497SOL    HW1 2390   3.365   1.428   4.483
  497SOL    HW2 2391   3.359   1.467   4.642
  498SOL     OW 2392   0.608   5.198   2.590
  498SOL    HW1 2393   0.678   5.243   2.645
  498SOL    HW2 2394   0.575   5.116   2.637
  499SOL     OW 2395   1.837   5.282   4.764
  499SOL    HW1 2396   1.905   5.292   4.692
  499SOL    HW2 2397   1.797   5.191   4.761
  500SOL     OW 2398   6.588   2.547   6.218
  500SOL    HW1 2399   6.493   2.572   6.200
  500SOL    HW2 2400   6.593   2.452   6.248
  501SOL     OW 2401   4.078   0.009   0.710
  501SOL    HW1 2402   3.979   0.020   0.721
  501SOL    HW2 2403   4.102   0.014   0.613
  502SOL     OW 2404   0.681   4.584   5.898
  502SOL    HW1 2405   0.747   4.509   5.892
  502SOL    HW2 2406   0.589   4.547   5.908
  503SOL     OW 2407   0.465   4.731   6.870
  503SOL    HW1 2408   0.535   4.715   6.940
  503SOL    HW2 2409   0.510   4.761   6.786
  504SOL     OW 2410   0.747   5.549   2.482
  504SOL    HW1 2411   0.680   5.577   2.412
  504SOL    HW2 2412   0.817   5.491   2.439
  505SOL     OW 2413   3.564   6.142   4.703
  505SOL    HW1 2414   3.499   6.107   4.637
  505SOL    HW2 2415   3.599   6.066   4.759
  506SOL     OW 2416   3.616   5.333   2.755
  506SOL    HW1 2417   3.698   5.311   2.809
  506SOL    HW2 2418   3.579   5.420   2.786
  507SOL     OW 2419   3.520   6.490   2.879
  507SOL    HW1 2420   3.432   6.530   2.905
  507SOL    HW2 2421   3.527   6.398   2.918
  508SOL     OW 2422   7.013   3.374   3.006
  508SOL    HW1 2423   6.964   3.458   3.029
  508SOL    HW2 2424   0.092   3.386   3.024
  509SOL     OW 2425   3.169   1.656   0.917
  509SOL    HW1 2426   3.246   1.718   0.911
  509SOL    HW2 2427   3.152   1.632   1.012
  510SOL     OW 2428   6.134   4.029   7.002
  510SOL    HW1 2429   6.183   3.942   6.990
  510SOL    HW2 2430   6.036   4.011   7.014
  511SOL     OW 2431   0.962   2.995   6.210
  511SOL    HW1 2432   0.887   3.045   6.168
  511SOL    HW2 2433   0.990   2.920   6.150
  512SOL     OW 2434   0.163   2.068   6.736
  512SOL    HW1 2435   0.261   2.051   6.741
  512SOL    HW2 2436   0.147   2.161   6.702
  513SOL     OW 2437   5.580   0.061   3.314
  513SOL    HW1 2438   5.647   7.006   3.320
  513SOL    HW2 2439   5.602   0.132   3.380
  514SOL     OW 2440   6.451   0.441   4.411
  514SOL    HW1 2441   6.522   0.508   4.389
  514SOL    HW2 2442   6.366   0.488   4.436
  515SOL     OW 2443   1.065   0.785   1.187
  515SOL    HW1 2444   1.057   0.713   1.256
  515SOL    HW2 2445   0.982   0.786   1.130
  516SOL     OW 2446   2.607   4.729   2.117
  516SOL    HW1 2447   2.669   4.698   2.045
  516SOL    HW2 2448   2.638   4.692   2.205
  517SOL     OW 2449   3.494   4.937   2.057
  517SOL    HW1 2450   3.522   4.878   1.981
  517SOL    HW2 2451   3.513   5.032   2.034
  518SOL     OW 2452   2.267   2.275   3.694
  518SOL    HW1 2453   2.332   2.262   3.769
  518SOL    HW2 2454   2.219   2.362   3.706
  519SOL     OW 2455   0.850   6.522   3.345
  519SOL    HW1 2456   0.765   6.482   3.381
  519SOL    HW2 2457   0.843   6.530   3.246
  520SOL     OW 2458   6.305   3.406   6.758
  520SOL    HW1 2459   6.350   3.475   6.701
  520SOL    HW2 2460   6.372   3.338   6.786
  521SOL     OW 2461   6.711   6.641   5.233
  521SOL    HW1 2462   6.792   6.585   5.217
  521SOL    HW2 2463   6.632   6.582   5.247
  522SOL     OW 2464   3.741   3.340   4.176
  522SOL    HW1 2465   3.744   3.423   4.231
  522SOL    HW2 2466   3.797   3.353   4.094
  523SOL     OW 2467   0.069   6.161   1.451
  523SOL    HW1 2468   0.113   6.182   1.364
  523SOL    HW2 2469   6.999   6.206   1.455
  524SOL     OW 2470   1.017   2.343   2.687
  524SOL    HW1 2471   0.923   2.326   2.660
  524SOL    HW2 2472   1.040   2.288   2.767
  525SOL     OW 2473   2.302   4.258   6.335
  525SOL    HW1 2474   2.327   4.163   6.353
  525SOL    HW2 2475   2.319   4.279   6.238
  526SOL     OW 2476   3.557   6.354   4.001
  526SOL    HW1 2477   3.551   6.438   4.055
  526SOL    HW2 2478   3.495   6.286   4.039
  527SOL     OW 2479   0.067   2.866   0.566
  527SOL    HW1 2480   0.015   2.950   0.548
  527SOL    HW2 2481   0.165   2.887   0.564
  528SOL     OW 2482   1.757   2.293   3.396
  528SOL    HW1 2483   1.738   2.258   3.304
  528SOL    HW2 2484   1.741   2.220   3.463
  529SOL     OW 2485   1.851   6.124   4.979
  529SOL    HW1 2486   1.809   6.186   4.913
  529SOL    HW2 2487   1.836   6.029   4.951
  530SOL     OW 2488   4.024   3.503   3.605
  530SOL    HW1 2489   4.071   3.579   3.560
  530SOL    HW2 2490   3.937   3.485   3.558
  531SOL     OW 2491   0.636   1.938   2.774
  531SOL    HW1 2492   0.573   2.004   2.732
  531SOL    HW2 2493   0.730   1.963   2.754
  532SOL     OW 2494   0.731   2.420   0.407
  532SOL    HW1 2495   0.828   2.396   0.414
  532SOL    HW2 2496   0.690   2.370   0.330
  533SOL     OW 2497   4.341   6.871   3.104
  533SOL    HW1 2498   4.382   6.846   3.192
  533SOL    HW2 2499   4.257   6.818   3.091
  534SOL     OW 2500   5.298   5.880   2.600
  534SOL    HW1 2501   5.237   5.846   2.672
  534SOL    HW2 2502   5.345   5.962   2.632
  535SOL     OW 2503   6.515   3.572   3.941
  535SOL    HW1 2504   6.599   3.610   3.980
  535SOL    HW2 2505   6.509   3.475   3.964
  536SOL     OW 2506   5.805   4.493   2.835
  536SOL    HW1 2507   5.889   4.483   2.782
  536SOL    HW2 2508   5.732   4.526   2.776
  537SOL     OW 2509   3.086   6.791   4.865
  537SOL    HW1 2510   3.026   6.852   4.917
  537SOL    HW2 2511   3.179   6.826   4.868
  538SOL     OW 2512   1.041   4.521   4.174
  538SOL    HW1 2513   1.053   4.472   4.261
  538SOL    HW2 2514   1.131   4.543   4.136
  539SOL     OW 2515   1.663   4.663   1.259
  539SOL    HW1 2516   1.612   4.616   1.330
  539SOL    HW2 2517   1.741   4.711   1.300
  540SOL     OW 2518   1.784   1.725   2.784
  540SOL    HW1 2519   1.726   1.711   2.704
  540SOL    HW2 2520   1.727   1.727   2.866
  541SOL     OW 2521   5.507   5.456   4.075
  541SOL    HW1 2522   5.507   5.417   3.983
  541SOL    HW2 2523   5.518   5.556   4.068
  542SOL     OW 2524   5.737   6.803   6.616
  542SOL    HW1 2525   5.721   6.875   6.548
  542SOL    HW2 2526   5.662   6.802   6.681
  543SOL     OW 2527   6.697   4.112   4.738
  543SOL    HW1 2528   6.777   4.052   4.734
  543SOL    HW2 2529   6.630   4.074   4.801
  544SOL     OW 2530   1.396   5.051   0.305
  544SOL    HW1 2531   1.369   5.031   0.211
  544SOL    HW2 2532   1.337   5.001   0.368
  545SOL     OW 2533   3.298   1.569   0.660
  545SOL    HW1 2534   3.268   1.613   0.745
  545SOL    HW2 2535   3.244   1.486   0.644
  546SOL     OW 2536   1.580   3.872   0.280
  546SOL    HW1 2537   1.669   3.878   0.326
  546SOL    HW2 2538   1.552   3.963   0.249
  547SOL     OW 2539   3.015   1.790   0.286
  547SOL    HW1 2540   3.017   1.890   0.294
  547SOL    HW2 2541   3.109   1.755   0.288
  548SOL     OW 2542   3.207   3.308   1.671
  548SOL    HW1 2543   3.272   3.291   1.597
  548SOL    HW2 2544   3.119   3.266   1.647
  549SOL     OW 2545   5.649   2.431   1.050
  549SOL    HW1 2546   5.632   2.500   1.121
  549SOL    HW2 2547   5.598   2.347   1.072
  550SOL     OW 2548   1.367   5.486   4.017
  550SOL    HW1 2549   1.422   5.404   3.999
  550SOL    HW2 2550   1.282   5.481   3.965
  551SOL     OW 2551   1.062   0.047   2.270
  551SOL    HW1 2552   1.150   0.043   2.224
  551SOL    HW2 2553   1.000   0.107   2.219
  552SOL     OW 2554   6.279   4.770   6.704
  552SOL    HW1 2555   6.247   4.812   6.789
  552SOL    HW2 2556   6.364   4.814   6.675
  553SOL     OW 2557   2.388   6.423   3.877
  553SOL    HW1 2558   2.437   6.351   3.925
  553SOL    HW2 2559   2.450   6.500   3.860
  554SOL     OW 2560   6.151   6.903   7.015
  554SOL    HW1 2561   6.124   6.819   6.967
  554SOL    HW2 2562   6.078   6.971   7.005
  555SOL     OW 2563   2.922   4.803   4.592
  555SOL    HW1 2564   2.892   4.781   4.684
  555SOL    HW2 2565   3.016   4.769   4.579
  556SOL     OW 2566   4.597   2.103   3.438
  556SOL    HW1 2567   4.616   2.201   3.444
  556SOL    HW2 2568   4.682   2.052   3.455
  557SOL     OW 2569   0.103   5.548   1.019
  557SOL    HW1 2570   0.147   5.541   1.108
  557SOL    HW2 2571   0.155   5.495   0.952
  558SOL     OW 2572   2.861   3.645   3.317
  558SOL    HW1 2573   2.764   3.626   3.334
  558SOL    HW2 2574   2.915   3.619   3.397
  559SOL     OW 2575   0.315   5.422   6.651
  559SOL    HW1 2576   0.345   5.336   6.609
  559SOL    HW2 2577   0.290   5.487   6.579
  560SOL     OW 2578   5.678   4.294   4.558
  560SOL    HW1 2579   5.691   4.278   4.460
  560SOL    HW2 2580   5.581   4.294   4.580
  561SOL     OW 2581   0.411   1.947   1.467
  561SOL    HW1 2582   0.374   2.025   1.519
  561SOL    HW2 2583   0.418   1.972   1.371
  562SOL     OW 2584   4.501   6.735   6.350
  562SOL    HW1 2585   4.470   6.828   6.367
  562SOL    HW2 2586   4.470   6.706   6.260
  563SOL     OW 2587   2.757   0.073   3.348
  563SOL    HW1 2588   2.841   0.121   3.323
  563SOL    HW2 2589   2.754   7.004   3.301
  564SOL     OW 2590   1.214   2.896   6.852
  564SOL    HW1 2591   1.213   2.986   6.896
  564SOL    HW2 2592   1.151   2.835   6.899
  565SOL     OW 2593   3.215   2.989   4.956
  565SOL    HW1 2594   3.193   2.961   5.049
  565SOL    HW2 2595   3.130   3.013   4.908
  566SOL     OW 2596   0.615   4.452   3.872
  566SOL    HW1 2597   0.616   4.531   3.933
  566SOL    HW2 2598   0.521   4.418   3.864
  567SOL     OW 2599   2.661   2.680   1.325
  567SOL    HW1 2600   2.636   2.689   1.422
  567SOL    HW2 2601   2.760   2.683   1.316
  568SOL     OW 2602   5.098   0.428   6.898
  568SOL    HW1 2603   5.080   0.467   6.988
  568SOL    HW2 2604   5.042   0.346   6.885
  569SOL     OW 2605   1.971   2.568   0.235
  569SOL    HW1 2606   1.918   2.652   0.224
  569SOL    HW2 2607   2.059   2.577   0.187
  570SOL     OW 2608   4.422   6.169   6.693
  570SOL    HW1 2609   4.353   6.128   6.752
  570SOL    HW2 2610   4.379   6.203   6.610
  571SOL     OW 2611   3.373   5.909   2.495
  571SOL    HW1 2612   3.420   5.824   2.517
  571SOL    HW2 2613   3.274   5.896   2.506
  572SOL     OW 2614   2.528   4.883   5.464
  572SOL    HW1 2615   2.538   4.889   5.365
  572SOL    HW2 2616   2.544   4.789   5.494
  573SOL     OW 2617   4.841   1.290   6.072
  573SOL    HW1 2618   4.805   1.361   6.133
  573SOL    HW2 2619   4.827   1.200   6.114
  574SOL     OW 2620   3.361   1.223   4.216
  574SOL    HW1 2621   3.285   1.188   4.270
  574SOL    HW2 2622   3.337   1.313   4.179
  575SOL     OW 2623   5.221   3.779   0.806
  575SOL    HW1 2624   5.159   3.831   0.748
  575SOL    HW2 2625   5.257   3.701   0.755
  576SOL     OW 2626   1.467   2.080   3.333
  576SOL    HW1 2627   1.535   2.124   3.274
  576SOL    HW2 2628   1.461   2.129   3.420
  577SOL     OW 2629   1.459   1.598   3.071
  577SOL    HW1 2630   1.450   1.514   3.018
  577SOL    HW2 2631   1.541   1.648   3.042
  578SOL     OW 2632   6.179   5.371   4.282
  578SOL    HW1 2633   6.220   5.325   4.204
  578SOL    HW2 2634   6.186   5.470   4.270
  579SOL     OW 2635   1.813   3.159   3.684
  579SOL    HW1 2636   1.868   3.242   3.680
  579SOL    HW2 2637   1.791   3.138   3.779
  580SOL     OW 2638   4.991   5.991   6.066
  580SOL    HW1 2639   4.946   5.903   6.051
  580SOL    HW2 2640   4.923   6.064   6.067
  581SOL     OW 2641   2.039   3.499   1.552
  581SOL    HW1 2642   1.997   3.574   1.602
  581SOL    HW2 2643   1.985   3.478   1.471
  582SOL     OW 2644   4.359   5.689   1.824
  582SOL    HW1 2645   4.416   5.718   1.901
  582SOL    HW2 2646   4.292   5.761   1.803
  583SOL     OW 2647   2.616   6.611   5.454
  583SOL    HW1 2648   2.546   6.565   5.509
  583SOL    HW2 2649   2.602   6.710   5.458
  584SOL     OW 2650   3.098   5.262   6.673
  584SOL    HW1 2651   3.082   5.360   6.686
  584SOL    HW2 2652   3.179   5.248   6.615
  585SOL     OW 2653   4.853   1.794   6.415
  585SOL    HW1 2654   4.793   1.835   6.484
  585SOL    HW2 2655   4.941   1.842   6.415
  586SOL     OW 2656   3.706   0.669   5.999
  586SOL    HW1 2657   3.609   0.656   6.019
  586SOL    HW2 2658   3.760   0.598   6.046
  587SOL     OW 2659   4.739   1.638   4.708
  587SOL    HW1 2660   4.741   1.539   4.714
  587SOL    HW2 2661   4.680   1.675   4.780
  588SOL     OW 2662   1.857   4.890   2.127
  588SOL    HW1 2663   1.806   4.972   2.152
  588SOL    HW2 2664   1.950   4.897   2.162
  589SOL     OW 2665   3.411   4.457   1.665
  589SOL    HW1 2666   3.318   4.446   1.700
  589SOL    HW2 2667   3.456   4.533   1.713
  590SOL     OW 2668   5.501   3.062   2.392
  590SOL    HW1 2669   5.475   3.024   2.303
  590SOL    HW2 2670   5.516   2.987   2.456
  591SOL     OW 2671   2.797   5.294   3.902
  591SOL    HW1 2672   2.716   5.325   3.853
  591SOL    HW2 2673   2.868   5.364   3.897
  592SOL     OW 2674   3.960   1.518   1.210
  592SOL    HW1 2675   3.880   1.474   1.250
  592SOL    HW2 2676   3.932   1.574   1.132
  593SOL     OW 2677   4.336   2.375   4.691
  593SOL    HW1 2678   4.325   2.338   4.599
  593SOL    HW2 2679   4.256   2.352   4.746
  594SOL     OW 2680   6.878   1.675   0.149
  594SOL    HW1 2681   6.857   1.755   0.093
  594SOL    HW2 2682   6.803   1.659   0.214
  595SOL     OW 2683   5.413   0.518   3.744
  595SOL    HW1 2684   5.374   0.580   3.676
  595SOL    HW2 2685   5.375   0.426   3.731
  596SOL     OW 2686   1.190   5.192   3.352
  596SOL    HW1 2687   1.275   5.245   3.357
  596SOL    HW2 2688   1.182   5.151   3.262
  597SOL     OW 2689   3.016   0.262   0.198
  597SOL    HW1 2690   2.938   0.321   0.177
  597SOL    HW2 2691   2.993   0.167   0.176
  598SOL     OW 2692   4.040   4.309   5.486
  598SOL    HW1 2693   4.011   4.215   5.502
  598SOL    HW2 2694   3.966   4.372   5.510
  599SOL     OW 2695   2.469   6.260   1.598
  599SOL    HW1 2696   2.495   6.223   1.509
  599SOL    HW2 2697   2.552   6.279   1.652
  600SOL     OW 2698   6.938   1.317   6.656
  600SOL    HW1 2699   0.014   1.300   6.684
  600SOL    HW2 2700   6.934   1.323   6.556
  601SOL     OW 2701   1.488   0.283   4.649
  601SOL    HW1 2702   1.470   0.304   4.553
  601SOL    HW2 2703   1.577   0.320   4.675
  602SOL     OW 2704   1.748   1.891   6.607
  602SOL    HW1 2705   1.829   1.835   6.625
  602SOL    HW2 2706   1.759   1.940   6.520
  603SOL     OW 2707   2.687   2.484   5.184
  603SOL    HW1 2708   2.782   2.458   5.200
  603SOL    HW2 2709   2.629   2.403   5.189
  604SOL     OW 2710   1.251   2.410   2.162
  604SOL    HW1 2711   1.273   2.318   2.129
  604SOL    HW2 2712   1.153   2.416   2.178
  605SOL     OW 2713   6.581   6.141   0.446
  605SOL    HW1 2714   6.633   6.177   0.369
  605SOL    HW2 2715   6.553   6.047   0.427
  606SOL     OW 2716   4.991   6.460   6.748
  606SOL    HW1 2717   4.961   6.422   6.660
  606SOL    HW2 2718   5.060   6.400   6.789
  607SOL     OW 2719   6.422   5.870   5.920
  607SOL    HW1 2720   6.387   5.778   5.937
  607SOL    HW2 2721   6.346   5.932   5.902
  608SOL     OW 2722   4.137   6.151   0.143
  608SOL    HW1 2723   4.103   6.196   0.060
  608SOL    HW2 2724   4.068   6.157   0.214
  609SOL     OW 2725   3.803   3.102   2.655
  609SOL    HW1 2726   3.801   3.072   2.751
  609SOL    HW2 2727   3.898   3.109   2.625
  610SOL     OW 2728   5.688   3.917   2.128
  610SOL    HW1 2729   5.785   3.895   2.124
  610SOL    HW2 2730   5.649   3.881   2.213
  611SOL     OW 2731   4.204   0.005   1.021
  611SOL    HW1 2732   4.226   0.102   1.008
  611SOL    HW2 2733   4.187   6.981   0.932
  612SOL     OW 2734   4.084   6.474   5.119
  612SOL    HW1 2735   4.154   6.472   5.190
  612SOL    HW2 2736   4.061   6.569   5.097
  613SOL     OW 2737   4.177   6.230   5.432
  613SOL    HW1 2738   4.208   6.231   5.527
  613SOL    HW2 2739   4.227   6.300   5.380
  614SOL     OW 2740   5.602   5.346   0.618
  614SOL    HW1 2741   5.650   5.421   0.572
  614SOL    HW2 2742   5.614   5.356   0.717
  615SOL     OW 2743   6.397   2.510   1.590
  615SOL    HW1 2744   6.313   2.549   1.554
  615SOL    HW2 2745   6.446   2.462   1.517
  616SOL     OW 2746   0.200   2.891   3.721
  616SOL    HW1 2747   0.208   2.989   3.740
  616SOL    HW2 2748   0.108   2.870   3.689
  617SOL     OW 2749   6.177   4.706   5.687
  617SOL    HW1 2750   6.142   4.711   5.593
  617SOL    HW2 2751   6.244   4.633   5.693
  618SOL     OW 2752   6.962   2.329   6.919
  618SOL    HW1 2753   6.882   2.278   6.887
  618SOL    HW2 2754   0.012   2.332   6.848
  619SOL     OW 2755   4.314   1.320   0.119
  619SOL    HW1 2756   4.320   1.340   0.217
  619SOL    HW2 2757   4.331   1.223   0.104
  620SOL     OW 2758   4.590   3.018   1.380
  620SOL    HW1 2759   4.585   3.007   1.479
  620SOL    HW2 2760   4.593   2.928   1.336
  621SOL     OW 2761   2.971   0.051   0.025
  621SOL    HW1 2762   2.975   0.005   6.955
  621SOL    HW2 2763   2.979   7.002   0.098
  622SOL     OW 2764   1.659   0.324   5.654
  622SOL    HW1 2765   1.591   0.381   5.607
  622SOL    HW2 2766   1.631   0.228   5.648
  623SOL     OW 2767   0.809   5.769   5.017
  623SOL    HW1 2768   0.868   5.739   5.092
  623SOL    HW2 2769   0.759   5.851   5.045
  624SOL     OW 2770   6.806   2.721   0.961
  624SOL    HW1 2771   6.866   2.779   0.907
  624SOL    HW2 2772   6.859   2.650   1.007
  625SOL     OW 2773   2.114   1.695   2.105
  625SOL    HW1 2774   2.208   1.725   2.120
  625SOL    HW2 2775   2.100   1.674   2.009
  626SOL     OW 2776   2.017   6.005   3.533
  626SOL    HW1 2777   2.114   6.016   3.556
  626SOL    HW2 2778   1.965   5.983   3.615
  627SOL     OW 2779   5.863   6.152   0.575
  627SOL    HW1 2780   5.844   6.104   0.490
  627SOL    HW2 2781   5.877   6.249   0.556
  628SOL     OW 2782   6.157   6.030   6.236
  628SOL    HW1 2783   6.145   5.937   6.201
  628SOL    HW2 2784   6.107   6.039   6.322
  629SOL     OW 2785   6.871   6.969   6.726
  629SOL    HW1 2786   6.782   6.923   6.728
  629SOL    HW2 2787   6.939   6.911   6.771
  630SOL     OW 2788   0.325   1.433   1.474
  630SOL    HW1 2789   0.242   1.483   1.499
  630SOL    HW2 2790   0.307   1.374   1.396
  631SOL     OW 2791   3.569   6.809   5.092
  631SOL    HW1 2792   3.543   6.719   5.125
  631SOL    HW2 2793   3.604   6.864   5.169
  632SOL     OW 2794   2.727   1.043   0.702
  632SOL    HW1 2795   2.783   1.063   0.622
  632SOL    HW2 2796   2.763   1.093   0.781
  633SOL     OW 2797   3.311   3.993   6.867
  633SOL    HW1 2798   3.306   4.075   6.924
  633SOL    HW2 2799   3.406   3.960   6.864
  634SOL     OW 2800   4.049   4.048   1.274
  634SOL    HW1 2801   4.051   3.957   1.231
  634SOL    HW2 2802   4.136   4.094   1.259
  635SOL     OW 2803   4.259   5.304   1.640
  635SOL    HW1 2804   4.217   5.337   1.556
  635SOL    HW2 2805   4.230   5.360   1.717
  636SOL     OW 2806   3.516   5.421   0.111
  636SOL    HW1 2807   3.457   5.392   0.186
  636SOL    HW2 2808   3.529   5.520   0.116
  637SOL     OW 2809   6.742   3.416   3.261
  637SOL    HW1 2810   6.694   3.422   3.174
  637SOL    HW2 2811   6.804   3.493   3.271
  638SOL     OW 2812   5.233   2.301   3.809
  638SOL    HW1 2813   5.290   2.219   3.802
  638SOL    HW2 2814   5.150   2.287   3.755
  639SOL     OW 2815   5.270   3.525   2.823
  639SOL    HW1 2816   5.223   3.531   2.912
  639SOL    HW2 2817   5.263   3.432   2.788
  640SOL     OW 2818   0.290   5.228   3.905
  640SOL    HW1 2819   0.200   5.193   3.931
  640SOL    HW2 2820   0.335   5.162   3.844
  641SOL     OW 2821   6.421   5.392   5.000
  641SOL    HW1 2822   6.459   5.382   4.908
  641SOL    HW2 2823   6.325   5.365   4.999
  642SOL     OW 2824   6.699   3.166   5.049
  642SOL    HW1 2825   6.707   3.096   5.120
  642SOL    HW2 2826   6.632   3.235   5.077
  643SOL     OW 2827   6.040   6.082   5.338
  643SOL    HW1 2828   6.108   6.008   5.336
  643SOL    HW2 2829   5.959   6.051   5.388
  644SOL     OW 2830   1.190   5.943   4.448
  644SOL    HW1 2831   1.168   5.872   4.381
  644SOL    HW2 2832   1.289   5.953   4.454
  645SOL     OW 2833   4.289   0.855   3.531
  645SOL    HW1 2834   4.310   0.879   3.436
  645SOL    HW2 2835   4.371   0.817   3.574
  646SOL     OW 2836   2.814   1.203   4.649
  646SOL    HW1 2837   2.725   1.230   4.611
  646SOL    HW2 2838   2.871   1.164   4.577
  647SOL     OW 2839   4.933   1.884   4.839
  647SOL    HW1 2840   4.930   1.977   4.876
  647SOL    HW2 2841   4.908   1.886   4.742
  648SOL     OW 2842   0.388   3.327   4.197
  648SOL    HW1 2843   0.450   3.355   4.124
  648SOL    HW2 2844   0.381   3.401   4.264
  649SOL     OW 2845   2.857   3.942   0.741
  649SOL    HW1 2846   2.792   3.972   0.812
  649SOL    HW2 2847   2.814   3.871   0.686
  650SOL     OW 2848   5.981   4.883   0.862
  650SOL    HW1 2849   5.882   4.890   0.865
  650SOL    HW2 2850   6.008   4.816   0.792
  651SOL     OW 2851   6.627   5.799   6.298
  651SOL    HW1 2852   6.659   5.790   6.204
  651SOL    HW2 2853   6.613   5.896   6.319
  652SOL     OW 2854   5.020   6.366   4.089
  652SOL    HW1 2855   4.996   6.309   4.167
  652SOL    HW2 2856   5.119   6.383   4.089
  653SOL     OW 2857   1.804   5.771   5.331
  653SOL    HW1 2858   1.856   5.757   5.416
  653SOL    HW2 2859   1.839   5.852   5.284
  654SOL     OW 2860   0.488   4.034   5.904
  654SOL    HW1 2861   0.477   4.094   5.982
  654SOL    HW2 2862   0.410   4.043   5.843
  655SOL     OW 2863   0.656   5.924   2.329
  655SOL    HW1 2864   0.591   5.935   2.253
  655SOL    HW2 2865   0.677   5.827   2.342
  656SOL     OW 2866   1.602   5.156   1.295
  656SOL    HW1 2867   1.610   5.168   1.196
  656SOL    HW2 2868   1.577   5.242   1.338
  657SOL     OW 2869   1.970   2.698   1.545
  657SOL    HW1 2870   1.944   2.666   1.636
  657SOL    HW2 2871   2.070   2.707   1.540
  658SOL     OW 2872   3.054   4.224   6.589
  658SOL    HW1 2873   3.131   4.193   6.533
  658SOL    HW2 2874   3.017   4.308   6.551
  659SOL     OW 2875   2.483   6.048   5.327
  659SOL    HW1 2876   2.462   5.977   5.393
  659SOL    HW2 2877   2.435   6.029   5.241
  660SOL     OW 2878   5.706   4.747   2.625
  660SOL    HW1 2879   5.697   4.843   2.653
  660SOL    HW2 2880   5.783   4.739   2.562
  661SOL     OW 2881   4.419   5.355   3.096
  661SOL    HW1 2882   4.400   5.452   3.109
  661SOL    HW2 2883   4.476   5.322   3.172
  662SOL     OW 2884   4.239   0.501   5.325
  662SOL    HW1 2885   4.152   0.471   5.364
  662SOL    HW2 2886   4.249   0.465   5.233
  663SOL     OW 2887   2.483   3.741   6.724
  663SOL    HW1 2888   2.575   3.766   6.755
  663SOL    HW2 2889   2.415   3.782   6.784
  664SOL     OW 2890   0.248   4.978   6.491
  664SOL    HW1 2891   0.185   5.028   6.432
  664SOL    HW2 2892   0.216   4.982   6.585
  665SOL     OW 2893   5.035   4.665   1.028
  665SOL    HW1 2894   5.097   4.683   0.952
  665SOL    HW2 2895   5.087   4.643   1.110
  666SOL     OW 2896   4.678   2.149   2.089
  666SOL    HW1 2897   4.587   2.108   2.100
  666SOL    HW2 2898   4.692   2.172   1.992
  667SOL     OW 2899   0.303   4.581   3.675
  667SOL    HW1 2900   0.311   4.608   3.770
  667SOL    HW2 2901   0.274   4.485   3.670
  668SOL     OW 2902   5.947   6.441   6.429
  668SOL    HW1 2903   6.006   6.438   6.348
  668SOL    HW2 2904   5.967   6.523   6.482
  669SOL     OW 2905   4.154   0.264   3.662
  669SOL    HW1 2906   4.088   0.261   3.587
  669SOL    HW2 2907   4.194   0.173   3.674
  670SOL     OW 2908   3.225   3.018   0.747
  670SOL    HW1 2909   3.147   3.060   0.794
  670SOL    HW2 2910   3.309   3.038   0.797
  671SOL     OW 2911   1.776   6.519   0.305
  671SOL    HW1 2912   1.798   6.556   0.215
  671SOL    HW2 2913   1.817   6.429   0.315
  672SOL     OW 2914   1.147   5.203   2.083
  672SOL    HW1 2915   1.234   5.246   2.107
  672SOL    HW2 2916   1.160   5.145   2.003
  673SOL     OW 2917   6.957   0.111   1.934
  673SOL    HW1 2918   6.965   0.181   2.005
  673SOL    HW2 2919   6.884   0.135   1.870
  674SOL     OW 2920   6.930   1.999   5.250
  674SOL    HW1 2921   6.951   2.043   5.163
  674SOL    HW2 2922   6.893   2.068   5.313
  675SOL     OW 2923   0.799   1.433   3.248
  675SOL    HW1 2924   0.726   1.500   3.243
  675SOL    HW2 2925   0.841   1.423   3.158
  676SOL     OW 2926   3.338   5.821   2.987
  676SOL    HW1 2927   3.296   5.774   2.909
  676SOL    HW2 2928   3.311   5.775   3.072
  677SOL     OW 2929   6.494   1.908   0.674
  677SOL    HW1 2930   6.420   1.841   0.689
  677SOL    HW2 2931   6.560   1.902   0.749
  678SOL     OW 2932   2.008   1.296   5.722
  678SOL    HW1 2933   1.924   1.293   5.776
  678SOL    HW2 2934   2.073   1.229   5.757
  679SOL     OW 2935   4.665   2.007   3.806
  679SOL    HW1 2936   4.603   1.962   3.870
  679SOL    HW2 2937   4.632   1.994   3.713
  680SOL     OW 2938   5.784   5.991   5.380
  680SOL    HW1 2939   5.737   6.026   5.298
  680SOL    HW2 2940   5.769   5.892   5.386
  681SOL     OW 2941   5.207   5.148   1.727
  681SOL    HW1 2942   5.256   5.231   1.754
  681SOL    HW2 2943   5.110   5.171   1.713
  682SOL     OW 2944   0.850   1.573   0.323
  682SOL    HW1 2945   0.856   1.572   0.423
  682SOL    HW2 2946   0.831   1.480   0.290
  683SOL     OW 2947   4.327   3.576   0.588
  683SOL    HW1 2948   4.328   3.483   0.623
  683SOL    HW2 2949   4.378   3.580   0.502
  684SOL     OW 2950   0.253   1.109   6.903
  684SOL    HW1 2951   0.160   1.073   6.898
  684SOL    HW2 2952   0.274   1.134   6.998
  685SOL     OW 2953   4.318   1.145   3.397
  685SOL    HW1 2954   4.388   1.210   3.368
  685SOL    HW2 2955   4.321   1.135   3.497
  686SOL     OW 2956   5.021   2.812   3.610
  686SOL    HW1 2957   5.101   2.846   3.658
  686SOL    HW2 2958   4.946   2.798   3.675
  687SOL     OW 2959   0.395   2.311   4.659
  687SOL    HW1 2960   0.423   2.247   4.587
  687SOL    HW2 2961   0.308   2.354   4.633
  688SOL     OW 2962   1.073   2.092   0.376
  688SOL    HW1 2963   1.159   2.069   0.422
  688SOL    HW2 2964   0.997   2.076   0.439
  689SOL     OW 2965   6.579   4.099   6.573
  689SOL    HW1 2966   6.662   4.101   6.630
  689SOL    HW2 2967   6.548   4.004   6.563
  690SOL     OW 2968   0.140   4.367   2.743
  690SOL    HW1 2969   0.203   4.412   2.680
  690SOL    HW2 2970   0.046   4.387   2.717
  691SOL     OW 2971   2.085   6.689   0.332
  691SOL    HW1 2972   2.048   6.749   0.403
  691SOL    HW2 2973   2.015   6.671   0.263
  692SOL     OW 2974   3.124   6.603   3.391
  692SOL    HW1 2975   3.123   6.698   3.359
  692SOL    HW2 2976   3.178   6.546   3.329
  693SOL     OW 2977   5.974   0.989   3.723
  693SOL    HW1 2978   5.954   0.903   3.676
  693SOL    HW2 2979   6.031   1.047   3.665
  694SOL     OW 2980   3.990   6.165   3.137
  694SOL    HW1 2981   3.996   6.158   3.038
  694SOL    HW2 2982   4.031   6.251   3.167
  695SOL     OW 2983   3.926   6.291   3.983
  695SOL    HW1 2984   4.013   6.249   4.007
  695SOL    HW2 2985   3.927   6.317   3.886
  696SOL     OW 2986   4.263   4.643   2.371
  696SOL    HW1 2987   4.240   4.571   2.305
  696SOL    HW2 2988   4.219   4.728   2.343
  697SOL     OW 2989   1.837   3.544   3.933
  697SOL    HW1 2990   1.920   3.544   3.877
  697SOL    HW2 2991   1.757   3.537   3.874
  698SOL     OW 2992   5.393   6.788   0.232
  698SOL    HW1 2993   5.445   6.870   0.210
  698SOL    HW2 2994   5.300   6.812   0.257
  699SOL     OW 2995   1.908   2.866   6.178
  699SOL    HW1 2996   1.986   2.902   6.230
  699SOL    HW2 2997   1.852   2.809   6.238
  700SOL     OW 2998   2.840   0.334   2.237
  700SOL    HW1 2999   2.789   0.390   2.171
  700SOL    HW2 3000   2.847   0.240   2.203
  701SOL     OW 3001   6.722   3.563   5.723
  701SOL    HW1 3002   6.640   3.512   5.747
  701SOL    HW2 3003   6.706   3.661   5.737
  702SOL     OW 3004   1.127   5.726   4.951
  702SOL    HW1 3005   1.036   5.722   4.908
  702SOL    HW2 3006   1.128   5.800   5.019
  703SOL     OW 3007   3.571   4.270   6.259
  703SOL    HW1 3008   3.515   4.279   6.177
  703SOL    HW2 3009   3.646   4.206   6.241
  704SOL     OW 3010   1.317   2.014   0.485
  704SOL    HW1 3011   1.366   2.026   0.571
  704SOL    HW2 3012   1.383   2.004   0.410
  705SOL     OW 3013   5.563   6.064   2.680
  705SOL    HW1 3014   5.604   6.062   2.771
  705SOL    HW2 3015   5.629   6.029   2.613
  706SOL     OW 3016   4.455   2.432   4.954
  706SOL    HW1 3017   4.387   2.417   5.026
  706SOL    HW2 3018   4.410   2.430   4.865
  707SOL     OW 3019   4.720   5.306   2.685
  707SOL    HW1 3020   4.780   5.259   2.750
  707SOL    HW2 3021   4.745   5.402   2.681
  708SOL     OW 3022   4.390   6.739   1.631
  708SOL    HW1 3023   4.442   6.674   1.687
  708SOL    HW2 3024   4.357   6.813   1.689
  709SOL     OW 3025   0.422   6.085   1.525
  709SOL    HW1 3026   0.416   6.070   1.426
  709SOL    HW2 3027   0.351   6.149   1.554
  710SOL     OW 3028   3.717   2.752   1.654
  710SOL    HW1 3029   3.660   2.670   1.657
  710SOL    HW2 3030   3.806   2.733   1.693
  711SOL     OW 3031   0.076   3.483   5.734
  711SOL    HW1 3032   0.167   3.444   5.748
  711SOL    HW2 3033   0.073   3.526   5.643
  712SOL     OW 3034   4.948   2.966   1.604
  712SOL    HW1 3035   4.957   2.924   1.514
  712SOL    HW2 3036   5.013   3.041   1.613
  713SOL     OW 3037   4.619   2.539   5.739
  713SOL    HW1 3038   4.522   2.540   5.715
  713SOL    HW2 3039   4.671   2.495   5.667
  714SOL     OW 3040   6.809   4.251   3.577
  714SOL    HW1 3041   6.821   4.167   3.523
  714SOL    HW2 3042   6.885   4.261   3.640
  715SOL     OW 3043   5.187   5.988   0.304
  715SOL    HW1 3044   5.137   5.972   0.389
  715SOL    HW2 3045   5.123   5.988   0.227
  716SOL     OW 3046   0.537   0.660   1.958
  716SOL    HW1 3047   0.475   0.587   1.929
  716SOL    HW2 3048   0.567   0.643   2.052
  717SOL     OW 3049   6.342   4.326   5.536
  717SOL    HW1 3050   6.412   4.333   5.465
  717SOL    HW2 3051   6.251   4.322   5.493
  718SOL     OW 3052   5.001   2.407   5.948
  718SOL    HW1 3053   5.005   2.500   5.982
  718SOL    HW2 3054   5.070   2.351   5.995
  719SOL     OW 3055   5.835   0.666   2.250
  719SOL    HW1 3056   5.867   0.759   2.231
  719SOL    HW2 3057   5.739   0.670   2.279
  720SOL     OW 3058   2.808   0.361   5.894
  720SOL    HW1 3059   2.862   0.427   5.947
  720SOL    HW2 3060   2.731   0.329   5.950
  721SOL     OW 3061   2.662   2.156   3.191
  721SOL    HW1 3062   2.738   2.125   3.249
  721SOL    HW2 3063   2.632   2.246   3.222
  722SOL     OW 3064   3.445   0.299   5.605
  722SOL    HW1 3065   3.376   0.341   5.545
  722SOL    HW2 3066   3.442   0.342   5.695
  723SOL     OW 3067   1.851   5.147   3.443
  723SOL    HW1 3068   1.883   5.239   3.464
  723SOL    HW2 3069   1.886   5.118   3.354
  724SOL     OW 3070   1.017   3.099   4.635
  724SOL    HW1 3071   1.048   3.122   4.728
  724SOL    HW2 3072   1.044   3.005   4.614
  725SOL     OW 3073   2.484   5.829   1.203
  725SOL    HW1 3074   2.406   5.891   1.204
  725SOL    HW2 3075   2.473   5.760   1.274
  726SOL     OW 3076   3.684   4.842   1.444
  726SOL    HW1 3077   3.603   4.901   1.450
  726SOL    HW2 3078   3.725   4.830   1.535
  727SOL     OW 3079   5.751   5.258   5.599
  727SOL    HW1 3080   5.686   5.209   5.658
  727SOL    HW2 3081   5.747   5.220   5.507
  728SOL     OW 3082   6.785   2.675   4.766
  728SOL    HW1 3083   6.864   2.625   4.801
  728SOL    HW2 3084   6.790   2.770   4.796
  729SOL     OW 3085   1.045   2.235   1.368
  729SOL    HW1 3086   1.011   2.307   1.308
  729SOL    HW2 3087   1.035   2.146   1.324
  730SOL     OW 3088   5.320   0.373   5.084
  730SOL    HW1 3089   5.279   0.282   5.091
  730SOL    HW2 3090   5.411   0.372   5.123
  731SOL     OW 3091   5.316   4.316   6.478
  731SOL    HW1 3092   5.354   4.291   6.389
  731SOL    HW2 3093   5.300   4.415   6.481
  732SOL     OW 3094   0.072   2.978   1.750
  732SOL    HW1 3095   0.157   2.928   1.769
  732SOL    HW2 3096   0.088   3.045   1.678
  733SOL     OW 3097   5.440   6.500   5.456
  733SOL    HW1 3098   5.375   6.547   5.396
  733SOL    HW2 3099   5.391   6.435   5.514
  734SOL     OW 3100   6.565   5.157   2.854
  734SOL    HW1 3101   6.576   5.194   2.761
  734SOL    HW2 3102   6.518   5.069   2.849
  735SOL     OW 3103   4.554   1.520   0.028
  735SOL    HW1 3104   4.537   1.444   0.090
  735SOL    HW2 3105   4.505   1.601   0.061
  736SOL     OW 3106   6.861   1.778   3.609
  736SOL    HW1 3107   6.815   1.822   3.686
  736SOL    HW2 3108   6.817   1.805   3.524
  737SOL     OW 3109   4.901   1.326   4.600
  737SOL    HW1 3110   4.873   1.355   4.691
  737SOL    HW2 3111   4.827   1.272   4.558
  738SOL     OW 3112   2.292   4.012   1.547
  738SOL    HW1 3113   2.310   4.105   1.578
  738SOL    HW2 3114   2.369   3.953   1.573
  739SOL     OW 3115   5.086   0.630   4.128
  739SOL    HW1 3116   5.134   0.651   4.214
  739SOL    HW2 3117   5.017   0.560   4.145
  740SOL     OW 3118   6.227   1.064   1.563
  740SOL    HW1 3119   6.178   1.149   1.544
  740SOL    HW2 3120   6.209   1.036   1.658
  741SOL     OW 3121   1.996   6.504   3.659
  741SOL    HW1 3122   2.038   6.574   3.716
  741SOL    HW2 3123   2.055   6.423   3.655
  742SOL     OW 3124   2.743   6.494   2.337
  742SOL    HW1 3125   2.749   6.577   2.281
  742SOL    HW2 3126   2.818   6.432   2.314
  743SOL     OW 3127   6.867   4.748   3.004
  743SOL    HW1 3128   6.957   4.716   2.975
  743SOL    HW2 3129   6.868   4.848   3.013
  744SOL     OW 3130   5.776   0.706   0.352
  744SOL    HW1 3131   5.724   0.685   0.435
  744SOL    HW2 3132   5.871   0.726   0.376
  745SOL     OW 3133   1.758   5.035   4.739
  745SOL    HW1 3134   1.759   5.032   4.839
  745SOL    HW2 3135   1.834   4.981   4.703
  746SOL     OW 3136   6.860   3.689   6.724
  746SOL    HW1 3137   6.917   3.614   6.759
  746SOL    HW2 3138   6.799   3.654   6.653
  747SOL     OW 3139   3.766   6.684   4.320
  747SOL    HW1 3140   3.799   6.773   4.350
  747SOL    HW2 3141   3.775   6.618   4.395
  748SOL     OW 3142   4.162   4.881   2.276
  748SOL    HW1 3143   4.199   4.850   2.188
  748SOL    HW2 3144   4.185   4.978   2.289
  749SOL     OW 3145   5.969   3.596   4.842
  749SOL    HW1 3146   6.002   3.645   4.923
  749SOL    HW2 3147   5.943   3.662   4.771
  750SOL     OW 3148   1.971   2.154   1.519
  750SOL    HW1 3149   1.943   2.092   1.445
  750SOL    HW2 3150   1.892   2.204   1.553
  751SOL     OW 3151   3.966   2.257   7.000
  751SOL    HW1 3152   4.064   2.239   6.992
  751SOL    HW2 3153   3.950   2.326   0.051
  752SOL     OW 3154   3.721   0.993   1.832
  752SOL    HW1 3155   3.654   0.949   1.773
  752SOL    HW2 3156   3.719   1.092   1.816
  753SOL     OW 3157   2.111   3.113   5.982
  753SOL    HW1 3158   2.071   3.174   6.050
  753SOL    HW2 3159   2.040   3.055   5.942
  754SOL     OW 3160   4.765   2.607   5.350
  754SOL    HW1 3161   4.725   2.699   5.339
  754SOL    HW2 3162   4.864   2.613   5.345
  755SOL     OW 3163   1.475   4.581   5.931
  755SOL    HW1 3164   1.525   4.665   5.950
  755SOL    HW2 3165   1.498   4.549   5.839
  756SOL     OW 3166   3.014   6.504   6.400
  756SOL    HW1 3167   3.046   6.547   6.485
  756SOL    HW2 3168   2.937   6.444   6.420
  757SOL     OW 3169   0.072   0.375   4.300
  757SOL    HW1 3170   0.037   0.457   4.253
  757SOL    HW2 3171   7.016   0.331   4.350
  758SOL     OW 3172   3.642   6.896   2.755
  758SOL    HW1 3173   3.583   6.947   2.693
  758SOL    HW2 3174   3.697   6.830   2.703
  759SOL     OW 3175   6.850   1.453   2.014
  759SOL    HW1 3176   6.875   1.477   1.920
  759SOL    HW2 3177   6.930   1.462   2.073
  760SOL     OW 3178   5.898   0.011   4.640
  760SOL    HW1 3179   5.907   0.027   4.542
  760SOL    HW2 3180   5.967   0.064   4.689
  761SOL     OW 3181   5.124   3.881   6.237
  761SOL    HW1 3182   5.124   3.832   6.149
  761SOL    HW2 3183   5.132   3.979   6.220
  762SOL     OW 3184   1.702   0.053   4.222
  762SOL    HW1 3185   1.670   6.978   4.232
  762SOL    HW2 3186   1.775   0.057   4.154
  763SOL     OW 3187   4.265   5.199   6.155
  763SOL    HW1 3188   4.353   5.244   6.170
  763SOL    HW2 3189   4.194   5.246   6.207
  764SOL     OW 3190   5.124   0.818   5.364
  764SOL    HW1 3191   5.035   0.849   5.398
  764SOL    HW2 3192   5.115   0.792   5.268
  765SOL     OW 3193   2.044   5.726   1.468
  765SOL    HW1 3194   1.992   5.683   1.541
  765SOL    HW2 3195   2.085   5.656   1.410
  766SOL     OW 3196   2.632   2.845   5.994
  766SOL    HW1 3197   2.612   2.858   5.897
  766SOL    HW2 3198   2.606   2.927   6.045
  767SOL     OW 3199   6.400   5.726   2.071
  767SOL    HW1 3200   6.471   5.778   2.022
  767SOL    HW2 3201   6.316   5.727   2.017
  768SOL     OW 3202   2.320   6.268   2.771
  768SOL    HW1 3203   2.387   6.210   2.818
  768SOL    HW2 3204   2.312   6.238   2.676
  769SOL     OW 3205   2.303   0.598   5.207
  769SOL    HW1 3206   2.241   0.553   5.143
  769SOL    HW2 3207   2.366   0.657   5.157
  770SOL     OW 3208   1.881   4.703   3.243
  770SOL    HW1 3209   1.916   4.719   3.336
  770SOL    HW2 3210   1.787   4.736   3.237
  771SOL     OW 3211   1.176   5.277   2.801
  771SOL    HW1 3212   1.130   5.299   2.887
  771SOL    HW2 3213   1.139   5.333   2.727
  772SOL     OW 3214   5.564   5.973   6.963
  772SOL    HW1 3215   5.659   5.971   6.993
  772SOL    HW2 3216   5.545   5.892   6.908
  773SOL     OW 3217   0.109   3.924   3.928
  773SOL    HW1 3218   0.102   3.957   4.022
  773SOL    HW2 3219   0.205   3.905   3.907
  774SOL     OW 3220   2.155   1.375   1.882
  774SOL    HW1 3221   2.202   1.362   1.969
  774SOL    HW2 3222   2.056   1.374   1.897
  775SOL     OW 3223   1.686   2.653   3.489
  775SOL    HW1 3224   1.770   2.599   3.484
  775SOL    HW2 3225   1.679   2.695   3.579
  776SOL     OW 3226   1.657   0.177   6.309
  776SOL    HW1 3227   1.591   0.198   6.237
  776SOL    HW2 3228   1.728   0.116   6.273
  777SOL     OW 3229   1.844   4.486   1.878
  777SOL    HW1 3230   1.758   4.528   1.849
  777SOL    HW2 3231   1.869   4.521   1.968
  778SOL     OW 3232   2.283   1.350   2.134
  778SOL    HW1 3233   2.319   1.310   2.219
  778SOL    HW2 3234   2.340   1.428   2.108
  779SOL     OW 3235   6.347   2.448   2.063
  779SOL    HW1 3236   6.279   2.384   2.100
  779SOL    HW2 3237   6.306   2.539   2.058
  780SOL     OW 3238   0.308   3.616   3.809
  780SOL    HW1 3239   0.346   3.524   3.804
  780SOL    HW2 3240   0.228   3.622   3.750
  781SOL     OW 3241   6.448   6.683   0.067
  781SOL    HW1 3242   6.433   6.637   6.999
  781SOL    HW2 3243   6.511   6.760   0.054
  782SOL     OW 3244   1.308   3.490   6.296
  782SOL    HW1 3245   1.235   3.535   6.246
  782SOL    HW2 3246   1.373   3.558   6.329
  783SOL     OW 3247   4.670   4.903   2.183
  783SOL    HW1 3248   4.732   4.965   2.136
  783SOL    HW2 3249   4.677   4.917   2.282
  784SOL     OW 3250   4.618   4.861   0.622
  784SOL    HW1 3251   4.697   4.874   0.561
  784SOL    HW2 3252   4.590   4.949   0.659
  785SOL     OW 3253   0.103   2.476   3.469
  785SOL    HW1 3254   0.069   2.422   3.546
  785SOL    HW2 3255   0.059   2.445   3.384
  786SOL     OW 3256   1.504   0.904   2.857
  786SOL    HW1 3257   1.524   0.983   2.916
  786SOL    HW2 3258   1.440   0.932   2.785
  787SOL     OW 3259   2.008   0.329   6.718
  787SOL    HW1 3260   1.914   0.309   6.744
  787SOL    HW2 3261   2.027   0.427   6.730
  788SOL     OW 3262   3.696   1.762   6.711
  788SOL    HW1 3263   3.757   1.776   6.789
  788SOL    HW2 3264   3.633   1.840   6.703
  789SOL     OW 3265   5.006   3.859   1.066
  789SOL    HW1 3266   4.911   3.831   1.053
  789SOL    HW2 3267   5.056   3.785   1.111
  790SOL     OW 3268   2.082   1.166   3.355
  790SOL    HW1 3269   2.158   1.119   3.308
  790SOL    HW2 3270   2.050   1.241   3.299
  791SOL     OW 3271   1.736   5.597   4.072
  791SOL    HW1 3272   1.806   5.666   4.052
  791SOL    HW2 3273   1.715   5.546   3.989
  792SOL     OW 3274   0.616   0.735   1.241
  792SOL    HW1 3275   0.562   0.817   1.224
  792SOL    HW2 3276   0.555   0.659   1.263
  793SOL     OW 3277   4.805   5.100   3.308
  793SOL    HW1 3278   4.835   5.042   3.384
  793SOL    HW2 3279   4.885   5.134   3.259
  794SOL     OW 3280   3.012   4.290   5.617
  794SOL    HW1 3281   3.085   4.276   5.551
  794SOL    HW2 3282   3.010   4.214   5.682
  795SOL     OW 3283   2.856   6.815   4.244
  795SOL    HW1 3284   2.905   6.856   4.167
  795SOL    HW2 3285   2.913   6.745   4.287
  796SOL     OW 3286   0.150   2.087   6.469
  796SOL    HW1 3287   0.237   2.050   6.436
  796SOL    HW2 3288   0.131   2.049   6.560
  797SOL     OW 3289   5.826   2.297   0.897
  797SOL    HW1 3290   5.768   2.350   0.959
  797SOL    HW2 3291   5.879   2.230   0.949
  798SOL     OW 3292   3.515   5.968   2.238
  798SOL    HW1 3293   3.446   5.930   2.300
  798SOL    HW2 3294   3.601   5.919   2.251
  799SOL     OW 3295   0.148   6.754   5.633
  799SOL    HW1 3296   0.068   6.699   5.656
  799SOL    HW2 3297   0.231   6.708   5.665
  800SOL     OW 3298   5.636   1.675   3.110
  800SOL    HW1 3299   5.660   1.752   3.051
  800SOL    HW2 3300   5.574   1.707   3.182
  801SOL     OW 3301   1.958   4.037   4.780
  801SOL    HW1 3302   1.955   4.101   4.857
  801SOL    HW2 3303   1.907   4.076   4.703
  802SOL     OW 3304   3.039   1.978   0.797
  802SOL    HW1 3305   3.042   2.069   0.754
  802SOL    HW2 3306   3.053   1.988   0.895
  803SOL     OW 3307   1.033   0.126   5.471
  803SOL    HW1 3308   1.122   0.136   5.425
  803SOL    HW2 3309   1.033   0.182   5.554
  804SOL     OW 3310   5.839   5.875   6.921
  804SOL    HW1 3311   5.936   5.888   6.938
  804SOL    HW2 3312   5.810   5.786   6.957
  805SOL     OW 3313   3.202   0.221   3.901
  805SOL    HW1 3314   3.194   0.229   4.000
  805SOL    HW2 3315   3.292   0.253   3.872
  806SOL     OW 3316   4.785   1.323   4.271
  806SOL    HW1 3317   4.768   1.368   4.183
  806SOL    HW2 3318   4.883   1.326   4.291
  807SOL     OW 3319   1.415   1.221   5.310
  807SOL    HW1 3320   1.347   1.186   5.374
  807SOL    HW2 3321   1.506   1.211   5.350
  808SOL     OW 3322   3.995   3.555   6.332
  808SOL    HW1 3323   3.904   3.556   6.292
  808SOL    HW2 3324   4.010   3.638   6.385
  809SOL     OW 3325   0.369   4.567   1.558
  809SOL    HW1 3326   0.421   4.596   1.638
  809SOL    HW2 3327   0.426   4.575   1.476
  810SOL     OW 3328   3.850   3.646   0.952
  810SOL    HW1 3329   3.783   3.708   0.911
  810SOL    HW2 3330   3.802   3.576   1.004
  811SOL     OW 3331   4.621   5.591   5.724
  811SOL    HW1 3332   4.557   5.573   5.799
  811SOL    HW2 3333   4.583   5.663   5.666
  812SOL     OW 3334   0.361   0.935   2.507
  812SOL    HW1 3335   0.340   0.863   2.573
  812SOL    HW2 3336   0.285   0.944   2.443
  813SOL     OW 3337   4.097   0.039   4.156
  813SOL    HW1 3338   4.173   7.002   4.124
  813SOL    HW2 3339   4.130   0.130   4.180
  814SOL     OW 3340   5.917   6.496   2.437
  814SOL    HW1 3341   5.824   6.506   2.401
  814SOL    HW2 3342   5.963   6.421   2.390
  815SOL     OW 3343   0.538   3.980   3.749
  815SOL    HW1 3344   0.563   3.894   3.705
  815SOL    HW2 3345   0.616   4.042   3.748
  816SOL     OW 3346   6.229   6.178   0.490
  816SOL    HW1 3347   6.316   6.227   0.486
  816SOL    HW2 3348   6.239   6.089   0.444
  817SOL     OW 3349   1.684   5.160   1.043
  817SOL    HW1 3350   1.780   5.137   1.059
  817SOL    HW2 3351   1.678   5.238   0.981
  818SOL     OW 3352   6.222   2.583   2.894
  818SOL    HW1 3353   6.271   2.496   2.890
  818SOL    HW2 3354   6.136   2.575   2.843
  819SOL     OW 3355   5.889   2.856   2.439
  819SOL    HW1 3356   5.838   2.804   2.369
  819SOL    HW2 3357   5.986   2.856   2.415
  820SOL     OW 3358   3.667   2.015   4.721
  820SOL    HW1 3359   3.762   2.034   4.698
  820SOL    HW2 3360   3.659   2.004   4.821
  821SOL     OW 3361   0.471   4.215   0.841
  821SOL    HW1 3362   0.516   4.183   0.924
  821SOL    HW2 3363   0.373   4.197   0.847
  822SOL     OW 3364   1.041   3.849   3.929
  822SOL    HW1 3365   1.114   3.912   3.902
  822SOL    HW2 3366   1.072   3.755   3.920
  823SOL     OW 3367   4.964   4.140   6.208
  823SOL    HW1 3368   4.907   4.185   6.277
  823SOL    HW2 3369   4.905   4.091   6.143
  824SOL     OW 3370   4.566   1.531   6.759
  824SOL    HW1 3371   4.597   1.528   6.854
  824SOL    HW2 3372   4.598   1.450   6.710
  825SOL     OW 3373   6.366   4.605   1.440
  825SOL    HW1 3374   6.406   4.542   1.507
  825SOL    HW2 3375   6.436   4.635   1.376
  826SOL     OW 3376   3.809   2.957   5.769
  826SOL    HW1 3377   3.773   3.049   5.748
  826SOL    HW2 3378   3.831   2.952   5.866
  827SOL     OW 3379   2.809   4.489   5.616
  827SOL    HW1 3380   2.897   4.443   5.630
  827SOL    HW2 3381   2.804   4.525   5.524
  828SOL     OW 3382   5.968   6.383   0.271
  828SOL    HW1 3383   6.004   6.462   0.222
  828SOL    HW2 3384   6.033   6.307   0.264
  829SOL     OW 3385   4.032   3.842   2.584
  829SOL    HW1 3386   4.094   3.881   2.651
  829SOL    HW2 3387   3.938   3.870   2.604
  830SOL     OW 3388   5.325   4.955   6.398
  830SOL    HW1 3389   5.340   4.866   6.354
  830SOL    HW2 3390   5.335   4.946   6.497
  831SOL     OW 3391   6.480   0.428   7.007
  831SOL    HW1 3392   6.486   0.522   6.972
  831SOL    HW2 3393   6.394   0.417   0.037
  832SOL     OW 3394   4.025   0.849   2.380
  832SOL    HW1 3395   4.031   0.839   2.480
  832SOL    HW2 3396   4.020   0.947   2.357
  833SOL     OW 3397   1.334   3.900   6.185
  833SOL    HW1 3398   1.260   3.837   6.210
  833SOL    HW2 3399   1.295   3.982   6.143
  834SOL     OW 3400   4.115   3.885   0.851
  834SOL    HW1 3401   4.077   3.853   0.937
  834SOL    HW2 3402   4.083   3.828   0.776
  835SOL     OW 3403   3.678   0.039   5.608
  835SOL    HW1 3404   3.649   6.966   5.580
  835SOL    HW2 3405   3.759   0.032   5.666
  836SOL     OW 3406   4.276   5.897   5.837
  836SOL    HW1 3407   4.360   5.951   5.838
  836SOL    HW2 3408   4.198   5.954   5.864
  837SOL     OW 3409   5.604   0.736   1.094
  837SOL    HW1 3410   5.572   0.817   1.143
  837SOL    HW2 3411   5.545   0.719   1.015
  838SOL     OW 3412   2.286   0.778   4.286
  838SOL    HW1 3413   2.342   0.696   4.298
  838SOL    HW2 3414   2.192   0.759   4.312
  839SOL     OW 3415   1.501   1.810   2.362
  839SOL    HW1 3416   1.538   1.903   2.356
  839SOL    HW2 3417   1.498   1.770   2.271
  840SOL     OW 3418   6.837   5.600   0.205
  840SOL    HW1 3419   6.884   5.528   0.154
  840SOL    HW2 3420   6.802   5.562   0.291
  841SOL     OW 3421   3.856   4.917   0.008
  841SOL    HW1 3422   3.761   4.930   0.035
  841SOL    HW2 3423   3.910   4.892   0.088
  842SOL     OW 3424   3.748   0.575   4.052
  842SOL    HW1 3425   3.660   0.533   4.072
  842SOL    HW2 3426   3.742   0.627   3.966
  843SOL     OW 3427   0.581   1.200   1.143
  843SOL    HW1 3428   0.587   1.110   1.100
  843SOL    HW2 3429   0.671   1.228   1.176
  844SOL     OW 3430   5.435   0.884   0.526
  844SOL    HW1 3431   5.419   0.820   0.601
  844SOL    HW2 3432   5.396   0.973   0.549
  845SOL     OW 3433   4.840   4.504   4.679
  845SOL    HW1 3434   4.750   4.463   4.664
  845SOL    HW2 3435   4.868   4.489   4.773
  846SOL     OW 3436   1.952   1.735   6.342
  846SOL    HW1 3437   1.964   1.708   6.438
  846SOL    HW2 3438   2.015   1.809   6.321
  847SOL     OW 3439   1.140   3.083   1.748
  847SOL    HW1 3440   1.146   2.984   1.743
  847SOL    HW2 3441   1.107   3.119   1.661
  848SOL     OW 3442   6.776   0.433   6.386
  848SOL    HW1 3443   6.776   0.532   6.374
  848SOL    HW2 3444   6.762   0.388   6.298
  849SOL     OW 3445   6.883   3.595   5.944
  849SOL    HW1 3446   6.822   3.656   5.995
  849SOL    HW2 3447   6.835   3.560   5.864
  850SOL     OW 3448   5.098   0.871   3.421
  850SOL    HW1 3449   5.102   0.881   3.520
  850SOL    HW2 3450   5.150   0.791   3.393
  851SOL     OW 3451   6.908   1.855   2.506
  851SOL    HW1 3452   6.982   1.787   2.511
  851SOL    HW2 3453   6.849   1.846   2.586
  852SOL     OW 3454   0.826   3.505   0.142
  852SOL    HW1 3455   0.895   3.570   0.174
  852SOL    HW2 3456   0.791   3.453   0.220
  853SOL     OW 3457   1.271   4.378   0.909
  853SOL    HW1 3458   1.296   4.405   0.816
  853SOL    HW2 3459   1.226   4.455   0.955
  854SOL     OW 3460   5.063   4.752   0.512
  854SOL    HW1 3461   5.025   4.815   0.579
  854SOL    HW2 3462   5.152   4.720   0.543
  855SOL     OW 3463   6.737   6.904   1.772
  855SOL    HW1 3464   6.735   7.003   1.789
  855SOL    HW2 3465   6.655   6.878   1.719
  856SOL     OW 3466   1.333   2.577   5.709
  856SOL    HW1 3467   1.422   2.621   5.715
  856SOL    HW2 3468   1.328   2.523   5.625
  857SOL     OW 3469   5.747   4.567   2.220
  857SOL    HW1 3470   5.809   4.623   2.165
  857SOL    HW2 3471   5.797   4.529   2.298
  858SOL     OW 3472   2.413   3.488   1.103
  858SOL    HW1 3473   2.465   3.572   1.085
  858SOL    HW2 3474   2.375   3.492   1.195
  859SOL     OW 3475   6.078   6.304   5.215
  859SOL    HW1 3476   6.075   6.209   5.247
  859SOL    HW2 3477   6.053   6.365   5.290
  860SOL     OW 3478   6.020   3.203   0.599
  860SOL    HW1 3479   6.078   3.238   0.525
  860SOL    HW2 3480   6.064   3.124   0.641
  861SOL     OW 3481   2.625   5.953   3.295
  861SOL    HW1 3482   2.596   5.866   3.334
  861SOL    HW2 3483   2.549   5.994   3.245
  862SOL     OW 3484   1.823   3.854   4.524
  862SOL    HW1 3485   1.908   3.818   4.563
  862SOL    HW2 3486   1.762   3.881   4.598
  863SOL     OW 3487   6.278   1.752   0.724
  863SOL    HW1 3488   6.256   1.716   0.634
  863SOL    HW2 3489   6.223   1.705   0.793
  864SOL     OW 3490   4.301   5.232   3.896
  864SOL    HW1 3491   4.347   5.298   3.836
  864SOL    HW2 3492   4.265   5.280   3.976
  865SOL     OW 3493   1.294   6.493   5.752
  865SOL    HW1 3494   1.351   6.421   5.790
  865SOL    HW2 3495   1.238   6.534   5.825
  866SOL     OW 3496   2.576   1.808   2.263
  866SOL    HW1 3497   2.613   1.819   2.171
  866SOL    HW2 3498   2.525   1.890   2.289
  867SOL     OW 3499   4.672   3.407   0.674
  867SOL    HW1 3500   4.627   3.487   0.714
  867SOL    HW2 3501   4.771   3.418   0.679
  868SOL     OW 3502   5.502   1.302   0.643
  868SOL    HW1 3503   5.451   1.263   0.567
  868SOL    HW2 3504   5.510   1.235   0.716
  869SOL     OW 3505   0.193   4.222   2.976
  869SOL    HW1 3506   0.194   4.290   2.903
  869SOL    HW2 3507   0.099   4.205   3.006
  870SOL     OW 3508   4.709   3.016   0.443
  870SOL    HW1 3509   4.689   2.942   0.508
  870SOL    HW2 3510   4.734   2.976   0.355
  871SOL     OW 3511   4.415   2.308   2.579
  871SOL    HW1 3512   4.486   2.318   2.509
  871SOL    HW2 3513   4.335   2.264   2.539
  872SOL     OW 3514   5.649   3.134   3.736
  872SOL    HW1 3515   5.719   3.159   3.803
  872SOL    HW2 3516   5.687   3.069   3.670
  873SOL     OW 3517   5.803   6.734   4.404
  873SOL    HW1 3518   5.822   6.818   4.354
  873SOL    HW2 3519   5.770   6.756   4.496
  874SOL     OW 3520   0.929   4.092   5.791
  874SOL    HW1 3521   0.932   4.013   5.730
  874SOL    HW2 3522   0.970   4.171   5.745
  875SOL     OW 3523   4.545   3.864   0.444
  875SOL    HW1 3524   4.589   3.859   0.355
  875SOL    HW2 3525   4.452   3.827   0.437
  876SOL     OW 3526   0.569   4.492   2.245
  876SOL    HW1 3527   0.492   4.548   2.277
  876SOL    HW2 3528   0.620   4.542   2.175
  877SOL     OW 3529   4.045   4.514   6.020
  877SOL    HW1 3530   4.107   4.592   6.010
  877SOL    HW2 3531   4.094   4.429   6.001
  878SOL     OW 3532   3.730   6.253   5.178
  878SOL    HW1 3533   3.800   6.265   5.249
  878SOL    HW2 3534   3.764   6.290   5.092
  879SOL     OW 3535   3.271   2.228   0.823
  879SOL    HW1 3536   3.281   2.229   0.723
  879SOL    HW2 3537   3.337   2.293   0.863
  880SOL     OW 3538   3.026   3.654   4.520
  880SOL    HW1 3539   2.973   3.584   4.568
  880SOL    HW2 3540   3.026   3.739   4.574
  881SOL     OW 3541   4.891   4.014   5.401
  881SOL    HW1 3542   4.910   4.057   5.489
  881SOL    HW2 3543   4.795   4.029   5.377
  882SOL     OW 3544   1.055   2.509   4.532
  882SOL    HW1 3545   1.028   2.504   4.436
  882SOL    HW2 3546   0.973   2.521   4.589
  883SOL     OW 3547   4.459   6.986   6.980
  883SOL    HW1 3548   4.453   6.909   0.024
  883SOL    HW2 3549   4.536   0.026   7.007
  884SOL     OW 3550   6.970   4.235   0.167
  884SOL    HW1 3551   6.942   4.317   0.117
  884SOL    HW2 3552   6.976   4.256   0.265
  885SOL     OW 3553   4.978   6.406   5.861
  885SOL    HW1 3554   4.989   6.475   5.932
  885SOL    HW2 3555   5.047   6.334   5.873
  886SOL     OW 3556   4.094   0.896   1.234
  886SOL    HW1 3557   4.177   0.946   1.208
  886SOL    HW2 3558   4.049   0.860   1.152
  887SOL     OW 3559   4.010   5.330   3.878
  887SOL    HW1 3560   4.096   5.280   3.877
  887SOL    HW2 3561   4.004   5.388   3.797
  888SOL     OW 3562   6.798   5.967   2.851
  888SOL    HW1 3563   6.833   5.873   2.846
  888SOL    HW2 3564   6.871   6.031   2.825
  889SOL     OW 3565   0.426   0.472   5.923
  889SOL    HW1 3566   0.421   0.564   5.962
  889SOL    HW2 3567   0.340   0.424   5.940
  890SOL     OW 3568   1.737   5.172   2.327
  890SOL    HW1 3569   1.666   5.124   2.380
  890SOL    HW2 3570   1.822   5.172   2.379
  891SOL     OW 3571   6.365   4.086   0.544
  891SOL    HW1 3572   6.386   4.097   0.446
  891SOL    HW2 3573   6.373   4.175   0.590
  892SOL     OW 3574   3.822   4.453   5.439
  892SOL    HW1 3575   3.827   4.548   5.410
  892SOL    HW2 3576   3.782   4.398   5.365
  893SOL     OW 3577   1.879   0.182   2.696
  893SOL    HW1 3578   1.905   0.263   2.644
  893SOL    HW2 3579   1.782   0.186   2.718
  894SOL     OW 3580   0.922   2.903   3.285
  894SOL    HW1 3581   0.976   2.841   3.228
  894SOL    HW2 3582   0.834   2.921   3.242
  895SOL     OW 3583   1.449   5.770   3.521
  895SOL    HW1 3584   1.379   5.840   3.505
  895SOL    HW2 3585   1.440   5.734   3.613
  896SOL     OW 3586   5.604   6.155   1.618
  896SOL    HW1 3587   5.636   6.183   1.709
  896SOL    HW2 3588   5.585   6.237   1.563
  897SOL     OW 3589   4.631   0.580   6.845
  897SOL    HW1 3590   4.664   0.674   6.836
  897SOL    HW2 3591   4.586   0.553   6.760
  898SOL     OW 3592   3.485   6.231   2.969
  898SOL    HW1 3593   3.412   6.192   3.026
  898SOL    HW2 3594   3.573   6.195   2.999
  899SOL     OW 3595   0.332   5.899   0.975
  899SOL    HW1 3596   0.255   5.929   0.919
  899SOL    HW2 3597   0.300   5.834   1.043
  900SOL     OW 3598   4.606   6.045   6.853
  900SOL    HW1 3599   4.699   6.079   6.840
  900SOL    HW2 3600   4.543   6.100   6.798
  901SOL     OW 3601   1.138   0.745   4.985
  901SOL    HW1 3602   1.111   0.772   4.892
  901SOL    HW2 3603   1.118   0.820   5.048
  902SOL     OW 3604   0.684   2.667   0.942
  902SOL    HW1 3605   0.741   2.601   0.893
  902SOL    HW2 3606   0.712   2.760   0.917
  903SOL     OW 3607   0.487   3.060   6.626
  903SOL    HW1 3608   0.571   3.057   6.572
  903SOL    HW2 3609   0.421   2.994   6.589
  904SOL     OW 3610   2.485   2.382   2.631
  904SOL    HW1 3611   2.581   2.369   2.608
  904SOL    HW2 3612   2.452   2.467   2.589
  905SOL     OW 3613   5.359   4.011   5.961
  905SOL    HW1 3614   5.332   4.051   6.049
  905SOL    HW2 3615   5.354   4.081   5.889
  906SOL     OW 3616   0.722   3.082   6.513
  906SOL    HW1 3617   0.777   3.070   6.430
  906SOL    HW2 3618   0.776   3.131   6.581
  907SOL     OW 3619   4.984   2.611   2.099
  907SOL    HW1 3620   4.979   2.520   2.141
  907SOL    HW2 3621   5.007   2.678   2.168
  908SOL     OW 3622   2.451   4.891   2.848
  908SOL    HW1 3623   2.366   4.842   2.828
  908SOL    HW2 3624   2.435   4.989   2.842
  909SOL     OW 3625   3.099   5.988   2.042
  909SOL    HW1 3626   3.014   6.041   2.036
  909SOL    HW2 3627   3.125   5.977   2.138
  910SOL     OW 3628   2.901   0.896   0.331
  910SOL    HW1 3629   2.939   0.925   0.243
  910SOL    HW2 3630   2.965   0.833   0.375
  911SOL     OW 3631   0.430   5.657   0.011
  911SOL    HW1 3632   0.506   5.600   6.998
  911SOL    HW2 3633   0.463   5.750   0.029
  912SOL     OW 3634   4.892   0.417   3.831
  912SOL    HW1 3635   4.974   0.401   3.885
  912SOL    HW2 3636   4.917   0.438   3.736
  913SOL     OW 3637   2.683   0.897   3.629
  913SOL    HW1 3638   2.663   0.939   3.541
  913SOL    HW2 3639   2.637   0.808   3.635
  914SOL     OW 3640   2.401   5.919   5.060
  914SOL    HW1 3641   2.497   5.932   5.036
  914SOL    HW2 3642   2.356   5.865   4.989
  915SOL     OW 3643   1.115   3.322   0.651
  915SOL    HW1 3644   1.160   3.235   0.632
  915SOL    HW2 3645   1.041   3.308   0.717
  916SOL     OW 3646   1.952   3.096   2.269
  916SOL    HW1 3647   1.969   3.193   2.284
  916SOL    HW2 3648   2.037   3.051   2.241
  917SOL     OW 3649   5.757   1.270   2.405
  917SOL    HW1 3650   5.842   1.307   2.443
  917SOL    HW2 3651   5.768   1.258   2.306
  918SOL     OW 3652   3.125   0.058   1.182
  918SOL    HW1 3653   3.208   0.081   1.234
  918SOL    HW2 3654   3.125   0.108   1.096
  919SOL     OW 3655   6.270   6.086   3.300
  919SOL    HW1 3656   6.259   6.178   3.262
  919SOL    HW2 3657   6.367   6.072   3.323
  920SOL     OW 3658   2.061   4.831   3.081
  920SOL    HW1 3659   2.151   4.822   3.123
  920SOL    HW2 3660   1.995   4.774   3.131
  921SOL     OW 3661   4.545   4.503   3.234
  921SOL    HW1 3662   4.482   4.479   3.307
  921SOL    HW2 3663   4.623   4.552   3.272
  922SOL     OW 3664   3.587   3.849   5.521
  922SOL    HW1 3665   3.641   3.816   5.599
  922SOL    HW2 3666   3.552   3.770   5.470
  923SOL     OW 3667   2.957   4.577   6.123
  923SOL    HW1 3668   2.994   4.562   6.031
  923SOL    HW2 3669   2.888   4.508   6.143
  924SOL     OW 3670   5.960   2.573   2.814
  924SOL    HW1 3671   5.909   2.537   2.893
  924SOL    HW2 3672   5.954   2.673   2.814
  925SOL     OW 3673   0.560   1.519   6.570
  925SOL    HW1 3674   0.561   1.435   6.623
  925SOL    HW2 3675   0.653   1.539   6.537
  926SOL     OW 3676   6.339   1.313   0.908
  926SOL    HW1 3677   6.305   1.252   0.979
  926SOL    HW2 3678   6.436   1.296   0.892
  927SOL     OW 3679   5.807   3.843   3.404
  927SOL    HW1 3680   5.729   3.814   3.460
  927SOL    HW2 3681   5.892   3.807   3.443
  928SOL     OW 3682   0.814   6.233   0.605
  928SOL    HW1 3683   0.744   6.163   0.601
  928SOL    HW2 3684   0.825   6.276   0.516
  929SOL     OW 3685   0.441   0.929   1.149
  929SOL    HW1 3686   0.359   0.946   1.204
  929SOL    HW2 3687   0.417   0.927   1.052
  930SOL     OW 3688   5.475   6.318   3.914
  930SOL    HW1 3689   5.504   6.266   3.995
  930SOL    HW2 3690   5.482   6.416   3.933
  931SOL     OW 3691   5.895   2.271   3.724
  931SOL    HW1 3692   5.877   2.368   3.708
  931SOL    HW2 3693   5.809   2.221   3.726
  932SOL     OW 3694   2.701   6.554   3.332
  932SOL    HW1 3695   2.611   6.587   3.305
  932SOL    HW2 3696   2.704   6.541   3.432
  933SOL     OW 3697   1.694   5.888   3.496
  933SOL    HW1 3698   1.761   5.815   3.511
  933SOL    HW2 3699   1.604   5.858   3.527
  934SOL     OW 3700   1.860   0.111   6.138
  934SOL    HW1 3701   1.951   0.124   6.177
  934SOL    HW2 3702   1.841   0.186   6.074
  935SOL     OW 3703   4.325   5.128   4.660
  935SOL    HW1 3704   4.274   5.163   4.582
  935SOL    HW2 3705   4.295   5.035   4.680
  936SOL     OW 3706   0.974   0.358   6.095
  936SOL    HW1 3707   1.032   0.288   6.136
  936SOL    HW2 3708   1.032   0.426   6.048
  937SOL     OW 3709   5.150   1.342   5.086
  937SOL    HW1 3710   5.100   1.386   5.011
  937SOL    HW2 3711   5.092   1.274   5.130
  938SOL     OW 3712   6.623   5.320   5.936
  938SOL    HW1 3713   6.637   5.294   6.032
  938SOL    HW2 3714   6.531   5.358   5.925
  939SOL     OW 3715   6.505   6.985   5.388
  939SOL    HW1 3716   6.483   6.887   5.383
  939SOL    HW2 3717   6.584   7.004   5.330
  940SOL     OW 3718   0.416   3.266   2.163
  940SOL    HW1 3719   0.325   3.306   2.152
  940SOL    HW2 3720   0.413   3.170   2.135
  941SOL     OW 3721   4.986   1.130   5.884
  941SOL    HW1 3722   4.958   1.187   5.962
  941SOL    HW2 3723   4.989   1.034   5.912
  942SOL     OW 3724   4.884   6.949   3.310
  942SOL    HW1 3725   4.981   6.926   3.320
  942SOL    HW2 3726   4.876   0.022   3.271
  943SOL     OW 3727   2.160   3.372   4.061
  943SOL    HW1 3728   2.194   3.283   4.031
  943SOL    HW2 3729   2.145   3.371   4.160
  944SOL     OW 3730   0.565   4.827   5.929
  944SOL    HW1 3731   0.609   4.741   5.901
  944SOL    HW2 3732   0.523   4.815   6.019
  945SOL     OW 3733   6.238   4.963   5.248
  945SOL    HW1 3734   6.213   4.936   5.154
  945SOL    HW2 3735   6.338   4.960   5.258
  946SOL     OW 3736   5.441   2.408   6.173
  946SOL    HW1 3737   5.493   2.476   6.224
  946SOL    HW2 3738   5.353   2.393   6.217
  947SOL     OW 3739   3.841   2.957   3.926
  947SOL    HW1 3740   3.750   2.919   3.908
  947SOL    HW2 3741   3.840   3.008   4.012
  948SOL     OW 3742   3.540   0.028   1.736
  948SOL    HW1 3743   3.519   0.068   1.825
  948SOL    HW2 3744   3.497   0.083   1.663
  949SOL     OW 3745   1.412   6.404   6.473
  949SOL    HW1 3746   1.382   6.368   6.385
  949SOL    HW2 3747   1.346   6.381   6.543
  950SOL     OW 3748   4.572   5.152   1.993
  950SOL    HW1 3749   4.602   5.102   1.912
  950SOL    HW2 3750   4.472   5.156   1.995
  951SOL     OW 3751   2.215   1.342   3.989
  951SOL    HW1 3752   2.242   1.257   3.944
  951SOL    HW2 3753   2.294   1.403   3.994
  952SOL     OW 3754   4.977   1.449   3.108
  952SOL    HW1 3755   4.985   1.358   3.069
  952SOL    HW2 3756   5.016   1.450   3.200
  953SOL     OW 3757   5.400   4.713   4.069
  953SOL    HW1 3758   5.461   4.705   3.991
  953SOL    HW2 3759   5.431   4.788   4.128
  954SOL     OW 3760   3.826   4.755   1.195
  954SOL    HW1 3761   3.773   4.805   1.127
  954SOL    HW2 3762   3.798   4.783   1.287
  955SOL     OW 3763   6.898   3.695   3.301
  955SOL    HW1 3764   6.960   3.662   3.372
  955SOL    HW2 3765   6.937   3.776   3.258
  956SOL     OW 3766   6.475   1.296   2.669
  956SOL    HW1 3767   6.471   1.318   2.572
  956SOL    HW2 3768   6.393   1.332   2.715
  957SOL     OW 3769   6.109   3.873   4.825
  957SOL    HW1 3770   6.104   3.970   4.803
  957SOL    HW2 3771   6.032   3.848   4.883
  958SOL     OW 3772   4.327   2.011   1.490
  958SOL    HW1 3773   4.349   2.083   1.425
  958SOL    HW2 3774   4.228   2.004   1.500
  959SOL     OW 3775   4.127   5.970   2.440
  959SOL    HW1 3776   4.068   5.910   2.495
  959SOL    HW2 3777   4.070   6.031   2.385
  960SOL     OW 3778   1.304   6.291   1.362
  960SOL    HW1 3779   1.286   6.243   1.448
  960SOL    HW2 3780   1.386   6.347   1.373
  961SOL     OW 3781   4.721   6.802   3.709
  961SOL    HW1 3782   4.730   6.875   3.641
  961SOL    HW2 3783   4.812   6.776   3.742
  962SOL     OW 3784   0.307   1.292   5.540
  962SOL    HW1 3785   0.261   1.365   5.490
  962SOL    HW2 3786   0.335   1.220   5.476
  963SOL     OW 3787   6.801   2.149   6.760
  963SOL    HW1 3788   6.877   2.089   6.736
  963SOL    HW2 3789   6.757   2.115   6.843
  964SOL     OW 3790   5.730   4.176   0.150
  964SOL    HW1 3791   5.812   4.232   0.143
  964SOL    HW2 3792   5.683   4.195   0.236
  965SOL     OW 3793   4.910   2.384   1.176
  965SOL    HW1 3794   4.877   2.426   1.092
  965SOL    HW2 3795   4.887   2.442   1.254
  966SOL     OW 3796   4.997   2.171   1.642
  966SOL    HW1 3797   5.019   2.074   1.635
  966SOL    HW2 3798   4.969   2.192   1.736
  967SOL     OW 3799   2.559   4.272   1.180
  967SOL    HW1 3800   2.519   4.284   1.271
  967SOL    HW2 3801   2.609   4.355   1.154
  968SOL     OW 3802   3.702   0.822   1.493
  968SOL    HW1 3803   3.692   0.774   1.406
  968SOL    HW2 3804   3.710   0.755   1.567
  969SOL     OW 3805   3.484   6.111   6.290
  969SOL    HW1 3806   3.511   6.015   6.277
  969SOL    HW2 3807   3.553   6.171   6.250
  970SOL     OW 3808   4.962   0.848   5.991
  970SOL    HW1 3809   4.992   0.815   5.901
  970SOL    HW2 3810   4.910   0.776   6.037
  971SOL     OW 3811   6.945   2.045   2.886
  971SOL    HW1 3812   6.884   2.095   2.948
  971SOL    HW2 3813   6.994   1.975   2.938
  972SOL     OW 3814   5.330   3.257   2.566
  972SOL    HW1 3815   5.292   3.191   2.501
  972SOL    HW2 3816   5.324   3.219   2.659
  973SOL     OW 3817   0.193   4.821   6.924
  973SOL    HW1 3818   0.291   4.830   6.906
  973SOL    HW2 3819   0.177   4.738   6.978
  974SOL     OW 3820   5.112   6.357   1.988
  974SOL    HW1 3821   5.057   6.413   2.049
  974SOL    HW2 3822   5.121   6.265   2.026
  975SOL     OW 3823   1.303   0.124   6.637
  975SOL    HW1 3824   1.207   0.114   6.611
  975SOL    HW2 3825   1.315   0.096   6.732
  976SOL     OW 3826   6.591   4.060   3.376
  976SOL    HW1 3827   6.671   4.029   3.427
  976SOL    HW2 3828   6.586   4.160   3.381
  977SOL     OW 3829   1.309   0.948   2.561
  977SOL    HW1 3830   1.318   1.046   2.582
  977SOL    HW2 3831   1.255   0.937   2.477
  978SOL     OW 3832   4.902   3.345   6.027
  978SOL    HW1 3833   4.820   3.317   5.978
  978SOL    HW2 3834   4.982   3.330   5.970
  979SOL     OW 3835   6.900   1.898   1.076
  979SOL    HW1 3836   6.972   1.831   1.093
  979SOL    HW2 3837   6.940   1.980   1.036
  980SOL     OW 3838   4.357   2.349   3.951
  980SOL    HW1 3839   4.453   2.375   3.966
  980SOL    HW2 3840   4.330   2.372   3.858
  981SOL     OW 3841   0.228   1.591   4.884
  981SOL    HW1 3842   0.319   1.595   4.843
  981SOL    HW2 3843   0.195   1.684   4.901
  982SOL     OW 3844   2.674   2.025   4.737
  982SOL    HW1 3845   2.689   2.123   4.750
  982SOL    HW2 3846   2.612   2.010   4.660
  983SOL     OW 3847   6.341   2.786   5.018
  983SOL    HW1 3848   6.314   2.693   4.994
  983SOL    HW2 3849   6.396   2.825   4.944
  984SOL     OW 3850   2.446   1.962   4.921
  984SOL    HW1 3851   2.389   1.880   4.926
  984SOL    HW2 3852   2.532   1.940   4.873
  985SOL     OW 3853   5.585   4.269   5.039
  985SOL    HW1 3854   5.654   4.336   5.010
  985SOL    HW2 3855   5.503   4.279   4.983
  986SOL     OW 3856   6.038   4.894   1.322
  986SOL    HW1 3857   5.947   4.934   1.314
  986SOL    HW2 3858   6.077   4.919   1.411
  987SOL     OW 3859   4.731   6.877   1.863
  987SOL    HW1 3860   4.773   6.849   1.949
  987SOL    HW2 3861   4.779   6.834   1.787
  988SOL     OW 3862   3.567   3.204   2.433
  988SOL    HW1 3863   3.598   3.141   2.505
  988SOL    HW2 3864   3.473   3.181   2.407
  989SOL     OW 3865   6.250   1.117   6.141
  989SOL    HW1 3866   6.219   1.103   6.046
  989SOL    HW2 3867   6.175   1.157   6.194
  990SOL     OW 3868   4.299   1.106   1.938
  990SOL    HW1 3869   4.246   1.190   1.937
  990SOL    HW2 3870   4.358   1.103   1.857
  991SOL     OW 3871   0.877   3.267   5.309
  991SOL    HW1 3872   0.933   3.191   5.343
  991SOL    HW2 3873   0.780   3.243   5.318
  992SOL     OW 3874   6.944   3.003   2.493
  992SOL    HW1 3875   6.902   2.937   2.556
  992SOL    HW2 3876   7.002   3.066   2.545
  993SOL     OW 3877   0.775   4.446   0.803
  993SOL    HW1 3878   0.840   4.374   0.827
  993SOL    HW2 3879   0.815   4.535   0.822
  994SOL     OW 3880   4.269   4.401   1.263
  994SOL    HW1 3881   4.224   4.364   1.182
  994SOL    HW2 3882   4.351   4.347   1.283
  995SOL     OW 3883   3.915   3.078   5.057
  995SOL    HW1 3884   3.936   2.983   5.081
  995SOL    HW2 3885   3.871   3.123   5.134
  996SOL     OW 3886   3.091   5.196   4.844
  996SOL    HW1 3887   3.012   5.140   4.869
  996SOL    HW2 3888   3.111   5.260   4.919
  997SOL     OW 3889   1.155   0.189   3.183
  997SOL    HW1 3890   1.227   0.256   3.168
  997SOL    HW2 3891   1.085   0.228   3.243
  998SOL     OW 3892   4.874   0.404   4.587
  998SOL    HW1 3893   4.955   0.373   4.638
  998SOL    HW2 3894   4.816   0.325   4.566
  999SOL     OW 3895   4.735   4.320   2.527
  999SOL    HW1 3896   4.768   4.343   2.619
  999SOL    HW2 3897   4.645   4.277   2.534
 1000SOL     OW 3898   2.556   1.375   1.617
 1000SOL    HW1 3899   2.535   1.340   1.708
 1000SOL    HW2 3900   2.639   1.431   1.621
 1001SOL     OW 3901   4.728   5.766   0.828
 1001SOL    HW1 3902   4.822   5.733   0.829
 1001SOL    HW2 3903   4.728   5.865   0.847
 1002SOL     OW 3904   6.117   1.510   1.332
 1002SOL    HW1 3905   6.069   1.427   1.358
 1002SOL    HW2 3906   6.207   1.487   1.297
 1003SOL     OW 3907   2.037   6.578   2.560
 1003SOL    HW1 3908   2.133   6.564   2.536
 1003SOL    HW2 3909   2.029   6.600   2.657
 1004SOL     OW 3910   0.474   6.837   2.697
 1004SOL    HW1 3911   0.485   6.860   2.601
 1004SOL    HW2 3912   0.401   6.769   2.707
 1005SOL     OW 3913   2.130   2.885   4.139
 1005SOL    HW1 3914   2.073   2.805   4.157
 1005SOL    HW2 3915   2.201   2.862   4.073
 1006SOL     OW 3916   0.543   4.785   1.248
 1006SOL    HW1 3917   0.459   4.825   1.286
 1006SOL    HW2 3918   0.571   4.707   1.304
 1007SOL     OW 3919   4.334   0.290   5.156
 1007SOL    HW1 3920   4.393   0.324   5.084
 1007SOL    HW2 3921   4.277   0.215   5.121
 1008SOL     OW 3922   1.578   3.255   5.638
 1008SOL    HW1 3923   1.640   3.332   5.651
 1008SOL    HW2 3924   1.587   3.222   5.544
 1009SOL     OW 3925   0.447   5.573   4.876
 1009SOL    HW1 3926   0.377   5.501   4.872
 1009SOL    HW2 3927   0.427   5.635   4.952
 1010SOL     OW 3928   3.546   2.566   6.270
 1010SOL    HW1 3929   3.534   2.597   6.364
 1010SOL    HW2 3930   3.614   2.493   6.267
 1011SOL     OW 3931   2.109   4.458   2.630
 1011SOL    HW1 3932   2.178   4.405   2.679
 1011SOL    HW2 3933   2.031   4.399   2.607
 1012SOL     OW 3934   6.516   0.331   2.590
 1012SOL    HW1 3935   6.605   0.286   2.591
 1012SOL    HW2 3936   6.463   0.296   2.512
 1013SOL     OW 3937   0.899   1.157   5.884
 1013SOL    HW1 3938   0.952   1.231   5.926
 1013SOL    HW2 3939   0.812   1.193   5.850
 1014SOL     OW 3940   6.348   5.112   6.107
 1014SOL    HW1 3941   6.314   5.145   6.019
 1014SOL    HW2 3942   6.357   5.012   6.105
 1015SOL     OW 3943   2.506   6.726   5.869
 1015SOL    HW1 3944   2.447   6.645   5.878
 1015SOL    HW2 3945   2.594   6.700   5.830
 1016SOL     OW 3946   3.870   3.234   0.001
 1016SOL    HW1 3947   3.877   3.179   6.937
 1016SOL    HW2 3948   3.814   3.186   0.068
 1017SOL     OW 3949   4.082   2.905   1.319
 1017SOL    HW1 3950   4.114   2.993   1.355
 1017SOL    HW2 3951   4.159   2.854   1.283
 1018SOL     OW 3952   0.164   4.419   4.279
 1018SOL    HW1 3953   0.250   4.403   4.230
 1018SOL    HW2 3954   0.095   4.354   4.248
 1019SOL     OW 3955   6.786   6.641   0.883
 1019SOL    HW1 3956   6.885   6.641   0.889
 1019SOL    HW2 3957   6.747   6.593   0.962
 1020SOL     OW 3958   6.831   1.045   1.178
 1020SOL    HW1 3959   6.882   1.036   1.093
 1020SOL    HW2 3960   6.841   0.961   1.232
 1021SOL     OW 3961   5.548   0.188   1.612
 1021SOL    HW1 3962   5.459   0.230   1.631
 1021SOL    HW2 3963   5.560   0.180   1.514
 1022SOL     OW 3964   3.483   4.476   5.376
 1022SOL    HW1 3965   3.432   4.485   5.462
 1022SOL    HW2 3966   3.502   4.566   5.339
 1023SOL     OW 3967   0.716   6.683   2.788
 1023SOL    HW1 3968   0.676   6.771   2.765
 1023SOL    HW2 3969   0.815   6.686   2.772
 1024SOL     OW 3970   0.749   2.487   4.059
 1024SOL    HW1 3971   0.818   2.497   3.987
 1024SOL    HW2 3972   0.743   2.390   4.085
 1025SOL     OW 3973   3.584   3.534   1.282
 1025SOL    HW1 3974   3.594   3.579   1.371
 1025SOL    HW2 3975   3.496   3.486   1.279
 1026SOL     OW 3976   1.841   2.910   1.097
 1026SOL    HW1 3977   1.914   2.940   1.159
 1026SOL    HW2 3978   1.863   2.819   1.063
 1027SOL     OW 3979   3.317   6.228   1.611
 1027SOL    HW1 3980   3.398   6.271   1.650
 1027SOL    HW2 3981   3.284   6.158   1.674
 1028SOL     OW 3982   2.848   6.386   1.065
 1028SOL    HW1 3983   2.754   6.406   1.092
 1028SOL    HW2 3984   2.855   6.388   0.965
 1029SOL     OW 3985   1.794   0.032   6.799
 1029SOL    HW1 3986   1.807   7.015   6.707
 1029SOL    HW2 3987   1.748   6.983   6.856
 1030SOL     OW 3988   3.076   2.574   1.717
 1030SOL    HW1 3989   3.029   2.519   1.786
 1030SOL    HW2 3990   3.064   2.533   1.627
 1031SOL     OW 3991   5.434   4.113   1.319
 1031SOL    HW1 3992   5.465   4.074   1.405
 1031SOL    HW2 3993   5.513   4.130   1.260
 1032SOL     OW 3994   1.928   2.391   5.357
 1032SOL    HW1 3995   2.017   2.393   5.403
 1032SOL    HW2 3996   1.899   2.484   5.336
 1033SOL     OW 3997   1.158   6.504   1.511
 1033SOL    HW1 3998   1.058   6.496   1.507
 1033SOL    HW2 3999   1.199   6.433   1.454
 1034SOL     OW 4000   0.432   4.759   4.827
 1034SOL    HW1 4001   0.499   4.731   4.895
 1034SOL    HW2 4002   0.370   4.682   4.808
 1035SOL     OW 4003   6.960   0.952   4.965
 1035SOL    HW1 4004   6.954   0.867   4.912
 1035SOL    HW2 4005   0.034   0.961   5.002
 1036SOL     OW 4006   3.484   0.938   1.649
 1036SOL    HW1 4007   3.420   0.872   1.688
 1036SOL    HW2 4008   3.524   0.900   1.565
 1037SOL     OW 4009   1.849   1.088   1.719
 1037SOL    HW1 4010   1.763   1.036   1.718
 1037SOL    HW2 4011   1.919   1.037   1.670
 1038SOL     OW 4012   1.472   0.822   5.236
 1038SOL    HW1 4013   1.398   0.786   5.292
 1038SOL    HW2 4014   1.439   0.898   5.180
 1039SOL     OW 4015   3.471   3.987   5.125
 1039SOL    HW1 4016   3.545   3.932   5.164
 1039SOL    HW2 4017   3.501   4.082   5.116
 1040SOL     OW 4018   4.776   1.329   2.680
 1040SOL    HW1 4019   4.718   1.346   2.760
 1040SOL    HW2 4020   4.719   1.327   2.597
 1041SOL     OW 4021   6.854   6.594   3.776
 1041SOL    HW1 4022   6.866   6.528   3.702
 1041SOL    HW2 4023   6.812   6.678   3.740
 1042SOL     OW 4024   4.350   5.139   2.306
 1042SOL    HW1 4025   4.291   5.219   2.305
 1042SOL    HW2 4026   4.444   5.166   2.286
 1043SOL     OW 4027   3.504   1.793   4.608
 1043SOL    HW1 4028   3.570   1.858   4.647
 1043SOL    HW2 4029   3.541   1.754   4.524
 1044SOL     OW 4030   5.674   5.370   3.101
 1044SOL    HW1 4031   5.724   5.284   3.114
 1044SOL    HW2 4032   5.739   5.446   3.104
 1045SOL     OW 4033   4.322   6.844   2.226
 1045SOL    HW1 4034   4.301   6.908   2.152
 1045SOL    HW2 4035   4.285   6.754   2.203
 1046SOL     OW 4036   2.051   0.410   0.387
 1046SOL    HW1 4037   2.019   0.443   0.476
 1046SOL    HW2 4038   2.151   0.416   0.384
 1047SOL     OW 4039   1.789   1.145   3.393
 1047SOL    HW1 4040   1.886   1.120   3.395
 1047SOL    HW2 4041   1.756   1.161   3.486
 1048SOL     OW 4042   4.356   6.188   3.707
 1048SOL    HW1 4043   4.290   6.115   3.691
 1048SOL    HW2 4044   4.337   6.231   3.795
 1049SOL     OW 4045   6.663   6.092   3.717
 1049SOL    HW1 4046   6.750   6.045   3.731
 1049SOL    HW2 4047   6.654   6.165   3.785
 1050SOL     OW 4048   4.179   4.915   1.495
 1050SOL    HW1 4049   4.199   4.821   1.465
 1050SOL    HW2 4050   4.104   4.952   1.440
 1051SOL     OW 4051   1.891   6.256   0.380
 1051SOL    HW1 4052   1.844   6.195   0.443
 1051SOL    HW2 4053   1.975   6.212   0.347
 1052SOL     OW 4054   3.802   0.664   4.495
 1052SOL    HW1 4055   3.851   0.634   4.413
 1052SOL    HW2 4056   3.708   0.631   4.491
 1053SOL     OW 4057   5.916   5.224   2.996
 1053SOL    HW1 4058   5.962   5.189   2.915
 1053SOL    HW2 4059   5.918   5.155   3.068
 1054SOL     OW 4060   3.158   3.800   6.426
 1054SOL    HW1 4061   3.067   3.823   6.461
 1054SOL    HW2 4062   3.157   3.707   6.390
 1055SOL     OW 4063   3.408   6.484   4.472
 1055SOL    HW1 4064   3.399   6.457   4.568
 1055SOL    HW2 4065   3.378   6.579   4.462
 1056SOL     OW 4066   1.920   4.699   6.417
 1056SOL    HW1 4067   1.985   4.664   6.350
 1056SOL    HW2 4068   1.886   4.789   6.387
 1057SOL     OW 4069   2.716   2.941   1.718
 1057SOL    HW1 4070   2.758   3.030   1.734
 1057SOL    HW2 4071   2.781   2.869   1.743
 1058SOL     OW 4072   5.112   1.517   3.520
 1058SOL    HW1 4073   5.035   1.581   3.515
 1058SOL    HW2 4074   5.104   1.449   3.447
 1059SOL     OW 4075   3.215   0.653   1.452
 1059SOL    HW1 4076   3.250   0.720   1.387
 1059SOL    HW2 4077   3.115   0.645   1.441
 1060SOL     OW 4078   0.490   4.466   5.038
 1060SOL    HW1 4079   0.404   4.510   5.063
 1060SOL    HW2 4080   0.556   4.535   5.009
 1061SOL     OW 4081   6.253   2.990   0.635
 1061SOL    HW1 4082   6.168   2.938   0.643
 1061SOL    HW2 4083   6.288   2.982   0.542
 1062SOL     OW 4084   5.453   4.331   6.124
 1062SOL    HW1 4085   5.501   4.269   6.061
 1062SOL    HW2 4086   5.406   4.402   6.071
 1063SOL     OW 4087   1.141   4.820   1.528
 1063SOL    HW1 4088   1.191   4.783   1.607
 1063SOL    HW2 4089   1.203   4.876   1.473
 1064SOL     OW 4090   1.554   4.097   2.177
 1064SOL    HW1 4091   1.620   4.024   2.160
 1064SOL    HW2 4092   1.558   4.165   2.103
 1065SOL     OW 4093   3.501   0.085   3.469
 1065SOL    HW1 4094   3.582   0.140   3.489
 1065SOL    HW2 4095   3.505   7.019   3.520
 1066SOL     OW 4096   4.906   6.342   3.409
 1066SOL    HW1 4097   4.909   6.437   3.380
 1066SOL    HW2 4098   4.940   6.335   3.503
 1067SOL     OW 4099   0.529   3.697   0.857
 1067SOL    HW1 4100   0.582   3.701   0.773
 1067SOL    HW2 4101   0.483   3.608   0.863
 1068SOL     OW 4102   5.867   5.608   3.343
 1068SOL    HW1 4103   5.935   5.640   3.409
 1068SOL    HW2 4104   5.801   5.549   3.390
 1069SOL     OW 4105   4.442   5.061   1.252
 1069SOL    HW1 4106   4.400   4.975   1.280
 1069SOL    HW2 4107   4.497   5.097   1.327
 1070SOL     OW 4108   7.002   6.972   2.470
 1070SOL    HW1 4109   7.008   6.967   2.570
 1070SOL    HW2 4110   7.004   0.049   2.441
 1071SOL     OW 4111   1.098   0.234   3.763
 1071SOL    HW1 4112   1.101   0.147   3.713
 1071SOL    HW2 4113   1.128   0.308   3.702
 1072SOL     OW 4114   1.793   0.826   0.905
 1072SOL    HW1 4115   1.879   0.781   0.929
 1072SOL    HW2 4116   1.813   0.918   0.870
 1073SOL     OW 4117   5.143   0.113   2.331
 1073SOL    HW1 4118   5.084   0.121   2.411
 1073SOL    HW2 4119   5.156   0.017   2.308
 1074SOL     OW 4120   2.146   5.367   1.095
 1074SOL    HW1 4121   2.240   5.367   1.061
 1074SOL    HW2 4122   2.100   5.452   1.067
 1075SOL     OW 4123   4.992   6.936   4.074
 1075SOL    HW1 4124   4.954   6.969   4.161
 1075SOL    HW2 4125   4.966   6.841   4.060
 1076SOL     OW 4126   6.900   2.439   5.269
 1076SOL    HW1 4127   6.941   2.476   5.186
 1076SOL    HW2 4128   6.809   2.478   5.282
 1077SOL     OW 4129   5.523   0.576   1.494
 1077SOL    HW1 4130   5.546   0.515   1.419
 1077SOL    HW2 4131   5.564   0.666   1.478
 1078SOL     OW 4132   1.197   1.469   2.461
 1078SOL    HW1 4133   1.255   1.395   2.427
 1078SOL    HW2 4134   1.162   1.446   2.552
 1079SOL     OW 4135   2.412   6.340   2.079
 1079SOL    HW1 4136   2.430   6.413   2.012
 1079SOL    HW2 4137   2.314   6.321   2.081
 1080SOL     OW 4138   1.567   4.266   3.754
 1080SOL    HW1 4139   1.522   4.217   3.680
 1080SOL    HW2 4140   1.665   4.251   3.750
 1081SOL     OW 4141   0.489   5.674   5.528
 1081SOL    HW1 4142   0.552   5.610   5.485
 1081SOL    HW2 4143   0.423   5.624   5.584
 1082SOL     OW 4144   4.253   2.146   5.236
 1082SOL    HW1 4145   4.244   2.116   5.141
 1082SOL    HW2 4146   4.282   2.069   5.293
 1083SOL     OW 4147   4.183   3.844   0.205
 1083SOL    HW1 4148   4.114   3.872   0.139
 1083SOL    HW2 4149   4.274   3.851   0.163
 1084SOL     OW 4150   5.913   6.400   6.904
 1084SOL    HW1 4151   5.836   6.449   6.944
 1084SOL    HW2 4152   5.887   6.365   6.814
 1085SOL     OW 4153   1.441   3.346   4.005
 1085SOL    HW1 4154   1.481   3.305   4.087
 1085SOL    HW2 4155   1.453   3.285   3.927
 1086SOL     OW 4156   6.867   6.063   0.587
 1086SOL    HW1 4157   6.837   5.984   0.534
 1086SOL    HW2 4158   6.842   6.147   0.539
 1087SOL     OW 4159   5.702   1.784   4.367
 1087SOL    HW1 4160   5.686   1.763   4.270
 1087SOL    HW2 4161   5.657   1.714   4.424
 1088SOL     OW 4162   0.286   4.619   3.285
 1088SOL    HW1 4163   0.315   4.630   3.380
 1088SOL    HW2 4164   0.218   4.546   3.279
 1089SOL     OW 4165   1.322   6.483   4.395
 1089SOL    HW1 4166   1.285   6.571   4.423
 1089SOL    HW2 4167   1.258   6.439   4.332
 1090SOL     OW 4168   2.612   2.287   3.545
 1090SOL    HW1 4169   2.583   2.364   3.602
 1090SOL    HW2 4170   2.604   2.313   3.448
 1091SOL     OW 4171   3.259   2.107   4.782
 1091SOL    HW1 4172   3.272   2.178   4.852
 1091SOL    HW2 4173   3.185   2.046   4.810
 1092SOL     OW 4174   1.572   3.509   1.150
 1092SOL    HW1 4175   1.496   3.555   1.195
 1092SOL    HW2 4176   1.610   3.568   1.079
 1093SOL     OW 4177   2.042   1.077   1.968
 1093SOL    HW1 4178   1.966   1.097   2.030
 1093SOL    HW2 4179   2.028   1.126   1.882
 1094SOL     OW 4180   0.394   6.943   3.299
 1094SOL    HW1 4181   0.325   6.905   3.360
 1094SOL    HW2 4182   0.441   6.869   3.252
 1095SOL     OW 4183   0.709   2.766   6.227
 1095SOL    HW1 4184   0.754   2.855   6.235
 1095SOL    HW2 4185   0.762   2.697   6.276
 1096SOL     OW 4186   3.531   4.240   1.917
 1096SOL    HW1 4187   3.483   4.292   1.988
 1096SOL    HW2 4188   3.567   4.156   1.956
 1097SOL     OW 4189   2.233   4.506   4.144
 1097SOL    HW1 4190   2.278   4.459   4.069
 1097SOL    HW2 4191   2.234   4.448   4.226
 1098SOL     OW 4192   4.015   3.439   6.913
 1098SOL    HW1 4193   3.965   3.524   6.931
 1098SOL    HW2 4194   3.970   3.363   6.959
 1099SOL     OW 4195   4.059   1.400   5.412
 1099SOL    HW1 4196   4.029   1.486   5.371
 1099SOL    HW2 4197   4.110   1.419   5.495
 1100SOL     OW 4198   3.357   1.790   4.943
 1100SOL    HW1 4199   3.352   1.814   4.846
 1100SOL    HW2 4200   3.322   1.866   4.998
 1101SOL     OW 4201   6.093   2.358   6.717
 1101SOL    HW1 4202   6.130   2.375   6.625
 1101SOL    HW2 4203   6.169   2.345   6.781
 1102SOL     OW 4204   0.471   6.674   5.046
 1102SOL    HW1 4205   0.515   6.693   4.958
 1102SOL    HW2 4206   0.536   6.627   5.105
 1103SOL     OW 4207   3.874   1.485   0.053
 1103SOL    HW1 4208   3.949   1.435   0.097
 1103SOL    HW2 4209   3.788   1.462   0.099
 1104SOL     OW 4210   1.998   3.029   5.734
 1104SOL    HW1 4211   2.002   3.128   5.728
 1104SOL    HW2 4212   2.057   2.989   5.663
 1105SOL     OW 4213   6.571   3.688   5.216
 1105SOL    HW1 4214   6.539   3.593   5.211
 1105SOL    HW2 4215   6.495   3.749   5.192
 1106SOL     OW 4216   0.163   2.394   1.859
 1106SOL    HW1 4217   0.117   2.480   1.881
 1106SOL    HW2 4218   0.124   2.356   1.776
 1107SOL     OW 4219   0.539   0.791   6.679
 1107SOL    HW1 4220   0.520   0.889   6.675
 1107SOL    HW2 4221   0.472   0.747   6.739
 1108SOL     OW 4222   3.196   0.141   5.717
 1108SOL    HW1 4223   3.282   0.185   5.693
 1108SOL    HW2 4224   3.123   0.210   5.721
 1109SOL     OW 4225   5.048   1.295   4.321
 1109SOL    HW1 4226   5.105   1.328   4.246
 1109SOL    HW2 4227   5.106   1.260   4.394
 1110SOL     OW 4228   2.985   1.233   3.087
 1110SOL    HW1 4229   3.003   1.191   2.999
 1110SOL    HW2 4230   3.024   1.176   3.160
 1111SOL     OW 4231   4.566   5.174   6.188
 1111SOL    HW1 4232   4.567   5.147   6.091
 1111SOL    HW2 4233   4.656   5.211   6.213
 1112SOL     OW 4234   5.118   1.557   2.035
 1112SOL    HW1 4235   5.181   1.488   1.998
 1112SOL    HW2 4236   5.059   1.515   2.105
 1113SOL     OW 4237   6.162   3.937   2.281
 1113SOL    HW1 4238   6.123   4.025   2.309
 1113SOL    HW2 4239   6.244   3.952   2.226
 1114SOL     OW 4240   3.837   1.623   6.201
 1114SOL    HW1 4241   3.739   1.626   6.223
 1114SOL    HW2 4242   3.867   1.712   6.166
 1115SOL     OW 4243   4.164   3.216   6.108
 1115SOL    HW1 4244   4.212   3.279   6.170
 1115SOL    HW2 4245   4.197   3.123   6.123
 1116SOL     OW 4246   5.116   0.017   5.857
 1116SOL    HW1 4247   5.060   6.986   5.791
 1116SOL    HW2 4248   5.160   0.094   5.812
 1117SOL     OW 4249   2.413   2.053   2.676
 1117SOL    HW1 4250   2.465   2.138   2.678
 1117SOL    HW2 4251   2.317   2.071   2.700
 1118SOL     OW 4252   2.673   4.476   0.461
 1118SOL    HW1 4253   2.769   4.451   0.451
 1118SOL    HW2 4254   2.636   4.504   0.372
 1119SOL     OW 4255   4.574   4.563   1.151
 1119SOL    HW1 4256   4.536   4.496   1.087
 1119SOL    HW2 4257   4.667   4.537   1.176
 1120SOL     OW 4258   6.157   6.551   6.610
 1120SOL    HW1 4259   6.232   6.599   6.564
 1120SOL    HW2 4260   6.114   6.611   6.677
 1121SOL     OW 4261   5.418   5.032   3.783
 1121SOL    HW1 4262   5.448   5.018   3.689
 1121SOL    HW2 4263   5.489   5.001   3.846
 1122SOL     OW 4264   5.640   2.888   0.474
 1122SOL    HW1 4265   5.627   2.815   0.541
 1122SOL    HW2 4266   5.671   2.971   0.520
 1123SOL     OW 4267   4.962   1.151   2.593
 1123SOL    HW1 4268   5.027   1.156   2.668
 1123SOL    HW2 4269   4.894   1.224   2.602
 1124SOL     OW 4270   0.827   3.322   4.989
 1124SOL    HW1 4271   0.808   3.226   5.008
 1124SOL    HW2 4272   0.924   3.334   4.970
 1125SOL     OW 4273   3.108   2.179   4.111
 1125SOL    HW1 4274   3.032   2.174   4.175
 1125SOL    HW2 4275   3.190   2.212   4.158
 1126SOL     OW 4276   6.074   5.004   0.089
 1126SOL    HW1 4277   6.010   4.930   0.070
 1126SOL    HW2 4278   6.027   5.092   0.084
 1127SOL     OW 4279   5.115   5.463   4.897
 1127SOL    HW1 4280   5.032   5.429   4.853
 1127SOL    HW2 4281   5.167   5.386   4.934
 1128SOL     OW 4282   5.567   1.733   5.091
 1128SOL    HW1 4283   5.508   1.761   5.016
 1128SOL    HW2 4284   5.644   1.680   5.056
 1129SOL     OW 4285   1.550   0.165   6.994
 1129SOL    HW1 4286   1.580   0.188   6.901
 1129SOL    HW2 4287   1.536   0.249   0.028
 1130SOL     OW 4288   2.846   4.785   0.989
 1130SOL    HW1 4289   2.852   4.699   1.038
 1130SOL    HW2 4290   2.789   4.774   0.908
 1131SOL     OW 4291   1.001   5.457   5.445
 1131SOL    HW1 4292   0.921   5.401   5.422
 1131SOL    HW2 4293   1.081   5.423   5.396
 1132SOL     OW 4294   5.406   0.207   2.278
 1132SOL    HW1 4295   5.399   0.267   2.358
 1132SOL    HW2 4296   5.328   0.145   2.276
 1133SOL     OW 4297   1.053   0.531   1.296
 1133SOL    HW1 4298   1.006   0.519   1.383
 1133SOL    HW2 4299   1.124   0.460   1.287
 1134SOL     OW 4300   5.301   0.743   1.731
 1134SOL    HW1 4301   5.329   0.693   1.813
 1134SOL    HW2 4302   5.249   0.682   1.670
 1135SOL     OW 4303   2.683   0.062   2.388
 1135SOL    HW1 4304   2.699   0.125   2.312
 1135SOL    HW2 4305   2.627   0.108   2.457
 1136SOL     OW 4306   4.073   4.737   2.933
 1136SOL    HW1 4307   4.047   4.707   2.841
 1136SOL    HW2 4308   4.139   4.672   2.972
 1137SOL     OW 4309   0.939   0.701   6.855
 1137SOL    HW1 4310   0.932   0.602   6.844
 1137SOL    HW2 4311   1.031   0.731   6.828
 1138SOL     OW 4312   6.995   0.519   5.817
 1138SOL    HW1 4313   6.953   0.559   5.899
 1138SOL    HW2 4314   7.006   0.589   5.747
 1139SOL     OW 4315   3.195   4.923   2.051
 1139SOL    HW1 4316   3.148   4.888   1.970
 1139SOL    HW2 4317   3.293   4.931   2.032
 1140SOL     OW 4318   3.765   1.402   1.380
 1140SOL    HW1 4319   3.817   1.380   1.462
 1140SOL    HW2 4320   3.668   1.412   1.403
 1141SOL     OW 4321   6.993   6.304   6.467
 1141SOL    HW1 4322   6.930   6.375   6.499
 1141SOL    HW2 4323   0.024   6.266   6.545
 1142SOL     OW 4324   2.608   7.002   4.650
 1142SOL    HW1 4325   2.595   7.000   4.551
 1142SOL    HW2 4326   2.705   6.993   4.671
 1143SOL     OW 4327   1.858   3.210   3.188
 1143SOL    HW1 4328   1.933   3.253   3.139
 1143SOL    HW2 4329   1.891   3.175   3.275
 1144SOL     OW 4330   6.403   4.777   4.523
 1144SOL    HW1 4331   6.458   4.720   4.585
 1144SOL    HW2 4332   6.370   4.720   4.448
 1145SOL     OW 4333   6.449   3.692   2.675
 1145SOL    HW1 4334   6.423   3.606   2.631
 1145SOL    HW2 4335   6.482   3.674   2.767
 1146SOL     OW 4336   6.982   0.252   2.412
 1146SOL    HW1 4337   0.038   0.289   2.467
 1146SOL    HW2 4338   7.005   0.259   2.315
 1147SOL     OW 4339   2.426   5.093   1.750
 1147SOL    HW1 4340   2.477   5.178   1.744
 1147SOL    HW2 4341   2.468   5.034   1.819
 1148SOL     OW 4342   4.782   5.945   0.483
 1148SOL    HW1 4343   4.756   6.038   0.456
 1148SOL    HW2 4344   4.700   5.891   0.501
 1149SOL     OW 4345   6.900   3.996   3.463
 1149SOL    HW1 4346   6.959   3.951   3.531
 1149SOL    HW2 4347   6.931   3.972   3.371
 1150SOL     OW 4348   2.458   3.977   0.101
 1150SOL    HW1 4349   2.511   3.942   0.178
 1150SOL    HW2 4350   2.420   3.901   0.049
 1151SOL     OW 4351   5.072   4.573   6.825
 1151SOL    HW1 4352   4.990   4.545   6.875
 1151SOL    HW2 4353   5.149   4.515   6.851
 1152SOL     OW 4354   5.349   4.733   6.222
 1152SOL    HW1 4355   5.307   4.717   6.132
 1152SOL    HW2 4356   5.360   4.646   6.270
 1153SOL     OW 4357   1.447   0.547   1.683
 1153SOL    HW1 4358   1.503   0.566   1.603
 1153SOL    HW2 4359   1.476   0.606   1.759
 1154SOL     OW 4360   6.751   4.503   1.013
 1154SOL    HW1 4361   6.716   4.437   0.947
 1154SOL    HW2 4362   6.727   4.474   1.106
 1155SOL     OW 4363   2.804   5.325   6.155
 1155SOL    HW1 4364   2.725   5.377   6.186
 1155SOL    HW2 4365   2.834   5.360   6.066
 1156SOL     OW 4366   4.216   1.480   4.588
 1156SOL    HW1 4367   4.130   1.448   4.550
 1156SOL    HW2 4368   4.225   1.448   4.682
 1157SOL     OW 4369   5.605   1.903   5.832
 1157SOL    HW1 4370   5.704   1.908   5.828
 1157SOL    HW2 4371   5.572   1.948   5.915
 1158SOL     OW 4372   0.192   4.950   5.492
 1158SOL    HW1 4373   0.171   4.943   5.590
 1158SOL    HW2 4374   0.110   4.977   5.442
 1159SOL     OW 4375   6.456   0.001   4.061
 1159SOL    HW1 4376   6.513   7.012   4.143
 1159SOL    HW2 4377   6.498   6.967   3.986
 1160SOL     OW 4378   5.396   3.967   0.933
 1160SOL    HW1 4379   5.341   3.900   0.884
 1160SOL    HW2 4380   5.336   4.032   0.980
 1161SOL     OW 4381   5.938   6.925   6.226
 1161SOL    HW1 4382   5.937   6.938   6.127
 1161SOL    HW2 4383   5.885   6.844   6.250
 1162SOL     OW 4384   3.115   2.341   6.713
 1162SOL    HW1 4385   3.129   2.358   6.616
 1162SOL    HW2 4386   3.160   2.413   6.766
 1163SOL     OW 4387   6.723   3.608   2.065
 1163SOL    HW1 4388   6.735   3.536   2.133
 1163SOL    HW2 4389   6.659   3.676   2.099
 1164SOL     OW 4390   6.367   3.121   4.667
 1164SOL    HW1 4391   6.329   3.183   4.734
 1164SOL    HW2 4392   6.450   3.079   4.703
 1165SOL     OW 4393   3.175   4.952   3.614
 1165SOL    HW1 4394   3.135   4.956   3.706
 1165SOL    HW2 4395   3.241   5.026   3.603
 1166SOL     OW 4396   3.857   0.008   0.111
 1166SOL    HW1 4397   3.808   0.093   0.128
 1166SOL    HW2 4398   3.881   0.001   0.014
 1167SOL     OW 4399   4.611   6.390   6.887
 1167SOL    HW1 4400   4.536   6.325   6.876
 1167SOL    HW2 4401   4.673   6.357   6.958
 1168SOL     OW 4402   5.089   1.814   3.132
 1168SOL    HW1 4403   5.169   1.787   3.078
 1168SOL    HW2 4404   5.007   1.773   3.092
 1169SOL     OW 4405   5.064   2.028   6.224
 1169SOL    HW1 4406   4.971   2.034   6.187
 1169SOL    HW2 4407   5.126   1.991   6.155
 1170SOL     OW 4408   5.008   0.583   3.608
 1170SOL    HW1 4409   5.061   0.551   3.529
 1170SOL    HW2 4410   5.053   0.662   3.649
 1171SOL     OW 4411   2.821   5.915   6.830
 1171SOL    HW1 4412   2.789   5.857   6.905
 1171SOL    HW2 4413   2.779   5.884   6.744
 1172SOL     OW 4414   2.874   4.196   1.691
 1172SOL    HW1 4415   2.833   4.236   1.610
 1172SOL    HW2 4416   2.821   4.222   1.772
 1173SOL     OW 4417   2.383   0.827   6.637
 1173SOL    HW1 4418   2.287   0.837   6.611
 1173SOL    HW2 4419   2.438   0.807   6.556
 1174SOL     OW 4420   2.856   4.568   1.156
 1174SOL    HW1 4421   2.886   4.483   1.113
 1174SOL    HW2 4422   2.760   4.561   1.182
 1175SOL     OW 4423   3.789   3.633   6.679
 1175SOL    HW1 4424   3.867   3.681   6.638
 1175SOL    HW2 4425   3.797   3.535   6.661
 1176SOL     OW 4426   5.820   4.860   6.970
 1176SOL    HW1 4427   5.815   4.761   6.977
 1176SOL    HW2 4428   5.740   4.901   7.014
 1177SOL     OW 4429   6.908   2.215   4.702
 1177SOL    HW1 4430   6.811   2.198   4.716
 1177SOL    HW2 4431   6.945   2.145   4.641
 1178SOL     OW 4432   3.148   3.929   0.850
 1178SOL    HW1 4433   3.053   3.943   0.823
 1178SOL    HW2 4434   3.151   3.871   0.932
 1179SOL     OW 4435   2.954   5.782   0.663
 1179SOL    HW1 4436   3.014   5.859   0.683
 1179SOL    HW2 4437   2.883   5.776   0.734
 1180SOL     OW 4438   2.068   5.973   4.298
 1180SOL    HW1 4439   2.015   6.022   4.229
 1180SOL    HW2 4440   2.049   6.012   4.388
 1181SOL     OW 4441   0.132   3.695   6.038
 1181SOL    HW1 4442   0.104   3.790   6.024
 1181SOL    HW2 4443   0.094   3.638   5.965
 1182SOL     OW 4444   3.074   4.863   2.891
 1182SOL    HW1 4445   3.040   4.925   2.820
 1182SOL    HW2 4446   3.159   4.820   2.860
 1183SOL     OW 4447   3.048   5.224   1.565
 1183SOL    HW1 4448   3.062   5.125   1.573
 1183SOL    HW2 4449   3.131   5.266   1.528
 1184SOL     OW 4450   6.103   0.282   5.887
 1184SOL    HW1 4451   6.118   0.230   5.803
 1184SOL    HW2 4452   6.010   0.319   5.888
 1185SOL     OW 4453   0.780   0.691   0.444
 1185SOL    HW1 4454   0.811   0.596   0.448
 1185SOL    HW2 4455   0.765   0.718   0.349
 1186SOL     OW 4456   5.472   5.976   5.071
 1186SOL    HW1 4457   5.532   5.908   5.114
 1186SOL    HW2 4458   5.496   5.986   4.975
 1187SOL     OW 4459   5.208   6.754   5.538
 1187SOL    HW1 4460   5.235   6.732   5.632
 1187SOL    HW2 4461   5.235   6.848   5.517
 1188SOL     OW 4462   2.803   5.671   5.900
 1188SOL    HW1 4463   2.865   5.592   5.898
 1188SOL    HW2 4464   2.714   5.642   5.936
 1189SOL     OW 4465   6.283   0.644   1.453
 1189SOL    HW1 4466   6.316   0.713   1.517
 1189SOL    HW2 4467   6.186   0.629   1.466
 1190SOL     OW 4468   2.565   5.459   3.042
 1190SOL    HW1 4469   2.608   5.388   2.987
 1190SOL    HW2 4470   2.633   5.504   3.098
 1191SOL     OW 4471   2.771   6.155   4.020
 1191SOL    HW1 4472   2.774   6.121   4.114
 1191SOL    HW2 4473   2.821   6.092   3.960
 1192SOL     OW 4474   5.834   6.226   3.367
 1192SOL    HW1 4475   5.888   6.141   3.368
 1192SOL    HW2 4476   5.850   6.274   3.281
 1193SOL     OW 4477   0.215   0.948   5.295
 1193SOL    HW1 4478   0.220   0.962   5.197
 1193SOL    HW2 4479   0.196   0.852   5.315
 1194SOL     OW 4480   6.593   1.445   1.753
 1194SOL    HW1 4481   6.672   1.430   1.693
 1194SOL    HW2 4482   6.575   1.543   1.760
 1195SOL     OW 4483   0.157   3.530   0.422
 1195SOL    HW1 4484   0.132   3.442   0.461
 1195SOL    HW2 4485   0.245   3.559   0.459
 1196SOL     OW 4486   0.051   4.441   3.308
 1196SOL    HW1 4487   0.007   4.486   3.385
 1196SOL    HW2 4488   7.010   4.446   3.228
 1197SOL     OW 4489   4.575   6.051   4.262
 1197SOL    HW1 4490   4.665   6.053   4.218
 1197SOL    HW2 4491   4.532   6.141   4.251
 1198SOL     OW 4492   1.017   3.841   1.785
 1198SOL    HW1 4493   1.072   3.900   1.726
 1198SOL    HW2 4494   0.923   3.875   1.788
 1199SOL     OW 4495   3.126   4.069   3.057
 1199SOL    HW1 4496   3.118   4.149   3.118
 1199SOL    HW2 4497   3.097   3.987   3.105
 1200SOL     OW 4498   3.852   4.097   4.265
 1200SOL    HW1 4499   3.784   4.094   4.192
 1200SOL    HW2 4500   3.841   4.181   4.318
 1201SOL     OW 4501   6.560   1.177   4.804
 1201SOL    HW1 4502   6.580   1.228   4.888
 1201SOL    HW2 4503   6.556   1.241   4.727
 1202SOL     OW 4504   0.374   5.860   5.309
 1202SOL    HW1 4505   0.461   5.909   5.312
 1202SOL    HW2 4506   0.381   5.777   5.363
 1203SOL     OW 4507   0.616   6.323   0.261
 1203SOL    HW1 4508   0.666   6.375   0.191
 1203SOL    HW2 4509   0.636   6.226   0.249
 1204SOL     OW 4510   4.675   1.315   1.470
 1204SOL    HW1 4511   4.581   1.304   1.438
 1204SOL    HW2 4512   4.680   1.390   1.536
 1205SOL     OW 4513   3.639   3.524   0.378
 1205SOL    HW1 4514   3.558   3.581   0.359
 1205SOL    HW2 4515   3.719   3.565   0.334
 1206SOL     OW 4516   1.342   3.316   5.012
 1206SOL    HW1 4517   1.385   3.287   4.926
 1206SOL    HW2 4518   1.413   3.340   5.078
 1207SOL     OW 4519   0.265   0.179   0.981
 1207SOL    HW1 4520   0.262   0.109   0.910
 1207SOL    HW2 4521   0.255   0.269   0.940
 1208SOL     OW 4522   2.708   3.328   1.310
 1208SOL    HW1 4523   2.649   3.271   1.253
 1208SOL    HW2 4524   2.759   3.391   1.252
 1209SOL     OW 4525   5.264   0.383   4.173
 1209SOL    HW1 4526   5.318   0.344   4.247
 1209SOL    HW2 4527   5.322   0.445   4.119
 1210SOL     OW 4528   4.009   6.396   3.690
 1210SOL    HW1 4529   3.944   6.472   3.693
 1210SOL    HW2 4530   3.978   6.329   3.622
 1211SOL     OW 4531   0.675   2.893   3.167
 1211SOL    HW1 4532   0.582   2.865   3.191
 1211SOL    HW2 4533   0.676   2.991   3.148
 1212SOL     OW 4534   6.473   6.891   5.836
 1212SOL    HW1 4535   6.514   6.978   5.807
 1212SOL    HW2 4536   6.536   6.816   5.817
 1213SOL     OW 4537   6.254   2.700   2.048
 1213SOL    HW1 4538   6.289   2.773   2.107
 1213SOL    HW2 4539   6.159   2.720   2.024
 1214SOL     OW 4540   1.276   2.593   0.071
 1214SOL    HW1 4541   1.366   2.550   0.061
 1214SOL    HW2 4542   1.237   2.568   0.160
 1215SOL     OW 4543   1.017   4.813   3.172
 1215SOL    HW1 4544   1.104   4.766   3.188
 1215SOL    HW2 4545   0.967   4.767   3.099
 1216SOL     OW 4546   5.366   1.487   0.343
 1216SOL    HW1 4547   5.409   1.398   0.329
 1216SOL    HW2 4548   5.419   1.540   0.410
 1217SOL     OW 4549   2.626   4.776   0.450
 1217SOL    HW1 4550   2.541   4.828   0.459
 1217SOL    HW2 4551   2.607   4.679   0.461
 1218SOL     OW 4552   1.940   2.943   5.074
 1218SOL    HW1 4553   1.926   3.042   5.068
 1218SOL    HW2 4554   1.873   2.904   5.138
 1219SOL     OW 4555   5.726   5.875   1.773
 1219SOL    HW1 4556   5.821   5.897   1.795
 1219SOL    HW2 4557   5.676   5.857   1.858
 1220SOL     OW 4558   0.041   4.316   2.410
 1220SOL    HW1 4559   0.120   4.348   2.357
 1220SOL    HW2 4560   0.001   4.393   2.461
 1221SOL     OW 4561   4.854   3.301   6.476
 1221SOL    HW1 4562   4.815   3.365   6.410
 1221SOL    HW2 4563   4.866   3.347   6.564
 1222SOL     OW 4564   6.698   1.046   6.331
 1222SOL    HW1 4565   6.652   0.978   6.389
 1222SOL    HW2 4566   6.758   0.998   6.266
 1223SOL     OW 4567   4.035   1.276   0.095
 1223SOL    HW1 4568   4.003   1.258   0.188
 1223SOL    HW2 4569   4.116   1.334   0.099
 1224SOL     OW 4570   2.944   6.194   0.033
 1224SOL    HW1 4571   2.932   6.097   0.055
 1224SOL    HW2 4572   2.875   6.222   6.985
 1225SOL     OW 4573   3.301   2.680   6.717
 1225SOL    HW1 4574   3.259   2.680   6.626
 1225SOL    HW2 4575   3.324   2.774   6.743
 1226SOL     OW 4576   3.318   6.615   0.998
 1226SOL    HW1 4577   3.276   6.686   1.056
 1226SOL    HW2 4578   3.253   6.540   0.986
 1227SOL     OW 4579   5.316   4.779   5.751
 1227SOL    HW1 4580   5.393   4.743   5.698
 1227SOL    HW2 4581   5.346   4.857   5.805
 1228SOL     OW 4582   2.705   2.147   6.181
 1228SOL    HW1 4583   2.701   2.127   6.279
 1228SOL    HW2 4584   2.621   2.194   6.153
 1229SOL     OW 4585   2.889   5.256   6.847
 1229SOL    HW1 4586   2.944   5.295   6.920
 1229SOL    HW2 4587   2.946   5.243   6.766
 1230SOL     OW 4588   5.426   6.358   1.928
 1230SOL    HW1 4589   5.362   6.295   1.884
 1230SOL    HW2 4590   5.507   6.370   1.870
 1231SOL     OW 4591   1.936   2.086   5.638
 1231SOL    HW1 4592   1.858   2.147   5.622
 1231SOL    HW2 4593   1.992   2.081   5.555
 1232SOL     OW 4594   6.652   1.665   4.994
 1232SOL    HW1 4595   6.746   1.673   4.960
 1232SOL    HW2 4596   6.647   1.702   5.087
 1233SOL     OW 4597   0.759   5.513   4.902
 1233SOL    HW1 4598   0.800   5.584   4.959
 1233SOL    HW2 4599   0.660   5.527   4.896
 1234SOL     OW 4600   5.717   3.300   5.667
 1234SOL    HW1 4601   5.654   3.237   5.711
 1234SOL    HW2 4602   5.811   3.269   5.683
 1235SOL     OW 4603   5.985   5.716   2.199
 1235SOL    HW1 4604   5.935   5.800   2.180
 1235SOL    HW2 4605   6.047   5.731   2.276
 1236SOL     OW 4606   4.294   0.693   0.798
 1236SOL    HW1 4607   4.311   0.777   0.850
 1236SOL    HW2 4608   4.379   0.661   0.756
 1237SOL     OW 4609   2.069   4.381   6.018
 1237SOL    HW1 4610   1.998   4.335   5.966
 1237SOL    HW2 4611   2.155   4.330   6.010
 1238SOL     OW 4612   1.268   0.800   6.481
 1238SOL    HW1 4613   1.366   0.790   6.501
 1238SOL    HW2 4614   1.252   0.886   6.433
 1239SOL     OW 4615   6.875   6.598   6.993
 1239SOL    HW1 4616   6.927   6.683   6.984
 1239SOL    HW2 4617   6.897   6.538   6.916
 1240SOL     OW 4618   5.320   6.286   0.634
 1240SOL    HW1 4619   5.407   6.254   0.597
 1240SOL    HW2 4620   5.272   6.210   0.679
 1241SOL     OW 4621   5.480   4.662   5.013
 1241SOL    HW1 4622   5.569   4.704   4.997
 1241SOL    HW2 4623   5.485   4.605   5.095
 1242SOL     OW 4624   1.332   3.664   1.203
 1242SOL    HW1 4625   1.374   3.742   1.156
 1242SOL    HW2 4626   1.252   3.633   1.151
 1243SOL     OW 4627   0.727   0.531   5.128
 1243SOL    HW1 4628   0.715   0.436   5.099
 1243SOL    HW2 4629   0.764   0.585   5.052
 1244SOL     OW 4630   5.870   6.266   4.011
 1244SOL    HW1 4631   5.817   6.242   3.930
 1244SOL    HW2 4632   5.859   6.195   4.081
 1245SOL     OW 4633   6.176   4.378   0.291
 1245SOL    HW1 4634   6.136   4.379   0.199
 1245SOL    HW2 4635   6.187   4.283   0.320
 1246SOL     OW 4636   2.991   0.952   1.289
 1246SOL    HW1 4637   3.058   0.969   1.362
 1246SOL    HW2 4638   2.939   1.036   1.272
 1247SOL     OW 4639   0.156   6.565   5.885
 1247SOL    HW1 4640   0.241   6.533   5.843
 1247SOL    HW2 4641   0.131   6.503   5.959
 1248SOL     OW 4642   2.001   6.964   4.798
 1248SOL    HW1 4643   1.916   6.947   4.848
 1248SOL    HW2 4644   2.061   0.002   4.855
 1249SOL     OW 4645   6.788   1.881   2.239
 1249SOL    HW1 4646   6.830   1.864   2.328
 1249SOL    HW2 4647   6.815   1.971   2.206
 1250SOL     OW 4648   5.637   5.143   3.412
 1250SOL    HW1 4649   5.620   5.074   3.482
 1250SOL    HW2 4650   5.594   5.115   3.326
 1251SOL     OW 4651   2.812   0.734   3.136
 1251SOL    HW1 4652   2.766   0.821   3.121
 1251SOL    HW2 4653   2.767   0.663   3.082
 1252SOL     OW 4654   4.719   3.913   6.292
 1252SOL    HW1 4655   4.683   3.819   6.290
 1252SOL    HW2 4656   4.792   3.919   6.360
 1253SOL     OW 4657   3.345   6.381   2.018
 1253SOL    HW1 4658   3.332   6.283   2.002
 1253SOL    HW2 4659   3.299   6.433   1.947
 1254SOL     OW 4660   0.930   3.363   3.147
 1254SOL    HW1 4661   0.970   3.284   3.193
 1254SOL    HW2 4662   0.981   3.383   3.064
 1255SOL     OW 4663   5.947   1.525   6.576
 1255SOL    HW1 4664   5.882   1.566   6.512
 1255SOL    HW2 4665   5.920   1.550   6.670
 1256SOL     OW 4666   6.464   6.747   3.236
 1256SOL    HW1 4667   6.560   6.720   3.225
 1256SOL    HW2 4668   6.457   6.846   3.232
 1257SOL     OW 4669   6.534   5.423   4.734
 1257SOL    HW1 4670   6.555   5.506   4.683
 1257SOL    HW2 4671   6.611   5.359   4.728
 1258SOL     OW 4672   1.289   5.042   2.909
 1258SOL    HW1 4673   1.236   5.124   2.887
 1258SOL    HW2 4674   1.253   5.000   2.992
 1259SOL     OW 4675   3.332   0.266   4.143
 1259SOL    HW1 4676   3.393   0.310   4.078
 1259SOL    HW2 4677   3.337   0.167   4.131
 1260SOL     OW 4678   2.769   2.717   0.018
 1260SOL    HW1 4679   2.688   2.663   7.016
 1260SOL    HW2 4680   2.813   2.745   6.953
 1261SOL     OW 4681   0.161   5.596   0.005
 1261SOL    HW1 4682   0.113   5.624   6.941
 1261SOL    HW2 4683   0.259   5.592   7.006
 1262SOL     OW 4684   6.031   4.125   1.628
 1262SOL    HW1 4685   6.124   4.160   1.626
 1262SOL    HW2 4686   5.976   4.180   1.692
 1263SOL     OW 4687   0.025   2.230   1.667
 1263SOL    HW1 4688   0.111   2.185   1.645
 1263SOL    HW2 4689   6.981   2.163   1.706
 1264SOL     OW 4690   6.788   4.035   2.007
 1264SOL    HW1 4691   6.840   4.105   1.958
 1264SOL    HW2 4692   6.849   3.960   2.034
 1265SOL     OW 4693   4.558   5.605   3.828
 1265SOL    HW1 4694   4.657   5.619   3.825
 1265SOL    HW2 4695   4.515   5.658   3.755
 1266SOL     OW 4696   0.437   1.622   4.411
 1266SOL    HW1 4697   0.515   1.679   4.437
 1266SOL    HW2 4698   0.371   1.620   4.485
 1267SOL     OW 4699   4.616   6.981   1.015
 1267SOL    HW1 4700   4.561   6.917   0.961
 1267SOL    HW2 4701   4.676   0.014   0.954
 1268SOL     OW 4702   2.767   2.938   0.412
 1268SOL    HW1 4703   2.671   2.939   0.385
 1268SOL    HW2 4704   2.774   2.916   0.510
 1269SOL     OW 4705   5.956   5.716   5.075
 1269SOL    HW1 4706   5.963   5.625   5.034
 1269SOL    HW2 4707   6.041   5.766   5.062
 1270SOL     OW 4708   1.507   3.185   3.415
 1270SOL    HW1 4709   1.439   3.159   3.347
 1270SOL    HW2 4710   1.561   3.104   3.441
 1271SOL     OW 4711   2.766   2.260   3.900
 1271SOL    HW1 4712   2.863   2.252   3.878
 1271SOL    HW2 4713   2.733   2.350   3.870
 1272SOL     OW 4714   5.654   5.006   0.244
 1272SOL    HW1 4715   5.723   4.935   0.256
 1272SOL    HW2 4716   5.619   5.035   0.333
 1273SOL     OW 4717   0.709   3.112   0.269
 1273SOL    HW1 4718   0.790   3.169   0.282
 1273SOL    HW2 4719   0.707   3.040   0.339
 1274SOL     OW 4720   6.060   4.702   1.596
 1274SOL    HW1 4721   6.112   4.657   1.523
 1274SOL    HW2 4722   6.123   4.733   1.667
 1275SOL     OW 4723   4.127   1.926   4.755
 1275SOL    HW1 4724   4.189   1.865   4.706
 1275SOL    HW2 4725   4.168   1.951   4.843
 1276SOL     OW 4726   6.854   6.088   4.913
 1276SOL    HW1 4727   6.953   6.084   4.901
 1276SOL    HW2 4728   6.808   6.060   4.829
 1277SOL     OW 4729   1.627   5.685   6.080
 1277SOL    HW1 4730   1.558   5.729   6.023
 1277SOL    HW2 4731   1.628   5.729   6.170
 1278SOL     OW 4732   0.750   0.365   4.361
 1278SOL    HW1 4733   0.750   0.387   4.458
 1278SOL    HW2 4734   0.760   0.266   4.349
 1279SOL     OW 4735   2.506   5.652   0.822
 1279SOL    HW1 4736   2.569   5.647   0.900
 1279SOL    HW2 4737   2.557   5.643   0.737
 1280SOL     OW 4738   3.093   6.722   4.596
 1280SOL    HW1 4739   3.001   6.729   4.557
 1280SOL    HW2 4740   3.091   6.750   4.692
 1281SOL     OW 4741   2.401   6.155   3.245
 1281SOL    HW1 4742   2.460   6.224   3.202
 1281SOL    HW2 4743   2.335   6.121   3.178
 1282SOL     OW 4744   0.380   2.143   7.006
 1282SOL    HW1 4745   0.389   2.231   6.958
 1282SOL    HW2 4746   0.284   2.123   0.002
 1283SOL     OW 4747   0.621   3.554   5.840
 1283SOL    HW1 4748   0.553   3.553   5.913
 1283SOL    HW2 4749   0.585   3.606   5.762
 1284SOL     OW 4750   4.762   2.161   1.117
 1284SOL    HW1 4751   4.712   2.118   1.192
 1284SOL    HW2 4752   4.822   2.232   1.153
 1285SOL     OW 4753   4.341   2.640   6.509
 1285SOL    HW1 4754   4.297   2.555   6.537
 1285SOL    HW2 4755   4.383   2.628   6.419
 1286SOL     OW 4756   4.614   3.541   1.499
 1286SOL    HW1 4757   4.685   3.478   1.468
 1286SOL    HW2 4758   4.578   3.592   1.421
 1287SOL     OW 4759   5.844   5.699   5.363
 1287SOL    HW1 4760   5.822   5.602   5.377
 1287SOL    HW2 4761   5.897   5.709   5.279
 1288SOL     OW 4762   3.996   2.973   5.995
 1288SOL    HW1 4763   3.964   3.003   6.085
 1288SOL    HW2 4764   3.990   2.874   5.989
 1289SOL     OW 4765   6.925   6.820   1.276
 1289SOL    HW1 4766   6.926   6.889   1.348
 1289SOL    HW2 4767   6.975   6.854   1.197
 1290SOL     OW 4768   0.725   6.512   6.392
 1290SOL    HW1 4769   0.663   6.547   6.462
 1290SOL    HW2 4770   0.690   6.537   6.302
 1291SOL     OW 4771   6.899   3.941   4.758
 1291SOL    HW1 4772   6.890   3.877   4.682
 1291SOL    HW2 4773   6.964   4.012   4.735
 1292SOL     OW 4774   0.582   6.027   2.574
 1292SOL    HW1 4775   0.587   5.980   2.485
 1292SOL    HW2 4776   0.674   6.043   2.608
 1293SOL     OW 4777   0.579   1.729   6.755
 1293SOL    HW1 4778   0.566   1.650   6.695
 1293SOL    HW2 4779   0.507   1.796   6.738
 1294SOL     OW 4780   0.896   3.267   6.407
 1294SOL    HW1 4781   0.890   3.277   6.308
 1294SOL    HW2 4782   0.991   3.256   6.435
 1295SOL     OW 4783   0.381   3.727   1.678
 1295SOL    HW1 4784   0.360   3.675   1.761
 1295SOL    HW2 4785   0.458   3.685   1.631
 1296SOL     OW 4786   3.817   6.265   5.934
 1296SOL    HW1 4787   3.793   6.197   5.865
 1296SOL    HW2 4788   3.873   6.336   5.891
 1297SOL     OW 4789   6.903   0.839   1.345
 1297SOL    HW1 4790   6.959   0.790   1.279
 1297SOL    HW2 4791   6.961   0.899   1.400
 1298SOL     OW 4792   5.433   5.258   2.961
 1298SOL    HW1 4793   5.526   5.288   2.981
 1298SOL    HW2 4794   5.418   5.259   2.862
 1299SOL     OW 4795   1.877   3.533   3.591
 1299SOL    HW1 4796   1.824   3.497   3.514
 1299SOL    HW2 4797   1.872   3.633   3.590
 1300SOL     OW 4798   2.350   3.061   1.191
 1300SOL    HW1 4799   2.408   3.047   1.271
 1300SOL    HW2 4800   2.254   3.063   1.219
 1301SOL     OW 4801   0.177   0.045   1.222
 1301SOL    HW1 4802   0.162   6.972   1.186
 1301SOL    HW2 4803   0.209   0.105   1.149
 1302SOL     OW 4804   4.404   0.822   5.898
 1302SOL    HW1 4805   4.349   0.858   5.822
 1302SOL    HW2 4806   4.501   0.831   5.876
 1303SOL     OW 4807   3.850   2.015   1.053
 1303SOL    HW1 4808   3.804   2.089   1.004
 1303SOL    HW2 4809   3.934   2.051   1.094
 1304SOL     OW 4810   2.345   0.912   6.908
 1304SOL    HW1 4811   2.349   0.870   6.818
 1304SOL    HW2 4812   2.260   0.884   6.954
 1305SOL     OW 4813   5.845   3.777   0.681
 1305SOL    HW1 4814   5.747   3.764   0.662
 1305SOL    HW2 4815   5.899   3.728   0.612
 1306SOL     OW 4816   0.858   4.827   4.034
 1306SOL    HW1 4817   0.911   4.794   3.956
 1306SOL    HW2 4818   0.918   4.872   4.100
 1307SOL     OW 4819   1.397   4.149   3.559
 1307SOL    HW1 4820   1.310   4.146   3.609
 1307SOL    HW2 4821   1.410   4.063   3.510
 1308SOL     OW 4822   6.263   6.949   5.232
 1308SOL    HW1 4823   6.334   7.001   5.280
 1308SOL    HW2 4824   6.184   6.938   5.292
 1309SOL     OW 4825   5.476   4.507   5.230
 1309SOL    HW1 4826   5.557   4.480   5.283
 1309SOL    HW2 4827   5.434   4.427   5.189
 1310SOL     OW 4828   6.492   4.050   3.936
 1310SOL    HW1 4829   6.556   3.976   3.958
 1310SOL    HW2 4830   6.528   4.103   3.858
 1311SOL     OW 4831   0.757   6.247   5.081
 1311SOL    HW1 4832   0.755   6.296   4.994
 1311SOL    HW2 4833   0.758   6.313   5.156
 1312SOL     OW 4834   1.034   6.806   6.831
 1312SOL    HW1 4835   0.993   6.847   6.912
 1312SOL    HW2 4836   1.133   6.797   6.844
 1313SOL     OW 4837   0.509   4.693   2.695
 1313SOL    HW1 4838   0.529   4.739   2.781
 1313SOL    HW2 4839   0.592   4.653   2.658
 1314SOL     OW 4840   4.428   1.152   5.531
 1314SOL    HW1 4841   4.376   1.237   5.534
 1314SOL    HW2 4842   4.525   1.172   5.523
 1315SOL     OW 4843   0.767   1.266   2.342
 1315SOL    HW1 4844   0.837   1.328   2.306
 1315SOL    HW2 4845   0.677   1.310   2.336
 1316SOL     OW 4846   2.058   5.777   4.944
 1316SOL    HW1 4847   2.146   5.771   4.899
 1316SOL    HW2 4848   2.070   5.766   5.043
 1317SOL     OW 4849   2.383   4.454   6.524
 1317SOL    HW1 4850   2.339   4.384   6.469
 1317SOL    HW2 4851   2.397   4.419   6.617
 1318SOL     OW 4852   0.292   1.676   1.272
 1318SOL    HW1 4853   0.239   1.665   1.357
 1318SOL    HW2 4854   0.389   1.682   1.294
 1319SOL     OW 4855   6.781   6.811   0.192
 1319SOL    HW1 4856   6.806   6.719   0.162
 1319SOL    HW2 4857   6.850   6.844   0.256
 1320SOL     OW 4858   4.211   4.330   0.228
 1320SOL    HW1 4859   4.252   4.256   0.174
 1320SOL    HW2 4860   4.244   4.324   0.322
 1321SOL     OW 4861   5.465   1.832   6.897
 1321SOL    HW1 4862   5.501   1.815   6.805
 1321SOL    HW2 4863   5.481   1.927   6.923
 1322SOL     OW 4864   4.221   0.589   2.926
 1322SOL    HW1 4865   4.223   0.689   2.935
 1322SOL    HW2 4866   4.315   0.555   2.916
 1323SOL     OW 4867   4.167   0.354   5.803
 1323SOL    HW1 4868   4.248   0.413   5.798
 1323SOL    HW2 4869   4.085   0.408   5.786
 1324SOL     OW 4870   0.898   4.033   6.802
 1324SOL    HW1 4871   0.960   4.059   6.727
 1324SOL    HW2 4872   0.810   4.005   6.764
 1325SOL     OW 4873   2.508   0.168   3.381
 1325SOL    HW1 4874   2.597   0.122   3.372
 1325SOL    HW2 4875   2.478   0.165   3.476
 1326SOL     OW 4876   5.045   3.780   5.134
 1326SOL    HW1 4877   5.033   3.777   5.233
 1326SOL    HW2 4878   4.956   3.767   5.089
 1327SOL     OW 4879   0.808   5.991   1.311
 1327SOL    HW1 4880   0.730   5.954   1.262
 1327SOL    HW2 4881   0.800   6.091   1.317
 1328SOL     OW 4882   1.562   3.369   0.824
 1328SOL    HW1 4883   1.641   3.309   0.815
 1328SOL    HW2 4884   1.554   3.402   0.918
 1329SOL     OW 4885   0.176   1.935   1.740
 1329SOL    HW1 4886   0.212   2.009   1.683
 1329SOL    HW2 4887   0.245   1.864   1.751
 1330SOL     OW 4888   0.774   1.395   1.752
 1330SOL    HW1 4889   0.724   1.479   1.734
 1330SOL    HW2 4890   0.727   1.342   1.822
 1331SOL     OW 4891   4.840   3.086   2.743
 1331SOL    HW1 4892   4.854   3.132   2.656
 1331SOL    HW2 4893   4.791   3.000   2.728
 1332SOL     OW 4894   2.803   6.951   6.673
 1332SOL    HW1 4895   2.788   6.913   6.582
 1332SOL    HW2 4896   2.784   0.031   6.671
 1333SOL     OW 4897   3.202   3.508   4.398
 1333SOL    HW1 4898   3.288   3.545   4.432
 1333SOL    HW2 4899   3.125   3.556   4.440
 1334SOL     OW 4900   6.212   1.723   4.459
 1334SOL    HW1 4901   6.114   1.703   4.452
 1334SOL    HW2 4902   6.240   1.780   4.382
 1335SOL     OW 4903   2.446   1.876   2.874
 1335SOL    HW1 4904   2.469   1.943   2.945
 1335SOL    HW2 4905   2.452   1.920   2.784
 1336SOL     OW 4906   1.756   2.884   5.259
 1336SOL    HW1 4907   1.793   2.964   5.306
 1336SOL    HW2 4908   1.680   2.846   5.312
 1337SOL     OW 4909   1.984   2.149   4.365
 1337SOL    HW1 4910   1.895   2.119   4.398
 1337SOL    HW2 4911   2.024   2.213   4.431
 1338SOL     OW 4912   5.187   2.353   4.987
 1338SOL    HW1 4913   5.194   2.318   5.080
 1338SOL    HW2 4914   5.271   2.403   4.963
 1339SOL     OW 4915   6.889   1.784   6.589
 1339SOL    HW1 4916   6.843   1.862   6.546
 1339SOL    HW2 4917   6.863   1.700   6.542
 1340SOL     OW 4918   6.452   1.683   2.230
 1340SOL    HW1 4919   6.545   1.664   2.197
 1340SOL    HW2 4920   6.390   1.612   2.196
 1341SOL     OW 4921   5.143   6.770   6.061
 1341SOL    HW1 4922   5.213   6.840   6.073
 1341SOL    HW2 4923   5.059   6.800   6.107
 1342SOL     OW 4924   2.627   5.706   5.647
 1342SOL    HW1 4925   2.691   5.717   5.723
 1342SOL    HW2 4926   2.672   5.655   5.573
 1343SOL     OW 4927   4.712   5.716   2.397
 1343SOL    HW1 4928   4.758   5.655   2.461
 1343SOL    HW2 4929   4.650   5.776   2.447
 1344SOL     OW 4930   6.483   5.688   4.357
 1344SOL    HW1 4931   6.481   5.589   4.369
 1344SOL    HW2 4932   6.389   5.724   4.358
 1345SOL     OW 4933   1.796   0.364   2.999
 1345SOL    HW1 4934   1.802   0.265   2.985
 1345SOL    HW2 4935   1.727   0.402   2.936
 1346SOL     OW 4936   1.036   6.008   4.689
 1346SOL    HW1 4937   1.115   6.005   4.750
 1346SOL    HW2 4938   1.067   5.992   4.595
 1347SOL     OW 4939   6.927   6.923   4.855
 1347SOL    HW1 4940   6.837   6.885   4.880
 1347SOL    HW2 4941   6.916   7.018   4.828
 1348SOL     OW 4942   5.575   5.634   2.624
 1348SOL    HW1 4943   5.551   5.668   2.715
 1348SOL    HW2 4944   5.503   5.660   2.559
 1349SOL     OW 4945   4.494   2.583   5.983
 1349SOL    HW1 4946   4.513   2.675   6.016
 1349SOL    HW2 4947   4.544   2.568   5.897
 1350SOL     OW 4948   5.211   5.274   5.067
 1350SOL    HW1 4949   5.154   5.196   5.094
 1350SOL    HW2 4950   5.199   5.348   5.133
 1351SOL     OW 4951   5.984   1.688   3.448
 1351SOL    HW1 4952   5.977   1.686   3.348
 1351SOL    HW2 4953   6.080   1.690   3.475
 1352SOL     OW 4954   6.801   6.127   2.273
 1352SOL    HW1 4955   6.725   6.186   2.246
 1352SOL    HW2 4956   6.773   6.031   2.267
 1353SOL     OW 4957   0.563   2.615   0.311
 1353SOL    HW1 4958   0.622   2.552   0.361
 1353SOL    HW2 4959   0.513   2.565   0.240
 1354SOL     OW 4960   0.646   3.682   1.823
 1354SOL    HW1 4961   0.628   3.602   1.881
 1354SOL    HW2 4962   0.610   3.764   1.867
 1355SOL     OW 4963   6.653   2.770   4.519
 1355SOL    HW1 4964   6.661   2.709   4.597
 1355SOL    HW2 4965   6.744   2.790   4.483
 1356SOL     OW 4966   3.188   3.012   2.972
 1356SOL    HW1 4967   3.103   2.970   3.004
 1356SOL    HW2 4968   3.168   3.075   2.897
 1357SOL     OW 4969   0.925   3.275   5.717
 1357SOL    HW1 4970   0.924   3.250   5.620
 1357SOL    HW2 4971   0.993   3.219   5.765
 1358SOL     OW 4972   4.102   0.160   5.968
 1358SOL    HW1 4973   4.162   0.082   5.952
 1358SOL    HW2 4974   4.123   0.232   5.902
 1359SOL     OW 4975   5.540   4.820   2.273
 1359SOL    HW1 4976   5.452   4.783   2.302
 1359SOL    HW2 4977   5.586   4.753   2.215
 1360SOL     OW 4978   3.224   2.660   0.121
 1360SOL    HW1 4979   3.157   2.732   0.140
 1360SOL    HW2 4980   3.234   2.602   0.202
 1361SOL     OW 4981   6.943   5.677   5.399
 1361SOL    HW1 4982   6.886   5.609   5.445
 1361SOL    HW2 4983   6.954   5.757   5.458
 1362SOL     OW 4984   3.361   4.088   4.037
 1362SOL    HW1 4985   3.331   4.086   3.942
 1362SOL    HW2 4986   3.326   4.171   4.081
 1363SOL     OW 4987   7.018   5.437   2.790
 1363SOL    HW1 4988   6.992   5.403   2.880
 1363SOL    HW2 4989   0.098   5.450   2.785
 1364SOL     OW 4990   0.052   3.112   1.510
 1364SOL    HW1 4991   6.997   3.061   1.468
 1364SOL    HW2 4992   0.021   3.205   1.531
 1365SOL     OW 4993   0.806   3.240   6.710
 1365SOL    HW1 4994   0.782   3.309   6.779
 1365SOL    HW2 4995   0.890   3.269   6.662
 1366SOL     OW 4996   1.015   4.629   0.158
 1366SOL    HW1 4997   1.033   4.726   0.178
 1366SOL    HW2 4998   1.099   4.577   0.172
 1367SOL     OW 4999   2.211   0.330   2.971
 1367SOL    HW1 5000   2.250   0.278   3.047
 1367SOL    HW2 5001   2.284   0.376   2.921
 1368SOL     OW 5002   6.119   0.365   3.664
 1368SOL    HW1 5003   6.206   0.315   3.657
 1368SOL    HW2 5004   6.104   0.392   3.759
 1369SOL     OW 5005   2.563   6.920   1.683
 1369SOL    HW1 5006   2.660   6.934   1.666
 1369SOL    HW2 5007   2.530   6.843   1.629
 1370SOL     OW 5008   4.417   1.528   0.926
 1370SOL    HW1 5009   4.425   1.618   0.969
 1370SOL    HW2 5010   4.321   1.503   0.917
 1371SOL     OW 5011   5.895   1.348   4.550
 1371SOL    HW1 5012   5.884   1.330   4.452
 1371SOL    HW2 5013   5.928   1.441   4.563
 1372SOL     OW 5014   0.927   2.942   0.503
 1372SOL    HW1 5015   0.992   2.890   0.559
 1372SOL    HW2 5016   0.949   2.929   0.406
 1373SOL     OW 5017   5.245   2.730   0.178
 1373SOL    HW1 5018   5.233   2.822   0.216
 1373SOL    HW2 5019   5.166   2.707   0.121
 1374SOL     OW 5020   5.183   1.834   0.118
 1374SOL    HW1 5021   5.278   1.832   0.149
 1374SOL    HW2 5022   5.153   1.741   0.096
 1375SOL     OW 5023   0.710   4.124   6.261
 1375SOL    HW1 5024   0.782   4.191   6.248
 1375SOL    HW2 5025   0.707   4.061   6.183
 1376SOL     OW 5026   4.169   4.817   4.865
 1376SOL    HW1 5027   4.197   4.733   4.912
 1376SOL    HW2 5028   4.225   4.828   4.782
 1377SOL     OW 5029   0.709   3.688   5.528
 1377SOL    HW1 5030   0.730   3.694   5.430
 1377SOL    HW2 5031   0.790   3.654   5.577
 1378SOL     OW 5032   5.985   0.756   4.947
 1378SOL    HW1 5033   6.042   0.837   4.938
 1378SOL    HW2 5034   5.935   0.741   4.861
 1379SOL     OW 5035   4.018   6.981   2.921
 1379SOL    HW1 5036   3.994   6.941   2.832
 1379SOL    HW2 5037   4.099   0.020   2.910
 1380SOL     OW 5038   0.001   6.671   2.738
 1380SOL    HW1 5039   0.001   6.628   2.828
 1380SOL    HW2 5040   0.086   6.651   2.691
 1381SOL     OW 5041   6.148   2.562   0.102
 1381SOL    HW1 5042   6.082   2.487   0.110
 1381SOL    HW2 5043   6.158   2.588   0.006
 1382SOL     OW 5044   4.851   4.320   0.571
 1382SOL    HW1 5045   4.923   4.368   0.520
 1382SOL    HW2 5046   4.769   4.314   0.513
 1383SOL     OW 5047   0.982   0.478   1.570
 1383SOL    HW1 5048   1.066   0.467   1.623
 1383SOL    HW2 5049   0.935   0.562   1.598
 1384SOL     OW 5050   4.271   0.080   1.607
 1384SOL    HW1 5051   4.268   0.064   1.508
 1384SOL    HW2 5052   4.353   0.132   1.629
 1385SOL     OW 5053   1.454   3.583   3.896
 1385SOL    HW1 5054   1.523   3.563   3.826
 1385SOL    HW2 5055   1.439   3.501   3.951
 1386SOL     OW 5056   3.089   0.422   4.363
 1386SOL    HW1 5057   3.153   0.498   4.372
 1386SOL    HW2 5058   3.134   0.347   4.314
 1387SOL     OW 5059   4.035   5.696   2.785
 1387SOL    HW1 5060   4.022   5.599   2.765
 1387SOL    HW2 5061   3.972   5.723   2.858
 1388SOL     OW 5062   0.511   6.742   3.182
 1388SOL    HW1 5063   0.525   6.788   3.094
 1388SOL    HW2 5064   0.526   6.644   3.171
 1389SOL     OW 5065   0.131   0.864   3.246
 1389SOL    HW1 5066   0.175   0.775   3.255
 1389SOL    HW2 5067   0.087   0.871   3.157
 1390SOL     OW 5068   5.713   2.822   5.758
 1390SOL    HW1 5069   5.770   2.815   5.840
 1390SOL    HW2 5070   5.636   2.759   5.766
 1391SOL     OW 5071   6.295   0.248   5.410
 1391SOL    HW1 5072   6.351   0.200   5.477
 1391SOL    HW2 5073   6.353   0.279   5.334
 1392SOL     OW 5074   5.389   6.638   6.670
 1392SOL    HW1 5075   5.327   6.641   6.748
 1392SOL    HW2 5076   5.453   6.561   6.681
 1393SOL     OW 5077   6.277   3.687   5.898
 1393SOL    HW1 5078   6.325   3.690   5.810
 1393SOL    HW2 5079   6.334   3.641   5.966
 1394SOL     OW 5080   3.941   5.891   4.246
 1394SOL    HW1 5081   3.885   5.916   4.166
 1394SOL    HW2 5082   4.013   5.959   4.258
 1395SOL     OW 5083   1.348   4.496   4.333
 1395SOL    HW1 5084   1.413   4.571   4.348
 1395SOL    HW2 5085   1.341   4.476   4.236
 1396SOL     OW 5086   1.132   0.452   3.615
 1396SOL    HW1 5087   1.200   0.500   3.560
 1396SOL    HW2 5088   1.075   0.519   3.663
 1397SOL     OW 5089   0.642   6.179   4.482
 1397SOL    HW1 5090   0.667   6.126   4.564
 1397SOL    HW2 5091   0.680   6.134   4.401
 1398SOL     OW 5092   1.698   2.085   6.971
 1398SOL    HW1 5093   1.711   2.163   0.014
 1398SOL    HW2 5094   1.604   2.052   6.979
 1399SOL     OW 5095   4.140   0.205   6.797
 1399SOL    HW1 5096   4.212   0.272   6.775
 1399SOL    HW2 5097   4.076   0.200   6.721
 1400SOL     OW 5098   0.308   1.920   4.492
 1400SOL    HW1 5099   0.357   1.925   4.406
 1400SOL    HW2 5100   0.281   1.825   4.510
 1401SOL     OW 5101   6.197   6.907   4.144
 1401SOL    HW1 5102   6.120   6.849   4.116
 1401SOL    HW2 5103   6.271   6.899   4.077
 1402SOL     OW 5104   6.078   4.492   6.887
 1402SOL    HW1 5105   6.072   4.410   6.944
 1402SOL    HW2 5106   6.150   4.551   6.922
 1403SOL     OW 5107   1.704   2.330   1.464
 1403SOL    HW1 5108   1.705   2.420   1.508
 1403SOL    HW2 5109   1.688   2.341   1.366
 1404SOL     OW 5110   6.524   0.097   0.294
 1404SOL    HW1 5111   6.541   0.046   0.378
 1404SOL    HW2 5112   6.436   0.145   0.301
 1405SOL     OW 5113   2.592   3.943   0.520
 1405SOL    HW1 5114   2.516   3.900   0.569
 1405SOL    HW2 5115   2.606   3.896   0.433
 1406SOL     OW 5116   2.295   5.076   1.298
 1406SOL    HW1 5117   2.287   5.083   1.198
 1406SOL    HW2 5118   2.318   5.166   1.336
 1407SOL     OW 5119   1.512   4.384   3.451
 1407SOL    HW1 5120   1.483   4.305   3.504
 1407SOL    HW2 5121   1.612   4.389   3.451
 1408SOL     OW 5122   5.521   6.658   6.424
 1408SOL    HW1 5123   5.610   6.696   6.447
 1408SOL    HW2 5124   5.459   6.668   6.502
 1409SOL     OW 5125   6.918   0.475   5.130
 1409SOL    HW1 5126   6.828   0.506   5.100
 1409SOL    HW2 5127   6.925   0.486   5.229
 1410SOL     OW 5128   3.010   3.974   0.411
 1410SOL    HW1 5129   3.056   4.006   0.328
 1410SOL    HW2 5130   2.913   3.998   0.406
 1411SOL     OW 5131   3.397   5.593   6.705
 1411SOL    HW1 5132   3.433   5.523   6.643
 1411SOL    HW2 5133   3.349   5.663   6.652
 1412SOL     OW 5134   0.744   3.937   1.440
 1412SOL    HW1 5135   0.820   3.875   1.421
 1412SOL    HW2 5136   0.724   3.937   1.538
 1413SOL     OW 5137   2.042   1.326   4.608
 1413SOL    HW1 5138   2.112   1.269   4.653
 1413SOL    HW2 5139   1.981   1.364   4.678
 1414SOL     OW 5140   2.020   1.921   1.927
 1414SOL    HW1 5141   2.105   1.960   1.963
 1414SOL    HW2 5142   2.042   1.840   1.872
 1415SOL     OW 5143   3.087   1.593   4.685
 1415SOL    HW1 5144   3.013   1.648   4.646
 1415SOL    HW2 5145   3.146   1.560   4.611
 1416SOL     OW 5146   3.677   0.084   4.365
 1416SOL    HW1 5147   3.626   0.000   4.347
 1416SOL    HW2 5148   3.630   0.138   4.435
 1417SOL     OW 5149   3.111   2.915   6.567
 1417SOL    HW1 5150   3.044   2.953   6.502
 1417SOL    HW2 5151   3.118   2.817   6.552
 1418SOL     OW 5152   2.831   3.734   0.574
 1418SOL    HW1 5153   2.841   3.802   0.502
 1418SOL    HW2 5154   2.916   3.682   0.583
 1419SOL     OW 5155   2.797   5.554   3.643
 1419SOL    HW1 5156   2.785   5.652   3.629
 1419SOL    HW2 5157   2.832   5.512   3.559
 1420SOL     OW 5158   3.541   5.636   3.192
 1420SOL    HW1 5159   3.569   5.570   3.123
 1420SOL    HW2 5160   3.453   5.676   3.166
 1421SOL     OW 5161   1.128   4.269   4.025
 1421SOL    HW1 5162   1.131   4.333   3.948
 1421SOL    HW2 5163   1.039   4.275   4.071
 1422SOL     OW 5164   3.574   4.387   6.680
 1422SOL    HW1 5165   3.588   4.466   6.739
 1422SOL    HW2 5166   3.607   4.408   6.588
 1423SOL     OW 5167   2.897   0.914   4.725
 1423SOL    HW1 5168   2.924   0.964   4.642
 1423SOL    HW2 5169   2.953   0.944   4.802
 1424SOL     OW 5170   6.556   3.631   6.710
 1424SOL    HW1 5171   6.533   3.575   6.631
 1424SOL    HW2 5172   6.585   3.572   6.785
 1425SOL     OW 5173   2.188   5.614   5.165
 1425SOL    HW1 5174   2.226   5.534   5.118
 1425SOL    HW2 5175   2.091   5.598   5.184
 1426SOL     OW 5176   2.372   2.420   5.844
 1426SOL    HW1 5177   2.437   2.428   5.919
 1426SOL    HW2 5178   2.339   2.327   5.838
 1427SOL     OW 5179   0.246   6.940   4.142
 1427SOL    HW1 5180   0.247   0.016   4.111
 1427SOL    HW2 5181   0.179   6.888   4.088
 1428SOL     OW 5182   6.953   1.886   1.888
 1428SOL    HW1 5183   6.984   1.888   1.983
 1428SOL    HW2 5184   0.011   1.910   1.828
 1429SOL     OW 5185   6.380   1.599   0.176
 1429SOL    HW1 5186   6.416   1.573   0.266
 1429SOL    HW2 5187   6.354   1.695   0.178
 1430SOL     OW 5188   1.999   4.629   4.032
 1430SOL    HW1 5189   2.015   4.646   3.935
 1430SOL    HW2 5190   2.081   4.589   4.073
 1431SOL     OW 5191   2.625   2.583   6.036
 1431SOL    HW1 5192   2.612   2.682   6.039
 1431SOL    HW2 5193   2.710   2.558   6.082
 1432SOL     OW 5194   2.236   0.802   1.193
 1432SOL    HW1 5195   2.284   0.889   1.206
 1432SOL    HW2 5196   2.303   0.730   1.174
 1433SOL     OW 5197   4.306   0.011   4.576
 1433SOL    HW1 5198   4.367   6.977   4.635
 1433SOL    HW2 5199   4.355   0.040   4.494
 1434SOL     OW 5200   0.241   0.635   6.282
 1434SOL    HW1 5201   0.163   0.646   6.344
 1434SOL    HW2 5202   0.317   0.692   6.314
 1435SOL     OW 5203   6.519   7.012   3.404
 1435SOL    HW1 5204   6.588   6.942   3.390
 1435SOL    HW2 5205   6.563   0.082   3.416
 1436SOL     OW 5206   5.981   3.495   7.002
 1436SOL    HW1 5207   6.013   3.526   6.913
 1436SOL    HW2 5208   5.910   3.426   6.990
 1437SOL     OW 5209   3.001   0.523   6.022
 1437SOL    HW1 5210   2.992   0.622   6.020
 1437SOL    HW2 5211   3.094   0.497   5.996
 1438SOL     OW 5212   2.790   0.197   1.561
 1438SOL    HW1 5213   2.771   0.294   1.572
 1438SOL    HW2 5214   2.760   0.167   1.471
 1439SOL     OW 5215   0.889   5.035   1.020
 1439SOL    HW1 5216   0.804   5.073   0.983
 1439SOL    HW2 5217   0.962   5.102   1.011
 1440SOL     OW 5218   3.429   3.608   5.397
 1440SOL    HW1 5219   3.348   3.638   5.447
 1440SOL    HW2 5220   3.403   3.539   5.330
 1441SOL     OW 5221   6.362   3.758   4.791
 1441SOL    HW1 5222   6.368   3.701   4.710
 1441SOL    HW2 5223   6.266   3.785   4.806
 1442SOL     OW 5224   6.865   4.956   6.852
 1442SOL    HW1 5225   6.933   4.986   6.919
 1442SOL    HW2 5226   6.890   4.989   6.761
 1443SOL     OW 5227   0.920   2.406   5.045
 1443SOL    HW1 5228   0.947   2.363   4.959
 1443SOL    HW2 5229   0.868   2.490   5.026
 1444SOL     OW 5230   4.168   5.632   1.583
 1444SOL    HW1 5231   4.174   5.551   1.524
 1444SOL    HW2 5232   4.246   5.692   1.566
 1445SOL     OW 5233   0.295   2.576   2.478
 1445SOL    HW1 5234   0.309   2.613   2.570
 1445SOL    HW2 5235   0.234   2.636   2.427
 1446SOL     OW 5236   5.151   1.886   6.856
 1446SOL    HW1 5237   5.141   1.984   6.837
 1446SOL    HW2 5238   5.194   1.874   6.945
 1447SOL     OW 5239   6.433   6.726   5.449
 1447SOL    HW1 5240   6.350   6.694   5.403
 1447SOL    HW2 5241   6.420   6.719   5.548
 1448SOL     OW 5242   6.762   2.459   0.041
 1448SOL    HW1 5243   6.794   2.533   0.101
 1448SOL    HW2 5244   6.837   2.431   7.001
 1449SOL     OW 5245   5.876   1.335   0.097
 1449SOL    HW1 5246   5.814   1.278   0.043
 1449SOL    HW2 5247   5.932   1.276   0.156
 1450SOL     OW 5248   0.582   2.076   2.418
 1450SOL    HW1 5249   0.507   2.139   2.398
 1450SOL    HW2 5250   0.549   1.982   2.407
 1451SOL     OW 5251   3.280   0.989   1.918
 1451SOL    HW1 5252   3.275   0.893   1.945
 1451SOL    HW2 5253   3.373   1.023   1.933
 1452SOL     OW 5254   4.025   1.332   4.280
 1452SOL    HW1 5255   3.939   1.326   4.228
 1452SOL    HW2 5256   4.005   1.329   4.378
 1453SOL     OW 5257   0.531   3.511   5.455
 1453SOL    HW1 5258   0.435   3.536   5.438
 1453SOL    HW2 5259   0.582   3.594   5.479
 1454SOL     OW 5260   6.301   2.263   3.138
 1454SOL    HW1 5261   6.374   2.197   3.157
 1454SOL    HW2 5262   6.237   2.223   3.072
 1455SOL     OW 5263   1.935   0.129   1.795
 1455SOL    HW1 5264   1.932   0.201   1.726
 1455SOL    HW2 5265   2.009   0.066   1.775
 1456SOL     OW 5266   6.435   0.129   5.625
 1456SOL    HW1 5267   6.492   0.085   5.557
 1456SOL    HW2 5268   6.484   0.131   5.713
 1457SOL     OW 5269   1.251   0.047   0.750
 1457SOL    HW1 5270   1.218   0.120   0.810
 1457SOL    HW2 5271   1.246   0.077   0.655
 1458SOL     OW 5272   5.396   6.194   3.101
 1458SOL    HW1 5273   5.413   6.172   3.197
 1458SOL    HW2 5274   5.479   6.231   3.059
 1459SOL     OW 5275   3.022   4.767   5.570
 1459SOL    HW1 5276   2.959   4.728   5.503
 1459SOL    HW2 5277   3.112   4.777   5.529
 1460SOL     OW 5278   0.366   5.298   5.833
 1460SOL    HW1 5279   0.445   5.319   5.775
 1460SOL    HW2 5280   0.302   5.375   5.831
 1461SOL     OW 5281   0.799   4.987   3.238
 1461SOL    HW1 5282   0.892   4.949   3.238
 1461SOL    HW2 5283   0.805   5.086   3.251
 1462SOL     OW 5284   0.801   0.917   5.982
 1462SOL    HW1 5285   0.857   0.991   5.947
 1462SOL    HW2 5286   0.753   0.873   5.906
 1463SOL     OW 5287   0.270   5.617   6.461
 1463SOL    HW1 5288   0.180   5.659   6.469
 1463SOL    HW2 5289   0.287   5.590   6.367
 1464SOL     OW 5290   6.314   0.041   0.780
 1464SOL    HW1 5291   6.301   6.965   0.808
 1464SOL    HW2 5292   6.298   0.049   0.682
 1465SOL     OW 5293   1.908   1.743   3.640
 1465SOL    HW1 5294   1.950   1.779   3.723
 1465SOL    HW2 5295   1.865   1.655   3.661
 1466SOL     OW 5296   1.330   1.227   2.598
 1466SOL    HW1 5297   1.422   1.256   2.626
 1466SOL    HW2 5298   1.263   1.295   2.628
 1467SOL     OW 5299   2.458   1.495   2.468
 1467SOL    HW1 5300   2.513   1.428   2.419
 1467SOL    HW2 5301   2.474   1.487   2.567
 1468SOL     OW 5302   5.209   5.366   3.116
 1468SOL    HW1 5303   5.295   5.336   3.074
 1468SOL    HW2 5304   5.228   5.428   3.192
 1469SOL     OW 5305   1.389   0.792   2.165
 1469SOL    HW1 5306   1.323   0.773   2.091
 1469SOL    HW2 5307   1.360   0.745   2.248
 1470SOL     OW 5308   1.978   1.020   2.769
 1470SOL    HW1 5309   1.968   0.932   2.723
 1470SOL    HW2 5310   2.041   1.078   2.717
 1471SOL     OW 5311   0.601   0.371   0.518
 1471SOL    HW1 5312   0.581   0.276   0.543
 1471SOL    HW2 5313   0.519   0.427   0.531
 1472SOL     OW 5314   3.962   5.600   4.957
 1472SOL    HW1 5315   3.867   5.583   4.981
 1472SOL    HW2 5316   3.992   5.534   4.889
 1473SOL     OW 5317   5.707   5.878   3.546
 1473SOL    HW1 5318   5.805   5.875   3.528
 1473SOL    HW2 5319   5.691   5.903   3.642
 1474SOL     OW 5320   6.017   5.988   3.253
 1474SOL    HW1 5321   6.107   6.023   3.280
 1474SOL    HW2 5322   6.029   5.917   3.184
 1475SOL     OW 5323   6.567   0.334   1.416
 1475SOL    HW1 5324   6.553   0.242   1.379
 1475SOL    HW2 5325   6.486   0.361   1.469
 1476SOL     OW 5326   1.868   1.573   1.384
 1476SOL    HW1 5327   1.867   1.481   1.424
 1476SOL    HW2 5328   1.949   1.583   1.326
 1477SOL     OW 5329   2.772   0.396   0.117
 1477SOL    HW1 5330   2.774   0.440   0.206
 1477SOL    HW2 5331   2.678   0.376   0.091
 1478SOL     OW 5332   5.341   4.445   0.111
 1478SOL    HW1 5333   5.371   4.352   0.090
 1478SOL    HW2 5334   5.394   4.510   0.057
 1479SOL     OW 5335   1.274   3.596   0.063
 1479SOL    HW1 5336   1.360   3.603   0.115
 1479SOL    HW2 5337   1.254   3.685   0.021
 1480SOL     OW 5338   2.698   0.273   6.188
 1480SOL    HW1 5339   2.710   0.341   6.261
 1480SOL    HW2 5340   2.670   0.186   6.228
 1481SOL     OW 5341   6.655   1.988   5.209
 1481SOL    HW1 5342   6.742   1.957   5.248
 1481SOL    HW2 5343   6.579   1.940   5.254
 1482SOL     OW 5344   4.820   2.498   0.930
 1482SOL    HW1 5345   4.802   2.429   0.860
 1482SOL    HW2 5346   4.891   2.560   0.898
 1483SOL     OW 5347   6.216   2.284   6.380
 1483SOL    HW1 5348   6.290   2.271   6.313
 1483SOL    HW2 5349   6.202   2.381   6.396
 1484SOL     OW 5350   6.024   4.947   4.096
 1484SOL    HW1 5351   5.990   4.859   4.130
 1484SOL    HW2 5352   6.102   4.976   4.152
 1485SOL     OW 5353   4.084   2.217   2.669
 1485SOL    HW1 5354   4.137   2.234   2.586
 1485SOL    HW2 5355   4.104   2.288   2.736
 1486SOL     OW 5356   5.177   2.089   2.805
 1486SOL    HW1 5357   5.206   2.131   2.720
 1486SOL    HW2 5358   5.119   2.009   2.785
 1487SOL     OW 5359   6.677   2.666   6.755
 1487SOL    HW1 5360   6.605   2.734   6.740
 1487SOL    HW2 5361   6.644   2.576   6.728
 1488SOL     OW 5362   5.354   2.079   3.243
 1488SOL    HW1 5363   5.279   2.098   3.179
 1488SOL    HW2 5364   5.368   2.158   3.302
 1489SOL     OW 5365   4.270   5.063   3.666
 1489SOL    HW1 5366   4.332   5.102   3.597
 1489SOL    HW2 5367   4.270   5.121   3.747
 1490SOL     OW 5368   1.186   3.200   1.309
 1490SOL    HW1 5369   1.220   3.270   1.245
 1490SOL    HW2 5370   1.141   3.245   1.386
 1491SOL     OW 5371   6.044   3.638   4.327
 1491SOL    HW1 5372   6.021   3.667   4.419
 1491SOL    HW2 5373   5.966   3.651   4.266
 1492SOL     OW 5374   5.738   1.636   2.543
 1492SOL    HW1 5375   5.755   1.571   2.617
 1492SOL    HW2 5376   5.648   1.679   2.555
 1493SOL     OW 5377   5.005   6.747   3.745
 1493SOL    HW1 5378   4.994   6.662   3.692
 1493SOL    HW2 5379   5.084   6.737   3.806
 1494SOL     OW 5380   5.252   1.938   6.032
 1494SOL    HW1 5381   5.214   1.920   5.941
 1494SOL    HW2 5382   5.301   1.857   6.064
 1495SOL     OW 5383   6.746   2.757   4.174
 1495SOL    HW1 5384   6.802   2.748   4.256
 1495SOL    HW2 5385   6.650   2.765   4.200
 1496SOL     OW 5386   0.775   1.570   2.374
 1496SOL    HW1 5387   0.855   1.528   2.333
 1496SOL    HW2 5388   0.796   1.599   2.468
 1497SOL     OW 5389   6.963   2.825   3.630
 1497SOL    HW1 5390   6.923   2.735   3.611
 1497SOL    HW2 5391   6.903   2.875   3.692
 1498SOL     OW 5392   2.100   4.516   6.596
 1498SOL    HW1 5393   2.016   4.569   6.577
 1498SOL    HW2 5394   2.177   4.579   6.607
 1499SOL     OW 5395   1.314   3.929   5.810
 1499SOL    HW1 5396   1.221   3.913   5.778
 1499SOL    HW2 5397   1.313   3.959   5.905
 1500SOL     OW 5398   6.650   6.445   6.908
 1500SOL    HW1 5399   6.714   6.502   6.960
 1500SOL    HW2 5400   6.582   6.504   6.864
 1501SOL     OW 5401   5.016   1.193   6.308
 1501SOL    HW1 5402   5.027   1.264   6.237
 1501SOL    HW2 5403   4.929   1.208   6.355
 1502SOL     OW 5404   5.762   6.849   1.541
 1502SOL    HW1 5405   5.820   6.804   1.609
 1502SOL    HW2 5406   5.667   6.851   1.573
 1503SOL     OW 5407   2.738   1.652   2.426
 1503SOL    HW1 5408   2.674   1.703   2.368
 1503SOL    HW2 5409   2.783   1.581   2.371
 1504SOL     OW 5410   0.765   0.948   4.550
 1504SOL    HW1 5411   0.714   1.020   4.596
 1504SOL    HW2 5412   0.807   0.888   4.619
 1505SOL     OW 5413   6.286   0.535   6.113
 1505SOL    HW1 5414   6.315   0.625   6.080
 1505SOL    HW2 5415   6.188   0.524   6.101
 1506SOL     OW 5416   1.689   5.213   1.647
 1506SOL    HW1 5417   1.681   5.154   1.566
 1506SOL    HW2 5418   1.756   5.174   1.710
 1507SOL     OW 5419   0.697   2.171   5.446
 1507SOL    HW1 5420   0.781   2.191   5.497
 1507SOL    HW2 5421   0.688   2.235   5.370
 1508SOL     OW 5422   6.636   0.456   1.957
 1508SOL    HW1 5423   6.581   0.409   1.888
 1508SOL    HW2 5424   6.731   0.461   1.925
 1509SOL     OW 5425   4.511   2.379   6.135
 1509SOL    HW1 5426   4.527   2.460   6.079
 1509SOL    HW2 5427   4.526   2.401   6.231
 1510SOL     OW 5428   6.123   2.642   4.563
 1510SOL    HW1 5429   6.126   2.671   4.659
 1510SOL    HW2 5430   6.196   2.577   4.546
 1511SOL     OW 5431   3.174   2.478   1.042
 1511SOL    HW1 5432   3.273   2.465   1.050
 1511SOL    HW2 5433   3.149   2.569   1.074
 1512SOL     OW 5434   6.961   6.236   1.757
 1512SOL    HW1 5435   6.900   6.299   1.806
 1512SOL    HW2 5436   6.987   6.161   1.818
 1513SOL     OW 5437   3.983   0.443   3.919
 1513SOL    HW1 5438   4.062   0.497   3.890
 1513SOL    HW2 5439   3.913   0.504   3.957
 1514SOL     OW 5440   5.029   2.502   5.559
 1514SOL    HW1 5441   4.995   2.559   5.634
 1514SOL    HW2 5442   5.020   2.406   5.584
 1515SOL     OW 5443   6.676   3.281   5.368
 1515SOL    HW1 5444   6.765   3.315   5.397
 1515SOL    HW2 5445   6.645   3.331   5.287
 1516SOL     OW 5446   0.397   0.166   0.641
 1516SOL    HW1 5447   0.306   0.155   0.601
 1516SOL    HW2 5448   0.393   0.237   0.712
 1517SOL     OW 5449   3.926   5.582   3.364
 1517SOL    HW1 5450   3.830   5.563   3.385
 1517SOL    HW2 5451   3.985   5.521   3.416
 1518SOL     OW 5452   0.466   2.759   0.523
 1518SOL    HW1 5453   0.531   2.830   0.549
 1518SOL    HW2 5454   0.502   2.708   0.445
 1519SOL     OW 5455   6.543   4.966   2.076
 1519SOL    HW1 5456   6.577   5.002   1.989
 1519SOL    HW2 5457   6.519   5.042   2.136
 1520SOL     OW 5458   0.796   3.828   2.246
 1520SOL    HW1 5459   0.713   3.781   2.215
 1520SOL    HW2 5460   0.803   3.821   2.345
 1521SOL     OW 5461   2.897   3.785   0.094
 1521SOL    HW1 5462   2.868   3.881   0.101
 1521SOL    HW2 5463   2.996   3.781   0.080
 1522SOL     OW 5464   6.410   0.357   5.201
 1522SOL    HW1 5465   6.473   0.413   5.254
 1522SOL    HW2 5466   6.455   0.325   5.117
 1523SOL     OW 5467   4.949   3.734   0.229
 1523SOL    HW1 5468   4.871   3.779   0.273
 1523SOL    HW2 5469   5.018   3.711   0.297
 1524SOL     OW 5470   1.378   2.109   2.100
 1524SOL    HW1 5471   1.466   2.063   2.112
 1524SOL    HW2 5472   1.305   2.042   2.099
 1525SOL     OW 5473   6.508   2.376   0.019
 1525SOL    HW1 5474   6.596   2.424   0.016
 1525SOL    HW2 5475   6.508   2.312   0.095
 1526SOL     OW 5476   1.388   0.378   6.309
 1526SOL    HW1 5477   1.312   0.427   6.266
 1526SOL    HW2 5478   1.415   0.301   6.252
 1527SOL     OW 5479   3.707   1.277   5.424
 1527SOL    HW1 5480   3.723   1.348   5.493
 1527SOL    HW2 5481   3.795   1.244   5.390
 1528SOL     OW 5482   5.141   5.633   1.655
 1528SOL    HW1 5483   5.225   5.593   1.620
 1528SOL    HW2 5484   5.116   5.713   1.600
 1529SOL     OW 5485   3.666   0.217   0.151
 1529SOL    HW1 5486   3.621   0.171   0.075
 1529SOL    HW2 5487   3.601   0.233   0.225
 1530SOL     OW 5488   3.262   0.919   2.501
 1530SOL    HW1 5489   3.350   0.947   2.463
 1530SOL    HW2 5490   3.190   0.981   2.469
 1531SOL     OW 5491   5.649   0.800   4.565
 1531SOL    HW1 5492   5.551   0.805   4.551
 1531SOL    HW2 5493   5.687   0.893   4.569
 1532SOL     OW 5494   2.845   3.369   5.924
 1532SOL    HW1 5495   2.855   3.275   5.956
 1532SOL    HW2 5496   2.763   3.376   5.867
 1533SOL     OW 5497   0.433   3.048   0.159
 1533SOL    HW1 5498   0.531   3.066   0.157
 1533SOL    HW2 5499   0.384   3.132   0.183
 1534SOL     OW 5500   1.394   5.098   6.575
 1534SOL    HW1 5501   1.467   5.049   6.527
 1534SOL    HW2 5502   1.338   5.147   6.509
 1535SOL     OW 5503   5.235   6.052   4.375
 1535SOL    HW1 5504   5.239   6.116   4.298
 1535SOL    HW2 5505   5.143   6.052   4.414
 1536SOL     OW 5506   4.116   4.547   5.306
 1536SOL    HW1 5507   4.119   4.491   5.389
 1536SOL    HW2 5508   4.169   4.501   5.234
 1537SOL     OW 5509   3.689   6.114   3.141
 1537SOL    HW1 5510   3.658   6.047   3.073
 1537SOL    HW2 5511   3.789   6.118   3.139
 1538SOL     OW 5512   3.787   5.270   6.227
 1538SOL    HW1 5513   3.853   5.329   6.273
 1538SOL    HW2 5514   3.734   5.325   6.161
 1539SOL     OW 5515   4.415   4.215   1.428
 1539SOL    HW1 5516   4.341   4.231   1.493
 1539SOL    HW2 5517   4.503   4.216   1.476
 1540SOL     OW 5518   1.240   0.140   5.281
 1540SOL    HW1 5519   1.222   0.142   5.182
 1540SOL    HW2 5520   1.270   0.049   5.307
 1541SOL     OW 5521   3.310   2.906   1.858
 1541SOL    HW1 5522   3.360   2.989   1.832
 1541SOL    HW2 5523   3.239   2.930   1.925
 1542SOL     OW 5524   6.635   6.014   1.572
 1542SOL    HW1 5525   6.613   6.071   1.492
 1542SOL    HW2 5526   6.725   5.973   1.559
 1543SOL     OW 5527   2.981   3.782   4.234
 1543SOL    HW1 5528   3.067   3.741   4.203
 1543SOL    HW2 5529   2.966   3.758   4.330
 1544SOL     OW 5530   3.159   3.591   1.725
 1544SOL    HW1 5531   3.148   3.504   1.676
 1544SOL    HW2 5532   3.093   3.595   1.800
 1545SOL     OW 5533   5.345   1.058   4.712
 1545SOL    HW1 5534   5.294   1.144   4.703
 1545SOL    HW2 5535   5.367   1.042   4.809
 1546SOL     OW 5536   5.149   0.093   6.385
 1546SOL    HW1 5537   5.180   0.014   6.439
 1546SOL    HW2 5538   5.222   0.124   6.325
 1547SOL     OW 5539   2.114   4.103   2.753
 1547SOL    HW1 5540   2.137   4.132   2.846
 1547SOL    HW2 5541   2.042   4.161   2.716
 1548SOL     OW 5542   4.782   3.531   5.806
 1548SOL    HW1 5543   4.718   3.548   5.881
 1548SOL    HW2 5544   4.736   3.545   5.719
 1549SOL     OW 5545   4.781   1.745   2.227
 1549SOL    HW1 5546   4.794   1.656   2.269
 1549SOL    HW2 5547   4.814   1.743   2.132
 1550SOL     OW 5548   3.202   5.460   6.178
 1550SOL    HW1 5549   3.155   5.531   6.127
 1550SOL    HW2 5550   3.142   5.426   6.250
 1551SOL     OW 5551   2.391   3.612   0.176
 1551SOL    HW1 5552   2.306   3.645   0.135
 1551SOL    HW2 5553   2.390   3.513   0.182
 1552SOL     OW 5554   0.003   0.515   1.417
 1552SOL    HW1 5555   0.030   0.422   1.394
 1552SOL    HW2 5556   0.077   0.560   1.467
 1553SOL     OW 5557   6.205   0.902   5.704
 1553SOL    HW1 5558   6.152   0.896   5.619
 1553SOL    HW2 5559   6.149   0.946   5.775
 1554SOL     OW 5560   4.003   2.156   3.073
 1554SOL    HW1 5561   3.938   2.112   3.135
 1554SOL    HW2 5562   3.964   2.159   2.981
 1555SOL     OW 5563   4.908   1.889   5.918
 1555SOL    HW1 5564   4.850   1.835   5.979
 1555SOL    HW2 5565   4.851   1.952   5.865
 1556SOL     OW 5566   4.205   1.010   0.533
 1556SOL    HW1 5567   4.277   1.020   0.602
 1556SOL    HW2 5568   4.194   0.914   0.510
 1557SOL     OW 5569   1.661   1.596   6.744
 1557SOL    HW1 5570   1.700   1.509   6.714
 1557SOL    HW2 5571   1.619   1.642   6.666
 1558SOL     OW 5572   5.530   1.449   4.029
 1558SOL    HW1 5573   5.453   1.510   4.049
 1558SOL    HW2 5574   5.508   1.357   4.063
 1559SOL     OW 5575   0.313   2.450   0.598
 1559SOL    HW1 5576   0.255   2.433   0.519
 1559SOL    HW2 5577   0.276   2.526   0.652
 1560SOL     OW 5578   2.856   0.972   6.559
 1560SOL    HW1 5579   2.758   0.994   6.561
 1560SOL    HW2 5580   2.902   1.032   6.494
 1561SOL     OW 5581   6.003   6.419   2.893
 1561SOL    HW1 5582   5.970   6.479   2.821
 1561SOL    HW2 5583   6.102   6.425   2.899
 1562SOL     OW 5584   3.826   6.706   0.723
 1562SOL    HW1 5585   3.896   6.666   0.782
 1562SOL    HW2 5586   3.782   6.782   0.772
 1563SOL     OW 5587   2.353   1.613   6.121
 1563SOL    HW1 5588   2.436   1.668   6.109
 1563SOL    HW2 5589   2.281   1.649   6.060
 1564SOL     OW 5590   1.650   2.487   2.327
 1564SOL    HW1 5591   1.578   2.457   2.390
 1564SOL    HW2 5592   1.641   2.585   2.312
 1565SOL     OW 5593   3.901   5.396   4.124
 1565SOL    HW1 5594   3.887   5.495   4.132
 1565SOL    HW2 5595   3.930   5.374   4.032
 1566SOL     OW 5596   6.217   5.123   4.851
 1566SOL    HW1 5597   6.249   5.031   4.828
 1566SOL    HW2 5598   6.231   5.183   4.773
 1567SOL     OW 5599   6.497   6.029   0.136
 1567SOL    HW1 5600   6.511   6.104   0.071
 1567SOL    HW2 5601   6.427   5.967   0.101
 1568SOL     OW 5602   1.796   6.478   2.040
 1568SOL    HW1 5603   1.759   6.446   1.953
 1568SOL    HW2 5604   1.722   6.512   2.098
 1569SOL     OW 5605   3.423   6.684   3.418
 1569SOL    HW1 5606   3.455   6.642   3.333
 1569SOL    HW2 5607   3.360   6.622   3.465
 1570SOL     OW 5608   2.469   6.384   0.385
 1570SOL    HW1 5609   2.377   6.405   0.417
 1570SOL    HW2 5610   2.533   6.386   0.462
 1571SOL     OW 5611   6.215   1.881   3.251
 1571SOL    HW1 5612   6.226   1.818   3.328
 1571SOL    HW2 5613   6.125   1.867   3.210
 1572SOL     OW 5614   2.002   6.154   0.706
 1572SOL    HW1 5615   1.980   6.232   0.647
 1572SOL    HW2 5616   2.101   6.142   0.708
 1573SOL     OW 5617   6.449   4.254   1.427
 1573SOL    HW1 5618   6.356   4.240   1.462
 1573SOL    HW2 5619   6.482   4.169   1.386
 1574SOL     OW 5620   5.997   2.201   4.144
 1574SOL    HW1 5621   6.026   2.209   4.048
 1574SOL    HW2 5622   5.974   2.105   4.163
 1575SOL     OW 5623   2.273   1.745   1.538
 1575SOL    HW1 5624   2.177   1.772   1.537
 1575SOL    HW2 5625   2.281   1.652   1.575
 1576SOL     OW 5626   1.059   0.018   2.967
 1576SOL    HW1 5627   1.078   0.054   2.876
 1576SOL    HW2 5628   1.104   0.075   3.036
 1577SOL     OW 5629   2.711   0.570   5.704
 1577SOL    HW1 5630   2.621   0.537   5.677
 1577SOL    HW2 5631   2.754   0.504   5.767
 1578SOL     OW 5632   4.841   1.841   5.583
 1578SOL    HW1 5633   4.843   1.937   5.556
 1578SOL    HW2 5634   4.917   1.792   5.539
 1579SOL     OW 5635   0.062   1.372   2.410
 1579SOL    HW1 5636   0.082   1.404   2.317
 1579SOL    HW2 5637   0.148   1.349   2.456
 1580SOL     OW 5638   3.621   4.094   3.779
 1580SOL    HW1 5639   3.563   4.175   3.793
 1580SOL    HW2 5640   3.570   4.024   3.729
 1581SOL     OW 5641   6.301   5.505   5.258
 1581SOL    HW1 5642   6.231   5.439   5.228
 1581SOL    HW2 5643   6.373   5.510   5.188
 1582SOL     OW 5644   1.994   6.820   4.571
 1582SOL    HW1 5645   2.052   6.739   4.575
 1582SOL    HW2 5646   2.008   6.875   4.653
 1583SOL     OW 5647   0.412   5.899   3.456
 1583SOL    HW1 5648   0.404   5.829   3.527
 1583SOL    HW2 5649   0.491   5.877   3.398
 1584SOL     OW 5650   0.689   5.587   5.285
 1584SOL    HW1 5651   0.711   5.495   5.318
 1584SOL    HW2 5652   0.771   5.643   5.287
 1585SOL     OW 5653   4.570   2.231   3.195
 1585SOL    HW1 5654   4.487   2.183   3.224
 1585SOL    HW2 5655   4.548   2.326   3.171
 1586SOL     OW 5656   3.018   5.229   2.042
 1586SOL    HW1 5657   3.064   5.228   1.953
 1586SOL    HW2 5658   3.074   5.180   2.109
 1587SOL     OW 5659   2.429   5.836   5.508
 1587SOL    HW1 5660   2.427   5.771   5.433
 1587SOL    HW2 5661   2.505   5.813   5.569
 1588SOL     OW 5662   4.465   1.082   2.158
 1588SOL    HW1 5663   4.413   1.095   2.242
 1588SOL    HW2 5664   4.410   1.114   2.080
 1589SOL     OW 5665   6.895   3.300   2.580
 1589SOL    HW1 5666   6.873   3.233   2.509
 1589SOL    HW2 5667   6.927   3.252   2.662
 1590SOL     OW 5668   4.410   0.111   4.320
 1590SOL    HW1 5669   4.346   0.185   4.302
 1590SOL    HW2 5670   4.435   0.067   4.234
 1591SOL     OW 5671   6.794   5.540   1.317
 1591SOL    HW1 5672   6.873   5.546   1.378
 1591SOL    HW2 5673   6.771   5.632   1.284
 1592SOL     OW 5674   2.264   3.742   6.336
 1592SOL    HW1 5675   2.239   3.645   6.336
 1592SOL    HW2 5676   2.201   3.793   6.277
 1593SOL     OW 5677   1.296   6.855   4.906
 1593SOL    HW1 5678   1.300   6.881   4.809
 1593SOL    HW2 5679   1.204   6.872   4.941
 1594SOL     OW 5680   0.951   6.333   1.995
 1594SOL    HW1 5681   0.897   6.415   1.974
 1594SOL    HW2 5682   0.892   6.267   2.041
 1595SOL     OW 5683   1.118   5.285   0.695
 1595SOL    HW1 5684   1.068   5.259   0.777
 1595SOL    HW2 5685   1.178   5.362   0.715
 1596SOL     OW 5686   0.120   3.209   3.859
 1596SOL    HW1 5687   0.065   3.135   3.898
 1596SOL    HW2 5688   0.061   3.269   3.805
 1597SOL     OW 5689   1.041   6.005   0.682
 1597SOL    HW1 5690   1.131   6.046   0.698
 1597SOL    HW2 5691   1.023   5.938   0.754
 1598SOL     OW 5692   6.820   4.369   5.780
 1598SOL    HW1 5693   6.893   4.402   5.720
 1598SOL    HW2 5694   6.856   4.358   5.873
 1599SOL     OW 5695   4.902   5.358   4.762
 1599SOL    HW1 5696   4.960   5.337   4.684
 1599SOL    HW2 5697   4.818   5.401   4.731
 1600SOL     OW 5698   3.468   1.334   3.630
 1600SOL    HW1 5699   3.457   1.239   3.661
 1600SOL    HW2 5700   3.416   1.395   3.691
 1601SOL     OW 5701   6.702   6.084   4.282
 1601SOL    HW1 5702   6.621   6.082   4.224
 1601SOL    HW2 5703   6.674   6.103   4.377
 1602SOL     OW 5704   4.101   5.031   4.157
 1602SOL    HW1 5705   4.074   5.076   4.242
 1602SOL    HW2 5706   4.195   5.058   4.134
 1603SOL     OW 5707   1.615   6.569   3.003
 1603SOL    HW1 5708   1.526   6.594   2.965
 1603SOL    HW2 5709   1.606   6.550   3.100
 1604SOL     OW 5710   5.354   4.479   1.648
 1604SOL    HW1 5711   5.272   4.421   1.644
 1604SOL    HW2 5712   5.395   4.473   1.738
 1605SOL     OW 5713   6.570   5.297   1.939
 1605SOL    HW1 5714   6.499   5.291   1.869
 1605SOL    HW2 5715   6.537   5.253   2.023
 1606SOL     OW 5716   4.346   6.343   5.947
 1606SOL    HW1 5717   4.279   6.311   6.015
 1606SOL    HW2 5718   4.310   6.424   5.901
 1607SOL     OW 5719   3.831   0.095   0.705
 1607SOL    HW1 5720   3.845   0.117   0.609
 1607SOL    HW2 5721   3.821   0.179   0.758
 1608SOL     OW 5722   0.516   1.293   3.349
 1608SOL    HW1 5723   0.483   1.382   3.378
 1608SOL    HW2 5724   0.614   1.297   3.333
 1609SOL     OW 5725   4.214   0.125   0.347
 1609SOL    HW1 5726   4.310   0.115   0.373
 1609SOL    HW2 5727   4.203   0.104   0.250
 1610SOL     OW 5728   6.145   5.214   0.347
 1610SOL    HW1 5729   6.089   5.234   0.428
 1610SOL    HW2 5730   6.160   5.116   0.340
 1611SOL     OW 5731   2.356   3.716   0.420
 1611SOL    HW1 5732   2.262   3.685   0.434
 1611SOL    HW2 5733   2.395   3.668   0.341
 1612SOL     OW 5734   2.753   6.964   0.382
 1612SOL    HW1 5735   2.714   0.021   0.435
 1612SOL    HW2 5736   2.851   6.977   0.372
 1613SOL     OW 5737   1.489   5.692   1.973
 1613SOL    HW1 5738   1.587   5.682   1.959
 1613SOL    HW2 5739   1.451   5.751   1.902
 1614SOL     OW 5740   5.223   2.235   5.971
 1614SOL    HW1 5741   5.247   2.139   5.956
 1614SOL    HW2 5742   5.283   2.293   5.916
 1615SOL     OW 5743   6.297   5.688   0.714
 1615SOL    HW1 5744   6.357   5.633   0.772
 1615SOL    HW2 5745   6.287   5.779   0.753
 1616SOL     OW 5746   3.539   0.861   4.961
 1616SOL    HW1 5747   3.564   0.956   4.940
 1616SOL    HW2 5748   3.622   0.806   4.971
 1617SOL     OW 5749   5.604   6.660   2.948
 1617SOL    HW1 5750   5.684   6.713   2.917
 1617SOL    HW2 5751   5.583   6.590   2.879
 1618SOL     OW 5752   1.867   6.655   2.816
 1618SOL    HW1 5753   1.839   6.596   2.892
 1618SOL    HW2 5754   1.961   6.685   2.830
 1619SOL     OW 5755   0.622   4.319   1.262
 1619SOL    HW1 5756   0.597   4.228   1.228
 1619SOL    HW2 5757   0.609   4.387   1.191
 1620SOL     OW 5758   2.918   4.549   1.579
 1620SOL    HW1 5759   2.975   4.493   1.521
 1620SOL    HW2 5760   2.931   4.522   1.675
 1621SOL     OW 5761   6.555   0.938   0.344
 1621SOL    HW1 5762   6.644   0.923   0.386
 1621SOL    HW2 5763   6.500   0.997   0.403
 1622SOL     OW 5764   0.553   3.288   5.316
 1622SOL    HW1 5765   0.473   3.229   5.324
 1622SOL    HW2 5766   0.537   3.372   5.368
 1623SOL     OW 5767   1.323   2.902   5.266
 1623SOL    HW1 5768   1.403   2.925   5.210
 1623SOL    HW2 5769   1.259   2.978   5.265
 1624SOL     OW 5770   3.668   1.432   4.668
 1624SOL    HW1 5771   3.738   1.404   4.733
 1624SOL    HW2 5772   3.595   1.481   4.717
 1625SOL     OW 5773   1.308   4.711   0.322
 1625SOL    HW1 5774   1.397   4.673   0.346
 1625SOL    HW2 5775   1.306   4.732   0.224
 1626SOL     OW 5776   3.465   1.040   0.659
 1626SOL    HW1 5777   3.380   1.089   0.640
 1626SOL    HW2 5778   3.508   1.014   0.573
 1627SOL     OW 5779   6.036   3.319   3.996
 1627SOL    HW1 5780   6.018   3.344   4.091
 1627SOL    HW2 5781   6.077   3.396   3.948
 1628SOL     OW 5782   4.376   5.043   0.512
 1628SOL    HW1 5783   4.426   5.084   0.588
 1628SOL    HW2 5784   4.350   5.114   0.446
 1629SOL     OW 5785   2.756   1.108   3.795
 1629SOL    HW1 5786   2.785   1.186   3.740
 1629SOL    HW2 5787   2.718   1.037   3.735
 1630SOL     OW 5788   0.430   4.807   6.158
 1630SOL    HW1 5789   0.449   4.897   6.196
 1630SOL    HW2 5790   0.404   4.744   6.231
 1631SOL     OW 5791   1.048   2.697   1.093
 1631SOL    HW1 5792   1.111   2.695   1.015
 1631SOL    HW2 5793   1.063   2.781   1.145
 1632SOL     OW 5794   5.748   2.946   1.654
 1632SOL    HW1 5795   5.678   3.014   1.675
 1632SOL    HW2 5796   5.739   2.868   1.715
 1633SOL     OW 5797   4.837   4.084   4.430
 1633SOL    HW1 5798   4.801   4.173   4.459
 1633SOL    HW2 5799   4.784   4.012   4.473
 1634SOL     OW 5800   4.828   5.844   4.635
 1634SOL    HW1 5801   4.764   5.910   4.595
 1634SOL    HW2 5802   4.821   5.757   4.587
 1635SOL     OW 5803   0.562   5.060   6.800
 1635SOL    HW1 5804   0.627   5.124   6.758
 1635SOL    HW2 5805   0.538   4.989   6.735
 1636SOL     OW 5806   2.902   4.204   1.252
 1636SOL    HW1 5807   2.903   4.104   1.264
 1636SOL    HW2 5808   2.957   4.228   1.173
 1637SOL     OW 5809   6.578   0.461   3.137
 1637SOL    HW1 5810   6.528   0.500   3.060
 1637SOL    HW2 5811   6.579   0.526   3.213
 1638SOL     OW 5812   6.984   3.917   3.178
 1638SOL    HW1 5813   0.060   3.944   3.191
 1638SOL    HW2 5814   6.940   3.979   3.112
 1639SOL     OW 5815   5.592   5.557   1.486
 1639SOL    HW1 5816   5.587   5.524   1.580
 1639SOL    HW2 5817   5.592   5.480   1.423
 1640SOL     OW 5818   6.130   0.453   6.818
 1640SOL    HW1 5819   6.079   0.523   6.868
 1640SOL    HW2 5820   6.109   0.363   6.856
 1641SOL     OW 5821   4.511   1.806   2.291
 1641SOL    HW1 5822   4.504   1.816   2.390
 1641SOL    HW2 5823   4.607   1.793   2.265
 1642SOL     OW 5824   0.353   3.549   0.191
 1642SOL    HW1 5825   0.417   3.614   0.152
 1642SOL    HW2 5826   0.286   3.597   0.248
 1643SOL     OW 5827   2.528   4.997   4.361
 1643SOL    HW1 5828   2.609   4.940   4.347
 1643SOL    HW2 5829   2.528   5.072   4.295
 1644SOL     OW 5830   5.809   3.788   6.924
 1644SOL    HW1 5831   5.861   3.703   6.916
 1644SOL    HW2 5832   5.815   3.839   6.838
 1645SOL     OW 5833   3.039   5.325   6.348
 1645SOL    HW1 5834   3.110   5.257   6.369
 1645SOL    HW2 5835   2.968   5.283   6.291
 1646SOL     OW 5836   2.453   0.041   0.682
 1646SOL    HW1 5837   2.371   7.003   0.678
 1646SOL    HW2 5838   2.445   0.108   0.755
 1647SOL     OW 5839   6.004   3.319   4.837
 1647SOL    HW1 5840   5.983   3.413   4.861
 1647SOL    HW2 5841   5.920   3.264   4.840
 1648SOL     OW 5842   5.306   5.710   0.404
 1648SOL    HW1 5843   5.368   5.639   0.370
 1648SOL    HW2 5844   5.232   5.723   0.338
 1649SOL     OW 5845   3.737   1.295   3.906
 1649SOL    HW1 5846   3.641   1.309   3.931
 1649SOL    HW2 5847   3.749   1.203   3.869
 1650SOL     OW 5848   0.832   5.826   4.747
 1650SOL    HW1 5849   0.826   5.815   4.846
 1650SOL    HW2 5850   0.904   5.892   4.725
 1651SOL     OW 5851   6.772   2.077   1.771
 1651SOL    HW1 5852   6.830   2.009   1.816
 1651SOL    HW2 5853   6.745   2.044   1.681
 1652SOL     OW 5854   1.094   3.490   2.957
 1652SOL    HW1 5855   1.194   3.492   2.961
 1652SOL    HW2 5856   1.062   3.560   2.893
 1653SOL     OW 5857   1.302   6.820   6.836
 1653SOL    HW1 5858   1.304   6.749   6.907
 1653SOL    HW2 5859   1.291   6.777   6.746
 1654SOL     OW 5860   0.410   3.987   1.732
 1654SOL    HW1 5861   0.374   4.044   1.658
 1654SOL    HW2 5862   0.393   3.891   1.711
 1655SOL     OW 5863   0.120   2.045   4.822
 1655SOL    HW1 5864   0.097   2.089   4.735
 1655SOL    HW2 5865   0.090   2.103   4.898
 1656SOL     OW 5866   2.516   4.496   2.886
 1656SOL    HW1 5867   2.548   4.497   2.981
 1656SOL    HW2 5868   2.558   4.571   2.836
 1657SOL     OW 5869   6.278   1.057   4.723
 1657SOL    HW1 5870   6.347   0.989   4.699
 1657SOL    HW2 5871   6.321   1.147   4.735
 1658SOL     OW 5872   6.273   0.223   1.438
 1658SOL    HW1 5873   6.216   0.305   1.446
 1658SOL    HW2 5874   6.282   0.181   1.528
 1659SOL     OW 5875   3.588   0.231   6.739
 1659SOL    HW1 5876   3.551   0.297   6.805
 1659SOL    HW2 5877   3.566   0.260   6.646
 1660SOL     OW 5878   1.888   6.054   2.823
 1660SOL    HW1 5879   1.925   5.978   2.769
 1660SOL    HW2 5880   1.963   6.112   2.854
 1661SOL     OW 5881   2.317   6.298   1.206
 1661SOL    HW1 5882   2.416   6.303   1.217
 1661SOL    HW2 5883   2.276   6.387   1.228
 1662SOL     OW 5884   0.672   1.239   4.218
 1662SOL    HW1 5885   0.737   1.223   4.293
 1662SOL    HW2 5886   0.600   1.301   4.250
 1663SOL     OW 5887   4.223   6.294   3.303
 1663SOL    HW1 5888   4.261   6.347   3.379
 1663SOL    HW2 5889   4.259   6.201   3.307
 1664SOL     OW 5890   2.115   6.396   4.887
 1664SOL    HW1 5891   2.203   6.436   4.914
 1664SOL    HW2 5892   2.041   6.453   4.922
 1665SOL     OW 5893   6.779   2.588   2.445
 1665SOL    HW1 5894   6.683   2.596   2.416
 1665SOL    HW2 5895   6.786   2.519   2.517
 1666SOL     OW 5896   4.977   1.468   6.517
 1666SOL    HW1 5897   4.897   1.527   6.504
 1666SOL    HW2 5898   4.966   1.416   6.601
 1667SOL     OW 5899   0.361   6.839   1.362
 1667SOL    HW1 5900   0.407   6.918   1.405
 1667SOL    HW2 5901   0.401   6.755   1.397
 1668SOL     OW 5902   4.956   6.083   3.695
 1668SOL    HW1 5903   4.909   6.066   3.608
 1668SOL    HW2 5904   5.054   6.094   3.679
 1669SOL     OW 5905   6.326   4.620   6.208
 1669SOL    HW1 5906   6.385   4.574   6.274
 1669SOL    HW2 5907   6.271   4.689   6.254
 1670SOL     OW 5908   0.371   3.905   5.444
 1670SOL    HW1 5909   0.447   3.932   5.385
 1670SOL    HW2 5910   0.404   3.891   5.537
 1671SOL     OW 5911   5.435   2.079   2.940
 1671SOL    HW1 5912   5.414   2.024   3.021
 1671SOL    HW2 5913   5.359   2.072   2.875
 1672SOL     OW 5914   1.031   2.947   1.221
 1672SOL    HW1 5915   1.078   3.017   1.275
 1672SOL    HW2 5916   0.972   2.894   1.281
 1673SOL     OW 5917   0.248   1.346   4.997
 1673SOL    HW1 5918   0.242   1.443   4.971
 1673SOL    HW2 5919   0.321   1.334   5.064
 1674SOL     OW 5920   1.210   2.958   2.688
 1674SOL    HW1 5921   1.163   2.885   2.738
 1674SOL    HW2 5922   1.154   2.987   2.611
 1675SOL     OW 5923   5.588   0.248   0.228
 1675SOL    HW1 5924   5.570   0.323   0.164
 1675SOL    HW2 5925   5.555   0.273   0.319
 1676SOL     OW 5926   2.314   2.502   1.486
 1676SOL    HW1 5927   2.276   2.497   1.578
 1676SOL    HW2 5928   2.268   2.574   1.434
 1677SOL     OW 5929   3.025   3.241   3.989
 1677SOL    HW1 5930   3.121   3.217   4.003
 1677SOL    HW2 5931   2.985   3.273   4.076
 1678SOL     OW 5932   6.379   4.332   3.704
 1678SOL    HW1 5933   6.349   4.237   3.693
 1678SOL    HW2 5934   6.300   4.389   3.727
 1679SOL     OW 5935   2.569   2.526   4.662
 1679SOL    HW1 5936   2.549   2.436   4.623
 1679SOL    HW2 5937   2.510   2.595   4.620
 1680SOL     OW 5938   0.589   2.958   5.294
 1680SOL    HW1 5939   0.605   3.025   5.222
 1680SOL    HW2 5940   0.508   2.903   5.273
 1681SOL     OW 5941   0.313   5.177   0.299
 1681SOL    HW1 5942   0.242   5.247   0.292
 1681SOL    HW2 5943   0.350   5.157   0.208
 1682SOL     OW 5944   1.760   0.769   5.510
 1682SOL    HW1 5945   1.778   0.759   5.607
 1682SOL    HW2 5946   1.709   0.689   5.477
 1683SOL     OW 5947   5.250   5.166   2.362
 1683SOL    HW1 5948   5.310   5.096   2.324
 1683SOL    HW2 5949   5.237   5.239   2.295
 1684SOL     OW 5950   1.122   6.458   2.172
 1684SOL    HW1 5951   1.216   6.461   2.141
 1684SOL    HW2 5952   1.066   6.408   2.106
 1685SOL     OW 5953   2.034   0.818   5.259
 1685SOL    HW1 5954   1.960   0.822   5.192
 1685SOL    HW2 5955   2.112   0.771   5.219
 1686SOL     OW 5956   2.145   5.760   4.037
 1686SOL    HW1 5957   2.219   5.822   4.062
 1686SOL    HW2 5958   2.172   5.665   4.056
 1687SOL     OW 5959   2.130   3.060   1.997
 1687SOL    HW1 5960   2.196   3.047   1.922
 1687SOL    HW2 5961   2.108   3.157   2.005
 1688SOL     OW 5962   2.411   1.508   3.787
 1688SOL    HW1 5963   2.418   1.551   3.877
 1688SOL    HW2 5964   2.490   1.532   3.732
 1689SOL     OW 5965   6.214   0.759   2.987
 1689SOL    HW1 5966   6.222   0.850   2.947
 1689SOL    HW2 5967   6.198   0.766   3.085
 1690SOL     OW 5968   1.597   2.538   4.290
 1690SOL    HW1 5969   1.667   2.487   4.340
 1690SOL    HW2 5970   1.525   2.475   4.261
 1691SOL     OW 5971   5.205   3.022   3.256
 1691SOL    HW1 5972   5.180   3.078   3.335
 1691SOL    HW2 5973   5.304   3.024   3.242
 1692SOL     OW 5974   4.892   6.410   1.111
 1692SOL    HW1 5975   4.979   6.400   1.062
 1692SOL    HW2 5976   4.909   6.449   1.201
 1693SOL     OW 5977   5.903   1.842   2.454
 1693SOL    HW1 5978   5.850   1.764   2.486
 1693SOL    HW2 5979   5.982   1.811   2.401
 1694SOL     OW 5980   5.307   1.239   2.965
 1694SOL    HW1 5981   5.322   1.329   3.006
 1694SOL    HW2 5982   5.392   1.185   2.970
 1695SOL     OW 5983   4.067   0.764   6.088
 1695SOL    HW1 5984   4.138   0.834   6.097
 1695SOL    HW2 5985   4.067   0.707   6.170
 1696SOL     OW 5986   4.207   6.302   0.913
 1696SOL    HW1 5987   4.300   6.265   0.912
 1696SOL    HW2 5988   4.191   6.350   0.999
 1697SOL     OW 5989   6.415   1.119   0.497
 1697SOL    HW1 5990   6.393   1.080   0.586
 1697SOL    HW2 5991   6.485   1.189   0.507
 1698SOL     OW 5992   3.009   6.974   0.297
 1698SOL    HW1 5993   3.091   0.002   0.330
 1698SOL    HW2 5994   3.035   6.884   0.262
 1699SOL     OW 5995   2.266   1.178   6.831
 1699SOL    HW1 5996   2.313   1.095   6.862
 1699SOL    HW2 5997   2.293   1.255   6.889
 1700SOL     OW 5998   6.366   4.053   3.690
 1700SOL    HW1 5999   6.436   3.983   3.705
 1700SOL    HW2 6000   6.311   4.029   3.610
 1701SOL     OW 6001   5.485   4.636   5.595
 1701SOL    HW1 6002   5.428   4.652   5.514
 1701SOL    HW2 6003   5.568   4.588   5.567
 1702SOL     OW 6004   6.616   1.272   0.801
 1702SOL    HW1 6005   6.630   1.371   0.810
 1702SOL    HW2 6006   6.608   1.232   0.893
 1703SOL     OW 6007   3.498   1.902   0.500
 1703SOL    HW1 6008   3.537   1.843   0.571
 1703SOL    HW2 6009   3.399   1.906   0.510
 1704SOL     OW 6010   0.817   1.800   1.109
 1704SOL    HW1 6011   0.856   1.858   1.181
 1704SOL    HW2 6012   0.827   1.846   1.020
 1705SOL     OW 6013   3.261   1.950   2.620
 1705SOL    HW1 6014   3.267   1.851   2.609
 1705SOL    HW2 6015   3.284   1.994   2.533
 1706SOL     OW 6016   5.005   1.195   1.919
 1706SOL    HW1 6017   4.907   1.199   1.937
 1706SOL    HW2 6018   5.020   1.185   1.820
 1707SOL     OW 6019   4.626   2.384   1.631
 1707SOL    HW1 6020   4.691   2.340   1.570
 1707SOL    HW2 6021   4.669   2.462   1.677
 1708SOL     OW 6022   5.017   5.428   1.792
 1708SOL    HW1 6023   5.012   5.449   1.890
 1708SOL    HW2 6024   5.073   5.497   1.746
 1709SOL     OW 6025   3.145   6.194   2.449
 1709SOL    HW1 6026   3.057   6.207   2.402
 1709SOL    HW2 6027   3.193   6.281   2.455
 1710SOL     OW 6028   4.862   4.942   3.554
 1710SOL    HW1 6029   4.869   4.986   3.643
 1710SOL    HW2 6030   4.890   4.846   3.561
 1711SOL     OW 6031   1.506   4.825   4.748
 1711SOL    HW1 6032   1.471   4.843   4.656
 1711SOL    HW2 6033   1.559   4.904   4.779
 1712SOL     OW 6034   6.806   2.420   4.561
 1712SOL    HW1 6035   6.839   2.342   4.615
 1712SOL    HW2 6036   6.835   2.505   4.604
 1713SOL     OW 6037   4.714   2.570   1.909
 1713SOL    HW1 6038   4.636   2.506   1.910
 1713SOL    HW2 6039   4.707   2.632   1.987
 1714SOL     OW 6040   3.350   1.225   6.142
 1714SOL    HW1 6041   3.372   1.161   6.216
 1714SOL    HW2 6042   3.302   1.305   6.180
 1715SOL     OW 6043   1.775   5.242   2.802
 1715SOL    HW1 6044   1.874   5.251   2.813
 1715SOL    HW2 6045   1.736   5.200   2.884
 1716SOL     OW 6046   4.596   6.980   3.090
 1716SOL    HW1 6047   4.601   0.059   3.106
 1716SOL    HW2 6048   4.504   6.947   3.113
 1717SOL     OW 6049   2.883   6.066   5.237
 1717SOL    HW1 6050   2.829   6.084   5.319
 1717SOL    HW2 6051   2.887   6.148   5.181
 1718SOL     OW 6052   3.268   1.253   1.836
 1718SOL    HW1 6053   3.285   1.154   1.836
 1718SOL    HW2 6054   3.298   1.291   1.748
 1719SOL     OW 6055   2.104   3.307   1.282
 1719SOL    HW1 6056   2.057   3.347   1.204
 1719SOL    HW2 6057   2.101   3.207   1.275
 1720SOL     OW 6058   0.090   3.290   0.559
 1720SOL    HW1 6059   0.111   3.192   0.563
 1720SOL    HW2 6060   0.008   3.308   0.613
 1721SOL     OW 6061   1.889   6.838   1.579
 1721SOL    HW1 6062   1.912   6.820   1.674
 1721SOL    HW2 6063   1.972   6.838   1.523
 1722SOL     OW 6064   3.045   1.459   4.096
 1722SOL    HW1 6065   3.050   1.366   4.061
 1722SOL    HW2 6066   3.047   1.457   4.196
 1723SOL     OW 6067   6.099   2.647   0.589
 1723SOL    HW1 6068   6.043   2.583   0.642
 1723SOL    HW2 6069   6.181   2.669   0.641
 1724SOL     OW 6070   0.166   3.011   2.704
 1724SOL    HW1 6071   0.234   3.072   2.662
 1724SOL    HW2 6072   0.100   3.066   2.755
 1725SOL     OW 6073   2.142   4.587   5.876
 1725SOL    HW1 6074   2.103   4.508   5.921
 1725SOL    HW2 6075   2.164   4.658   5.943
 1726SOL     OW 6076   6.067   4.793   5.361
 1726SOL    HW1 6077   6.090   4.696   5.354
 1726SOL    HW2 6078   6.144   4.848   5.327
 1727SOL     OW 6079   3.414   2.957   3.714
 1727SOL    HW1 6080   3.474   2.923   3.642
 1727SOL    HW2 6081   3.318   2.944   3.687
 1728SOL     OW 6082   5.593   5.783   5.204
 1728SOL    HW1 6083   5.673   5.771   5.263
 1728SOL    HW2 6084   5.550   5.694   5.188
 1729SOL     OW 6085   2.226   4.183   3.419
 1729SOL    HW1 6086   2.262   4.151   3.507
 1729SOL    HW2 6087   2.126   4.180   3.421
 1730SOL     OW 6088   1.713   6.915   4.850
 1730SOL    HW1 6089   1.716   6.825   4.893
 1730SOL    HW2 6090   1.675   6.907   4.758
 1731SOL     OW 6091   0.726   4.323   4.314
 1731SOL    HW1 6092   0.744   4.306   4.217
 1731SOL    HW2 6093   0.808   4.360   4.357
 1732SOL     OW 6094   2.150   4.758   5.604
 1732SOL    HW1 6095   2.216   4.795   5.670
 1732SOL    HW2 6096   2.146   4.818   5.524
 1733SOL     OW 6097   1.581   4.571   1.804
 1733SOL    HW1 6098   1.493   4.556   1.760
 1733SOL    HW2 6099   1.568   4.592   1.901
 1734SOL     OW 6100   4.669   2.872   1.112
 1734SOL    HW1 6101   4.636   2.904   1.023
 1734SOL    HW2 6102   4.757   2.915   1.133
 1735SOL     OW 6103   4.596   5.079   6.810
 1735SOL    HW1 6104   4.548   5.071   6.722
 1735SOL    HW2 6105   4.665   5.151   6.804
 1736SOL     OW 6106   3.750   3.416   1.095
 1736SOL    HW1 6107   3.670   3.406   1.035
 1736SOL    HW2 6108   3.719   3.445   1.186
 1737SOL     OW 6109   4.269   1.131   4.575
 1737SOL    HW1 6110   4.209   1.180   4.511
 1737SOL    HW2 6111   4.223   1.046   4.604
 1738SOL     OW 6112   1.980   2.649   4.165
 1738SOL    HW1 6113   1.889   2.688   4.179
 1738SOL    HW2 6114   2.014   2.612   4.252
 1739SOL     OW 6115   6.948   1.625   5.128
 1739SOL    HW1 6116   6.886   1.667   5.195
 1739SOL    HW2 6117   0.019   1.614   5.168
 1740SOL     OW 6118   6.960   2.164   5.016
 1740SOL    HW1 6119   7.002   2.251   5.042
 1740SOL    HW2 6120   6.874   2.182   4.967
 1741SOL     OW 6121   2.337   0.552   3.950
 1741SOL    HW1 6122   2.365   0.463   3.986
 1741SOL    HW2 6123   2.390   0.624   3.994
 1742SOL     OW 6124   5.506   0.803   6.067
 1742SOL    HW1 6125   5.410   0.799   6.094
 1742SOL    HW2 6126   5.524   0.891   6.023
 1743SOL     OW 6127   0.759   2.283   2.591
 1743SOL    HW1 6128   0.730   2.372   2.556
 1743SOL    HW2 6129   0.699   2.212   2.554
 1744SOL     OW 6130   5.941   2.820   3.215
 1744SOL    HW1 6131   5.933   2.846   3.118
 1744SOL    HW2 6132   5.944   2.720   3.222
 1745SOL     OW 6133   5.383   5.720   2.396
 1745SOL    HW1 6134   5.335   5.786   2.454
 1745SOL    HW2 6135   5.364   5.740   2.300
 1746SOL     OW 6136   1.555   4.060   4.382
 1746SOL    HW1 6137   1.599   4.150   4.389
 1746SOL    HW2 6138   1.601   4.005   4.313
 1747SOL     OW 6139   4.875   1.684   2.977
 1747SOL    HW1 6140   4.776   1.691   2.970
 1747SOL    HW2 6141   4.899   1.602   3.029
 1748SOL     OW 6142   0.197   1.659   5.222
 1748SOL    HW1 6143   0.163   1.715   5.297
 1748SOL    HW2 6144   0.178   1.705   5.135
 1749SOL     OW 6145   2.070   6.789   5.136
 1749SOL    HW1 6146   2.160   6.806   5.178
 1749SOL    HW2 6147   1.999   6.833   5.192
 1750SOL     OW 6148   5.201   6.084   3.587
 1750SOL    HW1 6149   5.176   6.066   3.492
 1750SOL    HW2 6150   5.257   6.167   3.591
 1751SOL     OW 6151   4.140   0.516   3.641
 1751SOL    HW1 6152   4.144   0.420   3.671
 1751SOL    HW2 6153   4.210   0.569   3.689
 1752SOL     OW 6154   6.015   1.385   2.411
 1752SOL    HW1 6155   6.072   1.305   2.391
 1752SOL    HW2 6156   5.986   1.428   2.325
 1753SOL     OW 6157   6.783   0.690   1.559
 1753SOL    HW1 6158   6.771   0.591   1.558
 1753SOL    HW2 6159   6.836   0.718   1.479
 1754SOL     OW 6160   1.682   4.927   0.035
 1754SOL    HW1 6161   1.656   5.023   0.032
 1754SOL    HW2 6162   1.641   4.883   0.114
 1755SOL     OW 6163   0.267   6.270   1.235
 1755SOL    HW1 6164   0.363   6.257   1.261
 1755SOL    HW2 6165   0.260   6.284   1.136
 1756SOL     OW 6166   4.115   5.525   5.633
 1756SOL    HW1 6167   4.030   5.477   5.609
 1756SOL    HW2 6168   4.093   5.621   5.654
 1757SOL     OW 6169   2.434   5.366   4.589
 1757SOL    HW1 6170   2.384   5.294   4.542
 1757SOL    HW2 6171   2.524   5.331   4.616
 1758SOL     OW 6172   2.147   1.045   4.370
 1758SOL    HW1 6173   2.216   0.980   4.339
 1758SOL    HW2 6174   2.161   1.134   4.326
 1759SOL     OW 6175   2.224   6.119   5.450
 1759SOL    HW1 6176   2.306   6.080   5.408
 1759SOL    HW2 6177   2.186   6.191   5.392
 1760SOL     OW 6178   5.819   0.775   3.641
 1760SOL    HW1 6179   5.889   0.734   3.583
 1760SOL    HW2 6180   5.770   0.846   3.590
 1761SOL     OW 6181   6.880   0.456   1.826
 1761SOL    HW1 6182   6.876   0.398   1.744
 1761SOL    HW2 6183   6.964   0.511   1.823
 1762SOL     OW 6184   0.707   1.152   3.754
 1762SOL    HW1 6185   0.790   1.178   3.803
 1762SOL    HW2 6186   0.659   1.081   3.805
 1763SOL     OW 6187   0.540   4.322   4.497
 1763SOL    HW1 6188   0.600   4.304   4.419
 1763SOL    HW2 6189   0.517   4.420   4.499
 1764SOL     OW 6190   2.050   3.356   2.344
 1764SOL    HW1 6191   2.108   3.379   2.422
 1764SOL    HW2 6192   1.970   3.416   2.343
 1765SOL     OW 6193   4.022   0.719   1.726
 1765SOL    HW1 6194   3.994   0.766   1.809
 1765SOL    HW2 6195   3.959   0.740   1.651
 1766SOL     OW 6196   5.478   4.445   3.728
 1766SOL    HW1 6197   5.500   4.407   3.818
 1766SOL    HW2 6198   5.559   4.490   3.690
 1767SOL     OW 6199   0.997   4.124   2.591
 1767SOL    HW1 6200   1.062   4.170   2.530
 1767SOL    HW2 6201   0.990   4.175   2.677
 1768SOL     OW 6202   3.469   0.760   6.925
 1768SOL    HW1 6203   3.556   0.757   6.876
 1768SOL    HW2 6204   3.405   0.819   6.875
 1769SOL     OW 6205   4.807   1.637   0.018
 1769SOL    HW1 6206   4.807   1.735   7.017
 1769SOL    HW2 6207   4.713   1.603   0.021
 1770SOL     OW 6208   6.688   4.311   4.558
 1770SOL    HW1 6209   6.699   4.243   4.630
 1770SOL    HW2 6210   6.593   4.343   4.556
 1771SOL     OW 6211   1.793   5.368   0.865
 1771SOL    HW1 6212   1.832   5.401   0.779
 1771SOL    HW2 6213   1.800   5.441   0.934
 1772SOL     OW 6214   3.929   6.056   3.511
 1772SOL    HW1 6215   3.921   6.152   3.486
 1772SOL    HW2 6216   3.970   6.005   3.436
 1773SOL     OW 6217   3.086   3.045   6.117
 1773SOL    HW1 6218   3.181   3.030   6.145
 1773SOL    HW2 6219   3.083   3.123   6.054
 1774SOL     OW 6220   5.035   5.822   1.473
 1774SOL    HW1 6221   4.960   5.853   1.532
 1774SOL    HW2 6222   4.999   5.795   1.384
 1775SOL     OW 6223   2.210   4.989   5.439
 1775SOL    HW1 6224   2.152   5.070   5.435
 1775SOL    HW2 6225   2.247   4.970   5.348
 1776SOL     OW 6226   4.845   0.939   6.421
 1776SOL    HW1 6227   4.937   0.903   6.435
 1776SOL    HW2 6228   4.780   0.863   6.412
 1777SOL     OW 6229   3.293   6.474   6.398
 1777SOL    HW1 6230   3.196   6.460   6.377
 1777SOL    HW2 6231   3.319   6.415   6.474
 1778SOL     OW 6232   5.026   2.151   4.339
 1778SOL    HW1 6233   4.929   2.124   4.335
 1778SOL    HW2 6234   5.083   2.070   4.332
 1779SOL     OW 6235   4.532   0.938   5.177
 1779SOL    HW1 6236   4.591   0.905   5.104
 1779SOL    HW2 6237   4.445   0.889   5.175
 1780SOL     OW 6238   2.015   3.526   5.863
 1780SOL    HW1 6239   2.030   3.430   5.842
 1780SOL    HW2 6240   2.096   3.579   5.837
 1781SOL     OW 6241   5.955   5.633   4.064
 1781SOL    HW1 6242   5.910   5.678   3.987
 1781SOL    HW2 6243   5.897   5.560   4.099
 1782SOL     OW 6244   3.385   1.103   2.836
 1782SOL    HW1 6245   3.344   1.088   2.926
 1782SOL    HW2 6246   3.324   1.159   2.780
 1783SOL     OW 6247   2.549   3.074   6.134
 1783SOL    HW1 6248   2.501   3.147   6.086
 1783SOL    HW2 6249   2.516   3.068   6.228
 1784SOL     OW 6250   2.256   1.192   1.641
 1784SOL    HW1 6251   2.308   1.133   1.703
 1784SOL    HW2 6252   2.226   1.274   1.691
 1785SOL     OW 6253   5.947   6.240   3.608
 1785SOL    HW1 6254   5.869   6.229   3.546
 1785SOL    HW2 6255   6.025   6.186   3.575
 1786SOL     OW 6256   2.000   4.010   0.292
 1786SOL    HW1 6257   1.976   4.099   0.330
 1786SOL    HW2 6258   2.094   4.013   0.258
 1787SOL     OW 6259   2.679   1.698   5.588
 1787SOL    HW1 6260   2.644   1.689   5.681
 1787SOL    HW2 6261   2.655   1.616   5.535
 1788SOL     OW 6262   3.836   4.141   0.160
 1788SOL    HW1 6263   3.740   4.170   0.154
 1788SOL    HW2 6264   3.881   4.192   0.232
 1789SOL     OW 6265   5.756   2.722   2.216
 1789SOL    HW1 6266   5.742   2.795   2.148
 1789SOL    HW2 6267   5.670   2.674   2.231
 1790SOL     OW 6268   2.817   0.768   4.189
 1790SOL    HW1 6269   2.791   0.726   4.276
 1790SOL    HW2 6270   2.832   0.866   4.203
 1791SOL     OW 6271   6.530   1.593   3.943
 1791SOL    HW1 6272   6.451   1.642   3.981
 1791SOL    HW2 6273   6.601   1.658   3.919
 1792SOL     OW 6274   0.194   1.264   4.280
 1792SOL    HW1 6275   0.197   1.248   4.379
 1792SOL    HW2 6276   0.099   1.271   4.250
 1793SOL     OW 6277   6.707   1.178   4.389
 1793SOL    HW1 6278   6.796   1.196   4.348
 1793SOL    HW2 6279   6.689   1.079   4.387
 1794SOL     OW 6280   5.027   6.368   5.591
 1794SOL    HW1 6281   4.998   6.355   5.686
 1794SOL    HW2 6282   5.124   6.347   5.583
 1795SOL     OW 6283   6.628   5.547   2.089
 1795SOL    HW1 6284   6.598   5.507   2.003
 1795SOL    HW2 6285   6.567   5.621   2.115
 1796SOL     OW 6286   2.247   1.124   4.611
 1796SOL    HW1 6287   2.301   1.040   4.619
 1796SOL    HW2 6288   2.198   1.124   4.524
 1797SOL     OW 6289   1.970   6.732   5.626
 1797SOL    HW1 6290   1.958   6.797   5.550
 1797SOL    HW2 6291   1.886   6.728   5.680
 1798SOL     OW 6292   4.144   3.206   5.208
 1798SOL    HW1 6293   4.053   3.247   5.196
 1798SOL    HW2 6294   4.136   3.127   5.269
 1799SOL     OW 6295   5.959   3.010   6.355
 1799SOL    HW1 6296   6.057   3.023   6.370
 1799SOL    HW2 6297   5.928   3.072   6.283
 1800SOL     OW 6298   4.692   4.883   3.149
 1800SOL    HW1 6299   4.753   4.962   3.149
 1800SOL    HW2 6300   4.712   4.825   3.227
 1801SOL     OW 6301   1.444   1.494   2.632
 1801SOL    HW1 6302   1.368   1.555   2.614
 1801SOL    HW2 6303   1.531   1.543   2.619
 1802SOL     OW 6304   6.680   6.253   2.966
 1802SOL    HW1 6305   6.628   6.337   2.952
 1802SOL    HW2 6306   6.639   6.179   2.913
 1803SOL     OW 6307   6.829   6.848   2.327
 1803SOL    HW1 6308   6.906   6.883   2.382
 1803SOL    HW2 6309   6.828   6.894   2.239
 1804SOL     OW 6310   3.870   3.633   5.252
 1804SOL    HW1 6311   3.885   3.635   5.351
 1804SOL    HW2 6312   3.944   3.681   5.205
 1805SOL     OW 6313   1.049   4.789   5.598
 1805SOL    HW1 6314   1.128   4.789   5.659
 1805SOL    HW2 6315   0.965   4.788   5.652
 1806SOL     OW 6316   0.771   2.110   1.965
 1806SOL    HW1 6317   0.795   2.189   2.021
 1806SOL    HW2 6318   0.734   2.141   1.877
 1807SOL     OW 6319   6.635   1.963   6.280
 1807SOL    HW1 6320   6.560   1.899   6.288
 1807SOL    HW2 6321   6.642   1.994   6.185
 1808SOL     OW 6322   5.728   4.620   4.420
 1808SOL    HW1 6323   5.643   4.625   4.471
 1808SOL    HW2 6324   5.741   4.704   4.367
 1809SOL     OW 6325   2.780   2.088   5.040
 1809SOL    HW1 6326   2.824   2.097   4.951
 1809SOL    HW2 6327   2.848   2.061   5.109
 1810SOL     OW 6328   0.746   0.673   4.883
 1810SOL    HW1 6329   0.804   0.683   4.802
 1810SOL    HW2 6330   0.706   0.762   4.906
 1811SOL     OW 6331   5.227   4.700   2.694
 1811SOL    HW1 6332   5.249   4.795   2.716
 1811SOL    HW2 6333   5.282   4.639   2.751
 1812SOL     OW 6334   4.885   6.718   6.702
 1812SOL    HW1 6335   4.790   6.740   6.678
 1812SOL    HW2 6336   4.900   6.620   6.691
 1813SOL     OW 6337   4.974   4.886   1.765
 1813SOL    HW1 6338   5.044   4.846   1.825
 1813SOL    HW2 6339   4.992   4.983   1.754
 1814SOL     OW 6340   6.131   0.867   0.849
 1814SOL    HW1 6341   6.033   0.869   0.828
 1814SOL    HW2 6342   6.145   0.834   0.943
 1815SOL     OW 6343   6.020   0.491   3.098
 1815SOL    HW1 6344   6.027   0.404   3.147
 1815SOL    HW2 6345   6.057   0.480   3.005
 1816SOL     OW 6346   3.050   4.934   0.233
 1816SOL    HW1 6347   2.982   4.988   0.183
 1816SOL    HW2 6348   3.003   4.871   0.295
 1817SOL     OW 6349   4.433   0.382   2.351
 1817SOL    HW1 6350   4.344   0.335   2.354
 1817SOL    HW2 6351   4.434   0.447   2.275
 1818SOL     OW 6352   1.805   6.668   0.962
 1818SOL    HW1 6353   1.759   6.733   0.902
 1818SOL    HW2 6354   1.848   6.596   0.907
 1819SOL     OW 6355   1.235   6.183   1.606
 1819SOL    HW1 6356   1.328   6.151   1.626
 1819SOL    HW2 6357   1.205   6.245   1.679
 1820SOL     OW 6358   3.662   6.970   2.217
 1820SOL    HW1 6359   3.674   0.035   2.269
 1820SOL    HW2 6360   3.740   6.957   2.156
 1821SOL     OW 6361   2.866   1.167   1.703
 1821SOL    HW1 6362   2.895   1.254   1.743
 1821SOL    HW2 6363   2.944   1.105   1.700
 1822SOL     OW 6364   0.464   2.587   1.690
 1822SOL    HW1 6365   0.544   2.646   1.683
 1822SOL    HW2 6366   0.447   2.566   1.786
 1823SOL     OW 6367   3.258   6.090   3.081
 1823SOL    HW1 6368   3.298   6.010   3.036
 1823SOL    HW2 6369   3.260   6.077   3.180
 1824SOL     OW 6370   3.616   4.337   1.094
 1824SOL    HW1 6371   3.665   4.334   1.007
 1824SOL    HW2 6372   3.656   4.271   1.157
 1825SOL     OW 6373   0.794   2.500   4.679
 1825SOL    HW1 6374   0.754   2.431   4.619
 1825SOL    HW2 6375   0.722   2.560   4.714
 1826SOL     OW 6376   2.879   1.209   1.254
 1826SOL    HW1 6377   2.832   1.224   1.341
 1826SOL    HW2 6378   2.840   1.268   1.184
 1827SOL     OW 6379   5.939   5.506   1.242
 1827SOL    HW1 6380   5.874   5.580   1.257
 1827SOL    HW2 6381   6.012   5.513   1.311
 1828SOL     OW 6382   1.458   2.754   6.846
 1828SOL    HW1 6383   1.374   2.808   6.852
 1828SOL    HW2 6384   1.484   2.724   6.938
 1829SOL     OW 6385   4.057   0.531   2.691
 1829SOL    HW1 6386   4.106   0.587   2.757
 1829SOL    HW2 6387   3.965   0.568   2.676
 1830SOL     OW 6388   5.760   6.150   4.815
 1830SOL    HW1 6389   5.839   6.089   4.824
 1830SOL    HW2 6390   5.680   6.098   4.787
 1831SOL     OW 6391   5.998   6.572   2.676
 1831SOL    HW1 6392   6.091   6.541   2.658
 1831SOL    HW2 6393   5.948   6.579   2.589
 1832SOL     OW 6394   3.941   1.555   0.896
 1832SOL    HW1 6395   3.842   1.545   0.905
 1832SOL    HW2 6396   3.971   1.639   0.940
 1833SOL     OW 6397   5.817   0.894   1.977
 1833SOL    HW1 6398   5.731   0.883   1.927
 1833SOL    HW2 6399   5.892   0.853   1.926
 1834SOL     OW 6400   1.945   4.309   1.149
 1834SOL    HW1 6401   1.998   4.370   1.090
 1834SOL    HW2 6402   1.929   4.353   1.237
 1835SOL     OW 6403   0.401   4.978   1.812
 1835SOL    HW1 6404   0.419   5.065   1.858
 1835SOL    HW2 6405   0.353   4.916   1.874
 1836SOL     OW 6406   5.351   2.592   1.730
 1836SOL    HW1 6407   5.271   2.583   1.790
 1836SOL    HW2 6408   5.400   2.505   1.728
 1837SOL     OW 6409   1.380   6.905   5.651
 1837SOL    HW1 6410   1.409   6.996   5.682
 1837SOL    HW2 6411   1.298   6.877   5.701
 1838SOL     OW 6412   5.632   1.181   5.859
 1838SOL    HW1 6413   5.686   1.222   5.933
 1838SOL    HW2 6414   5.657   1.222   5.772
 1839SOL     OW 6415   6.780   1.265   5.587
 1839SOL    HW1 6416   6.766   1.215   5.672
 1839SOL    HW2 6417   6.793   1.362   5.607
 1840SOL     OW 6418   4.273   0.017   2.039
 1840SOL    HW1 6419   4.189   0.022   1.986
 1840SOL    HW2 6420   4.305   0.109   2.060
 1841SOL     OW 6421   2.400   0.530   3.104
 1841SOL    HW1 6422   2.406   0.542   3.204
 1841SOL    HW2 6423   2.402   0.619   3.060
 1842SOL     OW 6424   1.057   5.887   1.238
 1842SOL    HW1 6425   0.988   5.887   1.311
 1842SOL    HW2 6426   1.053   5.974   1.189
 1843SOL     OW 6427   5.587   0.598   4.834
 1843SOL    HW1 6428   5.492   0.603   4.865
 1843SOL    HW2 6429   5.608   0.676   4.775
 1844SOL     OW 6430   4.067   0.367   4.996
 1844SOL    HW1 6431   4.098   0.272   4.989
 1844SOL    HW2 6432   3.983   0.371   5.050
 1845SOL     OW 6433   2.815   6.591   3.967
 1845SOL    HW1 6434   2.791   6.592   4.064
 1845SOL    HW2 6435   2.772   6.512   3.923
 1846SOL     OW 6436   4.572   1.059   2.505
 1846SOL    HW1 6437   4.614   1.006   2.431
 1846SOL    HW2 6438   4.522   0.998   2.566
 1847SOL     OW 6439   1.754   6.830   5.857
 1847SOL    HW1 6440   1.822   6.829   5.930
 1847SOL    HW2 6441   1.708   6.741   5.854
 1848SOL     OW 6442   2.075   6.425   3.180
 1848SOL    HW1 6443   2.061   6.390   3.273
 1848SOL    HW2 6444   2.032   6.514   3.172
 1849SOL     OW 6445   4.198   2.567   1.233
 1849SOL    HW1 6446   4.293   2.581   1.261
 1849SOL    HW2 6447   4.196   2.515   1.147
 1850SOL     OW 6448   6.764   2.150   2.547
 1850SOL    HW1 6449   6.730   2.161   2.453
 1850SOL    HW2 6450   6.787   2.054   2.562
 1851SOL     OW 6451   1.003   3.222   0.245
 1851SOL    HW1 6452   1.018   3.250   0.150
 1851SOL    HW2 6453   1.070   3.153   0.271
 1852SOL     OW 6454   0.142   4.660   2.410
 1852SOL    HW1 6455   0.085   4.661   2.328
 1852SOL    HW2 6456   0.086   4.677   2.490
 1853SOL     OW 6457   6.754   2.255   3.305
 1853SOL    HW1 6458   6.667   2.293   3.273
 1853SOL    HW2 6459   6.750   2.240   3.403
 1854SOL     OW 6460   1.889   5.238   2.550
 1854SOL    HW1 6461   1.827   5.234   2.628
 1854SOL    HW2 6462   1.914   5.333   2.531
 1855SOL     OW 6463   5.623   3.725   5.388
 1855SOL    HW1 6464   5.529   3.706   5.418
 1855SOL    HW2 6465   5.685   3.657   5.426
 1856SOL     OW 6466   4.679   2.940   6.281
 1856SOL    HW1 6467   4.659   3.032   6.315
 1856SOL    HW2 6468   4.743   2.895   6.343
 1857SOL     OW 6469   4.123   1.527   0.227
 1857SOL    HW1 6470   4.194   1.495   0.290
 1857SOL    HW2 6471   4.033   1.519   0.271
 1858SOL     OW 6472   5.352   2.399   2.882
 1858SOL    HW1 6473   5.256   2.393   2.856
 1858SOL    HW2 6474   5.368   2.343   2.964
 1859SOL     OW 6475   4.320   1.833   3.698
 1859SOL    HW1 6476   4.307   1.736   3.717
 1859SOL    HW2 6477   4.343   1.846   3.601
 1860SOL     OW 6478   6.894   1.526   5.483
 1860SOL    HW1 6479   6.926   1.620   5.471
 1860SOL    HW2 6480   6.796   1.522   5.462
 1861SOL     OW 6481   4.934   0.502   2.889
 1861SOL    HW1 6482   4.852   0.490   2.833
 1861SOL    HW2 6483   4.985   0.417   2.893
 1862SOL     OW 6484   2.454   6.623   6.816
 1862SOL    HW1 6485   2.404   6.549   6.770
 1862SOL    HW2 6486   2.389   6.679   6.868
 1863SOL     OW 6487   6.943   2.672   3.034
 1863SOL    HW1 6488   6.950   2.632   3.125
 1863SOL    HW2 6489   6.884   2.753   3.037
 1864SOL     OW 6490   3.330   5.988   4.595
 1864SOL    HW1 6491   3.318   5.906   4.539
 1864SOL    HW2 6492   3.336   5.962   4.691
 1865SOL     OW 6493   3.312   0.450   0.645
 1865SOL    HW1 6494   3.379   0.514   0.606
 1865SOL    HW2 6495   3.267   0.493   0.723
 1866SOL     OW 6496   0.228   4.711   3.910
 1866SOL    HW1 6497   0.149   4.762   3.876
 1866SOL    HW2 6498   0.297   4.775   3.943
 1867SOL     OW 6499   1.956   4.353   1.654
 1867SOL    HW1 6500   1.963   4.254   1.667
 1867SOL    HW2 6501   1.960   4.399   1.743
 1868SOL     OW 6502   5.321   3.428   6.508
 1868SOL    HW1 6503   5.305   3.451   6.604
 1868SOL    HW2 6504   5.355   3.509   6.459
 1869SOL     OW 6505   6.260   3.281   4.843
 1869SOL    HW1 6506   6.307   3.365   4.870
 1869SOL    HW2 6507   6.162   3.298   4.839
 1870SOL     OW 6508   1.133   3.096   4.931
 1870SOL    HW1 6509   1.160   3.190   4.952
 1870SOL    HW2 6510   1.096   3.053   5.013
 1871SOL     OW 6511   6.929   6.950   0.932
 1871SOL    HW1 6512   6.830   6.940   0.932
 1871SOL    HW2 6513   6.971   6.862   0.908
 1872SOL     OW 6514   4.387   2.419   0.089
 1872SOL    HW1 6515   4.315   2.372   0.139
 1872SOL    HW2 6516   4.365   2.516   0.082
 1873SOL     OW 6517   6.483   0.558   5.807
 1873SOL    HW1 6518   6.418   0.498   5.854
 1873SOL    HW2 6519   6.448   0.652   5.807
 1874SOL     OW 6520   1.182   1.213   6.375
 1874SOL    HW1 6521   1.118   1.218   6.452
 1874SOL    HW2 6522   1.139   1.253   6.293
 1875SOL     OW 6523   6.572   0.144   0.808
 1875SOL    HW1 6524   6.474   0.125   0.808
 1875SOL    HW2 6525   6.618   0.078   0.868
 1876SOL     OW 6526   3.914   5.858   6.353
 1876SOL    HW1 6527   3.891   5.934   6.414
 1876SOL    HW2 6528   3.924   5.774   6.405
 1877SOL     OW 6529   1.181   2.089   3.430
 1877SOL    HW1 6530   1.168   2.188   3.423
 1877SOL    HW2 6531   1.270   2.070   3.470
 1878SOL     OW 6532   6.696   3.887   3.956
 1878SOL    HW1 6533   6.697   3.883   3.857
 1878SOL    HW2 6534   6.753   3.813   3.993
 1879SOL     OW 6535   2.519   6.227   4.017
 1879SOL    HW1 6536   2.472   6.231   4.105
 1879SOL    HW2 6537   2.615   6.203   4.031
 1880SOL     OW 6538   0.317   1.995   2.887
 1880SOL    HW1 6539   0.305   1.896   2.884
 1880SOL    HW2 6540   0.403   2.019   2.841
 1881SOL     OW 6541   1.913   2.015   3.913
 1881SOL    HW1 6542   1.979   1.961   3.967
 1881SOL    HW2 6543   1.961   2.057   3.836
 1882SOL     OW 6544   0.761   4.847   6.916
 1882SOL    HW1 6545   0.757   4.913   6.840
 1882SOL    HW2 6546   0.850   4.800   6.913
 1883SOL     OW 6547   1.212   3.375   4.130
 1883SOL    HW1 6548   1.286   3.378   4.063
 1883SOL    HW2 6549   1.142   3.442   4.104
 1884SOL     OW 6550   5.975   2.774   1.106
 1884SOL    HW1 6551   6.009   2.862   1.139
 1884SOL    HW2 6552   6.014   2.756   1.015
 1885SOL     OW 6553   0.021   2.152   0.922
 1885SOL    HW1 6554   6.975   2.181   0.852
 1885SOL    HW2 6555   0.113   2.179   0.894
 1886SOL     OW 6556   2.694   2.553   0.299
 1886SOL    HW1 6557   2.756   2.585   0.371
 1886SOL    HW2 6558   2.746   2.498   0.234
 1887SOL     OW 6559   0.457   4.475   5.604
 1887SOL    HW1 6560   0.472   4.407   5.532
 1887SOL    HW2 6561   0.490   4.438   5.691
 1888SOL     OW 6562   2.900   1.778   5.770
 1888SOL    HW1 6563   2.833   1.795   5.842
 1888SOL    HW2 6564   2.853   1.742   5.689
 1889SOL     OW 6565   5.365   2.729   6.416
 1889SOL    HW1 6566   5.328   2.822   6.410
 1889SOL    HW2 6567   5.391   2.710   6.511
 1890SOL     OW 6568   1.435   5.802   5.344
 1890SOL    HW1 6569   1.499   5.759   5.280
 1890SOL    HW2 6570   1.436   5.901   5.330
 1891SOL     OW 6571   5.295   3.115   4.219
 1891SOL    HW1 6572   5.267   3.208   4.242
 1891SOL    HW2 6573   5.215   3.055   4.219
 1892SOL     OW 6574   3.471   0.137   0.990
 1892SOL    HW1 6575   3.484   0.111   0.894
 1892SOL    HW2 6576   3.411   0.071   1.034
 1893SOL     OW 6577   3.028   1.641   5.496
 1893SOL    HW1 6578   2.959   1.666   5.428
 1893SOL    HW2 6579   3.063   1.725   5.539
 1894SOL     OW 6580   4.011   3.786   2.032
 1894SOL    HW1 6581   4.065   3.760   1.952
 1894SOL    HW2 6582   3.958   3.868   2.010
 1895SOL     OW 6583   5.682   0.679   2.546
 1895SOL    HW1 6584   5.760   0.739   2.530
 1895SOL    HW2 6585   5.603   0.732   2.577
 1896SOL     OW 6586   0.714   0.707   2.960
 1896SOL    HW1 6587   0.691   0.720   3.056
 1896SOL    HW2 6588   0.673   0.622   2.926
 1897SOL     OW 6589   0.204   5.103   2.893
 1897SOL    HW1 6590   0.282   5.156   2.924
 1897SOL    HW2 6591   0.168   5.048   2.968
 1898SOL     OW 6592   3.158   5.284   1.819
 1898SOL    HW1 6593   3.086   5.267   1.752
 1898SOL    HW2 6594   3.160   5.382   1.842
 1899SOL     OW 6595   1.091   2.720   2.864
 1899SOL    HW1 6596   1.008   2.687   2.820
 1899SOL    HW2 6597   1.077   2.724   2.963
 1900SOL     OW 6598   0.770   0.577   5.395
 1900SOL    HW1 6599   0.743   0.563   5.300
 1900SOL    HW2 6600   0.818   0.496   5.428
 1901SOL     OW 6601   2.392   1.491   1.413
 1901SOL    HW1 6602   2.429   1.434   1.487
 1901SOL    HW2 6603   2.420   1.586   1.428
 1902SOL     OW 6604   2.447   2.558   5.068
 1902SOL    HW1 6605   2.536   2.543   5.110
 1902SOL    HW2 6606   2.455   2.549   4.968
 1903SOL     OW 6607   0.094   3.880   3.585
 1903SOL    HW1 6608   0.177   3.935   3.575
 1903SOL    HW2 6609   0.119   3.783   3.589
 1904SOL     OW 6610   5.839   6.961   4.230
 1904SOL    HW1 6611   5.768   7.019   4.189
 1904SOL    HW2 6612   5.885   7.012   4.303
 1905SOL     OW 6613   1.179   1.838   4.557
 1905SOL    HW1 6614   1.276   1.846   4.582
 1905SOL    HW2 6615   1.127   1.911   4.601
 1906SOL     OW 6616   2.917   6.887   5.185
 1906SOL    HW1 6617   2.884   6.967   5.234
 1906SOL    HW2 6618   2.987   6.840   5.239
 1907SOL     OW 6619   3.259   6.604   2.976
 1907SOL    HW1 6620   3.255   6.699   2.948
 1907SOL    HW2 6621   3.169   6.575   3.008
 1908SOL     OW 6622   4.280   0.858   4.911
 1908SOL    HW1 6623   4.366   0.809   4.927
 1908SOL    HW2 6624   4.251   0.902   4.996
 1909SOL     OW 6625   1.685   3.711   3.312
 1909SOL    HW1 6626   1.643   3.774   3.247
 1909SOL    HW2 6627   1.615   3.650   3.349
 1910SOL     OW 6628   6.975   2.278   6.435
 1910SOL    HW1 6629   0.023   2.204   6.440
 1910SOL    HW2 6630   7.013   2.354   6.382
 1911SOL     OW 6631   5.909   2.123   5.340
 1911SOL    HW1 6632   5.908   2.136   5.439
 1911SOL    HW2 6633   5.901   2.025   5.320
 1912SOL     OW 6634   3.667   6.705   1.489
 1912SOL    HW1 6635   3.733   6.630   1.475
 1912SOL    HW2 6636   3.711   6.792   1.466
 1913SOL     OW 6637   1.881   6.077   5.462
 1913SOL    HW1 6638   1.973   6.049   5.436
 1913SOL    HW2 6639   1.828   6.097   5.379
 1914SOL     OW 6640   3.273   2.501   6.919
 1914SOL    HW1 6641   3.238   2.550   6.999
 1914SOL    HW2 6642   3.275   2.563   6.840
 1915SOL     OW 6643   4.355   1.675   5.075
 1915SOL    HW1 6644   4.394   1.618   5.147
 1915SOL    HW2 6645   4.347   1.622   4.991
 1916SOL     OW 6646   3.386   6.119   1.085
 1916SOL    HW1 6647   3.399   6.198   1.145
 1916SOL    HW2 6648   3.455   6.121   1.012
 1917SOL     OW 6649   3.472   3.137   4.629
 1917SOL    HW1 6650   3.553   3.149   4.571
 1917SOL    HW2 6651   3.444   3.041   4.626
 1918SOL     OW 6652   6.906   0.239   5.999
 1918SOL    HW1 6653   6.982   0.287   5.955
 1918SOL    HW2 6654   6.932   0.211   6.091
 1919SOL     OW 6655   2.192   6.531   1.269
 1919SOL    HW1 6656   2.216   6.615   1.317
 1919SOL    HW2 6657   2.127   6.478   1.323
 1920SOL     OW 6658   0.739   4.976   2.820
 1920SOL    HW1 6659   0.643   4.979   2.793
 1920SOL    HW2 6660   0.745   4.957   2.918
 1921SOL     OW 6661   1.562   4.640   6.914
 1921SOL    HW1 6662   1.486   4.590   6.955
 1921SOL    HW2 6663   1.618   4.681   6.986
 1922SOL     OW 6664   3.323   4.146   0.862
 1922SOL    HW1 6665   3.287   4.057   0.889
 1922SOL    HW2 6666   3.321   4.208   0.940
 1923SOL     OW 6667   3.194   1.145   5.952
 1923SOL    HW1 6668   3.272   1.167   6.011
 1923SOL    HW2 6669   3.218   1.163   5.857
 1924SOL     OW 6670   5.680   5.196   2.033
 1924SOL    HW1 6671   5.741   5.271   2.005
 1924SOL    HW2 6672   5.735   5.119   2.064
 1925SOL     OW 6673   2.822   3.201   1.728
 1925SOL    HW1 6674   2.887   3.231   1.798
 1925SOL    HW2 6675   2.745   3.265   1.725
 1926SOL     OW 6676   1.133   0.111   3.509
 1926SOL    HW1 6677   1.067   0.036   3.497
 1926SOL    HW2 6678   1.113   0.182   3.441
 1927SOL     OW 6679   3.381   5.064   6.165
 1927SOL    HW1 6680   3.478   5.060   6.186
 1927SOL    HW2 6681   3.361   5.145   6.110
 1928SOL     OW 6682   6.922   4.259   6.018
 1928SOL    HW1 6683   6.885   4.299   6.102
 1928SOL    HW2 6684   6.887   4.166   6.007
 1929SOL     OW 6685   0.559   6.337   1.577
 1929SOL    HW1 6686   0.533   6.261   1.517
 1929SOL    HW2 6687   0.584   6.301   1.667
 1930SOL     OW 6688   3.568   4.243   6.937
 1930SOL    HW1 6689   3.564   4.292   6.850
 1930SOL    HW2 6690   3.619   4.158   6.925
 1931SOL     OW 6691   0.169   2.535   2.871
 1931SOL    HW1 6692   0.137   2.502   2.783
 1931SOL    HW2 6693   0.175   2.635   2.869
 1932SOL     OW 6694   4.868   3.275   3.206
 1932SOL    HW1 6695   4.853   3.268   3.108
 1932SOL    HW2 6696   4.918   3.194   3.238
 1933SOL     OW 6697   2.617   4.750   0.818
 1933SOL    HW1 6698   2.540   4.709   0.866
 1933SOL    HW2 6699   2.595   4.845   0.795
 1934SOL     OW 6700   0.591   0.589   4.203
 1934SOL    HW1 6701   0.612   0.687   4.207
 1934SOL    HW2 6702   0.670   0.536   4.234
 1935SOL     OW 6703   3.706   0.422   4.728
 1935SOL    HW1 6704   3.778   0.479   4.688
 1935SOL    HW2 6705   3.705   0.333   4.681
 1936SOL     OW 6706   6.362   4.250   4.063
 1936SOL    HW1 6707   6.430   4.308   4.108
 1936SOL    HW2 6708   6.407   4.175   4.015
 1937SOL     OW 6709   5.449   0.652   0.910
 1937SOL    HW1 6710   5.416   0.564   0.945
 1937SOL    HW2 6711   5.404   0.672   0.823
 1938SOL     OW 6712   3.693   0.941   2.114
 1938SOL    HW1 6713   3.722   0.946   2.019
 1938SOL    HW2 6714   3.736   0.862   2.158
 1939SOL     OW 6715   0.946   0.254   3.995
 1939SOL    HW1 6716   1.000   0.237   3.913
 1939SOL    HW2 6717   0.969   0.186   4.064
 1940SOL     OW 6718   4.061   4.831   6.582
 1940SOL    HW1 6719   4.050   4.913   6.638
 1940SOL    HW2 6720   4.158   4.821   6.557
 1941SOL     OW 6721   0.233   3.968   3.251
 1941SOL    HW1 6722   0.274   3.939   3.337
 1941SOL    HW2 6723   0.304   4.005   3.191
 1942SOL     OW 6724   5.569   0.350   2.128
 1942SOL    HW1 6725   5.514   0.288   2.184
 1942SOL    HW2 6726   5.555   0.328   2.031
 1943SOL     OW 6727   2.357   6.188   2.503
 1943SOL    HW1 6728   2.393   6.260   2.444
 1943SOL    HW2 6729   2.371   6.099   2.460
 1944SOL     OW 6730   5.754   2.108   0.700
 1944SOL    HW1 6731   5.724   2.019   0.735
 1944SOL    HW2 6732   5.749   2.176   0.773
 1945SOL     OW 6733   3.737   5.812   2.309
 1945SOL    HW1 6734   3.820   5.765   2.279
 1945SOL    HW2 6735   3.715   5.783   2.403
 1946SOL     OW 6736   6.504   0.565   1.279
 1946SOL    HW1 6737   6.544   0.477   1.306
 1946SOL    HW2 6738   6.453   0.602   1.357
 1947SOL     OW 6739   4.682   6.404   4.211
 1947SOL    HW1 6740   4.681   6.437   4.117
 1947SOL    HW2 6741   4.676   6.482   4.274
 1948SOL     OW 6742   5.519   5.696   3.892
 1948SOL    HW1 6743   5.565   5.630   3.833
 1948SOL    HW2 6744   5.469   5.762   3.835
 1949SOL     OW 6745   3.930   4.480   6.616
 1949SOL    HW1 6746   3.838   4.497   6.582
 1949SOL    HW2 6747   3.948   4.540   6.694
 1950SOL     OW 6748   3.465   4.698   0.912
 1950SOL    HW1 6749   3.508   4.732   0.995
 1950SOL    HW2 6750   3.481   4.763   0.837
 1951SOL     OW 6751   5.891   3.963   0.104
 1951SOL    HW1 6752   5.826   4.034   0.130
 1951SOL    HW2 6753   5.849   3.901   0.038
 1952SOL     OW 6754   4.199   2.578   6.893
 1952SOL    HW1 6755   4.243   2.639   6.959
 1952SOL    HW2 6756   4.109   2.614   6.869
 1953SOL     OW 6757   5.770   2.480   7.003
 1953SOL    HW1 6758   5.755   2.392   6.958
 1953SOL    HW2 6759   5.857   2.520   6.971
 1954SOL     OW 6760   5.646   1.493   3.777
 1954SOL    HW1 6761   5.613   1.451   3.861
 1954SOL    HW2 6762   5.746   1.492   3.777
 1955SOL     OW 6763   1.620   1.257   2.556
 1955SOL    HW1 6764   1.598   1.303   2.471
 1955SOL    HW2 6765   1.656   1.323   2.622
 1956SOL     OW 6766   4.938   6.525   2.108
 1956SOL    HW1 6767   4.868   6.493   2.172
 1956SOL    HW2 6768   4.922   6.621   2.087
 1957SOL     OW 6769   6.289   5.325   4.634
 1957SOL    HW1 6770   6.375   5.352   4.678
 1957SOL    HW2 6771   6.222   5.398   4.645
 1958SOL     OW 6772   5.319   2.165   2.318
 1958SOL    HW1 6773   5.241   2.228   2.321
 1958SOL    HW2 6774   5.296   2.082   2.369
 1959SOL     OW 6775   0.230   0.985   4.994
 1959SOL    HW1 6776   0.246   1.042   4.913
 1959SOL    HW2 6777   0.304   0.919   5.003
 1960SOL     OW 6778   6.630   4.487   1.944
 1960SOL    HW1 6779   6.590   4.397   1.963
 1960SOL    HW2 6780   6.574   4.558   1.988
 1961SOL     OW 6781   5.726   4.838   4.286
 1961SOL    HW1 6782   5.783   4.907   4.330
 1961SOL    HW2 6783   5.630   4.867   4.288
 1962SOL     OW 6784   2.282   7.008   3.294
 1962SOL    HW1 6785   2.368   0.011   3.341
 1962SOL    HW2 6786   2.226   6.950   3.352
 1963SOL     OW 6787   0.947   1.186   1.972
 1963SOL    HW1 6788   0.996   1.259   2.020
 1963SOL    HW2 6789   0.849   1.205   1.973
 1964SOL     OW 6790   4.656   3.996   1.101
 1964SOL    HW1 6791   4.583   4.020   1.037
 1964SOL    HW2 6792   4.699   4.079   1.135
 1965SOL     OW 6793   0.907   3.607   4.571
 1965SOL    HW1 6794   0.811   3.596   4.598
 1965SOL    HW2 6795   0.952   3.518   4.569
 1966SOL     OW 6796   6.705   6.272   0.222
 1966SOL    HW1 6797   6.767   6.240   0.150
 1966SOL    HW2 6798   6.616   6.294   0.182
 1967SOL     OW 6799   4.894   2.431   4.583
 1967SOL    HW1 6800   4.895   2.451   4.681
 1967SOL    HW2 6801   4.800   2.423   4.551
 1968SOL     OW 6802   3.329   6.943   0.222
 1968SOL    HW1 6803   3.319   0.001   0.286
 1968SOL    HW2 6804   3.254   6.878   0.237
 1969SOL     OW 6805   0.877   1.739   1.759
 1969SOL    HW1 6806   0.952   1.674   1.770
 1969SOL    HW2 6807   0.790   1.689   1.756
 1970SOL     OW 6808   2.221   6.856   5.931
 1970SOL    HW1 6809   2.178   6.783   5.986
 1970SOL    HW2 6810   2.307   6.883   5.973
 1971SOL     OW 6811   0.557   6.805   5.600
 1971SOL    HW1 6812   0.654   6.805   5.621
 1971SOL    HW2 6813   0.504   6.780   5.681
 1972SOL     OW 6814   5.604   2.276   2.323
 1972SOL    HW1 6815   5.603   2.352   2.389
 1972SOL    HW2 6816   5.516   2.228   2.327
 1973SOL     OW 6817   2.464   2.945   0.402
 1973SOL    HW1 6818   2.431   3.036   0.379
 1973SOL    HW2 6819   2.411   2.909   0.479
 1974SOL     OW 6820   5.554   6.150   4.115
 1974SOL    HW1 6821   5.543   6.160   4.214
 1974SOL    HW2 6822   5.564   6.053   4.092
 1975SOL     OW 6823   2.211   1.624   3.658
 1975SOL    HW1 6824   2.277   1.575   3.716
 1975SOL    HW2 6825   2.146   1.559   3.618
 1976SOL     OW 6826   1.141   6.654   6.452
 1976SOL    HW1 6827   1.227   6.704   6.463
 1976SOL    HW2 6828   1.136   6.581   6.520
 1977SOL     OW 6829   0.675   3.597   4.134
 1977SOL    HW1 6830   0.727   3.682   4.141
 1977SOL    HW2 6831   0.725   3.524   4.181
 1978SOL     OW 6832   1.125   0.550   3.109
 1978SOL    HW1 6833   1.103   0.616   3.037
 1978SOL    HW2 6834   1.052   0.549   3.177
 1979SOL     OW 6835   5.990   4.495   5.586
 1979SOL    HW1 6836   5.918   4.560   5.610
 1979SOL    HW2 6837   5.977   4.464   5.492
 1980SOL     OW 6838   2.712   0.607   5.267
 1980SOL    HW1 6839   2.620   0.591   5.304
 1980SOL    HW2 6840   2.760   0.674   5.324
 1981SOL     OW 6841   6.288   1.983   2.617
 1981SOL    HW1 6842   6.344   1.975   2.700
 1981SOL    HW2 6843   6.281   2.080   2.592
 1982SOL     OW 6844   0.646   4.309   5.172
 1982SOL    HW1 6845   0.592   4.313   5.257
 1982SOL    HW2 6846   0.603   4.366   5.103
 1983SOL     OW 6847   0.872   1.622   2.636
 1983SOL    HW1 6848   0.824   1.557   2.694
 1983SOL    HW2 6849   0.879   1.710   2.683
 1984SOL     OW 6850   6.138   1.828   4.910
 1984SOL    HW1 6851   6.134   1.786   5.000
 1984SOL    HW2 6852   6.227   1.809   4.868
 1985SOL     OW 6853   1.417   6.407   2.428
 1985SOL    HW1 6854   1.432   6.319   2.473
 1985SOL    HW2 6855   1.373   6.470   2.492
 1986SOL     OW 6856   1.172   0.365   0.481
 1986SOL    HW1 6857   1.230   0.446   0.484
 1986SOL    HW2 6858   1.189   0.314   0.396
 1987SOL     OW 6859   2.074   2.400   2.016
 1987SOL    HW1 6860   2.001   2.346   1.975
 1987SOL    HW2 6861   2.072   2.387   2.115
 1988SOL     OW 6862   5.813   4.526   0.952
 1988SOL    HW1 6863   5.801   4.431   0.923
 1988SOL    HW2 6864   5.880   4.571   0.894
 1989SOL     OW 6865   2.398   6.525   4.310
 1989SOL    HW1 6866   2.428   6.537   4.404
 1989SOL    HW2 6867   2.300   6.541   4.304
 1990SOL     OW 6868   3.122   6.389   0.039
 1990SOL    HW1 6869   3.055   6.315   0.033
 1990SOL    HW2 6870   3.210   6.352   0.069
 1991SOL     OW 6871   4.409   4.445   6.250
 1991SOL    HW1 6872   4.379   4.484   6.337
 1991SOL    HW2 6873   4.460   4.513   6.198
 1992SOL     OW 6874   0.578   0.373   6.786
 1992SOL    HW1 6875   0.659   0.387   6.844
 1992SOL    HW2 6876   0.508   0.324   6.838
 1993SOL     OW 6877   4.030   3.182   4.826
 1993SOL    HW1 6878   3.991   3.143   4.910
 1993SOL    HW2 6879   4.128   3.165   4.824
 1994SOL     OW 6880   0.645   0.898   0.544
 1994SOL    HW1 6881   0.714   0.830   0.516
 1994SOL    HW2 6882   0.608   0.871   0.633
 1995SOL     OW 6883   5.785   2.400   3.041
 1995SOL    HW1 6884   5.844   2.321   3.054
 1995SOL    HW2 6885   5.718   2.381   2.969
 1996SOL     OW 6886   2.182   3.757   1.018
 1996SOL    HW1 6887   2.230   3.736   1.103
 1996SOL    HW2 6888   2.180   3.856   1.004
 1997SOL     OW 6889   4.044   1.143   4.806
 1997SOL    HW1 6890   4.124   1.162   4.863
 1997SOL    HW2 6891   4.058   1.057   4.757
 1998SOL     OW 6892   2.560   3.965   6.085
 1998SOL    HW1 6893   2.566   3.887   6.149
 1998SOL    HW2 6894   2.580   4.049   6.134
 1999SOL     OW 6895   3.118   6.539   1.310
 1999SOL    HW1 6896   3.153   6.495   1.227
 1999SOL    HW2 6897   3.186   6.533   1.383
 2000SOL     OW 6898   4.463   2.429   5.298
 2000SOL    HW1 6899   4.516   2.513   5.307
 2000SOL    HW2 6900   4.506   2.357   5.352
 2001SOL     OW 6901   3.027   1.433   1.715
 2001SOL    HW1 6902   3.106   1.435   1.776
 2001SOL    HW2 6903   3.049   1.379   1.634
 2002SOL     OW 6904   0.975   4.498   6.746
 2002SOL    HW1 6905   0.921   4.490   6.663
 2002SOL    HW2 6906   0.972   4.411   6.796
 2003SOL     OW 6907   6.184   6.155   2.585
 2003SOL    HW1 6908   6.195   6.137   2.488
 2003SOL    HW2 6909   6.267   6.198   2.621
 2004SOL     OW 6910   4.704   1.215   5.531
 2004SOL    HW1 6911   4.763   1.276   5.583
 2004SOL    HW2 6912   4.702   1.244   5.435
 2005SOL     OW 6913   1.208   5.100   0.065
 2005SOL    HW1 6914   1.184   5.195   0.085
 2005SOL    HW2 6915   1.254   5.096   6.995
 2006SOL     OW 6916   4.918   5.901   3.907
 2006SOL    HW1 6917   4.872   5.817   3.878
 2006SOL    HW2 6918   4.932   5.960   3.827
 2007SOL     OW 6919   4.343   4.786   0.834
 2007SOL    HW1 6920   4.310   4.867   0.785
 2007SOL    HW2 6921   4.274   4.757   0.900
 2008SOL     OW 6922   2.208   5.122   3.388
 2008SOL    HW1 6923   2.208   5.035   3.338
 2008SOL    HW2 6924   2.161   5.191   3.333
 2009SOL     OW 6925   5.817   0.375   2.239
 2009SOL    HW1 6926   5.850   0.460   2.197
 2009SOL    HW2 6927   5.734   0.345   2.192
 2010SOL     OW 6928   1.935   1.684   0.911
 2010SOL    HW1 6929   1.866   1.614   0.929
 2010SOL    HW2 6930   1.945   1.695   0.812
 2011SOL     OW 6931   6.687   0.916   4.854
 2011SOL    HW1 6932   6.781   0.919   4.888
 2011SOL    HW2 6933   6.648   1.008   4.855
 2012SOL     OW 6934   1.863   3.520   2.249
 2012SOL    HW1 6935   1.824   3.486   2.163
 2012SOL    HW2 6936   1.950   3.565   2.231
 2013SOL     OW 6937   6.479   2.045   3.469
 2013SOL    HW1 6938   6.483   2.002   3.559
 2013SOL    HW2 6939   6.384   2.062   3.444
 2014SOL     OW 6940   2.060   5.284   3.191
 2014SOL    HW1 6941   1.994   5.210   3.179
 2014SOL    HW2 6942   2.013   5.365   3.226
 2015SOL     OW 6943   1.528   1.064   0.388
 2015SOL    HW1 6944   1.542   1.162   0.404
 2015SOL    HW2 6945   1.572   1.012   0.461
 2016SOL     OW 6946   0.510   6.351   4.881
 2016SOL    HW1 6947   0.457   6.411   4.820
 2016SOL    HW2 6948   0.452   6.275   4.911
 2017SOL     OW 6949   2.775   0.362   4.129
 2017SOL    HW1 6950   2.817   0.379   4.218
 2017SOL    HW2 6951   2.839   0.386   4.057
 2018SOL     OW 6952   5.670   6.464   5.296
 2018SOL    HW1 6953   5.625   6.503   5.215
 2018SOL    HW2 6954   5.610   6.477   5.376
 2019SOL     OW 6955   5.454   2.768   0.945
 2019SOL    HW1 6956   5.390   2.844   0.956
 2019SOL    HW2 6957   5.533   2.781   1.005
 2020SOL     OW 6958   1.279   6.203   5.093
 2020SOL    HW1 6959   1.204   6.244   5.041
 2020SOL    HW2 6960   1.361   6.259   5.083
 2021SOL     OW 6961   1.850   5.687   3.554
 2021SOL    HW1 6962   1.868   5.690   3.456
 2021SOL    HW2 6963   1.937   5.688   3.604
 2022SOL     OW 6964   1.888   3.806   3.585
 2022SOL    HW1 6965   1.888   3.817   3.684
 2022SOL    HW2 6966   1.802   3.842   3.548
 2023SOL     OW 6967   6.553   0.866   6.557
 2023SOL    HW1 6968   6.465   0.818   6.562
 2023SOL    HW2 6969   6.550   0.946   6.617
 2024SOL     OW 6970   0.455   6.729   3.792
 2024SOL    HW1 6971   0.417   6.820   3.777
 2024SOL    HW2 6972   0.542   6.736   3.839
 2025SOL     OW 6973   2.434   2.131   3.036
 2025SOL    HW1 6974   2.506   2.134   3.106
 2025SOL    HW2 6975   2.425   2.222   2.995
 2026SOL     OW 6976   0.353   3.090   5.693
 2026SOL    HW1 6977   0.445   3.096   5.655
 2026SOL    HW2 6978   0.334   2.996   5.722
 2027SOL     OW 6979   0.403   0.784   0.467
 2027SOL    HW1 6980   0.475   0.852   0.476
 2027SOL    HW2 6981   0.405   0.745   0.375
 2028SOL     OW 6982   3.038   0.277   5.117
 2028SOL    HW1 6983   3.035   0.373   5.088
 2028SOL    HW2 6984   3.033   0.272   5.217
 2029SOL     OW 6985   6.549   0.860   0.916
 2029SOL    HW1 6986   6.511   0.854   1.009
 2029SOL    HW2 6987   6.528   0.776   0.866
 2030SOL     OW 6988   2.701   0.573   2.828
 2030SOL    HW1 6989   2.641   0.588   2.750
 2030SOL    HW2 6990   2.649   0.532   2.903
 2031SOL     OW 6991   6.413   5.711   1.658
 2031SOL    HW1 6992   6.457   5.621   1.661
 2031SOL    HW2 6993   6.431   5.754   1.570
 2032SOL     OW 6994   4.839   6.481   1.372
 2032SOL    HW1 6995   4.779   6.561   1.376
 2032SOL    HW2 6996   4.889   6.474   1.459
 2033SOL     OW 6997   3.572   3.929   6.918
 2033SOL    HW1 6998   3.658   3.947   6.870
 2033SOL    HW2 6999   3.574   3.837   6.956
 2034SOL     OW 7000   3.203   6.446   5.206
 2034SOL    HW1 7001   3.164   6.472   5.294
 2034SOL    HW2 7002   3.244   6.355   5.213
 2035SOL     OW 7003   0.316   0.607   2.579
 2035SOL    HW1 7004   0.350   0.633   2.489
 2035SOL    HW2 7005   0.291   0.510   2.578
 2036SOL     OW 7006   1.503   5.041   2.732
 2036SOL    HW1 7007   1.562   5.102   2.785
 2036SOL    HW2 7008   1.407   5.061   2.752
 2037SOL     OW 7009   6.862   3.431   5.506
 2037SOL    HW1 7010   6.799   3.487   5.560
 2037SOL    HW2 7011   6.942   3.486   5.481
 2038SOL     OW 7012   0.805   2.179   6.574
 2038SOL    HW1 7013   0.765   2.145   6.659
 2038SOL    HW2 7014   0.895   2.219   6.593
 2039SOL     OW 7015   0.953   5.730   3.498
 2039SOL    HW1 7016   1.011   5.784   3.436
 2039SOL    HW2 7017   1.008   5.660   3.542
 2040SOL     OW 7018   3.360   2.922   4.314
 2040SOL    HW1 7019   3.448   2.886   4.284
 2040SOL    HW2 7020   3.348   2.905   4.412
 2041SOL     OW 7021   0.427   6.200   5.303
 2041SOL    HW1 7022   0.398   6.294   5.321
 2041SOL    HW2 7023   0.519   6.186   5.341
 2042SOL     OW 7024   4.966   5.235   6.610
 2042SOL    HW1 7025   5.011   5.317   6.573
 2042SOL    HW2 7026   5.033   5.162   6.619
 2043SOL     OW 7027   6.504   3.628   3.662
 2043SOL    HW1 7028   6.527   3.562   3.591
 2043SOL    HW2 7029   6.518   3.587   3.752
 2044SOL     OW 7030   5.690   6.650   1.302
 2044SOL    HW1 7031   5.763   6.593   1.265
 2044SOL    HW2 7032   5.730   6.726   1.354
 2045SOL     OW 7033   2.948   4.819   3.937
 2045SOL    HW1 7034   3.025   4.815   4.000
 2045SOL    HW2 7035   2.957   4.899   3.878
 2046SOL     OW 7036   6.453   1.513   3.689
 2046SOL    HW1 7037   6.527   1.484   3.629
 2046SOL    HW2 7038   6.484   1.510   3.784
 2047SOL     OW 7039   6.231   2.059   6.844
 2047SOL    HW1 7040   6.210   2.010   6.929
 2047SOL    HW2 7041   6.192   2.010   6.766
 2048SOL     OW 7042   1.686   6.482   6.728
 2048SOL    HW1 7043   1.680   6.537   6.645
 2048SOL    HW2 7044   1.597   6.440   6.746
 2049SOL     OW 7045   5.739   1.603   5.874
 2049SOL    HW1 7046   5.682   1.622   5.794
 2049SOL    HW2 7047   5.832   1.581   5.845
 2050SOL     OW 7048   0.401   2.697   3.778
 2050SOL    HW1 7049   0.493   2.736   3.782
 2050SOL    HW2 7050   0.337   2.767   3.744
 2051SOL     OW 7051   1.045   6.130   0.429
 2051SOL    HW1 7052   1.054   6.090   0.520
 2051SOL    HW2 7053   1.130   6.176   0.403
 2052SOL     OW 7054   1.339   3.742   0.865
 2052SOL    HW1 7055   1.259   3.681   0.870
 2052SOL    HW2 7056   1.409   3.700   0.808
 2053SOL     OW 7057   5.877   6.885   5.099
 2053SOL    HW1 7058   5.900   6.900   5.003
 2053SOL    HW2 7059   5.843   6.792   5.111
 2054SOL     OW 7060   3.615   3.975   2.831
 2054SOL    HW1 7061   3.528   3.989   2.877
 2054SOL    HW2 7062   3.684   3.948   2.898
 2055SOL     OW 7063   6.027   3.559   3.527
 2055SOL    HW1 7064   6.101   3.492   3.522
 2055SOL    HW2 7065   6.055   3.643   3.481
 2056SOL     OW 7066   3.221   6.425   2.730
 2056SOL    HW1 7067   3.223   6.462   2.822
 2056SOL    HW2 7068   3.285   6.475   2.672
 2057SOL     OW 7069   5.697   3.791   5.132
 2057SOL    HW1 7070   5.626   3.835   5.076
 2057SOL    HW2 7071   5.657   3.765   5.220
 2058SOL     OW 7072   0.628   1.629   3.283
 2058SOL    HW1 7073   0.628   1.693   3.360
 2058SOL    HW2 7074   0.545   1.641   3.229
 2059SOL     OW 7075   1.965   5.894   6.362
 2059SOL    HW1 7076   2.027   5.828   6.319
 2059SOL    HW2 7077   1.929   5.957   6.292
 2060SOL     OW 7078   0.294   4.168   1.215
 2060SOL    HW1 7079   0.241   4.107   1.155
 2060SOL    HW2 7080   0.238   4.248   1.237
 2061SOL     OW 7081   0.105   1.704   3.553
 2061SOL    HW1 7082   0.179   1.761   3.589
 2061SOL    HW2 7083   0.018   1.733   3.593
 2062SOL     OW 7084   6.087   0.087   3.867
 2062SOL    HW1 7085   6.080   0.015   3.798
 2062SOL    HW2 7086   6.031   0.166   3.839
 2063SOL     OW 7087   2.119   6.675   6.128
 2063SOL    HW1 7088   2.029   6.716   6.112
 2063SOL    HW2 7089   2.169   6.730   6.195
 2064SOL     OW 7090   0.725   2.376   5.687
 2064SOL    HW1 7091   0.688   2.295   5.732
 2064SOL    HW2 7092   0.650   2.440   5.668
 2065SOL     OW 7093   6.784   2.595   5.053
 2065SOL    HW1 7094   6.719   2.564   5.122
 2065SOL    HW2 7095   6.848   2.660   5.093
 2066SOL     OW 7096   0.772   4.969   3.678
 2066SOL    HW1 7097   0.863   4.935   3.703
 2066SOL    HW2 7098   0.778   5.065   3.652
 2067SOL     OW 7099   6.247   5.217   1.334
 2067SOL    HW1 7100   6.216   5.149   1.267
 2067SOL    HW2 7101   6.339   5.247   1.309
 2068SOL     OW 7102   2.049   1.462   4.946
 2068SOL    HW1 7103   2.002   1.471   4.858
 2068SOL    HW2 7104   1.998   1.512   5.016
 2069SOL     OW 7105   0.554   2.476   3.801
 2069SOL    HW1 7106   0.482   2.544   3.797
 2069SOL    HW2 7107   0.638   2.518   3.836
 2070SOL     OW 7108   1.587   0.942   1.762
 2070SOL    HW1 7109   1.487   0.937   1.759
 2070SOL    HW2 7110   1.615   0.994   1.843
 2071SOL     OW 7111   6.804   5.946   6.060
 2071SOL    HW1 7112   6.809   6.042   6.089
 2071SOL    HW2 7113   6.887   5.922   6.010
 2072SOL     OW 7114   4.145   6.050   4.201
 2072SOL    HW1 7115   4.224   6.050   4.140
 2072SOL    HW2 7116   4.135   6.141   4.242
 2073SOL     OW 7117   3.905   6.920   4.330
 2073SOL    HW1 7118   3.851   7.003   4.318
 2073SOL    HW2 7119   4.002   6.941   4.315
 2074SOL     OW 7120   1.737   2.679   0.575
 2074SOL    HW1 7121   1.744   2.779   0.571
 2074SOL    HW2 7122   1.705   2.644   0.487
 2075SOL     OW 7123   5.716   3.595   2.199
 2075SOL    HW1 7124   5.679   3.619   2.109
 2075SOL    HW2 7125   5.674   3.652   2.269
 2076SOL     OW 7126   5.856   0.272   0.383
 2076SOL    HW1 7127   5.779   0.237   0.437
 2076SOL    HW2 7128   5.887   0.359   0.420
 2077SOL     OW 7129   5.609   2.486   2.821
 2077SOL    HW1 7130   5.640   2.421   2.751
 2077SOL    HW2 7131   5.523   2.453   2.861
 2078SOL     OW 7132   1.172   5.810   5.833
 2078SOL    HW1 7133   1.111   5.875   5.788
 2078SOL    HW2 7134   1.143   5.717   5.812
 2079SOL     OW 7135   5.361   2.256   3.469
 2079SOL    HW1 7136   5.266   2.261   3.497
 2079SOL    HW2 7137   5.405   2.345   3.481
 2080SOL     OW 7138   1.707   6.854   4.587
 2080SOL    HW1 7139   1.802   6.824   4.574
 2080SOL    HW2 7140   1.694   6.942   4.541
 2081SOL     OW 7141   1.406   5.176   4.423
 2081SOL    HW1 7142   1.501   5.167   4.454
 2081SOL    HW2 7143   1.373   5.268   4.445
 2082SOL     OW 7144   0.598   0.379   2.430
 2082SOL    HW1 7145   0.675   0.401   2.489
 2082SOL    HW2 7146   0.537   0.315   2.477
 2083SOL     OW 7147   6.151   4.839   6.259
 2083SOL    HW1 7148   6.152   4.809   6.354
 2083SOL    HW2 7149   6.072   4.897   6.243
 2084SOL     OW 7150   1.458   3.846   3.176
 2084SOL    HW1 7151   1.403   3.915   3.223
 2084SOL    HW2 7152   1.418   3.756   3.190
 2085SOL     OW 7153   4.511   0.431   6.613
 2085SOL    HW1 7154   4.518   0.331   6.612
 2085SOL    HW2 7155   4.477   0.463   6.525
 2086SOL     OW 7156   4.269   6.268   5.669
 2086SOL    HW1 7157   4.362   6.293   5.640
 2086SOL    HW2 7158   4.270   6.243   5.766
 2087SOL     OW 7159   5.271   0.409   0.969
 2087SOL    HW1 7160   5.300   0.412   0.873
 2087SOL    HW2 7161   5.197   0.343   0.980
 2088SOL     OW 7162   1.228   6.442   0.268
 2088SOL    HW1 7163   1.181   6.495   0.339
 2088SOL    HW2 7164   1.289   6.375   0.310
 2089SOL     OW 7165   5.378   1.586   6.567
 2089SOL    HW1 7166   5.325   1.616   6.487
 2089SOL    HW2 7167   5.318   1.537   6.630
 2090SOL     OW 7168   3.940   2.747   5.655
 2090SOL    HW1 7169   3.990   2.709   5.733
 2090SOL    HW2 7170   3.886   2.826   5.684
 2091SOL     OW 7171   0.397   5.479   0.529
 2091SOL    HW1 7172   0.351   5.501   0.443
 2091SOL    HW2 7173   0.445   5.560   0.563
 2092SOL     OW 7174   5.520   3.504   0.385
 2092SOL    HW1 7175   5.579   3.551   0.319
 2092SOL    HW2 7176   5.525   3.405   0.370
 2093SOL     OW 7177   2.620   2.188   1.438
 2093SOL    HW1 7178   2.613   2.212   1.535
 2093SOL    HW2 7179   2.558   2.112   1.418
 2094SOL     OW 7180   5.778   1.866   2.172
 2094SOL    HW1 7181   5.867   1.913   2.175
 2094SOL    HW2 7182   5.713   1.914   2.231
 2095SOL     OW 7183   6.024   0.248   5.363
 2095SOL    HW1 7184   6.016   0.252   5.263
 2095SOL    HW2 7185   6.120   0.258   5.389
 2096SOL     OW 7186   4.875   3.760   3.044
 2096SOL    HW1 7187   4.861   3.851   3.082
 2096SOL    HW2 7188   4.907   3.698   3.117
 2097SOL     OW 7189   2.868   3.617   6.496
 2097SOL    HW1 7190   2.810   3.535   6.504
 2097SOL    HW2 7191   2.881   3.639   6.399
 2098SOL     OW 7192   3.657   5.768   2.038
 2098SOL    HW1 7193   3.694   5.782   2.130
 2098SOL    HW2 7194   3.623   5.674   2.030
 2099SOL     OW 7195   3.314   2.864   6.210
 2099SOL    HW1 7196   3.377   2.883   6.285
 2099SOL    HW2 7197   3.339   2.920   6.131
 2100SOL     OW 7198   4.926   2.322   6.708
 2100SOL    HW1 7199   4.874   2.328   6.623
 2100SOL    HW2 7200   5.014   2.369   6.697
 2101SOL     OW 7201   1.034   6.656   1.831
 2101SOL    HW1 7202   1.128   6.637   1.800
 2101SOL    HW2 7203   1.031   6.748   1.871
 2102SOL     OW 7204   5.536   4.502   3.126
 2102SOL    HW1 7205   5.548   4.406   3.102
 2102SOL    HW2 7206   5.567   4.517   3.221
 2103SOL     OW 7207   3.893   4.160   6.054
 2103SOL    HW1 7208   3.851   4.209   5.977
 2103SOL    HW2 7209   3.860   4.065   6.054
 2104SOL     OW 7210   1.567   4.522   1.485
 2104SOL    HW1 7211   1.632   4.563   1.548
 2104SOL    HW2 7212   1.479   4.509   1.531
 2105SOL     OW 7213   5.363   5.757   4.953
 2105SOL    HW1 7214   5.272   5.745   4.991
 2105SOL    HW2 7215   5.409   5.834   4.998
 2106SOL     OW 7216   4.926   4.053   1.284
 2106SOL    HW1 7217   4.885   3.999   1.358
 2106SOL    HW2 7218   4.975   3.992   1.222
 2107SOL     OW 7219   5.062   2.931   5.525
 2107SOL    HW1 7220   5.111   3.011   5.491
 2107SOL    HW2 7221   5.082   2.852   5.466
 2108SOL     OW 7222   6.104   5.540   4.733
 2108SOL    HW1 7223   6.176   5.601   4.765
 2108SOL    HW2 7224   6.040   5.590   4.674
 2109SOL     OW 7225   4.276   5.855   2.061
 2109SOL    HW1 7226   4.211   5.874   2.135
 2109SOL    HW2 7227   4.231   5.871   1.973
 2110SOL     OW 7228   1.773   1.483   0.354
 2110SOL    HW1 7229   1.791   1.544   0.431
 2110SOL    HW2 7230   1.808   1.524   0.270
 2111SOL     OW 7231   1.796   3.129   6.730
 2111SOL    HW1 7232   1.719   3.180   6.693
 2111SOL    HW2 7233   1.772   3.033   6.738
 2112SOL     OW 7234   5.739   3.155   0.597
 2112SOL    HW1 7235   5.717   3.253   0.601
 2112SOL    HW2 7236   5.835   3.144   0.570
 2113SOL     OW 7237   2.526   2.181   5.090
 2113SOL    HW1 7238   2.623   2.189   5.067
 2113SOL    HW2 7239   2.489   2.099   5.046
 2114SOL     OW 7240   1.989   2.160   6.292
 2114SOL    HW1 7241   2.020   2.067   6.275
 2114SOL    HW2 7242   2.001   2.215   6.209
 2115SOL     OW 7243   1.909   3.995   3.158
 2115SOL    HW1 7244   1.820   3.984   3.114
 2115SOL    HW2 7245   1.945   3.905   3.185
 2116SOL     OW 7246   0.747   5.272   3.249
 2116SOL    HW1 7247   0.661   5.317   3.270
 2116SOL    HW2 7248   0.823   5.321   3.293
 2117SOL     OW 7249   6.994   4.860   1.395
 2117SOL    HW1 7250   7.006   4.806   1.312
 2117SOL    HW2 7251   0.033   4.824   1.467
 2118SOL     OW 7252   6.487   2.882   2.701
 2118SOL    HW1 7253   6.563   2.823   2.729
 2118SOL    HW2 7254   6.519   2.976   2.692
 2119SOL     OW 7255   0.905   0.147   1.175
 2119SOL    HW1 7256   0.930   0.068   1.120
 2119SOL    HW2 7257   0.907   0.123   1.272
 2120SOL     OW 7258   0.422   5.048   3.676
 2120SOL    HW1 7259   0.358   5.000   3.616
 2120SOL    HW2 7260   0.498   4.986   3.698
 2121SOL     OW 7261   1.475   4.274   6.279
 2121SOL    HW1 7262   1.520   4.185   6.265
 2121SOL    HW2 7263   1.464   4.290   6.377
 2122SOL     OW 7264   5.646   4.382   5.617
 2122SOL    HW1 7265   5.732   4.352   5.575
 2122SOL    HW2 7266   5.660   4.397   5.715
 2123SOL     OW 7267   0.115   5.626   2.498
 2123SOL    HW1 7268   0.040   5.600   2.558
 2123SOL    HW2 7269   0.139   5.722   2.515
 2124SOL     OW 7270   3.121   2.119   1.024
 2124SOL    HW1 7271   3.110   2.172   1.108
 2124SOL    HW2 7272   3.158   2.177   0.952
 2125SOL     OW 7273   1.973   0.637   2.416
 2125SOL    HW1 7274   1.920   0.566   2.371
 2125SOL    HW2 7275   2.009   0.701   2.348
 2126SOL     OW 7276   3.472   2.151   6.269
 2126SOL    HW1 7277   3.444   2.219   6.201
 2126SOL    HW2 7278   3.393   2.124   6.324
 2127SOL     OW 7279   0.999   2.852   5.433
 2127SOL    HW1 7280   1.013   2.794   5.513
 2127SOL    HW2 7281   0.917   2.823   5.384
 2128SOL     OW 7282   6.268   3.693   4.150
 2128SOL    HW1 7283   6.304   3.786   4.144
 2128SOL    HW2 7284   6.200   3.687   4.223
 2129SOL     OW 7285   4.315   3.403   5.262
 2129SOL    HW1 7286   4.260   3.323   5.238
 2129SOL    HW2 7287   4.259   3.468   5.313
 2130SOL     OW 7288   3.781   0.271   2.797
 2130SOL    HW1 7289   3.858   0.273   2.733
 2130SOL    HW2 7290   3.813   0.288   2.890
 2131SOL     OW 7291   4.790   1.177   0.323
 2131SOL    HW1 7292   4.718   1.155   0.390
 2131SOL    HW2 7293   4.774   1.269   0.286
 2132SOL     OW 7294   3.394   0.140   1.370
 2132SOL    HW1 7295   3.449   0.198   1.310
 2132SOL    HW2 7296   3.320   0.195   1.410
 2133SOL     OW 7297   3.216   2.800   0.584
 2133SOL    HW1 7298   3.239   2.874   0.648
 2133SOL    HW2 7299   3.142   2.829   0.523
 2134SOL     OW 7300   0.419   0.887   5.878
 2134SOL    HW1 7301   0.431   0.819   5.950
 2134SOL    HW2 7302   0.506   0.901   5.830
 2135SOL     OW 7303   1.667   3.648   5.194
 2135SOL    HW1 7304   1.662   3.667   5.292
 2135SOL    HW2 7305   1.615   3.717   5.144
 2136SOL     OW 7306   0.848   3.805   4.128
 2136SOL    HW1 7307   0.895   3.789   4.215
 2136SOL    HW2 7308   0.916   3.817   4.056
 2137SOL     OW 7309   2.198   5.495   4.509
 2137SOL    HW1 7310   2.193   5.574   4.448
 2137SOL    HW2 7311   2.292   5.459   4.509
 2138SOL     OW 7312   6.202   0.512   2.835
 2138SOL    HW1 7313   6.295   0.480   2.817
 2138SOL    HW2 7314   6.205   0.604   2.874
 2139SOL     OW 7315   3.424   0.400   2.971
 2139SOL    HW1 7316   3.495   0.442   2.915
 2139SOL    HW2 7317   3.435   0.301   2.970
 2140SOL     OW 7318   3.840   6.395   4.216
 2140SOL    HW1 7319   3.846   6.358   4.123
 2140SOL    HW2 7320   3.756   6.362   4.260
 2141SOL     OW 7321   6.364   3.885   2.983
 2141SOL    HW1 7322   6.460   3.911   2.969
 2141SOL    HW2 7323   6.349   3.793   2.949
 2142SOL     OW 7324   1.625   2.428   2.986
 2142SOL    HW1 7325   1.547   2.487   3.009
 2142SOL    HW2 7326   1.633   2.421   2.886
 2143SOL     OW 7327   2.595   4.561   1.145
 2143SOL    HW1 7328   2.549   4.603   1.224
 2143SOL    HW2 7329   2.536   4.566   1.065
 2144SOL     OW 7330   1.072   5.308   4.300
 2144SOL    HW1 7331   1.038   5.395   4.265
 2144SOL    HW2 7332   1.110   5.320   4.391
 2145SOL     OW 7333   4.071   6.296   4.350
 2145SOL    HW1 7334   4.055   6.309   4.448
 2145SOL    HW2 7335   3.984   6.305   4.301
 2146SOL     OW 7336   2.771   3.715   1.777
 2146SOL    HW1 7337   2.782   3.668   1.690
 2146SOL    HW2 7338   2.855   3.705   1.831
 2147SOL     OW 7339   6.425   1.645   5.575
 2147SOL    HW1 7340   6.508   1.645   5.631
 2147SOL    HW2 7341   6.345   1.631   5.633
 2148SOL     OW 7342   5.532   2.009   5.558
 2148SOL    HW1 7343   5.550   1.998   5.656
 2148SOL    HW2 7344   5.607   2.060   5.516
 2149SOL     OW 7345   3.437   2.499   1.154
 2149SOL    HW1 7346   3.473   2.406   1.144
 2149SOL    HW2 7347   3.429   2.520   1.251
 2150SOL     OW 7348   2.980   2.075   2.620
 2150SOL    HW1 7349   3.062   2.017   2.623
 2150SOL    HW2 7350   2.907   2.032   2.675
 2151SOL     OW 7351   1.579   0.315   4.982
 2151SOL    HW1 7352   1.520   0.273   4.913
 2151SOL    HW2 7353   1.533   0.395   5.021
 2152SOL     OW 7354   3.784   5.671   1.089
 2152SOL    HW1 7355   3.737   5.584   1.072
 2152SOL    HW2 7356   3.735   5.723   1.158
 2153SOL     OW 7357   3.631   0.502   2.788
 2153SOL    HW1 7358   3.685   0.573   2.742
 2153SOL    HW2 7359   3.674   0.413   2.775
 2154SOL     OW 7360   4.594   0.048   5.077
 2154SOL    HW1 7361   4.643   0.107   5.014
 2154SOL    HW2 7362   4.503   0.029   5.042
 2155SOL     OW 7363   2.321   5.823   0.122
 2155SOL    HW1 7364   2.228   5.839   0.152
 2155SOL    HW2 7365   2.385   5.876   0.178
 2156SOL     OW 7366   2.303   1.589   4.724
 2156SOL    HW1 7367   2.298   1.627   4.817
 2156SOL    HW2 7368   2.224   1.618   4.672
 2157SOL     OW 7369   6.097   0.722   3.546
 2157SOL    HW1 7370   6.170   0.790   3.543
 2157SOL    HW2 7371   6.099   0.667   3.463
 2158SOL     OW 7372   4.092   5.848   0.939
 2158SOL    HW1 7373   4.027   5.782   0.901
 2158SOL    HW2 7374   4.057   5.941   0.924
 2159SOL     OW 7375   1.856   6.366   5.212
 2159SOL    HW1 7376   1.848   6.309   5.130
 2159SOL    HW2 7377   1.880   6.309   5.290
 2160SOL     OW 7378   3.794   3.935   0.319
 2160SOL    HW1 7379   3.718   3.950   0.382
 2160SOL    HW2 7380   3.803   4.014   0.258
 2161SOL     OW 7381   5.565   5.079   3.156
 2161SOL    HW1 7382   5.530   5.152   3.097
 2161SOL    HW2 7383   5.544   4.990   3.115
 2162SOL     OW 7384   2.054   0.985   1.588
 2162SOL    HW1 7385   2.151   1.002   1.601
 2162SOL    HW2 7386   2.041   0.899   1.539
 2163SOL     OW 7387   0.986   4.445   6.067
 2163SOL    HW1 7388   0.995   4.464   5.969
 2163SOL    HW2 7389   1.008   4.349   6.084
 2164SOL     OW 7390   1.452   3.245   6.992
 2164SOL    HW1 7391   1.415   3.282   0.058
 2164SOL    HW2 7392   1.534   3.191   7.012
 2165SOL     OW 7393   0.459   2.155   2.705
 2165SOL    HW1 7394   0.477   2.161   2.607
 2165SOL    HW2 7395   0.419   2.242   2.737
 2166SOL     OW 7396   1.494   2.341   5.115
 2166SOL    HW1 7397   1.497   2.341   5.015
 2166SOL    HW2 7398   1.416   2.286   5.146
 2167SOL     OW 7399   1.771   1.476   3.749
 2167SOL    HW1 7400   1.828   1.486   3.831
 2167SOL    HW2 7401   1.682   1.520   3.765
 2168SOL     OW 7402   0.913   1.560   3.849
 2168SOL    HW1 7403   0.823   1.560   3.893
 2168SOL    HW2 7404   0.982   1.532   3.914
 2169SOL     OW 7405   5.409   1.309   6.229
 2169SOL    HW1 7406   5.416   1.351   6.139
 2169SOL    HW2 7407   5.493   1.327   6.281
 2170SOL     OW 7408   6.699   5.157   5.719
 2170SOL    HW1 7409   6.653   5.081   5.765
 2170SOL    HW2 7410   6.690   5.240   5.775
 2171SOL     OW 7411   0.187   4.210   1.807
 2171SOL    HW1 7412   0.203   4.125   1.857
 2171SOL    HW2 7413   0.252   4.280   1.838
 2172SOL     OW 7414   2.237   2.749   0.427
 2172SOL    HW1 7415   2.313   2.687   0.443
 2172SOL    HW2 7416   2.196   2.775   0.514
 2173SOL     OW 7417   3.978   0.689   5.391
 2173SOL    HW1 7418   4.013   0.685   5.297
 2173SOL    HW2 7419   4.002   0.603   5.438
 2174SOL     OW 7420   5.309   6.167   5.171
 2174SOL    HW1 7421   5.297   6.235   5.098
 2174SOL    HW2 7422   5.355   6.087   5.133
 2175SOL     OW 7423   2.537   2.548   4.237
 2175SOL    HW1 7424   2.454   2.498   4.260
 2175SOL    HW2 7425   2.571   2.595   4.318
 2176SOL     OW 7426   0.449   2.047   0.495
 2176SOL    HW1 7427   0.374   2.005   0.444
 2176SOL    HW2 7428   0.454   2.144   0.473
 2177SOL     OW 7429   5.740   1.782   3.402
 2177SOL    HW1 7430   5.678   1.706   3.381
 2177SOL    HW2 7431   5.831   1.746   3.423
 2178SOL     OW 7432   1.825   2.435   0.864
 2178SOL    HW1 7433   1.892   2.364   0.884
 2178SOL    HW2 7434   1.780   2.415   0.777
 2179SOL     OW 7435   2.011   5.248   4.969
 2179SOL    HW1 7436   1.958   5.267   5.052
 2179SOL    HW2 7437   1.952   5.261   4.889
 2180SOL     OW 7438   1.952   2.861   1.971
 2180SOL    HW1 7439   2.012   2.941   1.976
 2180SOL    HW2 7440   1.989   2.796   1.904
 2181SOL     OW 7441   4.169   5.044   5.070
 2181SOL    HW1 7442   4.239   5.057   5.141
 2181SOL    HW2 7443   4.194   4.965   5.013
 2182SOL     OW 7444   1.379   3.410   4.631
 2182SOL    HW1 7445   1.332   3.371   4.551
 2182SOL    HW2 7446   1.419   3.498   4.606
 2183SOL     OW 7447   2.954   4.113   6.168
 2183SOL    HW1 7448   2.944   4.077   6.261
 2183SOL    HW2 7449   3.051   4.125   6.147
 2184SOL     OW 7450   4.609   2.196   0.019
 2184SOL    HW1 7451   4.685   2.193   0.084
 2184SOL    HW2 7452   4.528   2.233   0.064
 2185SOL     OW 7453   1.576   2.298   0.772
 2185SOL    HW1 7454   1.513   2.367   0.805
 2185SOL    HW2 7455   1.594   2.232   0.845
 2186SOL     OW 7456   0.433   5.897   2.136
 2186SOL    HW1 7457   0.473   5.837   2.067
 2186SOL    HW2 7458   0.340   5.867   2.155
 2187SOL     OW 7459   6.647   0.810   2.851
 2187SOL    HW1 7460   6.674   0.785   2.758
 2187SOL    HW2 7461   6.559   0.858   2.849
 2188SOL     OW 7462   6.383   6.520   5.194
 2188SOL    HW1 7463   6.305   6.561   5.240
 2188SOL    HW2 7464   6.458   6.509   5.259
 2189SOL     OW 7465   1.769   0.188   0.530
 2189SOL    HW1 7466   1.819   0.177   0.444
 2189SOL    HW2 7467   1.829   0.167   0.606
 2190SOL     OW 7468   0.107   2.768   2.397
 2190SOL    HW1 7469   0.038   2.705   2.363
 2190SOL    HW2 7470   0.063   2.838   2.454
 2191SOL     OW 7471   2.857   2.286   6.768
 2191SOL    HW1 7472   2.836   2.196   6.806
 2191SOL    HW2 7473   2.956   2.296   6.757
 2192SOL     OW 7474   3.961   1.231   2.766
 2192SOL    HW1 7475   3.997   1.258   2.855
 2192SOL    HW2 7476   3.891   1.296   2.737
 2193SOL     OW 7477   6.539   5.552   6.230
 2193SOL    HW1 7478   6.550   5.647   6.260
 2193SOL    HW2 7479   6.487   5.502   6.300
 2194SOL     OW 7480   2.688   4.662   6.241
 2194SOL    HW1 7481   2.686   4.565   6.269
 2194SOL    HW2 7482   2.748   4.713   6.303
 2195SOL     OW 7483   0.266   0.402   3.933
 2195SOL    HW1 7484   0.243   0.336   4.005
 2195SOL    HW2 7485   0.186   0.414   3.874
 2196SOL     OW 7486   3.259   0.163   4.997
 2196SOL    HW1 7487   3.336   0.151   5.059
 2196SOL    HW2 7488   3.180   0.197   5.048
 2197SOL     OW 7489   3.282   3.412   0.962
 2197SOL    HW1 7490   3.190   3.389   0.930
 2197SOL    HW2 7491   3.275   3.464   1.048
 2198SOL     OW 7492   6.698   1.638   0.381
 2198SOL    HW1 7493   6.632   1.568   0.408
 2198SOL    HW2 7494   6.658   1.729   0.392
 2199SOL     OW 7495   5.280   1.099   3.227
 2199SOL    HW1 7496   5.296   1.139   3.137
 2199SOL    HW2 7497   5.224   1.016   3.218
 2200SOL     OW 7498   2.437   0.792   5.066
 2200SOL    HW1 7499   2.533   0.784   5.039
 2200SOL    HW2 7500   2.398   0.876   5.027
 2201SOL     OW 7501   6.445   2.682   3.684
 2201SOL    HW1 7502   6.522   2.722   3.734
 2201SOL    HW2 7503   6.406   2.752   3.623
 2202SOL     OW 7504   2.787   5.097   2.047
 2202SOL    HW1 7505   2.864   5.160   2.037
 2202SOL    HW2 7506   2.823   5.004   2.062
 2203SOL     OW 7507   1.809   2.588   1.306
 2203SOL    HW1 7508   1.855   2.626   1.386
 2203SOL    HW2 7509   1.854   2.621   1.223
 2204SOL     OW 7510   3.918   0.890   0.674
 2204SOL    HW1 7511   3.941   0.794   0.657
 2204SOL    HW2 7512   4.002   0.943   0.682
 2205SOL     OW 7513   1.236   0.548   5.984
 2205SOL    HW1 7514   1.234   0.638   5.940
 2205SOL    HW2 7515   1.238   0.560   6.083
 2206SOL     OW 7516   3.343   4.486   6.430
 2206SOL    HW1 7517   3.366   4.553   6.501
 2206SOL    HW2 7518   3.352   4.529   6.340
 2207SOL     OW 7519   3.027   4.399   6.865
 2207SOL    HW1 7520   3.083   4.394   6.782
 2207SOL    HW2 7521   2.931   4.382   6.842
 2208SOL     OW 7522   1.666   6.573   2.584
 2208SOL    HW1 7523   1.729   6.612   2.651
 2208SOL    HW2 7524   1.717   6.539   2.505
 2209SOL     OW 7525   1.438   6.086   5.290
 2209SOL    HW1 7526   1.393   6.145   5.223
 2209SOL    HW2 7527   1.411   6.114   5.382
 2210SOL     OW 7528   6.688   5.025   3.891
 2210SOL    HW1 7529   6.715   5.093   3.958
 2210SOL    HW2 7530   6.678   5.069   3.801
 2211SOL     OW 7531   5.230   1.096   0.586
 2211SOL    HW1 7532   5.174   1.118   0.506
 2211SOL    HW2 7533   5.213   1.164   0.657
 2212SOL     OW 7534   1.381   6.267   0.038
 2212SOL    HW1 7535   1.388   6.366   0.038
 2212SOL    HW2 7536   1.296   6.239   7.013
 2213SOL     OW 7537   3.677   2.882   5.140
 2213SOL    HW1 7538   3.653   2.961   5.083
 2213SOL    HW2 7539   3.709   2.915   5.229
 2214SOL     OW 7540   3.464   2.847   4.865
 2214SOL    HW1 7541   3.495   2.780   4.933
 2214SOL    HW2 7542   3.389   2.900   4.903
 2215SOL     OW 7543   6.828   2.024   0.341
 2215SOL    HW1 7544   6.850   2.004   0.245
 2215SOL    HW2 7545   6.741   1.980   0.364
 2216SOL     OW 7546   2.009   0.874   5.921
 2216SOL    HW1 7547   1.983   0.898   6.015
 2216SOL    HW2 7548   2.029   0.958   5.870
 2217SOL     OW 7549   4.033   6.412   1.527
 2217SOL    HW1 7550   4.129   6.401   1.502
 2217SOL    HW2 7551   4.020   6.503   1.568
 2218SOL     OW 7552   0.488   6.670   0.159
 2218SOL    HW1 7553   0.489   6.769   0.174
 2218SOL    HW2 7554   0.541   6.649   0.077
 2219SOL     OW 7555   5.666   1.646   1.718
 2219SOL    HW1 7556   5.724   1.715   1.761
 2219SOL    HW2 7557   5.574   1.681   1.707
 2220SOL     OW 7558   1.139   0.340   4.366
 2220SOL    HW1 7559   1.042   0.315   4.373
 2220SOL    HW2 7560   1.184   0.282   4.298
 2221SOL     OW 7561   5.811   0.770   5.158
 2221SOL    HW1 7562   5.807   0.679   5.199
 2221SOL    HW2 7563   5.885   0.772   5.090
 2222SOL     OW 7564   4.473   0.281   0.557
 2222SOL    HW1 7565   4.413   0.286   0.637
 2222SOL    HW2 7566   4.492   0.186   0.535
 2223SOL     OW 7567   6.143   0.978   4.965
 2223SOL    HW1 7568   6.143   1.069   5.006
 2223SOL    HW2 7569   6.197   0.979   4.881
 2224SOL     OW 7570   1.924   4.024   1.231
 2224SOL    HW1 7571   1.936   4.016   1.330
 2224SOL    HW2 7572   1.947   4.118   1.203
 2225SOL     OW 7573   6.193   6.341   3.225
 2225SOL    HW1 7574   6.246   6.409   3.275
 2225SOL    HW2 7575   6.096   6.367   3.226
 2226SOL     OW 7576   3.872   4.489   1.072
 2226SOL    HW1 7577   3.866   4.585   1.101
 2226SOL    HW2 7578   3.792   4.439   1.104
 2227SOL     OW 7579   5.694   3.456   0.606
 2227SOL    HW1 7580   5.782   3.496   0.581
 2227SOL    HW2 7581   5.631   3.459   0.528
 2228SOL     OW 7582   3.107   5.145   1.248
 2228SOL    HW1 7583   3.066   5.175   1.162
 2228SOL    HW2 7584   3.036   5.118   1.312
 2229SOL     OW 7585   4.408   1.630   4.247
 2229SOL    HW1 7586   4.449   1.563   4.308
 2229SOL    HW2 7587   4.439   1.612   4.153
 2230SOL     OW 7588   5.793   5.995   6.669
 2230SOL    HW1 7589   5.731   5.941   6.612
 2230SOL    HW2 7590   5.799   5.954   6.760
 2231SOL     OW 7591   0.481   0.463   2.175
 2231SOL    HW1 7592   0.443   0.387   2.122
 2231SOL    HW2 7593   0.580   0.454   2.180
 2232SOL     OW 7594   0.517   3.052   4.937
 2232SOL    HW1 7595   0.527   3.052   4.838
 2232SOL    HW2 7596   0.604   3.026   4.980
 2233SOL     OW 7597   2.362   4.296   0.856
 2233SOL    HW1 7598   2.434   4.317   0.790
 2233SOL    HW2 7599   2.370   4.201   0.886
 2234SOL     OW 7600   4.213   2.091   1.791
 2234SOL    HW1 7601   4.201   2.174   1.736
 2234SOL    HW2 7602   4.174   2.013   1.743
 2235SOL     OW 7603   2.659   0.188   1.832
 2235SOL    HW1 7604   2.575   0.159   1.787
 2235SOL    HW2 7605   2.737   0.173   1.771
 2236SOL     OW 7606   1.358   4.439   6.731
 2236SOL    HW1 7607   1.351   4.486   6.819
 2236SOL    HW2 7608   1.315   4.495   6.660
 2237SOL     OW 7609   5.714   4.941   3.806
 2237SOL    HW1 7610   5.805   4.974   3.827
 2237SOL    HW2 7611   5.697   4.856   3.856
 2238SOL     OW 7612   5.355   4.620   0.884
 2238SOL    HW1 7613   5.396   4.545   0.936
 2238SOL    HW2 7614   5.351   4.702   0.941
 2239SOL     OW 7615   3.449   4.892   3.114
 2239SOL    HW1 7616   3.461   4.982   3.155
 2239SOL    HW2 7617   3.433   4.824   3.185
 2240SOL     OW 7618   4.880   5.716   3.571
 2240SOL    HW1 7619   4.852   5.808   3.541
 2240SOL    HW2 7620   4.979   5.712   3.577
 2241SOL     OW 7621   0.258   6.498   2.999
 2241SOL    HW1 7622   0.262   6.415   3.055
 2241SOL    HW2 7623   0.340   6.503   2.941
 2242SOL     OW 7624   5.323   1.774   3.003
 2242SOL    HW1 7625   5.337   1.760   3.101
 2242SOL    HW2 7626   5.379   1.709   2.952
 2243SOL     OW 7627   2.777   6.304   5.803
 2243SOL    HW1 7628   2.859   6.349   5.767
 2243SOL    HW2 7629   2.804   6.233   5.868
 2244SOL     OW 7630   2.484   6.383   2.334
 2244SOL    HW1 7631   2.568   6.435   2.347
 2244SOL    HW2 7632   2.463   6.376   2.236
 2245SOL     OW 7633   0.420   1.804   1.690
 2245SOL    HW1 7634   0.473   1.871   1.743
 2245SOL    HW2 7635   0.419   1.831   1.594
 2246SOL     OW 7636   0.666   1.782   5.655
 2246SOL    HW1 7637   0.610   1.829   5.587
 2246SOL    HW2 7638   0.607   1.727   5.715
 2247SOL     OW 7639   3.308   3.418   5.009
 2247SOL    HW1 7640   3.347   3.329   4.985
 2247SOL    HW2 7641   3.229   3.437   4.950
 2248SOL     OW 7642   4.221   4.298   5.867
 2248SOL    HW1 7643   4.140   4.307   5.808
 2248SOL    HW2 7644   4.233   4.201   5.891
 2249SOL     OW 7645   6.436   6.206   2.668
 2249SOL    HW1 7646   6.518   6.262   2.653
 2249SOL    HW2 7647   6.452   6.144   2.745
 2250SOL     OW 7648   4.463   3.148   6.868
 2250SOL    HW1 7649   4.436   3.223   6.928
 2250SOL    HW2 7650   4.497   3.072   6.923
 2251SOL     OW 7651   5.344   0.816   0.273
 2251SOL    HW1 7652   5.362   0.793   0.368
 2251SOL    HW2 7653   5.406   0.764   0.213
 2252SOL     OW 7654   5.276   2.597   2.704
 2252SOL    HW1 7655   5.274   2.563   2.610
 2252SOL    HW2 7656   5.331   2.536   2.761
 2253SOL     OW 7657   1.110   3.517   6.668
 2253SOL    HW1 7658   1.092   3.612   6.643
 2253SOL    HW2 7659   1.116   3.461   6.586
 2254SOL     OW 7660   3.795   3.564   4.976
 2254SOL    HW1 7661   3.718   3.546   5.037
 2254SOL    HW2 7662   3.833   3.654   4.995
 2255SOL     OW 7663   5.150   2.525   6.267
 2255SOL    HW1 7664   5.052   2.537   6.247
 2255SOL    HW2 7665   5.204   2.580   6.203
 2256SOL     OW 7666   4.889   5.800   1.200
 2256SOL    HW1 7667   4.913   5.846   1.114
 2256SOL    HW2 7668   4.827   5.858   1.252
 2257SOL     OW 7669   0.361   2.059   3.946
 2257SOL    HW1 7670   0.400   2.150   3.960
 2257SOL    HW2 7671   0.427   2.001   3.899
 2258SOL     OW 7672   1.364   5.583   5.764
 2258SOL    HW1 7673   1.408   5.647   5.827
 2258SOL    HW2 7674   1.401   5.596   5.672
 2259SOL     OW 7675   5.320   3.593   6.765
 2259SOL    HW1 7676   5.254   3.662   6.732
 2259SOL    HW2 7677   5.372   3.631   6.841
 2260SOL     OW 7678   5.855   4.289   3.024
 2260SOL    HW1 7679   5.784   4.236   3.071
 2260SOL    HW2 7680   5.822   4.381   3.005
 2261SOL     OW 7681   6.724   5.579   6.951
 2261SOL    HW1 7682   6.742   5.618   0.023
 2261SOL    HW2 7683   6.693   5.484   6.962
 2262SOL     OW 7684   5.507   1.455   1.924
 2262SOL    HW1 7685   5.520   1.425   2.019
 2262SOL    HW2 7686   5.595   1.472   1.881
 2263SOL     OW 7687   2.635   5.690   6.934
 2263SOL    HW1 7688   2.639   5.644   0.004
 2263SOL    HW2 7689   2.626   5.622   6.861
 2264SOL     OW 7690   3.479   3.676   0.809
 2264SOL    HW1 7691   3.570   3.657   0.772
 2264SOL    HW2 7692   3.409   3.639   0.748
 2265SOL     OW 7693   0.635   0.842   4.339
 2265SOL    HW1 7694   0.711   0.865   4.400
 2265SOL    HW2 7695   0.549   0.844   4.391
 2266SOL     OW 7696   5.969   2.176   1.118
 2266SOL    HW1 7697   6.018   2.230   1.186
 2266SOL    HW2 7698   5.975   2.079   1.141
 2267SOL     OW 7699   4.952   2.781   4.933
 2267SOL    HW1 7700   4.953   2.792   5.032
 2267SOL    HW2 7701   4.858   2.790   4.899
 2268SOL     OW 7702   6.477   3.848   6.539
 2268SOL    HW1 7703   6.384   3.836   6.505
 2268SOL    HW2 7704   6.496   3.779   6.609
 2269SOL     OW 7705   6.324   5.734   4.846
 2269SOL    HW1 7706   6.346   5.792   4.768
 2269SOL    HW2 7707   6.281   5.789   4.917
 2270SOL     OW 7708   3.412   2.393   6.111
 2270SOL    HW1 7709   3.454   2.446   6.185
 2270SOL    HW2 7710   3.465   2.407   6.027
 2271SOL     OW 7711   6.045   4.482   0.497
 2271SOL    HW1 7712   5.961   4.450   0.540
 2271SOL    HW2 7713   6.080   4.411   0.435
 2272SOL     OW 7714   6.222   2.018   6.181
 2272SOL    HW1 7715   6.159   1.940   6.183
 2272SOL    HW2 7716   6.180   2.093   6.130
 2273SOL     OW 7717   1.919   0.188   2.264
 2273SOL    HW1 7718   1.868   0.163   2.182
 2273SOL    HW2 7719   2.002   0.132   2.270
 2274SOL     OW 7720   0.719   3.116   6.159
 2274SOL    HW1 7721   0.630   3.104   6.205
 2274SOL    HW2 7722   0.706   3.166   6.074
 2275SOL     OW 7723   6.280   0.667   3.748
 2275SOL    HW1 7724   6.210   0.664   3.677
 2275SOL    HW2 7725   6.326   0.578   3.754
 2276SOL     OW 7726   2.694   5.276   1.306
 2276SOL    HW1 7727   2.740   5.188   1.296
 2276SOL    HW2 7728   2.722   5.319   1.392
 2277SOL     OW 7729   3.612   3.747   5.202
 2277SOL    HW1 7730   3.569   3.659   5.223
 2277SOL    HW2 7731   3.711   3.739   5.214
 2278SOL     OW 7732   7.005   4.841   3.837
 2278SOL    HW1 7733   6.928   4.783   3.862
 2278SOL    HW2 7734   0.001   4.835   3.738
 2279SOL     OW 7735   4.746   5.855   4.890
 2279SOL    HW1 7736   4.756   5.864   4.791
 2279SOL    HW2 7737   4.830   5.888   4.935
 2280SOL     OW 7738   6.743   6.548   4.016
 2280SOL    HW1 7739   6.781   6.591   4.097
 2280SOL    HW2 7740   6.800   6.569   3.936
 2281SOL     OW 7741   3.072   1.285   1.491
 2281SOL    HW1 7742   3.093   1.189   1.513
 2281SOL    HW2 7743   3.082   1.299   1.393
 2282SOL     OW 7744   4.692   6.391   5.063
 2282SOL    HW1 7745   4.614   6.391   5.000
 2282SOL    HW2 7746   4.662   6.358   5.153
 2283SOL     OW 7747   6.978   4.690   1.937
 2283SOL    HW1 7748   6.968   4.686   2.037
 2283SOL    HW2 7749   6.888   4.698   1.895
 2284SOL     OW 7750   2.064   2.397   0.453
 2284SOL    HW1 7751   2.034   2.460   0.381
 2284SOL    HW2 7752   2.060   2.443   0.541
 2285SOL     OW 7753   1.987   2.206   0.942
 2285SOL    HW1 7754   1.984   2.268   1.020
 2285SOL    HW2 7755   2.050   2.130   0.961
 2286SOL     OW 7756   6.867   0.520   4.596
 2286SOL    HW1 7757   6.895   0.429   4.625
 2286SOL    HW2 7758   6.803   0.513   4.519
 2287SOL     OW 7759   1.594   1.366   3.298
 2287SOL    HW1 7760   1.687   1.331   3.285
 2287SOL    HW2 7761   1.597   1.465   3.311
 2288SOL     OW 7762   6.186   5.128   4.436
 2288SOL    HW1 7763   6.261   5.138   4.501
 2288SOL    HW2 7764   6.175   5.212   4.383
 2289SOL     OW 7765   6.941   4.491   2.643
 2289SOL    HW1 7766   6.864   4.445   2.687
 2289SOL    HW2 7767   6.925   4.589   2.640
 2290SOL     OW 7768   1.399   3.777   1.939
 2290SOL    HW1 7769   1.305   3.759   1.967
 2290SOL    HW2 7770   1.453   3.693   1.946
 2291SOL     OW 7771   2.423   2.676   6.728
 2291SOL    HW1 7772   2.389   2.767   6.750
 2291SOL    HW2 7773   2.436   2.624   6.812
 2292SOL     OW 7774   5.598   3.005   4.204
 2292SOL    HW1 7775   5.505   3.029   4.233
 2292SOL    HW2 7776   5.635   3.078   4.146
 2293SOL     OW 7777   5.400   6.800   0.944
 2293SOL    HW1 7778   5.382   6.718   0.891
 2293SOL    HW2 7779   5.404   6.777   1.041
 2294SOL     OW 7780   3.432   0.663   6.063
 2294SOL    HW1 7781   3.414   0.664   6.161
 2294SOL    HW2 7782   3.412   0.752   6.024
 2295SOL     OW 7783   0.417   1.269   2.740
 2295SOL    HW1 7784   0.351   1.195   2.728
 2295SOL    HW2 7785   0.510   1.233   2.725
 2296SOL     OW 7786   3.295   5.518   2.094
 2296SOL    HW1 7787   3.238   5.437   2.112
 2296SOL    HW2 7788   3.390   5.498   2.120
 2297SOL     OW 7789   4.886   4.213   5.578
 2297SOL    HW1 7790   4.915   4.285   5.641
 2297SOL    HW2 7791   4.836   4.254   5.502
 2298SOL     OW 7792   4.163   3.444   1.828
 2298SOL    HW1 7793   4.146   3.376   1.757
 2298SOL    HW2 7794   4.114   3.528   1.806
 2299SOL     OW 7795   4.838   4.957   5.121
 2299SOL    HW1 7796   4.821   5.025   5.051
 2299SOL    HW2 7797   4.752   4.928   5.162
 2300SOL     OW 7798   2.372   6.017   2.068
 2300SOL    HW1 7799   2.357   6.068   1.982
 2300SOL    HW2 7800   2.470   6.000   2.079
 2301SOL     OW 7801   3.575   2.931   3.049
 2301SOL    HW1 7802   3.512   2.950   2.973
 2301SOL    HW2 7803   3.534   2.963   3.135
 2302SOL     OW 7804   3.154   0.261   1.423
 2302SOL    HW1 7805   3.071   0.235   1.373
 2302SOL    HW2 7806   3.133   0.336   1.485
 2303SOL     OW 7807   2.247   3.205   6.690
 2303SOL    HW1 7808   2.332   3.153   6.701
 2303SOL    HW2 7809   2.175   3.144   6.656
 2304SOL     OW 7810   5.434   6.779   4.470
 2304SOL    HW1 7811   5.446   6.698   4.414
 2304SOL    HW2 7812   5.516   6.794   4.525
 2305SOL     OW 7813   2.873   6.768   2.576
 2305SOL    HW1 7814   2.865   6.672   2.603
 2305SOL    HW2 7815   2.827   6.782   2.488
 2306SOL     OW 7816   1.928   5.089   1.796
 2306SOL    HW1 7817   2.000   5.057   1.857
 2306SOL    HW2 7818   1.968   5.119   1.710
 2307SOL     OW 7819   6.725   3.338   4.251
 2307SOL    HW1 7820   6.653   3.295   4.306
 2307SOL    HW2 7821   6.684   3.373   4.167
 2308SOL     OW 7822   1.784   4.789   1.840
 2308SOL    HW1 7823   1.813   4.818   1.931
 2308SOL    HW2 7824   1.864   4.757   1.788
 2309SOL     OW 7825   1.550   0.758   5.835
 2309SOL    HW1 7826   1.647   0.744   5.813
 2309SOL    HW2 7827   1.541   0.773   5.933
 2310SOL     OW 7828   5.825   5.419   0.388
 2310SOL    HW1 7829   5.817   5.406   0.289
 2310SOL    HW2 7830   5.803   5.514   0.410
 2311SOL     OW 7831   2.386   0.056   1.513
 2311SOL    HW1 7832   2.410   0.078   1.419
 2311SOL    HW2 7833   2.439   6.996   1.543
 2312SOL     OW 7834   4.262   6.218   2.707
 2312SOL    HW1 7835   4.263   6.126   2.745
 2312SOL    HW2 7836   4.337   6.271   2.747
 2313SOL     OW 7837   6.050   5.630   1.479
 2313SOL    HW1 7838   5.952   5.645   1.469
 2313SOL    HW2 7839   6.095   5.715   1.505
 2314SOL     OW 7840   5.394   6.272   3.653
 2314SOL    HW1 7841   5.399   6.308   3.746
 2314SOL    HW2 7842   5.471   6.308   3.600
 2315SOL     OW 7843   5.643   3.342   6.173
 2315SOL    HW1 7844   5.690   3.428   6.151
 2315SOL    HW2 7845   5.574   3.323   6.103
 2316SOL     OW 7846   4.613   1.563   3.769
 2316SOL    HW1 7847   4.632   1.472   3.804
 2316SOL    HW2 7848   4.531   1.560   3.711
 2317SOL     OW 7849   0.774   6.675   3.061
 2317SOL    HW1 7850   0.858   6.623   3.044
 2317SOL    HW2 7851   0.716   6.672   2.979
 2318SOL     OW 7852   1.313   2.730   3.815
 2318SOL    HW1 7853   1.244   2.727   3.742
 2318SOL    HW2 7854   1.321   2.640   3.857
 2319SOL     OW 7855   1.524   4.737   4.368
 2319SOL    HW1 7856   1.617   4.754   4.400
 2319SOL    HW2 7857   1.459   4.788   4.425
 2320SOL     OW 7858   0.955   2.332   4.789
 2320SOL    HW1 7859   0.918   2.241   4.770
 2320SOL    HW2 7860   0.892   2.402   4.753
 2321SOL     OW 7861   2.722   0.199   6.632
 2321SOL    HW1 7862   2.777   0.282   6.623
 2321SOL    HW2 7863   2.638   0.220   6.681
 2322SOL     OW 7864   3.125   1.668   4.936
 2322SOL    HW1 7865   3.118   1.623   4.847
 2322SOL    HW2 7866   3.220   1.667   4.967
 2323SOL     OW 7867   2.486   4.877   1.927
 2323SOL    HW1 7868   2.536   4.865   2.012
 2323SOL    HW2 7869   2.418   4.804   1.917
 2324SOL     OW 7870   5.937   6.297   1.400
 2324SOL    HW1 7871   6.029   6.260   1.413
 2324SOL    HW2 7872   5.873   6.222   1.385
 2325SOL     OW 7873   1.210   4.570   2.336
 2325SOL    HW1 7874   1.192   4.533   2.428
 2325SOL    HW2 7875   1.270   4.508   2.286
 2326SOL     OW 7876   3.474   5.543   5.881
 2326SOL    HW1 7877   3.408   5.507   5.815
 2326SOL    HW2 7878   3.512   5.468   5.935
 2327SOL     OW 7879   6.220   3.281   5.187
 2327SOL    HW1 7880   6.207   3.209   5.119
 2327SOL    HW2 7881   6.195   3.247   5.277
 2328SOL     OW 7882   3.584   1.791   2.899
 2328SOL    HW1 7883   3.560   1.886   2.877
 2328SOL    HW2 7884   3.626   1.788   2.989
 2329SOL     OW 7885   1.779   3.574   4.791
 2329SOL    HW1 7886   1.819   3.630   4.863
 2329SOL    HW2 7887   1.685   3.551   4.814
 2330SOL     OW 7888   1.139   3.827   2.042
 2330SOL    HW1 7889   1.105   3.850   1.951
 2330SOL    HW2 7890   1.077   3.863   2.112
 2331SOL     OW 7891   5.965   4.373   1.178
 2331SOL    HW1 7892   5.907   4.442   1.135
 2331SOL    HW2 7893   6.031   4.417   1.238
 2332SOL     OW 7894   3.954   1.879   5.506
 2332SOL    HW1 7895   3.901   1.919   5.581
 2332SOL    HW2 7896   4.046   1.857   5.537
 2333SOL     OW 7897   0.533   6.025   3.004
 2333SOL    HW1 7898   0.552   5.960   3.077
 2333SOL    HW2 7899   0.548   5.981   2.915
 2334SOL     OW 7900   2.155   0.585   6.744
 2334SOL    HW1 7901   2.203   0.548   6.824
 2334SOL    HW2 7902   2.200   0.552   6.661
 2335SOL     OW 7903   5.872   1.149   2.952
 2335SOL    HW1 7904   5.964   1.185   2.936
 2335SOL    HW2 7905   5.876   1.079   3.024
 2336SOL     OW 7906   4.614   1.731   4.919
 2336SOL    HW1 7907   4.594   1.824   4.888
 2336SOL    HW2 7908   4.539   1.699   4.977
 2337SOL     OW 7909   4.399   0.872   3.246
 2337SOL    HW1 7910   4.491   0.844   3.216
 2337SOL    HW2 7911   4.388   0.970   3.231
 2338SOL     OW 7912   1.474   1.371   5.974
 2338SOL    HW1 7913   1.516   1.411   6.055
 2338SOL    HW2 7914   1.434   1.443   5.918
 2339SOL     OW 7915   3.640   4.193   5.026
 2339SOL    HW1 7916   3.738   4.182   5.008
 2339SOL    HW2 7917   3.587   4.149   4.953
 2340SOL     OW 7918   5.526   4.861   6.579
 2340SOL    HW1 7919   5.496   4.837   6.672
 2340SOL    HW2 7920   5.590   4.791   6.546
 2341SOL     OW 7921   5.840   4.587   1.359
 2341SOL    HW1 7922   5.802   4.628   1.442
 2341SOL    HW2 7923   5.939   4.594   1.360
 2342SOL     OW 7924   0.254   6.197   5.084
 2342SOL    HW1 7925   0.341   6.178   5.128
 2342SOL    HW2 7926   0.242   6.296   5.075
 2343SOL     OW 7927   1.556   6.223   2.038
 2343SOL    HW1 7928   1.570   6.250   1.943
 2343SOL    HW2 7929   1.623   6.153   2.063
 2344SOL     OW 7930   1.910   0.488   1.199
 2344SOL    HW1 7931   1.866   0.542   1.272
 2344SOL    HW2 7932   1.891   0.391   1.213
 2345SOL     OW 7933   2.745   5.330   5.480
 2345SOL    HW1 7934   2.786   5.416   5.448
 2345SOL    HW2 7935   2.706   5.343   5.571
 2346SOL     OW 7936   4.699   2.840   4.813
 2346SOL    HW1 7937   4.667   2.935   4.819
 2346SOL    HW2 7938   4.650   2.784   4.879
 2347SOL     OW 7939   2.284   3.597   1.639
 2347SOL    HW1 7940   2.329   3.533   1.702
 2347SOL    HW2 7941   2.186   3.575   1.635
 2348SOL     OW 7942   3.625   6.101   3.913
 2348SOL    HW1 7943   3.611   6.058   4.002
 2348SOL    HW2 7944   3.624   6.200   3.924
 2349SOL     OW 7945   0.518   5.067   6.190
 2349SOL    HW1 7946   0.496   5.153   6.145
 2349SOL    HW2 7947   0.574   5.084   6.271
 2350SOL     OW 7948   5.258   6.958   6.595
 2350SOL    HW1 7949   5.214   6.869   6.585
 2350SOL    HW2 7950   5.352   6.947   6.625
 2351SOL     OW 7951   4.120   5.187   2.139
 2351SOL    HW1 7952   4.142   5.245   2.217
 2351SOL    HW2 7953   4.020   5.180   2.129
 2352SOL     OW 7954   1.282   3.686   2.444
 2352SOL    HW1 7955   1.189   3.687   2.409
 2352SOL    HW2 7956   1.330   3.768   2.414
 2353SOL     OW 7957   2.976   4.836   5.127
 2353SOL    HW1 7958   2.944   4.741   5.128
 2353SOL    HW2 7959   2.901   4.897   5.155
 2354SOL     OW 7960   2.946   1.903   6.412
 2354SOL    HW1 7961   2.953   1.921   6.314
 2354SOL    HW2 7962   2.917   1.808   6.426
 2355SOL     OW 7963   1.088   5.342   6.467
 2355SOL    HW1 7964   0.997   5.323   6.432
 2355SOL    HW2 7965   1.091   5.322   6.565
 2356SOL     OW 7966   2.223   4.115   0.194
 2356SOL    HW1 7967   2.300   4.056   0.168
 2356SOL    HW2 7968   2.233   4.140   0.290
 2357SOL     OW 7969   4.155   5.269   3.385
 2357SOL    HW1 7970   4.227   5.203   3.409
 2357SOL    HW2 7971   4.070   5.219   3.368
 2358SOL     OW 7972   2.291   5.347   5.094
 2358SOL    HW1 7973   2.343   5.267   5.124
 2358SOL    HW2 7974   2.200   5.320   5.065
 2359SOL     OW 7975   0.049   1.000   5.532
 2359SOL    HW1 7976   0.125   0.974   5.591
 2359SOL    HW2 7977   0.085   1.024   5.441
 2360SOL     OW 7978   5.295   6.436   5.839
 2360SOL    HW1 7979   5.245   6.393   5.914
 2360SOL    HW2 7980   5.387   6.397   5.833
 2361SOL     OW 7981   2.888   6.971   4.668
 2361SOL    HW1 7982   2.951   6.928   4.734
 2361SOL    HW2 7983   2.924   0.041   4.641
 2362SOL     OW 7984   3.135   6.781   5.336
 2362SOL    HW1 7985   3.201   6.798   5.409
 2362SOL    HW2 7986   3.085   6.697   5.356
 2363SOL     OW 7987   4.289   2.545   5.707
 2363SOL    HW1 7988   4.295   2.643   5.687
 2363SOL    HW2 7989   4.200   2.524   5.747
 2364SOL     OW 7990   6.994   2.389   3.264
 2364SOL    HW1 7991   6.897   2.362   3.262
 2364SOL    HW2 7992   0.014   2.376   3.173
 2365SOL     OW 7993   6.289   2.278   6.014
 2365SOL    HW1 7994   6.190   2.271   6.021
 2365SOL    HW2 7995   6.314   2.313   5.924
 2366SOL     OW 7996   1.592   4.552   5.676
 2366SOL    HW1 7997   1.625   4.472   5.626
 2366SOL    HW2 7998   1.657   4.628   5.663
 2367SOL     OW 7999   3.287   3.635   6.883
 2367SOL    HW1 8000   3.221   3.626   6.809
 2367SOL    HW2 8001   3.379   3.637   6.846
 2368SOL     OW 8002   4.574   0.023   4.053
 2368SOL    HW1 8003   4.632   0.103   4.071
 2368SOL    HW2 8004   4.522   0.038   3.969
 2369SOL     OW 8005   2.092   2.433   4.883
 2369SOL    HW1 8006   2.184   2.410   4.915
 2369SOL    HW2 8007   2.025   2.414   4.955
 2370SOL     OW 8008   4.779   4.297   6.350
 2370SOL    HW1 8009   4.790   4.378   6.408
 2370SOL    HW2 8010   4.689   4.257   6.365
 2371SOL     OW 8011   1.196   6.316   1.833
 2371SOL    HW1 8012   1.235   6.407   1.846
 2371SOL    HW2 8013   1.101   6.315   1.865
 2372SOL     OW 8014   0.890   2.089   1.558
 2372SOL    HW1 8015   0.952   2.121   1.486
 2372SOL    HW2 8016   0.812   2.043   1.516
 2373SOL     OW 8017   6.285   0.433   0.181
 2373SOL    HW1 8018   6.224   0.512   0.173
 2373SOL    HW2 8019   6.284   0.399   0.275
 2374SOL     OW 8020   6.508   1.073   4.131
 2374SOL    HW1 8021   6.501   1.173   4.126
 2374SOL    HW2 8022   6.570   1.048   4.205
 2375SOL     OW 8023   1.392   6.862   4.623
 2375SOL    HW1 8024   1.309   6.818   4.591
 2375SOL    HW2 8025   1.472   6.817   4.582
 2376SOL     OW 8026   6.305   2.672   4.092
 2376SOL    HW1 8027   6.403   2.656   4.083
 2376SOL    HW2 8028   6.260   2.587   4.118
 2377SOL     OW 8029   3.453   3.853   3.682
 2377SOL    HW1 8030   3.437   3.829   3.777
 2377SOL    HW2 8031   3.463   3.770   3.627
 2378SOL     OW 8032   5.598   1.758   6.648
 2378SOL    HW1 8033   5.586   1.815   6.566
 2378SOL    HW2 8034   5.544   1.675   6.640
 2379SOL     OW 8035   6.975   1.614   6.314
 2379SOL    HW1 8036   7.001   1.553   6.240
 2379SOL    HW2 8037   6.900   1.573   6.366
 2380SOL     OW 8038   6.622   6.296   6.194
 2380SOL    HW1 8039   6.623   6.322   6.290
 2380SOL    HW2 8040   6.710   6.253   6.170
 2381SOL     OW 8041   2.330   4.408   3.903
 2381SOL    HW1 8042   2.254   4.342   3.905
 2381SOL    HW2 8043   2.361   4.419   3.809
 2382SOL     OW 8044   2.225   4.731   2.833
 2382SOL    HW1 8045   2.203   4.679   2.916
 2382SOL    HW2 8046   2.182   4.821   2.837
 2383SOL     OW 8047   5.272   6.028   6.668
 2383SOL    HW1 8048   5.248   6.104   6.608
 2383SOL    HW2 8049   5.243   6.050   6.762
 2384SOL     OW 8050   0.850   0.251   2.212
 2384SOL    HW1 8051   0.758   0.210   2.210
 2384SOL    HW2 8052   0.842   0.350   2.210
 2385SOL     OW 8053   6.060   0.087   0.986
 2385SOL    HW1 8054   5.970   0.129   0.999
 2385SOL    HW2 8055   6.130   0.158   0.984
 2386SOL     OW 8056   4.209   5.345   4.121
 2386SOL    HW1 8057   4.266   5.379   4.195
 2386SOL    HW2 8058   4.113   5.348   4.148
 2387SOL     OW 8059   0.335   1.858   3.619
 2387SOL    HW1 8060   0.287   1.946   3.615
 2387SOL    HW2 8061   0.409   1.864   3.686
 2388SOL     OW 8062   1.106   1.587   4.634
 2388SOL    HW1 8063   1.135   1.526   4.561
 2388SOL    HW2 8064   1.141   1.679   4.616
 2389SOL     OW 8065   5.110   4.108   3.680
 2389SOL    HW1 8066   5.149   4.051   3.607
 2389SOL    HW2 8067   5.149   4.080   3.768
 2390SOL     OW 8068   3.755   2.920   4.465
 2390SOL    HW1 8069   3.706   2.840   4.432
 2390SOL    HW2 8070   3.758   2.919   4.565
 2391SOL     OW 8071   4.564   4.307   5.854
 2391SOL    HW1 8072   4.649   4.335   5.899
 2391SOL    HW2 8073   4.514   4.245   5.915
 2392SOL     OW 8074   3.426   5.880   5.542
 2392SOL    HW1 8075   3.327   5.889   5.542
 2392SOL    HW2 8076   3.463   5.920   5.458
 2393SOL     OW 8077   3.669   5.238   0.616
 2393SOL    HW1 8078   3.669   5.248   0.716
 2393SOL    HW2 8079   3.610   5.162   0.591
 2394SOL     OW 8080   1.719   3.242   4.922
 2394SOL    HW1 8081   1.774   3.190   4.857
 2394SOL    HW2 8082   1.629   3.261   4.883
 2395SOL     OW 8083   6.653   2.370   6.582
 2395SOL    HW1 8084   6.729   2.305   6.589
 2395SOL    HW2 8085   6.567   2.323   6.602
 2396SOL     OW 8086   4.640   5.859   0.193
 2396SOL    HW1 8087   4.675   5.783   0.247
 2396SOL    HW2 8088   4.541   5.866   0.205
 2397SOL     OW 8089   0.212   4.275   0.086
 2397SOL    HW1 8090   0.116   4.266   0.114
 2397SOL    HW2 8091   0.256   4.186   0.093
 2398SOL     OW 8092   2.997   4.857   6.031
 2398SOL    HW1 8093   2.908   4.898   6.011
 2398SOL    HW2 8094   2.986   4.758   6.046
 2399SOL     OW 8095   4.534   1.477   1.936
 2399SOL    HW1 8096   4.610   1.449   1.994
 2399SOL    HW2 8097   4.451   1.488   1.992
 2400SOL     OW 8098   4.132   4.627   0.569
 2400SOL    HW1 8099   4.108   4.530   0.568
 2400SOL    HW2 8100   4.184   4.649   0.486
 2401SOL     OW 8101   3.942   0.546   5.705
 2401SOL    HW1 8102   3.856   0.593   5.726
 2401SOL    HW2 8103   4.017   0.589   5.755
 2402SOL     OW 8104   0.109   2.839   4.019
 2402SOL    HW1 8105   0.114   2.786   4.104
 2402SOL    HW2 8106   0.201   2.849   3.981
 2403SOL     OW 8107   3.004   2.817   0.160
 2403SOL    HW1 8108   2.923   2.764   0.136
 2403SOL    HW2 8109   3.045   2.855   0.077
 2404SOL     OW 8110   5.366   1.456   2.570
 2404SOL    HW1 8111   5.345   1.470   2.473
 2404SOL    HW2 8112   5.455   1.410   2.578
 2405SOL     OW 8113   3.273   3.793   4.768
 2405SOL    HW1 8114   3.308   3.780   4.861
 2405SOL    HW2 8115   3.285   3.709   4.716
 2406SOL     OW 8116   1.579   0.375   3.895
 2406SOL    HW1 8117   1.621   0.386   3.805
 2406SOL    HW2 8118   1.566   0.277   3.914
 2407SOL     OW 8119   5.080   2.386   2.859
 2407SOL    HW1 8120   5.032   2.315   2.911
 2407SOL    HW2 8121   5.012   2.445   2.814
 2408SOL     OW 8122   3.529   5.186   2.289
 2408SOL    HW1 8123   3.566   5.207   2.380
 2408SOL    HW2 8124   3.486   5.096   2.291
 2409SOL     OW 8125   1.759   3.158   2.088
 2409SOL    HW1 8126   1.794   3.235   2.035
 2409SOL    HW2 8127   1.832   3.122   2.147
 2410SOL     OW 8128   5.895   3.099   5.788
 2410SOL    HW1 8129   5.957   3.170   5.820
 2410SOL    HW2 8130   5.948   3.025   5.747
 2411SOL     OW 8131   4.383   5.027   5.630
 2411SOL    HW1 8132   4.388   5.117   5.674
 2411SOL    HW2 8133   4.332   4.964   5.689
 2412SOL     OW 8134   3.148   4.111   0.201
 2412SOL    HW1 8135   3.171   4.174   0.126
 2412SOL    HW2 8136   3.204   4.133   0.281
 2413SOL     OW 8137   6.970   3.066   6.845
 2413SOL    HW1 8138   0.038   3.109   6.817
 2413SOL    HW2 8139   6.913   3.051   6.764
 2414SOL     OW 8140   5.597   3.793   2.358
 2414SOL    HW1 8141   5.630   3.858   2.426
 2414SOL    HW2 8142   5.520   3.741   2.396
 2415SOL     OW 8143   0.554   0.147   1.007
 2415SOL    HW1 8144   0.464   0.192   1.003
 2415SOL    HW2 8145   0.542   0.048   0.995
 2416SOL     OW 8146   2.616   1.885   5.393
 2416SOL    HW1 8147   2.637   1.806   5.450
 2416SOL    HW2 8148   2.634   1.864   5.297
 2417SOL     OW 8149   4.362   2.895   0.550
 2417SOL    HW1 8150   4.398   2.896   0.643
 2417SOL    HW2 8151   4.369   2.987   0.510
 2418SOL     OW 8152   3.255   3.577   3.919
 2418SOL    HW1 8153   3.341   3.531   3.898
 2418SOL    HW2 8154   3.245   3.658   3.862
 2419SOL     OW 8155   0.529   6.259   3.979
 2419SOL    HW1 8156   0.532   6.241   4.077
 2419SOL    HW2 8157   0.484   6.346   3.963
 2420SOL     OW 8158   4.234   0.364   1.934
 2420SOL    HW1 8159   4.187   0.324   2.013
 2420SOL    HW2 8160   4.319   0.315   1.916
 2421SOL     OW 8161   2.602   0.836   4.640
 2421SOL    HW1 8162   2.659   0.796   4.568
 2421SOL    HW2 8163   2.657   0.899   4.695
 2422SOL     OW 8164   5.489   0.221   1.320
 2422SOL    HW1 8165   5.527   0.306   1.284
 2422SOL    HW2 8166   5.475   0.157   1.244
 2423SOL     OW 8167   1.504   6.417   3.285
 2423SOL    HW1 8168   1.444   6.369   3.222
 2423SOL    HW2 8169   1.451   6.451   3.363
 2424SOL     OW 8170   5.642   5.565   6.137
 2424SOL    HW1 8171   5.594   5.529   6.057
 2424SOL    HW2 8172   5.664   5.490   6.199
 2425SOL     OW 8173   6.160   0.406   4.133
 2425SOL    HW1 8174   6.168   0.342   4.210
 2425SOL    HW2 8175   6.200   0.365   4.051
 2426SOL     OW 8176   0.821   4.608   4.691
 2426SOL    HW1 8177   0.861   4.517   4.686
 2426SOL    HW2 8178   0.811   4.645   4.598
 2427SOL     OW 8179   6.376   5.557   6.986
 2427SOL    HW1 8180   6.431   5.610   6.921
 2427SOL    HW2 8181   6.313   5.618   0.014
 2428SOL     OW 8182   0.494   6.903   2.954
 2428SOL    HW1 8183   0.468   6.890   2.858
 2428SOL    HW2 8184   0.572   6.965   2.960
 2429SOL     OW 8185   6.505   5.539   3.745
 2429SOL    HW1 8186   6.555   5.542   3.659
 2429SOL    HW2 8187   6.513   5.628   3.791
 2430SOL     OW 8188   6.266   2.927   1.810
 2430SOL    HW1 8189   6.267   2.898   1.715
 2430SOL    HW2 8190   6.288   3.025   1.815
 2431SOL     OW 8191   4.085   0.069   1.842
 2431SOL    HW1 8192   4.019   0.050   1.769
 2431SOL    HW2 8193   4.172   0.095   1.801
 2432SOL     OW 8194   4.527   6.433   2.636
 2432SOL    HW1 8195   4.482   6.394   2.556
 2432SOL    HW2 8196   4.525   6.366   2.711
 2433SOL     OW 8197   2.983   6.815   0.949
 2433SOL    HW1 8198   3.008   6.774   1.037
 2433SOL    HW2 8199   2.885   6.837   0.950
 2434SOL     OW 8200   4.372   1.450   3.673
 2434SOL    HW1 8201   4.282   1.492   3.668
 2434SOL    HW2 8202   4.411   1.443   3.581
 2435SOL     OW 8203   4.748   5.393   6.005
 2435SOL    HW1 8204   4.768   5.460   6.076
 2435SOL    HW2 8205   4.651   5.399   5.980
 2436SOL     OW 8206   1.794   6.875   0.782
 2436SOL    HW1 8207   1.801   6.974   0.769
 2436SOL    HW2 8208   1.865   6.830   0.727
 2437SOL     OW 8209   4.890   5.484   0.490
 2437SOL    HW1 8210   4.901   5.391   0.455
 2437SOL    HW2 8211   4.796   5.515   0.472
 2438SOL     OW 8212   3.506   1.126   5.527
 2438SOL    HW1 8213   3.502   1.030   5.500
 2438SOL    HW2 8214   3.565   1.176   5.464
 2439SOL     OW 8215   1.209   4.205   0.231
 2439SOL    HW1 8216   1.152   4.125   0.247
 2439SOL    HW2 8217   1.284   4.207   0.297
 2440SOL     OW 8218   3.504   6.163   5.016
 2440SOL    HW1 8219   3.526   6.084   4.960
 2440SOL    HW2 8220   3.584   6.189   5.070
 2441SOL     OW 8221   6.285   1.266   6.803
 2441SOL    HW1 8222   6.325   1.338   6.860
 2441SOL    HW2 8223   6.306   1.284   6.706
 2442SOL     OW 8224   6.188   6.097   3.569
 2442SOL    HW1 8225   6.257   6.059   3.630
 2442SOL    HW2 8226   6.215   6.080   3.474
 2443SOL     OW 8227   3.419   0.212   6.486
 2443SOL    HW1 8228   3.343   0.185   6.427
 2443SOL    HW2 8229   3.414   0.161   6.572
 2444SOL     OW 8230   4.074   4.234   6.248
 2444SOL    HW1 8231   4.045   4.304   6.314
 2444SOL    HW2 8232   4.006   4.227   6.174
 2445SOL     OW 8233   6.563   1.028   2.601
 2445SOL    HW1 8234   6.465   1.019   2.585
 2445SOL    HW2 8235   6.579   1.103   2.666
 2446SOL     OW 8236   0.791   2.870   4.488
 2446SOL    HW1 8237   0.700   2.837   4.511
 2446SOL    HW2 8238   0.800   2.966   4.515
 2447SOL     OW 8239   2.446   1.096   0.695
 2447SOL    HW1 8240   2.542   1.069   0.688
 2447SOL    HW2 8241   2.388   1.027   0.652
 2448SOL     OW 8242   0.650   0.576   3.884
 2448SOL    HW1 8243   0.623   0.610   3.794
 2448SOL    HW2 8244   0.674   0.480   3.877
 2449SOL     OW 8245   6.826   4.210   2.748
 2449SOL    HW1 8246   6.818   4.117   2.711
 2449SOL    HW2 8247   6.735   4.244   2.771
 2450SOL     OW 8248   2.979   5.391   4.687
 2450SOL    HW1 8249   2.927   5.421   4.767
 2450SOL    HW2 8250   3.049   5.325   4.715
 2451SOL     OW 8251   0.815   0.372   3.577
 2451SOL    HW1 8252   0.911   0.394   3.562
 2451SOL    HW2 8253   0.782   0.312   3.504
 2452SOL     OW 8254   2.941   2.221   3.270
 2452SOL    HW1 8255   2.993   2.189   3.191
 2452SOL    HW2 8256   3.003   2.231   3.348
 2453SOL     OW 8257   6.609   3.495   0.658
 2453SOL    HW1 8258   6.576   3.429   0.590
 2453SOL    HW2 8259   6.587   3.461   0.749
 2454SOL     OW 8260   3.017   0.551   6.980
 2454SOL    HW1 8261   2.974   0.630   6.936
 2454SOL    HW2 8262   2.949   0.502   0.015
 2455SOL     OW 8263   4.989   0.900   1.276
 2455SOL    HW1 8264   5.024   0.916   1.184
 2455SOL    HW2 8265   4.894   0.869   1.269
 2456SOL     OW 8266   5.731   1.563   0.157
 2456SOL    HW1 8267   5.701   1.546   0.251
 2456SOL    HW2 8268   5.777   1.482   0.121
 2457SOL     OW 8269   6.611   6.030   6.448
 2457SOL    HW1 8270   6.635   6.059   6.541
 2457SOL    HW2 8271   6.513   6.042   6.433
 2458SOL     OW 8272   2.373   5.945   4.015
 2458SOL    HW1 8273   2.393   5.868   3.956
 2458SOL    HW2 8274   2.377   6.030   3.962
 2459SOL     OW 8275   2.579   6.058   6.306
 2459SOL    HW1 8276   2.527   5.980   6.270
 2459SOL    HW2 8277   2.577   6.133   6.240
 2460SOL     OW 8278   1.800   1.490   1.681
 2460SOL    HW1 8279   1.840   1.434   1.609
 2460SOL    HW2 8280   1.773   1.579   1.644
 2461SOL     OW 8281   4.584   6.941   2.814
 2461SOL    HW1 8282   4.550   6.848   2.796
 2461SOL    HW2 8283   4.610   6.949   2.910
 2462SOL     OW 8284   2.059   5.626   0.485
 2462SOL    HW1 8285   2.021   5.708   0.527
 2462SOL    HW2 8286   2.066   5.639   0.386
 2463SOL     OW 8287   6.576   2.504   4.802
 2463SOL    HW1 8288   6.510   2.545   4.865
 2463SOL    HW2 8289   6.657   2.563   4.796
 2464SOL     OW 8290   1.651   3.900   1.827
 2464SOL    HW1 8291   1.564   3.896   1.875
 2464SOL    HW2 8292   1.636   3.880   1.730
 2465SOL     OW 8293   1.181   0.764   2.004
 2465SOL    HW1 8294   1.091   0.808   2.002
 2465SOL    HW2 8295   1.171   0.666   1.990
 2466SOL     OW 8296   2.969   1.764   2.254
 2466SOL    HW1 8297   2.964   1.678   2.305
 2466SOL    HW2 8298   2.923   1.754   2.166
 2467SOL     OW 8299   5.316   1.507   4.755
 2467SOL    HW1 8300   5.295   1.544   4.845
 2467SOL    HW2 8301   5.300   1.578   4.686
 2468SOL     OW 8302   5.303   6.173   1.789
 2468SOL    HW1 8303   5.353   6.117   1.723
 2468SOL    HW2 8304   5.216   6.129   1.811
 2469SOL     OW 8305   4.318   4.158   5.500
 2469SOL    HW1 8306   4.218   4.162   5.513
 2469SOL    HW2 8307   4.342   4.204   5.415
 2470SOL     OW 8308   3.669   4.553   5.780
 2470SOL    HW1 8309   3.715   4.574   5.866
 2470SOL    HW2 8310   3.596   4.487   5.797
 2471SOL     OW 8311   2.810   5.823   0.880
 2471SOL    HW1 8312   2.744   5.894   0.853
 2471SOL    HW2 8313   2.766   5.758   0.941
 2472SOL     OW 8314   4.958   2.345   4.092
 2472SOL    HW1 8315   4.987   2.373   4.183
 2472SOL    HW2 8316   4.977   2.247   4.079
 2473SOL     OW 8317   2.159   4.146   5.208
 2473SOL    HW1 8318   2.096   4.073   5.236
 2473SOL    HW2 8319   2.212   4.115   5.128
 2474SOL     OW 8320   0.542   5.903   0.106
 2474SOL    HW1 8321   0.514   5.918   0.201
 2474SOL    HW2 8322   0.641   5.913   0.097
 2475SOL     OW 8323   5.293   0.975   1.313
 2475SOL    HW1 8324   5.232   1.049   1.285
 2475SOL    HW2 8325   5.243   0.888   1.309
 2476SOL     OW 8326   0.555   2.266   3.602
 2476SOL    HW1 8327   0.544   2.298   3.696
 2476SOL    HW2 8328   0.475   2.291   3.548
 2477SOL     OW 8329   4.814   1.527   2.383
 2477SOL    HW1 8330   4.795   1.539   2.481
 2477SOL    HW2 8331   4.891   1.465   2.371
 2478SOL     OW 8332   5.993   0.775   1.785
 2478SOL    HW1 8333   5.938   0.774   1.701
 2478SOL    HW2 8334   6.029   0.684   1.803
 2479SOL     OW 8335   1.252   3.790   1.448
 2479SOL    HW1 8336   1.320   3.795   1.375
 2479SOL    HW2 8337   1.279   3.720   1.515
 2480SOL     OW 8338   6.282   3.875   1.064
 2480SOL    HW1 8339   6.214   3.870   0.991
 2480SOL    HW2 8340   6.237   3.866   1.152
 2481SOL     OW 8341   3.068   1.010   0.116
 2481SOL    HW1 8342   3.130   1.084   0.143
 2481SOL    HW2 8343   2.976   1.048   0.102
 2482SOL     OW 8344   4.550   3.207   5.976
 2482SOL    HW1 8345   4.634   3.154   5.979
 2482SOL    HW2 8346   4.521   3.217   5.880
 2483SOL     OW 8347   2.020   2.080   0.077
 2483SOL    HW1 8348   1.991   2.032   7.014
 2483SOL    HW2 8349   1.964   2.162   0.090
 2484SOL     OW 8350   2.283   0.446   6.991
 2484SOL    HW1 8351   2.269   0.352   6.961
 2484SOL    HW2 8352   2.378   0.457   0.003
 2485SOL     OW 8353   5.349   3.779   1.886
 2485SOL    HW1 8354   5.301   3.775   1.973
 2485SOL    HW2 8355   5.443   3.746   1.898
 2486SOL     OW 8356   2.696   5.131   4.090
 2486SOL    HW1 8357   2.729   5.184   4.011
 2486SOL    HW2 8358   2.711   5.033   4.073
 2487SOL     OW 8359   3.705   5.985   0.238
 2487SOL    HW1 8360   3.703   6.011   0.141
 2487SOL    HW2 8361   3.729   5.888   0.246
 2488SOL     OW 8362   1.848   4.611   2.156
 2488SOL    HW1 8363   1.762   4.588   2.110
 2488SOL    HW2 8364   1.853   4.710   2.169
 2489SOL     OW 8365   1.940   5.844   3.301
 2489SOL    HW1 8366   1.960   5.880   3.392
 2489SOL    HW2 8367   1.871   5.901   3.257
 2490SOL     OW 8368   6.507   5.202   1.204
 2490SOL    HW1 8369   6.560   5.168   1.282
 2490SOL    HW2 8370   6.496   5.129   1.137
 2491SOL     OW 8371   2.728   5.556   1.277
 2491SOL    HW1 8372   2.709   5.458   1.262
 2491SOL    HW2 8373   2.826   5.571   1.279
 2492SOL     OW 8374   4.667   2.807   6.891
 2492SOL    HW1 8375   4.722   2.887   6.914
 2492SOL    HW2 8376   4.615   2.824   6.808
 2493SOL     OW 8377   6.130   0.463   2.452
 2493SOL    HW1 8378   6.131   0.365   2.431
 2493SOL    HW2 8379   6.122   0.476   2.551
 2494SOL     OW 8380   5.908   3.831   2.841
 2494SOL    HW1 8381   5.899   3.772   2.761
 2494SOL    HW2 8382   5.826   3.887   2.851
 2495SOL     OW 8383   5.145   0.633   5.106
 2495SOL    HW1 8384   5.192   0.603   5.023
 2495SOL    HW2 8385   5.197   0.605   5.186
 2496SOL     OW 8386   0.556   4.379   6.269
 2496SOL    HW1 8387   0.582   4.452   6.333
 2496SOL    HW2 8388   0.583   4.291   6.306
 2497SOL     OW 8389   0.003   1.289   1.309
 2497SOL    HW1 8390   0.044   1.255   1.224
 2497SOL    HW2 8391   6.989   1.212   1.363
 2498SOL     OW 8392   3.479   2.073   3.604
 2498SOL    HW1 8393   3.470   1.976   3.623
 2498SOL    HW2 8394   3.501   2.122   3.689
 2499SOL     OW 8395   5.089   2.454   4.338
 2499SOL    HW1 8396   5.032   2.464   4.420
 2499SOL    HW2 8397   5.135   2.365   4.341
 2500SOL     OW 8398   4.523   2.854   6.053
 2500SOL    HW1 8399   4.593   2.886   6.117
 2500SOL    HW2 8400   4.504   2.925   5.986
 2501SOL     OW 8401   6.693   5.924   6.975
 2501SOL    HW1 8402   6.644   6.000   7.018
 2501SOL    HW2 8403   6.744   5.874   0.026
 2502SOL     OW 8404   2.369   5.790   3.251
 2502SOL    HW1 8405   2.296   5.722   3.241
 2502SOL    HW2 8406   2.330   5.881   3.245
 2503SOL     OW 8407   3.475   5.243   5.360
 2503SOL    HW1 8408   3.417   5.324   5.359
 2503SOL    HW2 8409   3.419   5.161   5.349
 2504SOL     OW 8410   3.063   5.380   5.523
 2504SOL    HW1 8411   3.062   5.378   5.423
 2504SOL    HW2 8412   3.018   5.298   5.559
 2505SOL     OW 8413   1.731   6.208   4.390
 2505SOL    HW1 8414   1.740   6.304   4.366
 2505SOL    HW2 8415   1.659   6.197   4.459
 2506SOL     OW 8416   5.958   3.409   6.513
 2506SOL    HW1 8417   5.893   3.334   6.501
 2506SOL    HW2 8418   5.919   3.493   6.475
 2507SOL     OW 8419   0.544   4.129   0.336
 2507SOL    HW1 8420   0.621   4.099   0.394
 2507SOL    HW2 8421   0.568   4.215   0.291
 2508SOL     OW 8422   3.025   1.175   2.566
 2508SOL    HW1 8423   2.984   1.266   2.559
 2508SOL    HW2 8424   3.027   1.132   2.476
 2509SOL     OW 8425   6.042   2.419   2.591
 2509SOL    HW1 8426   6.003   2.443   2.681
 2509SOL    HW2 8427   6.070   2.502   2.544
 2510SOL     OW 8428   3.541   4.193   1.453
 2510SOL    HW1 8429   3.633   4.202   1.415
 2510SOL    HW2 8430   3.474   4.197   1.379
 2511SOL     OW 8431   2.356   1.607   4.054
 2511SOL    HW1 8432   2.280   1.668   4.032
 2511SOL    HW2 8433   2.370   1.606   4.153
 2512SOL     OW 8434   4.868   5.293   5.172
 2512SOL    HW1 8435   4.849   5.391   5.161
 2512SOL    HW2 8436   4.854   5.247   5.084
 2513SOL     OW 8437   1.286   3.192   5.313
 2513SOL    HW1 8438   1.383   3.187   5.336
 2513SOL    HW2 8439   1.273   3.258   5.240
 2514SOL     OW 8440   6.218   4.428   4.433
 2514SOL    HW1 8441   6.128   4.444   4.473
 2514SOL    HW2 8442   6.243   4.506   4.374
 2515SOL     OW 8443   1.301   0.089   0.505
 2515SOL    HW1 8444   1.243   0.051   0.433
 2515SOL    HW2 8445   1.377   0.140   0.464
 2516SOL     OW 8446   5.885   0.025   3.619
 2516SOL    HW1 8447   5.899   6.959   3.670
 2516SOL    HW2 8448   5.831   0.088   3.675
 2517SOL     OW 8449   1.706   5.755   5.712
 2517SOL    HW1 8450   1.718   5.759   5.811
 2517SOL    HW2 8451   1.792   5.776   5.667
 2518SOL     OW 8452   2.583   3.373   6.897
 2518SOL    HW1 8453   2.487   3.400   6.887
 2518SOL    HW2 8454   2.589   3.291   6.954
 2519SOL     OW 8455   4.407   5.787   3.996
 2519SOL    HW1 8456   4.472   5.732   3.942
 2519SOL    HW2 8457   4.324   5.733   4.012
 2520SOL     OW 8458   1.213   2.745   0.864
 2520SOL    HW1 8459   1.308   2.753   0.831
 2520SOL    HW2 8460   1.154   2.721   0.787
 2521SOL     OW 8461   1.044   6.416   5.635
 2521SOL    HW1 8462   1.007   6.440   5.725
 2521SOL    HW2 8463   1.142   6.437   5.633
 2522SOL     OW 8464   0.327   3.151   5.397
 2522SOL    HW1 8465   0.273   3.101   5.330
 2522SOL    HW2 8466   0.304   3.121   5.489
 2523SOL     OW 8467   0.360   3.243   1.573
 2523SOL    HW1 8468   0.308   3.178   1.518
 2523SOL    HW2 8469   0.301   3.284   1.641
 2524SOL     OW 8470   0.560   5.855   4.420
 2524SOL    HW1 8471   0.569   5.911   4.502
 2524SOL    HW2 8472   0.566   5.913   4.339
 2525SOL     OW 8473   1.264   2.247   4.633
 2525SOL    HW1 8474   1.310   2.330   4.604
 2525SOL    HW2 8475   1.166   2.265   4.641
 2526SOL     OW 8476   1.846   4.019   5.917
 2526SOL    HW1 8477   1.751   4.043   5.893
 2526SOL    HW2 8478   1.848   3.985   6.011
 2527SOL     OW 8479   5.146   6.778   5.177
 2527SOL    HW1 8480   5.117   6.694   5.223
 2527SOL    HW2 8481   5.133   6.855   5.239
 2528SOL     OW 8482   6.367   4.592   0.881
 2528SOL    HW1 8483   6.432   4.644   0.826
 2528SOL    HW2 8484   6.415   4.520   0.930
 2529SOL     OW 8485   6.710   5.339   6.209
 2529SOL    HW1 8486   6.735   5.316   6.303
 2529SOL    HW2 8487   6.666   5.429   6.207
 2530SOL     OW 8488   1.005   6.271   4.583
 2530SOL    HW1 8489   0.957   6.357   4.594
 2530SOL    HW2 8490   0.951   6.197   4.624
 2531SOL     OW 8491   5.597   5.862   4.111
 2531SOL    HW1 8492   5.584   5.804   4.031
 2531SOL    HW2 8493   5.526   5.843   4.178
 2532SOL     OW 8494   0.774   5.964   0.882
 2532SOL    HW1 8495   0.723   5.978   0.797
 2532SOL    HW2 8496   0.850   6.028   0.887
 2533SOL     OW 8497   4.764   6.517   3.655
 2533SOL    HW1 8498   4.742   6.609   3.626
 2533SOL    HW2 8499   4.864   6.504   3.654
 2534SOL     OW 8500   2.343   0.217   3.155
 2534SOL    HW1 8501   2.415   0.245   3.218
 2534SOL    HW2 8502   2.283   0.152   3.201
 2535SOL     OW 8503   2.662   2.921   6.379
 2535SOL    HW1 8504   2.642   2.839   6.324
 2535SOL    HW2 8505   2.591   2.932   6.449
 2536SOL     OW 8506   7.010   2.340   3.669
 2536SOL    HW1 8507   6.997   2.359   3.767
 2536SOL    HW2 8508   0.010   2.243   3.656
 2537SOL     OW 8509   5.680   6.953   6.354
 2537SOL    HW1 8510   5.681   6.949   6.254
 2537SOL    HW2 8511   5.692   0.028   6.384
 2538SOL     OW 8512   1.568   4.209   4.699
 2538SOL    HW1 8513   1.485   4.157   4.717
 2538SOL    HW2 8514   1.617   4.167   4.623
 2539SOL     OW 8515   4.432   0.231   5.424
 2539SOL    HW1 8516   4.374   0.170   5.478
 2539SOL    HW2 8517   4.377   0.275   5.353
 2540SOL     OW 8518   4.813   1.098   1.601
 2540SOL    HW1 8519   4.757   1.064   1.676
 2540SOL    HW2 8520   4.755   1.152   1.538
 2541SOL     OW 8521   1.615   0.127   5.443
 2541SOL    HW1 8522   1.671   0.192   5.390
 2541SOL    HW2 8523   1.530   0.172   5.471
 2542SOL     OW 8524   4.213   1.827   5.604
 2542SOL    HW1 8525   4.284   1.786   5.547
 2542SOL    HW2 8526   4.226   1.800   5.699
 2543SOL     OW 8527   1.852   1.025   3.025
 2543SOL    HW1 8528   1.862   1.035   2.926
 2543SOL    HW2 8529   1.848   1.116   3.068
 2544SOL     OW 8530   0.379   5.295   2.450
 2544SOL    HW1 8531   0.368   5.393   2.430
 2544SOL    HW2 8532   0.471   5.277   2.483
 2545SOL     OW 8533   1.890   0.428   0.936
 2545SOL    HW1 8534   1.909   0.456   1.030
 2545SOL    HW2 8535   1.801   0.464   0.908
 2546SOL     OW 8536   6.983   2.560   2.275
 2546SOL    HW1 8537   6.982   2.557   2.175
 2546SOL    HW2 8538   6.891   2.580   2.309
 2547SOL     OW 8539   5.799   5.603   6.981
 2547SOL    HW1 8540   5.755   5.526   6.936
 2547SOL    HW2 8541   5.893   5.579   7.005
 2548SOL     OW 8542   2.798   6.642   5.205
 2548SOL    HW1 8543   2.732   6.636   5.281
 2548SOL    HW2 8544   2.824   6.738   5.192
 2549SOL     OW 8545   2.040   1.884   1.544
 2549SOL    HW1 8546   2.075   1.971   1.578
 2549SOL    HW2 8547   2.043   1.883   1.444
 2550SOL     OW 8548   6.432   0.604   6.799
 2550SOL    HW1 8549   6.419   0.638   6.706
 2550SOL    HW2 8550   6.353   0.548   6.825
 2551SOL     OW 8551   2.842   5.249   0.137
 2551SOL    HW1 8552   2.853   5.270   0.234
 2551SOL    HW2 8553   2.902   5.308   0.083
 2552SOL     OW 8554   1.020   5.911   5.561
 2552SOL    HW1 8555   1.073   5.983   5.608
 2552SOL    HW2 8556   1.018   5.930   5.463
 2553SOL     OW 8557   2.790   3.473   0.119
 2553SOL    HW1 8558   2.831   3.564   0.131
 2553SOL    HW2 8559   2.816   3.437   0.029
 2554SOL     OW 8560   1.784   5.802   6.543
 2554SOL    HW1 8561   1.849   5.826   6.470
 2554SOL    HW2 8562   1.808   5.850   6.627
 2555SOL     OW 8563   6.088   6.022   5.858
 2555SOL    HW1 8564   6.101   6.086   5.782
 2555SOL    HW2 8565   6.139   6.056   5.938
 2556SOL     OW 8566   4.020   6.108   0.849
 2556SOL    HW1 8567   4.104   6.156   0.874
 2556SOL    HW2 8568   3.943   6.170   0.854
 2557SOL     OW 8569   2.039   2.198   6.730
 2557SOL    HW1 8570   2.041   2.289   6.771
 2557SOL    HW2 8571   2.123   2.183   6.678
 2558SOL     OW 8572   3.727   3.519   6.234
 2558SOL    HW1 8573   3.649   3.539   6.293
 2558SOL    HW2 8574   3.716   3.428   6.194
 2559SOL     OW 8575   6.413   2.889   4.460
 2559SOL    HW1 8576   6.485   2.827   4.494
 2559SOL    HW2 8577   6.420   2.977   4.508
 2560SOL     OW 8578   4.912   3.344   4.053
 2560SOL    HW1 8579   4.995   3.381   4.011
 2560SOL    HW2 8580   4.913   3.244   4.046
 2561SOL     OW 8581   3.954   0.254   3.473
 2561SOL    HW1 8582   3.893   0.317   3.425
 2561SOL    HW2 8583   3.912   0.164   3.478
 2562SOL     OW 8584   2.495   5.312   2.349
 2562SOL    HW1 8585   2.498   5.222   2.305
 2562SOL    HW2 8586   2.586   5.353   2.348
 2563SOL     OW 8587   3.977   1.668   6.577
 2563SOL    HW1 8588   3.993   1.631   6.669
 2563SOL    HW2 8589   3.881   1.654   6.552
 2564SOL     OW 8590   1.445   0.180   6.136
 2564SOL    HW1 8591   1.435   0.221   6.046
 2564SOL    HW2 8592   1.506   0.101   6.131
 2565SOL     OW 8593   7.000   0.688   0.859
 2565SOL    HW1 8594   0.054   0.711   0.794
 2565SOL    HW2 8595   6.912   0.714   0.821
 2566SOL     OW 8596   1.521   0.190   0.870
 2566SOL    HW1 8597   1.464   0.189   0.788
 2566SOL    HW2 8598   1.550   0.097   0.892
 2567SOL     OW 8599   1.210   1.731   2.509
 2567SOL    HW1 8600   1.291   1.764   2.459
 2567SOL    HW2 8601   1.185   1.640   2.476
 2568SOL     OW 8602   2.713   1.004   6.886
 2568SOL    HW1 8603   2.799   0.967   6.850
 2568SOL    HW2 8604   2.666   0.934   6.939
 2569SOL     OW 8605   2.803   1.041   2.277
 2569SOL    HW1 8606   2.764   1.129   2.305
 2569SOL    HW2 8607   2.750   1.004   2.201
 2570SOL     OW 8608   5.555   0.641   6.402
 2570SOL    HW1 8609   5.518   0.646   6.495
 2570SOL    HW2 8610   5.481   0.618   6.338
 2571SOL     OW 8611   2.989   3.486   5.427
 2571SOL    HW1 8612   3.052   3.488   5.350
 2571SOL    HW2 8613   2.921   3.414   5.413
 2572SOL     OW 8614   1.734   6.621   1.459
 2572SOL    HW1 8615   1.784   6.695   1.505
 2572SOL    HW2 8616   1.774   6.605   1.369
 2573SOL     OW 8617   6.261   1.426   2.789
 2573SOL    HW1 8618   6.271   1.524   2.771
 2573SOL    HW2 8619   6.170   1.396   2.761
 2574SOL     OW 8620   6.993   2.617   0.587
 2574SOL    HW1 8621   0.027   2.573   0.515
 2574SOL    HW2 8622   0.000   2.713   0.594
 2575SOL     OW 8623   5.411   4.098   0.233
 2575SOL    HW1 8624   5.332   4.072   0.178
 2575SOL    HW2 8625   5.490   4.114   0.172
 2576SOL     OW 8626   3.855   6.994   3.486
 2576SOL    HW1 8627   3.805   6.961   3.566
 2576SOL    HW2 8628   3.839   6.933   3.409
 2577SOL     OW 8629   4.842   6.480   2.720
 2577SOL    HW1 8630   4.743   6.477   2.732
 2577SOL    HW2 8631   4.864   6.487   2.622
 2578SOL     OW 8632   4.482   2.771   5.241
 2578SOL    HW1 8633   4.516   2.864   5.234
 2578SOL    HW2 8634   4.398   2.770   5.296
 2579SOL     OW 8635   1.086   1.114   3.618
 2579SOL    HW1 8636   1.056   1.068   3.702
 2579SOL    HW2 8637   1.009   1.128   3.557
 2580SOL     OW 8638   2.113   2.818   6.950
 2580SOL    HW1 8639   2.035   2.757   6.960
 2580SOL    HW2 8640   2.085   2.912   6.971
 2581SOL     OW 8641   5.966   4.522   1.847
 2581SOL    HW1 8642   5.944   4.439   1.796
 2581SOL    HW2 8643   6.044   4.568   1.804
 2582SOL     OW 8644   1.352   4.272   2.263
 2582SOL    HW1 8645   1.405   4.234   2.187
 2582SOL    HW2 8646   1.402   4.259   2.349
 2583SOL     OW 8647   0.688   1.564   1.110
 2583SOL    HW1 8648   0.726   1.655   1.128
 2583SOL    HW2 8649   0.726   1.529   1.024
 2584SOL     OW 8650   3.949   5.917   0.693
 2584SOL    HW1 8651   3.961   6.005   0.738
 2584SOL    HW2 8652   3.880   5.927   0.620
 2585SOL     OW 8653   3.929   0.813   0.081
 2585SOL    HW1 8654   4.004   0.753   0.053
 2585SOL    HW2 8655   3.858   0.812   0.010
 2586SOL     OW 8656   4.046   1.989   3.447
 2586SOL    HW1 8657   4.077   2.081   3.470
 2586SOL    HW2 8658   3.981   1.994   3.371
 2587SOL     OW 8659   6.507   0.705   3.944
 2587SOL    HW1 8660   6.435   0.723   4.010
 2587SOL    HW2 8661   6.511   0.779   3.877
 2588SOL     OW 8662   4.674   0.178   0.001
 2588SOL    HW1 8663   4.752   0.122   6.994
 2588SOL    HW2 8664   4.697   0.232   0.082
 2589SOL     OW 8665   0.253   5.634   5.160
 2589SOL    HW1 8666   0.154   5.642   5.175
 2589SOL    HW2 8667   0.297   5.720   5.182
 2590SOL     OW 8668   3.338   6.113   2.078
 2590SOL    HW1 8669   3.407   6.073   2.137
 2590SOL    HW2 8670   3.257   6.055   2.077
 2591SOL     OW 8671   6.467   6.017   2.326
 2591SOL    HW1 8672   6.503   6.060   2.409
 2591SOL    HW2 8673   6.492   5.921   2.325
 2592SOL     OW 8674   2.454   6.740   1.512
 2592SOL    HW1 8675   2.476   6.701   1.422
 2592SOL    HW2 8676   2.448   6.667   1.580
 2593SOL     OW 8677   2.743   6.410   1.469
 2593SOL    HW1 8678   2.676   6.458   1.525
 2593SOL    HW2 8679   2.834   6.421   1.509
 2594SOL     OW 8680   0.299   5.798   5.959
 2594SOL    HW1 8681   0.316   5.745   6.042
 2594SOL    HW2 8682   0.342   5.888   5.966
 2595SOL     OW 8683   6.238   1.126   5.273
 2595SOL    HW1 8684   6.237   1.026   5.278
 2595SOL    HW2 8685   6.184   1.156   5.195
 2596SOL     OW 8686   4.019   2.206   2.011
 2596SOL    HW1 8687   4.046   2.192   1.916
 2596SOL    HW2 8688   3.928   2.246   2.015
 2597SOL     OW 8689   2.185   3.834   6.641
 2597SOL    HW1 8690   2.253   3.796   6.578
 2597SOL    HW2 8691   2.157   3.925   6.610
 2598SOL     OW 8692   6.091   1.191   4.346
 2598SOL    HW1 8693   6.187   1.209   4.326
 2598SOL    HW2 8694   6.083   1.150   4.437
 2599SOL     OW 8695   2.985   0.071   0.678
 2599SOL    HW1 8696   2.925   7.011   0.662
 2599SOL    HW2 8697   3.079   0.047   0.655
 2600SOL     OW 8698   4.925   3.425   4.613
 2600SOL    HW1 8699   4.967   3.424   4.523
 2600SOL    HW2 8700   4.931   3.518   4.651
 2601SOL     OW 8701   2.523   1.556   6.510
 2601SOL    HW1 8702   2.428   1.579   6.488
 2601SOL    HW2 8703   2.529   1.526   6.605
 2602SOL     OW 8704   0.031   4.503   3.850
 2602SOL    HW1 8705   0.130   4.517   3.841
 2602SOL    HW2 8706   0.006   4.501   3.947
 2603SOL     OW 8707   2.298   1.729   2.507
 2603SOL    HW1 8708   2.349   1.767   2.584
 2603SOL    HW2 8709   2.348   1.652   2.469
 2604SOL     OW 8710   5.038   1.206   3.035
 2604SOL    HW1 8711   5.053   1.118   3.081
 2604SOL    HW2 8712   5.086   1.207   2.948
 2605SOL     OW 8713   2.664   4.727   2.820
 2605SOL    HW1 8714   2.592   4.797   2.827
 2605SOL    HW2 8715   2.708   4.715   2.909
 2606SOL     OW 8716   7.015   4.881   0.814
 2606SOL    HW1 8717   0.092   4.892   0.837
 2606SOL    HW2 8718   6.983   4.792   0.848
 2607SOL     OW 8719   0.402   1.303   5.793
 2607SOL    HW1 8720   0.349   1.237   5.847
 2607SOL    HW2 8721   0.353   1.323   5.708
 2608SOL     OW 8722   4.183   5.360   2.342
 2608SOL    HW1 8723   4.204   5.455   2.320
 2608SOL    HW2 8724   4.104   5.356   2.403
 2609SOL     OW 8725   0.548   1.924   1.912
 2609SOL    HW1 8726   0.472   1.972   1.956
 2609SOL    HW2 8727   0.634   1.972   1.933
 2610SOL     OW 8728   0.109   4.746   4.437
 2610SOL    HW1 8729   0.130   4.704   4.349
 2610SOL    HW2 8730   0.107   4.676   4.508
 2611SOL     OW 8731   4.718   5.928   1.358
 2611SOL    HW1 8732   4.750   6.023   1.358
 2611SOL    HW2 8733   4.646   5.918   1.426
 2612SOL     OW 8734   6.553   6.433   5.925
 2612SOL    HW1 8735   6.593   6.390   6.006
 2612SOL    HW2 8736   6.503   6.515   5.953
 2613SOL     OW 8737   2.876   6.263   0.789
 2613SOL    HW1 8738   2.898   6.171   0.821
 2613SOL    HW2 8739   2.843   6.258   0.695
 2614SOL     OW 8740   6.594   0.798   6.241
 2614SOL    HW1 8741   6.603   0.739   6.161
 2614SOL    HW2 8742   6.502   0.838   6.243
 2615SOL     OW 8743   6.239   3.737   3.718
 2615SOL    HW1 8744   6.230   3.668   3.790
 2615SOL    HW2 8745   6.331   3.731   3.678
 2616SOL     OW 8746   4.067   3.433   4.390
 2616SOL    HW1 8747   4.061   3.343   4.346
 2616SOL    HW2 8748   4.033   3.426   4.484
 2617SOL     OW 8749   3.670   6.878   0.872
 2617SOL    HW1 8750   3.676   6.896   0.970
 2617SOL    HW2 8751   3.708   6.956   0.822
 2618SOL     OW 8752   0.450   0.199   4.341
 2618SOL    HW1 8753   0.528   0.136   4.342
 2618SOL    HW2 8754   0.453   0.255   4.259
 2619SOL     OW 8755   4.051   1.314   3.007
 2619SOL    HW1 8756   4.077   1.248   3.078
 2619SOL    HW2 8757   3.994   1.385   3.048
 2620SOL     OW 8758   0.311   6.214   3.063
 2620SOL    HW1 8759   0.273   6.209   3.156
 2620SOL    HW2 8760   0.401   6.170   3.062
 2621SOL     OW 8761   1.517   5.694   2.277
 2621SOL    HW1 8762   1.542   5.729   2.187
 2621SOL    HW2 8763   1.535   5.595   2.280
 2622SOL     OW 8764   1.994   2.314   6.069
 2622SOL    HW1 8765   1.901   2.349   6.057
 2622SOL    HW2 8766   2.054   2.388   6.098
 2623SOL     OW 8767   2.557   1.478   5.499
 2623SOL    HW1 8768   2.505   1.480   5.413
 2623SOL    HW2 8769   2.593   1.386   5.514
 2624SOL     OW 8770   6.301   2.517   4.939
 2624SOL    HW1 8771   6.263   2.435   4.981
 2624SOL    HW2 8772   6.231   2.563   4.884
 2625SOL     OW 8773   2.616   1.677   5.855
 2625SOL    HW1 8774   2.522   1.677   5.821
 2625SOL    HW2 8775   2.621   1.728   5.940
 2626SOL     OW 8776   0.150   0.677   5.315
 2626SOL    HW1 8777   0.215   0.628   5.256
 2626SOL    HW2 8778   0.125   0.618   5.392
 2627SOL     OW 8779   1.082   1.094   5.047
 2627SOL    HW1 8780   1.069   1.180   5.096
 2627SOL    HW2 8781   0.995   1.044   5.043
 2628SOL     OW 8782   1.930   4.731   6.052
 2628SOL    HW1 8783   1.950   4.786   5.971
 2628SOL    HW2 8784   1.853   4.670   6.032
 2629SOL     OW 8785   3.067   4.001   1.811
 2629SOL    HW1 8786   3.003   4.073   1.784
 2629SOL    HW2 8787   3.041   3.965   1.900
 2630SOL     OW 8788   3.310   1.622   3.412
 2630SOL    HW1 8789   3.256   1.703   3.386
 2630SOL    HW2 8790   3.249   1.544   3.424
 2631SOL     OW 8791   5.095   0.413   4.777
 2631SOL    HW1 8792   5.162   0.338   4.773
 2631SOL    HW2 8793   5.121   0.484   4.712
 2632SOL     OW 8794   2.662   2.077   6.454
 2632SOL    HW1 8795   2.640   2.157   6.509
 2632SOL    HW2 8796   2.664   1.996   6.513
 2633SOL     OW 8797   6.673   1.400   4.969
 2633SOL    HW1 8798   6.675   1.496   4.997
 2633SOL    HW2 8799   6.765   1.361   4.976
 2634SOL     OW 8800   1.439   3.943   2.897
 2634SOL    HW1 8801   1.352   3.918   2.854
 2634SOL    HW2 8802   1.451   3.889   2.981
 2635SOL     OW 8803   6.344   6.243   5.359
 2635SOL    HW1 8804   6.377   6.225   5.452
 2635SOL    HW2 8805   6.266   6.306   5.363
 2636SOL     OW 8806   4.849   0.284   5.473
 2636SOL    HW1 8807   4.767   0.259   5.421
 2636SOL    HW2 8808   4.832   0.273   5.571
 2637SOL     OW 8809   5.577   1.513   3.444
 2637SOL    HW1 8810   5.619   1.486   3.531
 2637SOL    HW2 8811   5.495   1.567   3.461
 2638SOL     OW 8812   6.863   0.449   3.040
 2638SOL    HW1 8813   6.771   0.434   3.077
 2638SOL    HW2 8814   6.906   0.360   3.021
 2639SOL     OW 8815   0.870   0.466   1.876
 2639SOL    HW1 8816   0.804   0.391   1.885
 2639SOL    HW2 8817   0.827   0.542   1.827
 2640SOL     OW 8818   7.015   6.030   4.574
 2640SOL    HW1 8819   0.085   5.986   4.575
 2640SOL    HW2 8820   0.005   6.125   4.545
 2641SOL     OW 8821   4.898   3.087   2.101
 2641SOL    HW1 8822   4.820   3.035   2.068
 2641SOL    HW2 8823   4.866   3.171   2.146
 2642SOL     OW 8824   4.139   6.740   4.529
 2642SOL    HW1 8825   4.173   6.647   4.516
 2642SOL    HW2 8826   4.216   6.803   4.537
 2643SOL     OW 8827   0.257   3.731   2.710
 2643SOL    HW1 8828   0.325   3.774   2.769
 2643SOL    HW2 8829   0.301   3.660   2.654
 2644SOL     OW 8830   6.117   5.758   6.198
 2644SOL    HW1 8831   6.111   5.726   6.292
 2644SOL    HW2 8832   6.026   5.752   6.155
 2645SOL     OW 8833   4.467   5.703   4.497
 2645SOL    HW1 8834   4.420   5.781   4.457
 2645SOL    HW2 8835   4.426   5.680   4.585
 2646SOL     OW 8836   6.012   0.665   6.942
 2646SOL    HW1 8837   6.037   0.736   6.876
 2646SOL    HW2 8838   6.066   0.677   0.006
 2647SOL     OW 8839   6.162   0.974   1.829
 2647SOL    HW1 8840   6.202   0.935   1.912
 2647SOL    HW2 8841   6.108   0.903   1.782
 2648SOL     OW 8842   0.518   6.903   4.184
 2648SOL    HW1 8843   0.421   6.893   4.164
 2648SOL    HW2 8844   0.554   6.984   4.137
 2649SOL     OW 8845   5.791   3.183   6.492
 2649SOL    HW1 8846   5.850   3.103   6.485
 2649SOL    HW2 8847   5.731   3.188   6.412
 2650SOL     OW 8848   0.543   3.862   4.290
 2650SOL    HW1 8849   0.628   3.857   4.239
 2650SOL    HW2 8850   0.559   3.907   4.379
 2651SOL     OW 8851   0.870   1.671   0.066
 2651SOL    HW1 8852   0.783   1.712   0.039
 2651SOL    HW2 8853   0.862   1.633   0.158
 2652SOL     OW 8854   3.430   3.810   3.956
 2652SOL    HW1 8855   3.492   3.761   4.017
 2652SOL    HW2 8856   3.396   3.893   4.001
 2653SOL     OW 8857   5.321   0.058   5.497
 2653SOL    HW1 8858   5.270   0.094   5.575
 2653SOL    HW2 8859   5.401   0.115   5.480
 2654SOL     OW 8860   5.132   4.960   1.279
 2654SOL    HW1 8861   5.143   5.051   1.238
 2654SOL    HW2 8862   5.165   4.962   1.374
 2655SOL     OW 8863   4.554   5.305   4.290
 2655SOL    HW1 8864   4.585   5.370   4.221
 2655SOL    HW2 8865   4.546   5.214   4.249
 2656SOL     OW 8866   3.450   4.952   3.944
 2656SOL    HW1 8867   3.529   4.929   3.888
 2656SOL    HW2 8868   3.475   4.946   4.041
 2657SOL     OW 8869   1.795   4.062   6.398
 2657SOL    HW1 8870   1.853   3.999   6.345
 2657SOL    HW2 8871   1.719   4.011   6.439
 2658SOL     OW 8872   5.005   4.315   0.214
 2658SOL    HW1 8873   4.961   4.228   0.235
 2658SOL    HW2 8874   5.033   4.360   0.298
 2659SOL     OW 8875   6.211   3.046   5.031
 2659SOL    HW1 8876   6.278   2.973   5.044
 2659SOL    HW2 8877   6.234   3.099   4.950
 2660SOL     OW 8878   0.933   0.765   0.694
 2660SOL    HW1 8879   0.870   0.693   0.665
 2660SOL    HW2 8880   0.912   0.792   0.788
 2661SOL     OW 8881   2.389   6.606   0.668
 2661SOL    HW1 8882   2.469   6.586   0.724
 2661SOL    HW2 8883   2.324   6.531   0.676
 2662SOL     OW 8884   4.579   6.929   5.551
 2662SOL    HW1 8885   4.567   7.005   5.614
 2662SOL    HW2 8886   4.652   6.950   5.486
 2663SOL     OW 8887   2.823   4.280   0.749
 2663SOL    HW1 8888   2.891   4.223   0.703
 2663SOL    HW2 8889   2.863   4.369   0.770
 2664SOL     OW 8890   3.990   4.171   5.231
 2664SOL    HW1 8891   4.026   4.231   5.302
 2664SOL    HW2 8892   3.913   4.118   5.267
 2665SOL     OW 8893   2.473   2.769   5.315
 2665SOL    HW1 8894   2.436   2.860   5.293
 2665SOL    HW2 8895   2.468   2.711   5.233
 2666SOL     OW 8896   5.886   4.119   1.225
 2666SOL    HW1 8897   5.916   4.085   1.136
 2666SOL    HW2 8898   5.926   4.210   1.241
 2667SOL     OW 8899   1.410   6.420   3.936
 2667SOL    HW1 8900   1.444   6.496   3.882
 2667SOL    HW2 8901   1.470   6.405   4.015
 2668SOL     OW 8902   5.972   3.352   4.238
 2668SOL    HW1 8903   5.997   3.278   4.301
 2668SOL    HW2 8904   5.969   3.439   4.288
 2669SOL     OW 8905   2.821   4.611   5.370
 2669SOL    HW1 8906   2.770   4.678   5.316
 2669SOL    HW2 8907   2.870   4.549   5.308
 2670SOL     OW 8908   5.895   2.756   6.430
 2670SOL    HW1 8909   5.922   2.846   6.395
 2670SOL    HW2 8910   5.859   2.765   6.522
 2671SOL     OW 8911   3.963   5.092   6.402
 2671SOL    HW1 8912   3.991   5.093   6.498
 2671SOL    HW2 8913   3.921   5.003   6.381
 2672SOL     OW 8914   0.355   5.410   0.888
 2672SOL    HW1 8915   0.326   5.343   0.819
 2672SOL    HW2 8916   0.428   5.467   0.850
 2673SOL     OW 8917   6.269   1.503   4.278
 2673SOL    HW1 8918   6.326   1.429   4.314
 2673SOL    HW2 8919   6.244   1.565   4.352
 2674SOL     OW 8920   1.006   4.478   3.485
 2674SOL    HW1 8921   0.945   4.490   3.406
 2674SOL    HW2 8922   1.055   4.391   3.476
 2675SOL     OW 8923   6.572   5.431   3.998
 2675SOL    HW1 8924   6.563   5.441   3.899
 2675SOL    HW2 8925   6.617   5.512   4.036
 2676SOL     OW 8926   4.166   1.484   0.783
 2676SOL    HW1 8927   4.149   1.400   0.731
 2676SOL    HW2 8928   4.084   1.508   0.835
 2677SOL     OW 8929   3.338   3.581   0.613
 2677SOL    HW1 8930   3.248   3.622   0.618
 2677SOL    HW2 8931   3.330   3.485   0.586
 2678SOL     OW 8932   0.198   2.629   1.452
 2678SOL    HW1 8933   0.230   2.656   1.543
 2678SOL    HW2 8934   0.268   2.649   1.384
 2679SOL     OW 8935   3.537   4.813   1.127
 2679SOL    HW1 8936   3.549   4.737   1.191
 2679SOL    HW2 8937   3.441   4.840   1.124
 2680SOL     OW 8938   0.848   1.262   0.696
 2680SOL    HW1 8939   0.846   1.352   0.652
 2680SOL    HW2 8940   0.826   1.191   0.628
 2681SOL     OW 8941   1.070   2.827   4.660
 2681SOL    HW1 8942   1.146   2.823   4.725
 2681SOL    HW2 8943   1.070   2.745   4.603
 2682SOL     OW 8944   5.281   4.362   2.345
 2682SOL    HW1 8945   5.244   4.450   2.374
 2682SOL    HW2 8946   5.381   4.367   2.343
 2683SOL     OW 8947   2.563   4.377   0.702
 2683SOL    HW1 8948   2.548   4.446   0.631
 2683SOL    HW2 8949   2.654   4.337   0.691
 2684SOL     OW 8950   4.356   5.376   0.849
 2684SOL    HW1 8951   4.338   5.325   0.933
 2684SOL    HW2 8952   4.399   5.464   0.871
 2685SOL     OW 8953   6.308   6.212   6.796
 2685SOL    HW1 8954   6.229   6.171   6.841
 2685SOL    HW2 8955   6.279   6.250   6.707
 2686SOL     OW 8956   1.559   1.703   5.673
 2686SOL    HW1 8957   1.631   1.663   5.615
 2686SOL    HW2 8958   1.520   1.782   5.626
 2687SOL     OW 8959   4.821   4.153   1.984
 2687SOL    HW1 8960   4.872   4.235   1.959
 2687SOL    HW2 8961   4.731   4.179   2.020
 2688SOL     OW 8962   4.704   4.294   6.975
 2688SOL    HW1 8963   4.768   4.367   7.000
 2688SOL    HW2 8964   4.751   4.228   6.916
 2689SOL     OW 8965   1.456   3.345   3.633
 2689SOL    HW1 8966   1.421   3.275   3.696
 2689SOL    HW2 8967   1.469   3.305   3.542
 2690SOL     OW 8968   3.491   3.445   3.885
 2690SOL    HW1 8969   3.590   3.451   3.900
 2690SOL    HW2 8970   3.461   3.350   3.891
 2691SOL     OW 8971   1.753   5.727   1.943
 2691SOL    HW1 8972   1.776   5.763   1.852
 2691SOL    HW2 8973   1.837   5.717   1.997
 2692SOL     OW 8974   3.405   5.152   2.801
 2692SOL    HW1 8975   3.424   5.055   2.783
 2692SOL    HW2 8976   3.483   5.207   2.773
 2693SOL     OW 8977   1.463   4.714   2.639
 2693SOL    HW1 8978   1.451   4.736   2.543
 2693SOL    HW2 8979   1.408   4.776   2.695
 2694SOL     OW 8980   4.352   6.709   2.721
 2694SOL    HW1 8981   4.261   6.719   2.682
 2694SOL    HW2 8982   4.420   6.707   2.648
 2695SOL     OW 8983   4.971   0.331   2.566
 2695SOL    HW1 8984   5.015   0.416   2.536
 2695SOL    HW2 8985   4.994   0.314   2.662
 2696SOL     OW 8986   3.739   3.234   5.711
 2696SOL    HW1 8987   3.802   3.273   5.778
 2696SOL    HW2 8988   3.666   3.299   5.693
 2697SOL     OW 8989   3.462   2.031   2.784
 2697SOL    HW1 8990   3.381   2.003   2.732
 2697SOL    HW2 8991   3.545   2.006   2.733
 2698SOL     OW 8992   2.192   6.443   0.420
 2698SOL    HW1 8993   2.132   6.365   0.401
 2698SOL    HW2 8994   2.162   6.521   0.366
 2699SOL     OW 8995   3.128   6.537   0.491
 2699SOL    HW1 8996   3.109   6.468   0.421
 2699SOL    HW2 8997   3.225   6.560   0.491
 2700SOL     OW 8998   2.020   3.912   0.715
 2700SOL    HW1 8999   1.998   4.009   0.718
 2700SOL    HW2 9000   1.971   3.864   0.788
 2701SOL     OW 9001   4.736   0.821   6.797
 2701SOL    HW1 9002   4.670   0.894   6.817
 2701SOL    HW2 9003   4.827   0.850   6.826
 2702SOL     OW 9004   0.695   3.113   4.057
 2702SOL    HW1 9005   0.725   3.019   4.040
 2702SOL    HW2 9006   0.604   3.112   4.098
 2703SOL     OW 9007   1.825   0.485   2.001
 2703SOL    HW1 9008   1.729   0.470   2.024
 2703SOL    HW2 9009   1.881   0.474   2.083
 2704SOL     OW 9010   6.684   6.525   1.099
 2704SOL    HW1 9011   6.605   6.537   1.159
 2704SOL    HW2 9012   6.762   6.495   1.152
 2705SOL     OW 9013   0.495   5.592   4.542
 2705SOL    HW1 9014   0.567   5.523   4.548
 2705SOL    HW2 9015   0.519   5.670   4.599
 2706SOL     OW 9016   0.501   0.284   1.511
 2706SOL    HW1 9017   0.473   0.205   1.456
 2706SOL    HW2 9018   0.601   0.292   1.509
 2707SOL     OW 9019   2.879   0.655   4.844
 2707SOL    HW1 9020   2.876   0.580   4.778
 2707SOL    HW2 9021   2.858   0.741   4.797
 2708SOL     OW 9022   0.702   2.695   6.712
 2708SOL    HW1 9023   0.676   2.604   6.745
 2708SOL    HW2 9024   0.649   2.717   6.630
 2709SOL     OW 9025   6.418   6.423   0.218
 2709SOL    HW1 9026   6.451   6.517   0.208
 2709SOL    HW2 9027   6.426   6.395   0.314
 2710SOL     OW 9028   0.966   3.312   3.887
 2710SOL    HW1 9029   1.018   3.355   3.814
 2710SOL    HW2 9030   0.868   3.323   3.870
 2711SOL     OW 9031   2.690   1.414   4.124
 2711SOL    HW1 9032   2.710   1.341   4.058
 2711SOL    HW2 9033   2.628   1.480   4.083
 2712SOL     OW 9034   2.920   4.513   0.785
 2712SOL    HW1 9035   2.832   4.560   0.791
 2712SOL    HW2 9036   2.980   4.562   0.721
 2713SOL     OW 9037   2.313   2.341   5.007
 2713SOL    HW1 9038   2.342   2.429   5.044
 2713SOL    HW2 9039   2.371   2.268   5.046
 2714SOL     OW 9040   4.427   2.184   0.443
 2714SOL    HW1 9041   4.460   2.271   0.406
 2714SOL    HW2 9042   4.333   2.169   0.411
 2715SOL     OW 9043   4.809   1.451   0.666
 2715SOL    HW1 9044   4.728   1.400   0.638
 2715SOL    HW2 9045   4.800   1.479   0.762
 2716SOL     OW 9046   5.411   4.613   2.863
 2716SOL    HW1 9047   5.438   4.569   2.948
 2716SOL    HW2 9048   5.459   4.571   2.786
 2717SOL     OW 9049   1.635   5.426   2.251
 2717SOL    HW1 9050   1.653   5.329   2.270
 2717SOL    HW2 9051   1.713   5.481   2.281
 2718SOL     OW 9052   1.904   2.412   5.771
 2718SOL    HW1 9053   1.858   2.419   5.859
 2718SOL    HW2 9054   1.847   2.361   5.707
 2719SOL     OW 9055   6.731   5.808   1.228
 2719SOL    HW1 9056   6.818   5.856   1.238
 2719SOL    HW2 9057   6.692   5.829   1.138
 2720SOL     OW 9058   1.701   5.987   2.134
 2720SOL    HW1 9059   1.725   5.952   2.225
 2720SOL    HW2 9060   1.699   5.912   2.068
 2721SOL     OW 9061   3.071   0.592   3.744
 2721SOL    HW1 9062   3.010   0.662   3.707
 2721SOL    HW2 9063   3.020   0.530   3.803
 2722SOL     OW 9064   6.516   5.485   1.625
 2722SOL    HW1 9065   6.516   5.454   1.530
 2722SOL    HW2 9066   6.485   5.411   1.684
 2723SOL     OW 9067   1.132   0.051   5.897
 2723SOL    HW1 9068   1.039   0.086   5.887
 2723SOL    HW2 9069   1.134   6.974   5.872
 2724SOL     OW 9070   2.221   6.741   6.568
 2724SOL    HW1 9071   2.321   6.743   6.570
 2724SOL    HW2 9072   2.189   6.649   6.591
 2725SOL     OW 9073   5.447   4.927   4.242
 2725SOL    HW1 9074   5.498   5.012   4.254
 2725SOL    HW2 9075   5.350   4.947   4.235
 2726SOL     OW 9076   6.882   3.106   1.048
 2726SOL    HW1 9077   6.913   3.051   0.971
 2726SOL    HW2 9078   6.867   3.200   1.018
 2727SOL     OW 9079   0.388   4.871   4.019
 2727SOL    HW1 9080   0.358   4.939   4.085
 2727SOL    HW2 9081   0.476   4.900   3.980
 2728SOL     OW 9082   3.975   6.450   5.704
 2728SOL    HW1 9083   4.029   6.489   5.779
 2728SOL    HW2 9084   4.034   6.441   5.623
 2729SOL     OW 9085   6.492   5.756   1.373
 2729SOL    HW1 9086   6.478   5.658   1.384
 2729SOL    HW2 9087   6.583   5.772   1.334
 2730SOL     OW 9088   2.245   5.498   1.601
 2730SOL    HW1 9089   2.288   5.586   1.618
 2730SOL    HW2 9090   2.280   5.460   1.515
 2731SOL     OW 9091   4.150   3.454   2.131
 2731SOL    HW1 9092   4.166   3.472   2.034
 2731SOL    HW2 9093   4.126   3.358   2.144
 2732SOL     OW 9094   5.549   2.408   1.632
 2732SOL    HW1 9095   5.560   2.445   1.540
 2732SOL    HW2 9096   5.637   2.374   1.665
 2733SOL     OW 9097   0.962   0.086   4.348
 2733SOL    HW1 9098   1.017   0.047   4.421
 2733SOL    HW2 9099   0.865   0.080   4.372
 2734SOL     OW 9100   2.240   5.949   1.468
 2734SOL    HW1 9101   2.176   5.879   1.499
 2734SOL    HW2 9102   2.226   5.966   1.371
 2735SOL     OW 9103   0.822   3.897   2.549
 2735SOL    HW1 9104   0.840   3.850   2.635
 2735SOL    HW2 9105   0.895   3.963   2.532
 2736SOL     OW 9106   4.412   6.633   5.090
 2736SOL    HW1 9107   4.492   6.682   5.123
 2736SOL    HW2 9108   4.332   6.693   5.097
 2737SOL     OW 9109   3.499   3.414   5.769
 2737SOL    HW1 9110   3.485   3.512   5.759
 2737SOL    HW2 9111   3.423   3.365   5.724
 2738SOL     OW 9112   5.222   5.275   3.791
 2738SOL    HW1 9113   5.251   5.184   3.821
 2738SOL    HW2 9114   5.269   5.298   3.706
 2739SOL     OW 9115   0.306   4.568   1.035
 2739SOL    HW1 9116   0.304   4.537   1.131
 2739SOL    HW2 9117   0.236   4.519   0.983
 2740SOL     OW 9118   6.404   3.609   2.970
 2740SOL    HW1 9119   6.327   3.557   2.932
 2740SOL    HW2 9120   6.399   3.608   3.070
 2741SOL     OW 9121   6.000   0.612   5.756
 2741SOL    HW1 9122   6.003   0.614   5.656
 2741SOL    HW2 9123   6.012   0.705   5.791
 2742SOL     OW 9124   2.328   5.057   6.622
 2742SOL    HW1 9125   2.306   4.975   6.674
 2742SOL    HW2 9126   2.389   5.034   6.546
 2743SOL     OW 9127   6.986   5.178   2.207
 2743SOL    HW1 9128   0.027   5.243   2.254
 2743SOL    HW2 9129   6.928   5.226   2.143
 2744SOL     OW 9130   5.216   1.601   6.795
 2744SOL    HW1 9131   5.131   1.560   6.827
 2744SOL    HW2 9132   5.206   1.700   6.791
 2745SOL     OW 9133   0.832   6.618   6.061
 2745SOL    HW1 9134   0.748   6.614   6.115
 2745SOL    HW2 9135   0.904   6.569   6.109
 2746SOL     OW 9136   2.270   2.250   4.081
 2746SOL    HW1 9137   2.253   2.157   4.112
 2746SOL    HW2 9138   2.341   2.249   4.010
 2747SOL     OW 9139   5.996   3.657   5.956
 2747SOL    HW1 9140   5.925   3.666   5.887
 2747SOL    HW2 9141   6.077   3.708   5.928
 2748SOL     OW 9142   5.188   1.825   1.152
 2748SOL    HW1 9143   5.203   1.898   1.219
 2748SOL    HW2 9144   5.200   1.862   1.060
 2749SOL     OW 9145   6.413   4.836   3.559
 2749SOL    HW1 9146   6.368   4.863   3.474
 2749SOL    HW2 9147   6.505   4.802   3.539
 2750SOL     OW 9148   0.764   4.982   1.272
 2750SOL    HW1 9149   0.821   5.008   1.194
 2750SOL    HW2 9150   0.710   4.901   1.249
 2751SOL     OW 9151   0.125   6.474   1.338
 2751SOL    HW1 9152   0.169   6.386   1.321
 2751SOL    HW2 9153   0.087   6.476   1.430
 2752SOL     OW 9154   4.480   4.817   5.858
 2752SOL    HW1 9155   4.530   4.777   5.781
 2752SOL    HW2 9156   4.384   4.828   5.833
 2753SOL     OW 9157   0.496   7.009   5.421
 2753SOL    HW1 9158   0.511   6.938   5.489
 2753SOL    HW2 9159   0.554   6.992   5.341
 2754SOL     OW 9160   0.299   0.403   3.511
 2754SOL    HW1 9161   0.356   0.348   3.572
 2754SOL    HW2 9162   0.213   0.354   3.493
 2755SOL     OW 9163   2.125   0.125   3.561
 2755SOL    HW1 9164   2.147   0.031   3.535
 2755SOL    HW2 9165   2.074   0.169   3.488
 2756SOL     OW 9166   5.600   4.286   6.385
 2756SOL    HW1 9167   5.583   4.341   6.303
 2756SOL    HW2 9168   5.668   4.216   6.365
 2757SOL     OW 9169   2.348   1.348   6.084
 2757SOL    HW1 9170   2.266   1.302   6.119
 2757SOL    HW2 9171   2.341   1.446   6.102
 2758SOL     OW 9172   4.762   6.190   2.874
 2758SOL    HW1 9173   4.824   6.212   2.799
 2758SOL    HW2 9174   4.803   6.217   2.961
 2759SOL     OW 9175   4.822   5.448   5.631
 2759SOL    HW1 9176   4.773   5.395   5.561
 2759SOL    HW2 9177   4.758   5.507   5.680
 2760SOL     OW 9178   0.486   5.680   3.042
 2760SOL    HW1 9179   0.494   5.712   2.947
 2760SOL    HW2 9180   0.554   5.727   3.098
 2761SOL     OW 9181   1.989   4.330   4.870
 2761SOL    HW1 9182   2.085   4.307   4.888
 2761SOL    HW2 9183   1.968   4.418   4.912
 2762SOL     OW 9184   2.067   1.274   6.127
 2762SOL    HW1 9185   2.069   1.222   6.212
 2762SOL    HW2 9186   2.033   1.367   6.146
 2763SOL     OW 9187   4.735   2.306   4.924
 2763SOL    HW1 9188   4.814   2.357   4.891
 2763SOL    HW2 9189   4.662   2.371   4.947
 2764SOL     OW 9190   0.065   0.672   1.757
 2764SOL    HW1 9191   0.076   0.698   1.661
 2764SOL    HW2 9192   0.053   0.754   1.813
 2765SOL     OW 9193   6.176   6.839   1.050
 2765SOL    HW1 9194   6.144   6.770   0.986
 2765SOL    HW2 9195   6.156   6.930   1.014
 2766SOL     OW 9196   4.872   2.848   0.233
 2766SOL    HW1 9197   4.813   2.777   0.272
 2766SOL    HW2 9198   4.928   2.808   0.160
 2767SOL     OW 9199   0.049   5.584   0.412
 2767SOL    HW1 9200   6.986   5.634   0.386
 2767SOL    HW2 9201   0.072   5.604   0.507
 2768SOL     OW 9202   4.572   0.626   1.162
 2768SOL    HW1 9203   4.489   0.680   1.180
 2768SOL    HW2 9204   4.552   0.529   1.171
 2769SOL     OW 9205   2.221   4.790   6.454
 2769SOL    HW1 9206   2.186   4.813   6.545
 2769SOL    HW2 9207   2.146   4.759   6.396
 2770SOL     OW 9208   4.481   5.461   5.956
 2770SOL    HW1 9209   4.437   5.545   5.987
 2770SOL    HW2 9210   4.412   5.399   5.920
 2771SOL     OW 9211   5.830   1.186   5.068
 2771SOL    HW1 9212   5.792   1.103   5.108
 2771SOL    HW2 9213   5.839   1.174   4.969
 2772SOL     OW 9214   3.097   1.341   0.693
 2772SOL    HW1 9215   3.090   1.314   0.789
 2772SOL    HW2 9216   3.130   1.263   0.639
 2773SOL     OW 9217   6.576   2.374   4.415
 2773SOL    HW1 9218   6.663   2.376   4.465
 2773SOL    HW2 9219   6.516   2.444   4.452
 2774SOL     OW 9220   5.643   2.536   3.251
 2774SOL    HW1 9221   5.552   2.530   3.210
 2774SOL    HW2 9222   5.708   2.485   3.194
 2775SOL     OW 9223   6.952   3.871   5.573
 2775SOL    HW1 9224   0.016   3.920   5.548
 2775SOL    HW2 9225   6.943   3.870   5.673
 2776SOL     OW 9226   4.803   3.980   6.049
 2776SOL    HW1 9227   4.786   3.945   6.141
 2776SOL    HW2 9228   4.726   3.956   5.990
 2777SOL     OW 9229   2.784   1.963   1.466
 2777SOL    HW1 9230   2.739   2.030   1.406
 2777SOL    HW2 9231   2.837   2.011   1.536
 2778SOL     OW 9232   1.466   6.535   6.138
 2778SOL    HW1 9233   1.533   6.537   6.064
 2778SOL    HW2 9234   1.460   6.625   6.180
 2779SOL     OW 9235   5.267   6.794   2.079
 2779SOL    HW1 9236   5.210   6.806   2.160
 2779SOL    HW2 9237   5.337   6.866   2.076
 2780SOL     OW 9238   0.774   6.752   5.820
 2780SOL    HW1 9239   0.731   6.672   5.778
 2780SOL    HW2 9240   0.808   6.728   5.911
 2781SOL     OW 9241   6.079   0.513   1.932
 2781SOL    HW1 9242   6.167   0.550   1.961
 2781SOL    HW2 9243   6.037   0.465   2.009
 2782SOL     OW 9244   4.695   1.230   5.266
 2782SOL    HW1 9245   4.768   1.183   5.218
 2782SOL    HW2 9246   4.609   1.180   5.252
 2783SOL     OW 9247   5.793   4.153   2.427
 2783SOL    HW1 9248   5.780   4.201   2.514
 2783SOL    HW2 9249   5.716   4.091   2.412
 2784SOL     OW 9250   3.663   1.543   2.241
 2784SOL    HW1 9251   3.739   1.583   2.191
 2784SOL    HW2 9252   3.597   1.504   2.176
 2785SOL     OW 9253   5.260   1.978   0.923
 2785SOL    HW1 9254   5.250   2.077   0.913
 2785SOL    HW2 9255   5.243   1.934   0.835
 2786SOL     OW 9256   5.758   6.833   2.290
 2786SOL    HW1 9257   5.669   6.871   2.315
 2786SOL    HW2 9258   5.776   6.851   2.193
 2787SOL     OW 9259   5.907   6.562   5.707
 2787SOL    HW1 9260   5.935   6.655   5.729
 2787SOL    HW2 9261   5.809   6.551   5.726
 2788SOL     OW 9262   2.717   6.626   5.750
 2788SOL    HW1 9263   2.742   6.593   5.659
 2788SOL    HW2 9264   2.799   6.649   5.801
 2789SOL     OW 9265   2.359   1.902   3.870
 2789SOL    HW1 9266   2.321   1.901   3.777
 2789SOL    HW2 9267   2.455   1.930   3.867
 2790SOL     OW 9268   3.491   5.415   1.556
 2790SOL    HW1 9269   3.552   5.447   1.484
 2790SOL    HW2 9270   3.398   5.446   1.538
 2791SOL     OW 9271   0.329   2.730   2.707
 2791SOL    HW1 9272   0.413   2.785   2.701
 2791SOL    HW2 9273   0.251   2.791   2.720
 2792SOL     OW 9274   2.088   1.013   3.952
 2792SOL    HW1 9275   2.160   1.037   3.887
 2792SOL    HW2 9276   2.104   0.920   3.987
 2793SOL     OW 9277   5.165   3.566   1.094
 2793SOL    HW1 9278   5.094   3.570   1.024
 2793SOL    HW2 9279   5.134   3.614   1.176
 2794SOL     OW 9280   6.557   1.717   6.030
 2794SOL    HW1 9281   6.644   1.737   6.075
 2794SOL    HW2 9282   6.510   1.643   6.079
 2795SOL     OW 9283   0.813   2.908   0.911
 2795SOL    HW1 9284   0.911   2.923   0.900
 2795SOL    HW2 9285   0.787   2.925   1.006
 2796SOL     OW 9286   6.920   6.162   3.081
 2796SOL    HW1 9287   6.829   6.153   3.041
 2796SOL    HW2 9288   6.987   6.177   3.008
 2797SOL     OW 9289   5.024   5.493   5.460
 2797SOL    HW1 9290   5.104   5.499   5.519
 2797SOL    HW2 9291   4.954   5.438   5.505
 2798SOL     OW 9292   6.185   5.507   2.767
 2798SOL    HW1 9293   6.240   5.429   2.737
 2798SOL    HW2 9294   6.095   5.475   2.796
 2799SOL     OW 9295   5.802   5.453   5.769
 2799SOL    HW1 9296   5.748   5.534   5.749
 2799SOL    HW2 9297   5.781   5.381   5.703
 2800SOL     OW 9298   4.750   6.306   5.789
 2800SOL    HW1 9299   4.708   6.267   5.871
 2800SOL    HW2 9300   4.830   6.360   5.814
 2801SOL     OW 9301   0.613   5.315   5.694
 2801SOL    HW1 9302   0.683   5.385   5.685
 2801SOL    HW2 9303   0.548   5.322   5.618
 2802SOL     OW 9304   5.679   6.203   5.600
 2802SOL    HW1 9305   5.720   6.211   5.510
 2802SOL    HW2 9306   5.741   6.154   5.661
 2803SOL     OW 9307   4.129   4.917   6.052
 2803SOL    HW1 9308   4.111   5.001   6.105
 2803SOL    HW2 9309   4.214   4.875   6.085
 2804SOL     OW 9310   1.192   4.229   5.335
 2804SOL    HW1 9311   1.113   4.287   5.316
 2804SOL    HW2 9312   1.236   4.259   5.420
 2805SOL     OW 9313   5.820   3.179   2.908
 2805SOL    HW1 9314   5.773   3.258   2.947
 2805SOL    HW2 9315   5.847   3.199   2.814
 2806SOL     OW 9316   2.074   3.920   6.136
 2806SOL    HW1 9317   2.090   3.922   6.038
 2806SOL    HW2 9318   2.018   3.841   6.159
 2807SOL     OW 9319   3.986   6.681   3.580
 2807SOL    HW1 9320   4.052   6.678   3.505
 2807SOL    HW2 9321   4.025   6.732   3.657
 2808SOL     OW 9322   6.488   5.188   2.218
 2808SOL    HW1 9323   6.523   5.278   2.244
 2808SOL    HW2 9324   6.391   5.183   2.239
 2809SOL     OW 9325   5.207   2.949   1.256
 2809SOL    HW1 9326   5.234   3.040   1.224
 2809SOL    HW2 9327   5.286   2.889   1.259
 2810SOL     OW 9328   2.052   5.692   2.892
 2810SOL    HW1 9329   1.964   5.672   2.935
 2810SOL    HW2 9330   2.126   5.664   2.953
 2811SOL     OW 9331   1.660   1.961   3.957
 2811SOL    HW1 9332   1.601   2.039   3.978
 2811SOL    HW2 9333   1.749   1.994   3.925
 2812SOL     OW 9334   5.807   2.880   0.237
 2812SOL    HW1 9335   5.898   2.869   0.279
 2812SOL    HW2 9336   5.738   2.886   0.309
 2813SOL     OW 9337   0.874   1.292   0.068
 2813SOL    HW1 9338   0.945   1.223   0.086
 2813SOL    HW2 9339   0.784   1.249   0.076
 2814SOL     OW 9340   3.439   4.080   5.474
 2814SOL    HW1 9341   3.491   3.995   5.477
 2814SOL    HW2 9342   3.495   4.155   5.509
 2815SOL     OW 9343   6.898   5.099   6.597
 2815SOL    HW1 9344   6.990   5.128   6.570
 2815SOL    HW2 9345   6.845   5.074   6.515
 2816SOL     OW 9346   6.502   5.771   3.863
 2816SOL    HW1 9347   6.598   5.781   3.890
 2816SOL    HW2 9348   6.443   5.785   3.943
 2817SOL     OW 9349   3.204   0.021   2.388
 2817SOL    HW1 9350   3.185   6.995   2.475
 2817SOL    HW2 9351   3.203   0.120   2.401
 2818SOL     OW 9352   6.996   0.956   2.366
 2818SOL    HW1 9353   0.031   0.928   2.444
 2818SOL    HW2 9354   6.900   0.966   2.393
 2819SOL     OW 9355   2.256   6.967   1.755
 2819SOL    HW1 9356   2.276   0.002   1.836
 2819SOL    HW2 9357   2.312   6.999   1.679
 2820SOL     OW 9358   1.702   1.866   3.267
 2820SOL    HW1 9359   1.749   1.923   3.200
 2820SOL    HW2 9360   1.710   1.907   3.358
 2821SOL     OW 9361   3.874   4.694   5.670
 2821SOL    HW1 9362   3.860   4.706   5.572
 2821SOL    HW2 9363   3.808   4.629   5.706
 2822SOL     OW 9364   4.184   2.038   0.333
 2822SOL    HW1 9365   4.085   2.054   0.335
 2822SOL    HW2 9366   4.203   1.946   0.369
 2823SOL     OW 9367   5.091   1.232   0.353
 2823SOL    HW1 9368   5.093   1.317   0.405
 2823SOL    HW2 9369   4.997   1.199   0.344
 2824SOL     OW 9370   2.051   1.979   5.389
 2824SOL    HW1 9371   2.088   2.052   5.331
 2824SOL    HW2 9372   2.120   1.907   5.399
 2825SOL     OW 9373   5.006   0.019   6.108
 2825SOL    HW1 9374   5.039   0.009   6.015
 2825SOL    HW2 9375   5.045   0.101   6.149
 2826SOL     OW 9376   4.678   2.574   7.016
 2826SOL    HW1 9377   4.659   2.665   6.981
 2826SOL    HW2 9378   4.618   2.507   6.972
 2827SOL     OW 9379   0.233   1.102   6.590
 2827SOL    HW1 9380   0.245   1.017   6.641
 2827SOL    HW2 9381   0.221   1.178   6.654
 2828SOL     OW 9382   2.046   2.550   0.703
 2828SOL    HW1 9383   1.981   2.480   0.732
 2828SOL    HW2 9384   2.001   2.639   0.699
 2829SOL     OW 9385   3.607   3.143   3.625
 2829SOL    HW1 9386   3.543   3.131   3.701
 2829SOL    HW2 9387   3.689   3.089   3.641
 2830SOL     OW 9388   3.118   4.218   5.175
 2830SOL    HW1 9389   3.047   4.281   5.144
 2830SOL    HW2 9390   3.158   4.171   5.096
 2831SOL     OW 9391   1.080   3.636   3.312
 2831SOL    HW1 9392   1.066   3.651   3.410
 2831SOL    HW2 9393   1.022   3.562   3.281
 2832SOL     OW 9394   0.491   2.782   2.004
 2832SOL    HW1 9395   0.458   2.689   2.016
 2832SOL    HW2 9396   0.428   2.846   2.048
 2833SOL     OW 9397   3.263   1.454   2.393
 2833SOL    HW1 9398   3.290   1.366   2.355
 2833SOL    HW2 9399   3.168   1.474   2.367
 2834SOL     OW 9400   3.810   6.062   5.729
 2834SOL    HW1 9401   3.717   6.088   5.701
 2834SOL    HW2 9402   3.808   5.972   5.772
 2835SOL     OW 9403   0.685   6.973   1.517
 2835SOL    HW1 9404   0.681   7.004   1.422
 2835SOL    HW2 9405   0.678   6.873   1.519
 2836SOL     OW 9406   0.740   6.723   1.405
 2836SOL    HW1 9407   0.764   6.746   1.310
 2836SOL    HW2 9408   0.808   6.659   1.442
 2837SOL     OW 9409   5.233   4.626   2.420
 2837SOL    HW1 9410   5.136   4.638   2.397
 2837SOL    HW2 9411   5.247   4.648   2.516
 2838SOL     OW 9412   4.363   3.716   0.892
 2838SOL    HW1 9413   4.303   3.636   0.897
 2838SOL    HW2 9414   4.308   3.799   0.893
 2839SOL     OW 9415   0.137   2.145   2.749
 2839SOL    HW1 9416   0.194   2.072   2.788
 2839SOL    HW2 9417   0.048   2.145   2.794
 2840SOL     OW 9418   1.535   6.324   1.783
 2840SOL    HW1 9419   1.531   6.397   1.715
 2840SOL    HW2 9420   1.553   6.237   1.737
 2841SOL     OW 9421   6.092   2.068   6.498
 2841SOL    HW1 9422   6.115   2.151   6.448
 2841SOL    HW2 9423   6.175   2.019   6.523
 2842SOL     OW 9424   0.308   4.940   4.462
 2842SOL    HW1 9425   0.338   4.974   4.551
 2842SOL    HW2 9426   0.221   4.891   4.473
 2843SOL     OW 9427   2.821   1.972   2.827
 2843SOL    HW1 9428   2.765   1.987   2.745
 2843SOL    HW2 9429   2.797   2.041   2.896
 2844SOL     OW 9430   6.472   5.291   0.675
 2844SOL    HW1 9431   6.529   5.248   0.605
 2844SOL    HW2 9432   6.511   5.274   0.765
 2845SOL     OW 9433   5.397   2.891   2.178
 2845SOL    HW1 9434   5.323   2.933   2.127
 2845SOL    HW2 9435   5.476   2.878   2.119
 2846SOL     OW 9436   4.009   6.944   0.330
 2846SOL    HW1 9437   3.971   6.952   0.237
 2846SOL    HW2 9438   4.095   6.995   0.335
 2847SOL     OW 9439   5.366   3.746   3.333
 2847SOL    HW1 9440   5.365   3.649   3.312
 2847SOL    HW2 9441   5.425   3.762   3.412
 2848SOL     OW 9442   2.119   2.704   5.391
 2848SOL    HW1 9443   2.177   2.777   5.356
 2848SOL    HW2 9444   2.102   2.718   5.489
 2849SOL     OW 9445   3.253   0.327   1.026
 2849SOL    HW1 9446   3.175   0.282   0.983
 2849SOL    HW2 9447   3.337   0.280   1.000
 2850SOL     OW 9448   2.136   0.077   2.822
 2850SOL    HW1 9449   2.067   0.102   2.755
 2850SOL    HW2 9450   2.168   0.159   2.870
 2851SOL     OW 9451   5.631   2.401   6.491
 2851SOL    HW1 9452   5.682   2.318   6.511
 2851SOL    HW2 9453   5.685   2.461   6.433
 2852SOL     OW 9454   6.213   4.287   0.020
 2852SOL    HW1 9455   6.307   4.300   7.006
 2852SOL    HW2 9456   6.188   4.191   0.012
 2853SOL     OW 9457   1.849   2.209   6.539
 2853SOL    HW1 9458   1.900   2.216   6.453
 2853SOL    HW2 9459   1.913   2.211   6.615
 2854SOL     OW 9460   4.096   1.157   5.743
 2854SOL    HW1 9461   4.089   1.076   5.685
 2854SOL    HW2 9462   4.013   1.164   5.799
 2855SOL     OW 9463   1.279   1.803   5.357
 2855SOL    HW1 9464   1.310   1.852   5.439
 2855SOL    HW2 9465   1.345   1.818   5.283
 2856SOL     OW 9466   0.615   3.210   4.567
 2856SOL    HW1 9467   0.689   3.264   4.527
 2856SOL    HW2 9468   0.545   3.272   4.605
 2857SOL     OW 9469   0.735   2.404   1.304
 2857SOL    HW1 9470   0.662   2.470   1.291
 2857SOL    HW2 9471   0.700   2.312   1.292
 2858SOL     OW 9472   4.190   5.169   2.585
 2858SOL    HW1 9473   4.235   5.120   2.510
 2858SOL    HW2 9474   4.260   5.205   2.648
 2859SOL     OW 9475   6.290   0.074   6.827
 2859SOL    HW1 9476   6.239   0.029   6.900
 2859SOL    HW2 9477   6.387   0.048   6.834
 2860SOL     OW 9478   2.317   0.515   2.397
 2860SOL    HW1 9479   2.264   0.465   2.328
 2860SOL    HW2 9480   2.263   0.592   2.431
 2861SOL     OW 9481   3.034   5.675   5.038
 2861SOL    HW1 9482   3.016   5.750   4.975
 2861SOL    HW2 9483   2.979   5.595   5.012
 2862SOL     OW 9484   4.340   2.309   1.611
 2862SOL    HW1 9485   4.430   2.340   1.644
 2862SOL    HW2 9486   4.347   2.284   1.515
 2863SOL     OW 9487   4.615   1.292   6.635
 2863SOL    HW1 9488   4.538   1.244   6.592
 2863SOL    HW2 9489   4.701   1.251   6.605
 2864SOL     OW 9490   4.508   2.314   0.982
 2864SOL    HW1 9491   4.504   2.320   0.882
 2864SOL    HW2 9492   4.598   2.344   1.014
 2865SOL     OW 9493   4.408   6.292   4.196
 2865SOL    HW1 9494   4.396   6.278   4.098
 2865SOL    HW2 9495   4.487   6.351   4.212
 2866SOL     OW 9496   5.429   4.707   6.805
 2866SOL    HW1 9497   5.445   4.613   6.773
 2866SOL    HW2 9498   5.444   4.711   6.904
 2867SOL     OW 9499   5.949   6.172   2.739
 2867SOL    HW1 9500   5.913   6.248   2.794
 2867SOL    HW2 9501   6.039   6.197   2.703
 2868SOL     OW 9502   1.305   1.239   5.717
 2868SOL    HW1 9503   1.401   1.265   5.710
 2868SOL    HW2 9504   1.267   1.224   5.626
 2869SOL     OW 9505   6.473   0.646   2.982
 2869SOL    HW1 9506   6.544   0.715   2.968
 2869SOL    HW2 9507   6.383   0.688   2.972
 2870SOL     OW 9508   0.545   2.199   5.821
 2870SOL    HW1 9509   0.477   2.139   5.863
 2870SOL    HW2 9510   0.628   2.147   5.801
 2871SOL     OW 9511   5.947   1.094   0.608
 2871SOL    HW1 9512   5.890   1.143   0.542
 2871SOL    HW2 9513   5.955   1.148   0.692
 2872SOL     OW 9514   2.401   1.994   1.399
 2872SOL    HW1 9515   2.344   1.920   1.436
 2872SOL    HW2 9516   2.359   2.082   1.421
 2873SOL     OW 9517   6.619   6.666   2.174
 2873SOL    HW1 9518   6.706   6.715   2.166
 2873SOL    HW2 9519   6.619   6.612   2.257
 2874SOL     OW 9520   4.268   6.597   2.326
 2874SOL    HW1 9521   4.340   6.542   2.369
 2874SOL    HW2 9522   4.181   6.548   2.331
 2875SOL     OW 9523   5.152   0.001   1.073
 2875SOL    HW1 9524   5.129   6.923   1.074
 2875SOL    HW2 9525   5.183   0.030   1.164
 2876SOL     OW 9526   2.035   0.503   2.793
 2876SOL    HW1 9527   2.000   0.449   2.715
 2876SOL    HW2 9528   2.055   0.441   2.869
 2877SOL     OW 9529   2.524   0.978   5.951
 2877SOL    HW1 9530   2.497   1.045   5.882
 2877SOL    HW2 9531   2.486   0.889   5.926
 2878SOL     OW 9532   2.864   3.963   5.244
 2878SOL    HW1 9533   2.869   4.054   5.285
 2878SOL    HW2 9534   2.890   3.968   5.147
 2879SOL     OW 9535   5.525   5.527   5.905
 2879SOL    HW1 9536   5.433   5.529   5.866
 2879SOL    HW2 9537   5.588   5.575   5.844
 2880SOL     OW 9538   0.557   1.712   2.651
 2880SOL    HW1 9539   0.570   1.624   2.697
 2880SOL    HW2 9540   0.576   1.787   2.714
 2881SOL     OW 9541   4.149   5.821   0.363
 2881SOL    HW1 9542   4.091   5.902   0.361
 2881SOL    HW2 9543   4.147   5.777   0.273
 2882SOL     OW 9544   0.435   5.862   1.709
 2882SOL    HW1 9545   0.374   5.795   1.666
 2882SOL    HW2 9546   0.428   5.949   1.661
 2883SOL     OW 9547   5.778   0.145   4.016
 2883SOL    HW1 9548   5.854   0.130   3.953
 2883SOL    HW2 9549   5.780   0.240   4.047
 2884SOL     OW 9550   1.004   6.647   2.749
 2884SOL    HW1 9551   0.986   6.549   2.755
 2884SOL    HW2 9552   1.062   6.665   2.669
 2885SOL     OW 9553   1.522   2.949   4.162
 2885SOL    HW1 9554   1.457   2.896   4.216
 2885SOL    HW2 9555   1.512   3.046   4.183
 2886SOL     OW 9556   1.986   3.418   6.522
 2886SOL    HW1 9557   1.896   3.430   6.479
 2886SOL    HW2 9558   2.006   3.320   6.530
 2887SOL     OW 9559   0.987   0.368   5.269
 2887SOL    HW1 9560   1.015   0.285   5.317
 2887SOL    HW2 9561   0.912   0.346   5.207
 2888SOL     OW 9562   0.030   4.084   6.731
 2888SOL    HW1 9563   0.076   4.037   6.655
 2888SOL    HW2 9564   0.097   4.139   6.781
 2889SOL     OW 9565   2.824   6.120   2.493
 2889SOL    HW1 9566   2.843   6.186   2.421
 2889SOL    HW2 9567   2.831   6.165   2.582
 2890SOL     OW 9568   1.522   6.560   0.389
 2890SOL    HW1 9569   1.472   6.546   0.303
 2890SOL    HW2 9570   1.619   6.539   0.374
 2891SOL     OW 9571   0.627   3.902   3.457
 2891SOL    HW1 9572   0.697   3.967   3.487
 2891SOL    HW2 9573   0.630   3.894   3.358
 2892SOL     OW 9574   6.413   3.044   0.927
 2892SOL    HW1 9575   6.459   3.080   0.846
 2892SOL    HW2 9576   6.466   2.969   0.966
 2893SOL     OW 9577   0.670   5.195   4.607
 2893SOL    HW1 9578   0.727   5.115   4.590
 2893SOL    HW2 9579   0.727   5.276   4.613
 2894SOL     OW 9580   0.798   2.976   2.143
 2894SOL    HW1 9581   0.736   3.036   2.194
 2894SOL    HW2 9582   0.892   3.008   2.154
 2895SOL     OW 9583   5.068   1.114   5.208
 2895SOL    HW1 9584   5.042   1.070   5.294
 2895SOL    HW2 9585   5.167   1.106   5.195
 2896SOL     OW 9586   4.228   6.886   5.381
 2896SOL    HW1 9587   4.241   6.952   5.455
 2896SOL    HW2 9588   4.285   6.806   5.397
 2897SOL     OW 9589   3.938   5.142   2.620
 2897SOL    HW1 9590   3.914   5.044   2.622
 2897SOL    HW2 9591   4.031   5.153   2.586
 2898SOL     OW 9592   4.274   4.812   4.619
 2898SOL    HW1 9593   4.297   4.792   4.523
 2898SOL    HW2 9594   4.176   4.833   4.626
 2899SOL     OW 9595   0.324   1.767   0.886
 2899SOL    HW1 9596   0.370   1.716   0.958
 2899SOL    HW2 9597   0.369   1.750   0.798
 2900SOL     OW 9598   3.360   4.526   6.975
 2900SOL    HW1 9599   3.424   4.578   0.012
 2900SOL    HW2 9600   3.403   4.439   6.947
 2901SOL     OW 9601   2.711   4.695   3.089
 2901SOL    HW1 9602   2.656   4.771   3.124
 2901SOL    HW2 9603   2.807   4.709   3.116
 2902SOL     OW 9604   6.303   4.795   3.065
 2902SOL    HW1 9605   6.224   4.784   3.126
 2902SOL    HW2 9606   6.349   4.707   3.054
 2903SOL     OW 9607   4.090   6.581   0.408
 2903SOL    HW1 9608   4.003   6.626   0.428
 2903SOL    HW2 9609   4.086   6.486   0.437
 2904SOL     OW 9610   2.790   5.020   4.510
 2904SOL    HW1 9611   2.844   4.938   4.526
 2904SOL    HW2 9612   2.838   5.081   4.447
 2905SOL     OW 9613   1.536   3.937   4.057
 2905SOL    HW1 9614   1.590   3.900   4.132
 2905SOL    HW2 9615   1.442   3.901   4.063
 2906SOL     OW 9616   4.919   4.995   2.635
 2906SOL    HW1 9617   4.831   5.009   2.590
 2906SOL    HW2 9618   4.942   4.898   2.635
 2907SOL     OW 9619   0.805   1.796   3.763
 2907SOL    HW1 9620   0.859   1.713   3.771
 2907SOL    HW2 9621   0.844   1.853   3.690
 2908SOL     OW 9622   5.142   6.799   3.366
 2908SOL    HW1 9623   5.212   6.818   3.297
 2908SOL    HW2 9624   5.151   6.864   3.441
 2909SOL     OW 9625   1.929   6.114   4.105
 2909SOL    HW1 9626   1.882   6.184   4.159
 2909SOL    HW2 9627   1.987   6.158   4.037
 2910SOL     OW 9628   5.769   0.763   4.316
 2910SOL    HW1 9629   5.835   0.694   4.285
 2910SOL    HW2 9630   5.758   0.756   4.416
 2911SOL     OW 9631   2.276   6.055   3.612
 2911SOL    HW1 9632   2.241   6.147   3.632
 2911SOL    HW2 9633   2.375   6.058   3.603
 2912SOL     OW 9634   5.897   6.815   0.494
 2912SOL    HW1 9635   5.959   6.742   0.466
 2912SOL    HW2 9636   5.869   6.868   0.414
 2913SOL     OW 9637   3.790   4.840   1.702
 2913SOL    HW1 9638   3.819   4.934   1.723
 2913SOL    HW2 9639   3.745   4.800   1.782
 2914SOL     OW 9640   6.272   5.898   6.563
 2914SOL    HW1 9641   6.289   5.808   6.522
 2914SOL    HW2 9642   6.318   5.969   6.510
 2915SOL     OW 9643   3.294   2.114   3.395
 2915SOL    HW1 9644   3.375   2.087   3.447
 2915SOL    HW2 9645   3.217   2.128   3.458
 2916SOL     OW 9646   1.296   5.849   0.441
 2916SOL    HW1 9647   1.332   5.883   0.354
 2916SOL    HW2 9648   1.294   5.923   0.508
 2917SOL     OW 9649   2.581   6.982   3.692
 2917SOL    HW1 9650   2.501   0.021   3.680
 2917SOL    HW2 9651   2.664   0.017   3.675
 2918SOL     OW 9652   6.122   4.264   5.393
 2918SOL    HW1 9653   6.040   4.225   5.434
 2918SOL    HW2 9654   6.151   4.208   5.315
 2919SOL     OW 9655   5.819   0.284   1.919
 2919SOL    HW1 9656   5.720   0.269   1.915
 2919SOL    HW2 9657   5.838   0.381   1.932
 2920SOL     OW 9658   2.476   1.058   1.076
 2920SOL    HW1 9659   2.513   0.984   1.019
 2920SOL    HW2 9660   2.515   1.052   1.167
 2921SOL     OW 9661   0.937   6.726   4.440
 2921SOL    HW1 9662   0.848   6.743   4.398
 2921SOL    HW2 9663   0.949   6.789   4.517
 2922SOL     OW 9664   4.710   6.720   1.402
 2922SOL    HW1 9665   4.753   6.773   1.329
 2922SOL    HW2 9666   4.615   6.749   1.413
 2923SOL     OW 9667   6.203   5.661   3.087
 2923SOL    HW1 9668   6.141   5.736   3.107
 2923SOL    HW2 9669   6.266   5.649   3.163
 2924SOL     OW 9670   6.447   2.442   5.291
 2924SOL    HW1 9671   6.441   2.350   5.251
 2924SOL    HW2 9672   6.373   2.498   5.254
 2925SOL     OW 9673   5.946   2.198   0.492
 2925SOL    HW1 9674   5.882   2.150   0.551
 2925SOL    HW2 9675   5.992   2.270   0.544
 2926SOL     OW 9676   5.208   2.099   6.682
 2926SOL    HW1 9677   5.289   2.116   6.626
 2926SOL    HW2 9678   5.137   2.056   6.626
 2927SOL     OW 9679   1.421   3.957   1.135
 2927SOL    HW1 9680   1.355   4.029   1.113
 2927SOL    HW2 9681   1.497   3.961   1.070
 2928SOL     OW 9682   6.816   0.712   6.760
 2928SOL    HW1 9683   6.774   0.745   6.845
 2928SOL    HW2 9684   6.773   0.627   6.732
 2929SOL     OW 9685   1.647   2.804   6.483
 2929SOL    HW1 9686   1.548   2.813   6.479
 2929SOL    HW2 9687   1.674   2.711   6.458
 2930SOL     OW 9688   5.204   0.226   5.687
 2930SOL    HW1 9689   5.289   0.260   5.728
 2930SOL    HW2 9690   5.136   0.300   5.685
 2931SOL     OW 9691   5.067   5.186   0.156
 2931SOL    HW1 9692   5.011   5.181   0.238
 2931SOL    HW2 9693   5.108   5.097   0.138
 2932SOL     OW 9694   1.020   5.958   1.932
 2932SOL    HW1 9695   1.113   5.996   1.933
 2932SOL    HW2 9696   1.022   5.864   1.967
 2933SOL     OW 9697   1.796   5.916   2.388
 2933SOL    HW1 9698   1.894   5.931   2.377
 2933SOL    HW2 9699   1.753   5.997   2.427
 2934SOL     OW 9700   5.394   2.173   6.861
 2934SOL    HW1 9701   5.465   2.212   6.803
 2934SOL    HW2 9702   5.325   2.128   6.805
 2935SOL     OW 9703   6.566   2.966   6.327
 2935SOL    HW1 9704   6.512   3.007   6.253
 2935SOL    HW2 9705   6.505   2.919   6.391
 2936SOL     OW 9706   4.474   6.011   0.421
 2936SOL    HW1 9707   4.429   5.975   0.340
 2936SOL    HW2 9708   4.542   6.080   0.394
 2937SOL     OW 9709   5.234   4.921   1.565
 2937SOL    HW1 9710   5.334   4.915   1.560
 2937SOL    HW2 9711   5.208   5.002   1.617
 2938SOL     OW 9712   5.054   4.813   6.959
 2938SOL    HW1 9713   4.999   4.789   0.019
 2938SOL    HW2 9714   5.072   4.731   6.904
 2939SOL     OW 9715   2.431   0.737   1.743
 2939SOL    HW1 9716   2.353   0.692   1.699
 2939SOL    HW2 9717   2.411   0.753   1.840
 2940SOL     OW 9718   5.468   5.534   5.201
 2940SOL    HW1 9719   5.507   5.465   5.140
 2940SOL    HW2 9720   5.373   5.512   5.220
 2941SOL     OW 9721   2.138   2.009   4.203
 2941SOL    HW1 9722   2.197   1.933   4.233
 2941SOL    HW2 9723   2.098   2.052   4.283
 2942SOL     OW 9724   4.019   2.213   0.709
 2942SOL    HW1 9725   4.047   2.119   0.693
 2942SOL    HW2 9726   4.054   2.272   0.636
 2943SOL     OW 9727   5.986   3.867   4.129
 2943SOL    HW1 9728   6.082   3.862   4.100
 2943SOL    HW2 9729   5.937   3.787   4.096
 2944SOL     OW 9730   2.897   5.690   4.018
 2944SOL    HW1 9731   2.872   5.777   4.060
 2944SOL    HW2 9732   2.838   5.618   4.053
 2945SOL     OW 9733   3.644   3.267   2.134
 2945SOL    HW1 9734   3.595   3.187   2.100
 2945SOL    HW2 9735   3.578   3.334   2.169
 2946SOL     OW 9736   1.553   5.160   6.144
 2946SOL    HW1 9737   1.531   5.253   6.171
 2946SOL    HW2 9738   1.639   5.160   6.093
 2947SOL     OW 9739   0.588   5.284   1.559
 2947SOL    HW1 9740   0.533   5.359   1.596
 2947SOL    HW2 9741   0.679   5.286   1.601
 2948SOL     OW 9742   0.390   4.181   4.332
 2948SOL    HW1 9743   0.431   4.223   4.413
 2948SOL    HW2 9744   0.390   4.246   4.257
 2949SOL     OW 9745   1.356   5.445   1.147
 2949SOL    HW1 9746   1.318   5.379   1.212
 2949SOL    HW2 9747   1.314   5.535   1.163
 2950SOL     OW 9748   5.827   5.815   4.255
 2950SOL    HW1 9749   5.739   5.815   4.207
 2950SOL    HW2 9750   5.854   5.721   4.275
 2951SOL     OW 9751   5.360   1.701   2.340
 2951SOL    HW1 9752   5.381   1.673   2.434
 2951SOL    HW2 9753   5.274   1.752   2.340
 2952SOL     OW 9754   6.972   5.845   5.598
 2952SOL    HW1 9755   6.906   5.901   5.650
 2952SOL    HW2 9756   0.023   5.904   5.559
 2953SOL     OW 9757   6.117   3.975   2.909
 2953SOL    HW1 9758   6.186   3.919   2.955
 2953SOL    HW2 9759   6.039   3.918   2.883
 2954SOL     OW 9760   1.188   5.733   1.664
 2954SOL    HW1 9761   1.183   5.685   1.576
 2954SOL    HW2 9762   1.186   5.666   1.739
 2955SOL     OW 9763   0.776   4.230   1.476
 2955SOL    HW1 9764   0.750   4.144   1.521
 2955SOL    HW2 9765   0.711   4.251   1.403
 2956SOL     OW 9766   5.580   6.354   2.738
 2956SOL    HW1 9767   5.593   6.364   2.639
 2956SOL    HW2 9768   5.644   6.286   2.773
 2957SOL     OW 9769   5.577   4.259   1.574
 2957SOL    HW1 9770   5.631   4.292   1.496
 2957SOL    HW2 9771   5.499   4.206   1.540
 2958SOL     OW 9772   2.421   4.363   3.648
 2958SOL    HW1 9773   2.424   4.263   3.650
 2958SOL    HW2 9774   2.368   4.392   3.568
 2959SOL     OW 9775   5.058   3.604   1.570
 2959SOL    HW1 9776   4.974   3.657   1.556
 2959SOL    HW2 9777   5.049   3.551   1.655
 2960SOL     OW 9778   3.067   0.466   0.559
 2960SOL    HW1 9779   3.052   0.417   0.473
 2960SOL    HW2 9780   3.165   0.474   0.575
 2961SOL     OW 9781   6.020   4.510   3.465
 2961SOL    HW1 9782   5.977   4.596   3.489
 2961SOL    HW2 9783   5.956   4.454   3.413
 2962SOL     OW 9784   4.793   5.965   3.474
 2962SOL    HW1 9785   4.801   5.931   3.380
 2962SOL    HW2 9786   4.750   6.055   3.473
 2963SOL     OW 9787   1.414   1.098   6.847
 2963SOL    HW1 9788   1.393   1.083   6.751
 2963SOL    HW2 9789   1.512   1.086   6.862
 2964SOL     OW 9790   6.908   1.326   5.076
 2964SOL    HW1 9791   6.916   1.420   5.107
 2964SOL    HW2 9792   6.926   1.264   5.152
 2965SOL     OW 9793   0.403   0.368   4.566
 2965SOL    HW1 9794   0.429   0.339   4.474
 2965SOL    HW2 9795   0.331   0.436   4.561
 2966SOL     OW 9796   4.326   5.106   3.129
 2966SOL    HW1 9797   4.341   5.205   3.130
 2966SOL    HW2 9798   4.359   5.067   3.215
 2967SOL     OW 9799   5.647   0.941   5.727
 2967SOL    HW1 9800   5.632   1.027   5.777
 2967SOL    HW2 9801   5.564   0.886   5.728
 2968SOL     OW 9802   1.107   2.711   0.604
 2968SOL    HW1 9803   1.090   2.613   0.603
 2968SOL    HW2 9804   1.179   2.733   0.539
 2969SOL     OW 9805   4.554   2.178   4.402
 2969SOL    HW1 9806   4.511   2.130   4.479
 2969SOL    HW2 9807   4.560   2.275   4.422
 2970SOL     OW 9808   2.394   2.762   5.575
 2970SOL    HW1 9809   2.435   2.673   5.594
 2970SOL    HW2 9810   2.426   2.796   5.486
 2971SOL     OW 9811   5.111   3.960   0.470
 2971SOL    HW1 9812   5.113   3.862   0.448
 2971SOL    HW2 9813   5.032   4.002   0.426
 2972SOL     OW 9814   6.719   4.964   6.433
 2972SOL    HW1 9815   6.764   4.875   6.437
 2972SOL    HW2 9816   6.639   4.965   6.492
 2973SOL     OW 9817   5.428   5.959   1.679
 2973SOL    HW1 9818   5.407   5.871   1.634
 2973SOL    HW2 9819   5.524   5.981   1.665
 2974SOL     OW 9820   0.543   4.615   4.131
 2974SOL    HW1 9821   0.505   4.707   4.128
 2974SOL    HW2 9822   0.635   4.617   4.171
 2975SOL     OW 9823   4.852   3.858   4.195
 2975SOL    HW1 9824   4.855   3.922   4.272
 2975SOL    HW2 9825   4.827   3.906   4.111
 2976SOL     OW 9826   4.414   2.323   2.849
 2976SOL    HW1 9827   4.479   2.253   2.876
 2976SOL    HW2 9828   4.411   2.328   2.749
 2977SOL     OW 9829   1.511   0.759   2.504
 2977SOL    HW1 9830   1.593   0.810   2.530
 2977SOL    HW2 9831   1.430   0.809   2.533
 2978SOL     OW 9832   3.979   4.827   0.240
 2978SOL    HW1 9833   3.903   4.823   0.304
 2978SOL    HW2 9834   4.023   4.737   0.235
 2979SOL     OW 9835   3.742   1.054   3.793
 2979SOL    HW1 9836   3.688   0.973   3.816
 2979SOL    HW2 9837   3.804   1.033   3.718
 2980SOL     OW 9838   1.744   5.445   5.483
 2980SOL    HW1 9839   1.663   5.498   5.508
 2980SOL    HW2 9840   1.726   5.393   5.400
 2981SOL     OW 9841   3.076   1.008   6.152
 2981SOL    HW1 9842   3.132   1.052   6.082
 2981SOL    HW2 9843   3.015   0.942   6.109
 2982SOL     OW 9844   3.140   5.608   1.727
 2982SOL    HW1 9845   3.158   5.637   1.821
 2982SOL    HW2 9846   3.046   5.631   1.702
 2983SOL     OW 9847   6.409   2.466   2.503
 2983SOL    HW1 9848   6.373   2.374   2.492
 2983SOL    HW2 9849   6.453   2.495   2.417
 2984SOL     OW 9850   6.047   4.687   0.312
 2984SOL    HW1 9851   6.107   4.766   0.300
 2984SOL    HW2 9852   6.098   4.612   0.354
 2985SOL     OW 9853   2.135   2.602   4.410
 2985SOL    HW1 9854   2.203   2.533   4.385
 2985SOL    HW2 9855   2.100   2.581   4.501
 2986SOL     OW 9856   3.532   4.148   3.120
 2986SOL    HW1 9857   3.630   4.168   3.121
 2986SOL    HW2 9858   3.492   4.173   3.209
 2987SOL     OW 9859   1.231   1.965   3.883
 2987SOL    HW1 9860   1.209   2.013   3.968
 2987SOL    HW2 9861   1.277   1.879   3.905
 2988SOL     OW 9862   1.876   6.985   2.473
 2988SOL    HW1 9863   1.893   0.060   2.442
 2988SOL    HW2 9864   1.849   6.987   2.569
 2989SOL     OW 9865   5.416   5.312   5.548
 2989SOL    HW1 9866   5.372   5.402   5.550
 2989SOL    HW2 9867   5.431   5.279   5.641
 2990SOL     OW 9868   3.732   1.221   4.488
 2990SOL    HW1 9869   3.706   1.304   4.537
 2990SOL    HW2 9870   3.721   1.235   4.390
 2991SOL     OW 9871   6.395   3.681   5.643
 2991SOL    HW1 9872   6.445   3.766   5.632
 2991SOL    HW2 9873   6.391   3.633   5.555
 2992SOL     OW 9874   1.148   5.448   4.550
 2992SOL    HW1 9875   1.194   5.435   4.638
 2992SOL    HW2 9876   1.183   5.531   4.507
 2993SOL     OW 9877   0.308   4.916   1.302
 2993SOL    HW1 9878   0.230   4.855   1.316
 2993SOL    HW2 9879   0.304   4.954   1.210
 2994SOL     OW 9880   3.851   6.360   6.865
 2994SOL    HW1 9881   3.943   6.343   6.831
 2994SOL    HW2 9882   3.793   6.281   6.848
 2995SOL     OW 9883   3.350   1.197   6.400
 2995SOL    HW1 9884   3.325   1.105   6.428
 2995SOL    HW2 9885   3.450   1.207   6.401
 2996SOL     OW 9886   0.524   1.311   4.847
 2996SOL    HW1 9887   0.511   1.406   4.820
 2996SOL    HW2 9888   0.513   1.302   4.946
 2997SOL     OW 9889   4.818   0.151   2.940
 2997SOL    HW1 9890   4.826   0.051   2.942
 2997SOL    HW2 9891   4.845   0.188   3.029
 2998SOL     OW 9892   5.471   6.677   3.370
 2998SOL    HW1 9893   5.411   6.598   3.383
 2998SOL    HW2 9894   5.421   6.750   3.324
 2999SOL     OW 9895   2.588   5.291   5.239
 2999SOL    HW1 9896   2.615   5.330   5.327
 2999SOL    HW2 9897   2.593   5.192   5.244
 3000SOL     OW 9898   3.249   4.170   6.142
 3000SOL    HW1 9899   3.308   4.218   6.078
 3000SOL    HW2 9900   3.278   4.074   6.147
 3001SOL     OW 9901   6.867   0.940   6.626
 3001SOL    HW1 9902   6.860   0.849   6.665
 3001SOL    HW2 9903   6.938   0.941   6.555
 3002SOL     OW 9904   3.216   2.028   6.802
 3002SOL    HW1 9905   3.142   2.048   6.738
 3002SOL    HW2 9906   3.223   2.102   6.869
 3003SOL     OW 9907   0.545   6.881   0.941
 3003SOL    HW1 9908   0.540   6.908   0.845
 3003SOL    HW2 9909   0.630   6.833   0.958
 3004SOL     OW 9910   0.725   4.537   2.599
 3004SOL    HW1 9911   0.726   4.444   2.634
 3004SOL    HW2 9912   0.789   4.545   2.522
 3005SOL     OW 9913   1.345   2.866   0.115
 3005SOL    HW1 9914   1.445   2.864   0.111
 3005SOL    HW2 9915   1.310   2.774   0.097
 3006SOL     OW 9916   5.379   2.158   4.253
 3006SOL    HW1 9917   5.284   2.142   4.227
 3006SOL    HW2 9918   5.398   2.256   4.253
 3007SOL     OW 9919   5.846   4.082   0.633
 3007SOL    HW1 9920   5.832   3.983   0.622
 3007SOL    HW2 9921   5.903   4.116   0.559
 3008SOL     OW 9922   3.176   2.461   6.238
 3008SOL    HW1 9923   3.140   2.545   6.197
 3008SOL    HW2 9924   3.260   2.435   6.191
 3009SOL     OW 9925   6.615   2.218   2.815
 3009SOL    HW1 9926   6.647   2.145   2.875
 3009SOL    HW2 9927   6.639   2.197   2.720
 3010SOL     OW 9928   2.769   5.583   3.174
 3010SOL    HW1 9929   2.803   5.652   3.111
 3010SOL    HW2 9930   2.713   5.627   3.245
 3011SOL     OW 9931   5.656   1.148   2.772
 3011SOL    HW1 9932   5.735   1.142   2.832
 3011SOL    HW2 9933   5.586   1.083   2.802
 3012SOL     OW 9934   2.460   3.520   6.353
 3012SOL    HW1 9935   2.461   3.516   6.453
 3012SOL    HW2 9936   2.387   3.461   6.318
 3013SOL     OW 9937   5.265   5.632   3.990
 3013SOL    HW1 9938   5.278   5.635   4.089
 3013SOL    HW2 9939   5.354   5.638   3.944
 3014SOL     OW 9940   4.728   2.417   5.547
 3014SOL    HW1 9941   4.736   2.492   5.480
 3014SOL    HW2 9942   4.718   2.330   5.498
 3015SOL     OW 9943   1.811   1.701   0.165
 3015SOL    HW1 9944   1.717   1.728   0.186
 3015SOL    HW2 9945   1.813   1.651   0.078
 3016SOL     OW 9946   2.902   6.050   4.262
 3016SOL    HW1 9947   2.874   5.970   4.314
 3016SOL    HW2 9948   2.856   6.131   4.299
 3017SOL     OW 9949   6.145   5.758   1.970
 3017SOL    HW1 9950   6.088   5.734   2.048
 3017SOL    HW2 9951   6.091   5.752   1.886
 3018SOL     OW 9952   2.615   0.075   6.372
 3018SOL    HW1 9953   2.624   0.110   6.466
 3018SOL    HW2 9954   2.557   7.012   6.372
 3019SOL     OW 9955   0.578   6.945   6.198
 3019SOL    HW1 9956   0.539   0.017   6.207
 3019SOL    HW2 9957   0.521   6.890   6.137
 3020SOL     OW 9958   3.989   2.797   1.047
 3020SOL    HW1 9959   4.078   2.753   1.036
 3020SOL    HW2 9960   3.959   2.832   0.958
 3021SOL     OW 9961   3.174   0.050   5.263
 3021SOL    HW1 9962   3.078   0.046   5.290
 3021SOL    HW2 9963   3.218   6.982   5.283
 3022SOL     OW 9964   4.300   5.448   5.275
 3022SOL    HW1 9965   4.285   5.545   5.297
 3022SOL    HW2 9966   4.364   5.409   5.340
 3023SOL     OW 9967   4.424   6.573   2.946
 3023SOL    HW1 9968   4.398   6.629   2.867
 3023SOL    HW2 9969   4.462   6.486   2.914
 3024SOL     OW 9970   5.501   6.515   4.749
 3024SOL    HW1 9971   5.430   6.510   4.679
 3024SOL    HW2 9972   5.515   6.611   4.775
 3025SOL     OW 9973   4.083   6.141   1.248
 3025SOL    HW1 9974   4.155   6.164   1.314
 3025SOL    HW2 9975   4.084   6.043   1.230
 3026SOL     OW 9976   0.668   1.302   5.760
 3026SOL    HW1 9977   0.571   1.302   5.784
 3026SOL    HW2 9978   0.677   1.313   5.661
 3027SOL     OW 9979   4.536   1.436   2.823
 3027SOL    HW1 9980   4.438   1.414   2.824
 3027SOL    HW2 9981   4.577   1.412   2.911
 3028SOL     OW 9982   1.413   3.465   5.680
 3028SOL    HW1 9983   1.459   3.377   5.664
 3028SOL    HW2 9984   1.480   3.534   5.705
 3029SOL     OW 9985   0.754   3.016   5.038
 3029SOL    HW1 9986   0.813   3.012   5.119
 3029SOL    HW2 9987   0.811   3.012   4.956
 3030SOL     OW 9988   0.866   3.415   0.395
 3030SOL    HW1 9989   0.942   3.443   0.454
 3030SOL    HW2 9990   0.899   3.347   0.329
 3031SOL     OW 9991   0.042   4.677   1.184
 3031SOL    HW1 9992   0.116   4.613   1.203
 3031SOL    HW2 9993   0.002   4.657   1.094
 3032SOL     OW 9994   2.195   6.805   1.426
 3032SOL    HW1 9995   2.162   6.899   1.432
 3032SOL    HW2 9996   2.283   6.798   1.473
 3033SOL     OW 9997   5.166   1.154   1.710
 3033SOL    HW1 9998   5.127   1.107   1.630
 3033SOL    HW2 9999   5.156   1.252   1.698
 3034SOL     OW10000   1.135   0.399   2.704
 3034SOL    HW110001   1.201   0.474   2.703
 3034SOL    HW210002   1.065   0.417   2.774
 3035SOL     OW10003   0.263   2.630   5.685
 3035SOL    HW110004   0.328   2.684   5.738
 3035SOL    HW210005   0.310   2.591   5.605
 3036SOL     OW10006   1.712   1.723   5.354
 3036SOL    HW110007   1.758   1.811   5.367
 3036SOL    HW210008   1.648   1.730   5.278
 3037SOL     OW10009   6.422   5.424   6.423
 3037SOL    HW110010   6.354   5.356   6.394
 3037SOL    HW210011   6.483   5.383   6.491
 3038SOL     OW10012   5.278   5.630   5.835
 3038SOL    HW110013   5.290   5.721   5.795
 3038SOL    HW210014   5.245   5.640   5.929
 3039SOL     OW10015   0.813   3.074   1.522
 3039SOL    HW110016   0.778   3.064   1.615
 3039SOL    HW210017   0.841   2.985   1.487
 3040SOL     OW10018   3.358   3.953   5.745
 3040SOL    HW110019   3.398   4.007   5.672
 3040SOL    HW210020   3.261   3.976   5.755
 3041SOL     OW10021   2.199   3.556   5.232
 3041SOL    HW110022   2.246   3.506   5.305
 3041SOL    HW210023   2.100   3.542   5.239
 3042SOL     OW10024   6.164   6.045   2.865
 3042SOL    HW110025   6.148   6.056   2.767
 3042SOL    HW210026   6.113   6.116   2.915
 3043SOL     OW10027   2.599   3.994   1.361
 3043SOL    HW110028   2.630   4.088   1.352
 3043SOL    HW210029   2.520   3.978   1.301
 3044SOL     OW10030   3.334   5.277   6.022
 3044SOL    HW110031   3.328   5.334   5.941
 3044SOL    HW210032   3.276   5.315   6.094
 3045SOL     OW10033   5.031   6.472   3.626
 3045SOL    HW110034   5.064   6.459   3.719
 3045SOL    HW210035   5.109   6.474   3.563
 3046SOL     OW10036   3.261   1.159   5.683
 3046SOL    HW110037   3.355   1.130   5.664
 3046SOL    HW210038   3.226   1.211   5.606
 3047SOL     OW10039   6.145   0.473   1.663
 3047SOL    HW110040   6.221   0.537   1.673
 3047SOL    HW210041   6.102   0.457   1.752
 3048SOL     OW10042   4.000   2.210   1.458
 3048SOL    HW110043   4.043   2.267   1.528
 3048SOL    HW210044   3.901   2.214   1.468
 3049SOL     OW10045   1.546   0.124   3.133
 3049SOL    HW110046   1.637   0.130   3.092
 3049SOL    HW210047   1.553   0.086   3.225
 3050SOL     OW10048   2.845   1.691   1.970
 3050SOL    HW110049   2.766   1.753   1.965
 3050SOL    HW210050   2.917   1.725   1.909
 3051SOL     OW10051   2.218   6.242   6.355
 3051SOL    HW110052   2.223   6.143   6.369
 3051SOL    HW210053   2.134   6.277   6.397
 3052SOL     OW10054   4.942   5.157   1.741
 3052SOL    HW110055   4.945   5.254   1.765
 3052SOL    HW210056   4.846   5.127   1.737
 3053SOL     OW10057   0.074   2.780   1.232
 3053SOL    HW110058   0.041   2.696   1.188
 3053SOL    HW210059   0.155   2.813   1.184
 3054SOL     OW10060   6.102   2.418   1.588
 3054SOL    HW110061   6.115   2.335   1.641
 3054SOL    HW210062   6.086   2.495   1.650
 3055SOL     OW10063   5.059   0.185   5.125
 3055SOL    HW110064   4.987   0.252   5.105
 3055SOL    HW210065   5.093   0.145   5.039
 3056SOL     OW10066   5.913   1.011   5.662
 3056SOL    HW110067   5.827   0.984   5.706
 3056SOL    HW210068   5.929   0.953   5.582
 3057SOL     OW10069   4.351   5.460   3.460
 3057SOL    HW110070   4.274   5.403   3.431
 3057SOL    HW210071   4.395   5.418   3.540
 3058SOL     OW10072   0.403   4.721   0.833
 3058SOL    HW110073   0.342   4.674   0.897
 3058SOL    HW210074   0.485   4.751   0.881
 3059SOL     OW10075   3.024   1.913   4.353
 3059SOL    HW110076   3.108   1.959   4.381
 3059SOL    HW210077   2.957   1.917   4.427
 3060SOL     OW10078   1.578   5.464   0.169
 3060SOL    HW110079   1.488   5.506   0.164
 3060SOL    HW210080   1.641   5.524   0.219
 3061SOL     OW10081   6.617   5.893   5.502
 3061SOL    HW110082   6.635   5.799   5.472
 3061SOL    HW210083   6.519   5.913   5.494
 3062SOL     OW10084   2.227   0.339   1.217
 3062SOL    HW110085   2.147   0.307   1.166
 3062SOL    HW210086   2.200   0.360   1.311
 3063SOL     OW10087   1.586   4.782   1.616
 3063SOL    HW110088   1.637   4.864   1.587
 3063SOL    HW210089   1.616   4.755   1.707
 3064SOL     OW10090   5.413   3.498   0.844
 3064SOL    HW110091   5.380   3.558   0.917
 3064SOL    HW210092   5.510   3.479   0.859
 3065SOL     OW10093   1.706   2.030   6.348
 3065SOL    HW110094   1.742   2.099   6.411
 3065SOL    HW210095   1.612   2.054   6.322
 3066SOL     OW10096   5.320   4.375   0.364
 3066SOL    HW110097   5.326   4.416   0.273
 3066SOL    HW210098   5.367   4.287   0.363
 3067SOL     OW10099   3.972   1.137   6.203
 3067SOL    HW110100   4.004   1.197   6.130
 3067SOL    HW210101   3.904   1.073   6.166
 3068SOL     OW10102   0.060   6.708   0.926
 3068SOL    HW110103   0.140   6.688   0.870
 3068SOL    HW210104   0.089   6.727   1.020
 3069SOL     OW10105   6.640   6.357   2.032
 3069SOL    HW110106   6.563   6.403   1.987
 3069SOL    HW210107   6.644   6.385   2.128
 3070SOL     OW10108   2.832   1.392   7.013
 3070SOL    HW110109   2.862   1.381   6.918
 3070SOL    HW210110   2.817   1.302   0.035
 3071SOL     OW10111   6.626   6.344   3.855
 3071SOL    HW110112   6.605   6.265   3.911
 3071SOL    HW210113   6.682   6.408   3.907
 3072SOL     OW10114   2.671   5.608   6.263
 3072SOL    HW110115   2.651   5.691   6.315
 3072SOL    HW210116   2.765   5.580   6.279
 3073SOL     OW10117   0.007   3.668   3.986
 3073SOL    HW110118   0.069   3.598   3.950
 3073SOL    HW210119   0.024   3.754   3.939
 3074SOL     OW10120   0.007   4.330   1.135
 3074SOL    HW110121   7.017   4.240   1.178
 3074SOL    HW210122   6.953   4.342   1.067
 3075SOL     OW10123   2.359   5.716   2.089
 3075SOL    HW110124   2.350   5.816   2.083
 3075SOL    HW210125   2.414   5.684   2.011
 3076SOL     OW10126   6.274   0.932   3.543
 3076SOL    HW110127   6.303   0.928   3.639
 3076SOL    HW210128   6.219   1.014   3.528
 3077SOL     OW10129   5.672   4.426   1.781
 3077SOL    HW110130   5.598   4.455   1.841
 3077SOL    HW210131   5.634   4.386   1.697
 3078SOL     OW10132   0.276   3.418   3.051
 3078SOL    HW110133   0.254   3.501   3.103
 3078SOL    HW210134   0.359   3.434   2.997
 3079SOL     OW10135   3.026   2.180   2.906
 3079SOL    HW110136   2.956   2.199   2.975
 3079SOL    HW210137   2.985   2.181   2.815
 3080SOL     OW10138   5.916   5.226   2.395
 3080SOL    HW110139   5.890   5.281   2.474
 3080SOL    HW210140   5.941   5.286   2.319
 3081SOL     OW10141   0.874   3.352   6.120
 3081SOL    HW110142   0.807   3.363   6.046
 3081SOL    HW210143   0.954   3.304   6.086
 3082SOL     OW10144   2.090   5.703   4.356
 3082SOL    HW110145   2.015   5.704   4.422
 3082SOL    HW210146   2.117   5.797   4.335
 3083SOL     OW10147   3.068   5.678   3.568
 3083SOL    HW110148   3.069   5.755   3.632
 3083SOL    HW210149   3.153   5.678   3.514
 3084SOL     OW10150   6.753   3.630   4.053
 3084SOL    HW110151   6.752   3.646   4.151
 3084SOL    HW210152   6.848   3.621   4.022
 3085SOL     OW10153   6.052   4.250   0.767
 3085SOL    HW110154   6.047   4.335   0.819
 3085SOL    HW210155   5.962   4.206   0.767
 3086SOL     OW10156   5.155   1.315   0.911
 3086SOL    HW110157   5.089   1.380   0.949
 3086SOL    HW210158   5.190   1.350   0.824
 3087SOL     OW10159   2.203   6.675   3.768
 3087SOL    HW110160   2.288   6.715   3.733
 3087SOL    HW210161   2.225   6.604   3.835
 3088SOL     OW10162   2.375   4.760   4.412
 3088SOL    HW110163   2.356   4.718   4.323
 3088SOL    HW210164   2.427   4.844   4.399
 3089SOL     OW10165   3.628   1.691   4.355
 3089SOL    HW110166   3.616   1.624   4.281
 3089SOL    HW210167   3.708   1.665   4.410
 3090SOL     OW10168   2.059   1.697   1.798
 3090SOL    HW110169   1.975   1.648   1.776
 3090SOL    HW210170   2.131   1.669   1.735
 3091SOL     OW10171   1.436   1.076   0.850
 3091SOL    HW110172   1.385   1.078   0.937
 3091SOL    HW210173   1.372   1.088   0.774
 3092SOL     OW10174   5.623   0.782   0.750
 3092SOL    HW110175   5.576   0.718   0.812
 3092SOL    HW210176   5.616   0.749   0.656
 3093SOL     OW10177   5.578   6.425   6.790
 3093SOL    HW110178   5.652   6.373   6.747
 3093SOL    HW210179   5.529   6.366   6.854
 3094SOL     OW10180   2.081   0.257   3.823
 3094SOL    HW110181   2.114   0.216   3.738
 3094SOL    HW210182   2.159   0.281   3.880
 3095SOL     OW10183   2.660   3.928   5.627
 3095SOL    HW110184   2.605   3.875   5.562
 3095SOL    HW210185   2.754   3.933   5.595
 3096SOL     OW10186   0.738   5.309   5.356
 3096SOL    HW110187   0.745   5.256   5.272
 3096SOL    HW210188   0.728   5.248   5.434
 3097SOL     OW10189   5.467   3.347   6.878
 3097SOL    HW110190   5.379   3.314   6.844
 3097SOL    HW210191   5.536   3.337   6.806
 3098SOL     OW10192   1.615   3.064   1.120
 3098SOL    HW110193   1.624   3.112   1.207
 3098SOL    HW210194   1.706   3.037   1.088
 3099SOL     OW10195   1.172   6.277   3.872
 3099SOL    HW110196   1.262   6.319   3.860
 3099SOL    HW210197   1.183   6.179   3.889
 3100SOL     OW10198   0.059   6.570   3.979
 3100SOL    HW110199   0.045   6.488   4.034
 3100SOL    HW210200   0.030   6.553   3.885
 3101SOL     OW10201   6.199   5.486   6.798
 3101SOL    HW110202   6.229   5.498   6.893
 3101SOL    HW210203   6.268   5.522   6.736
 3102SOL     OW10204   6.258   6.572   1.658
 3102SOL    HW110205   6.329   6.517   1.701
 3102SOL    HW210206   6.210   6.625   1.728
 3103SOL     OW10207   4.555   1.140   1.763
 3103SOL    HW110208   4.537   1.194   1.681
 3103SOL    HW210209   4.536   1.044   1.745
 3104SOL     OW10210   4.333   0.207   6.495
 3104SOL    HW110211   4.235   0.192   6.504
 3104SOL    HW210212   4.349   0.289   6.439
 3105SOL     OW10213   5.868   3.964   1.460
 3105SOL    HW110214   5.927   4.019   1.518
 3105SOL    HW210215   5.833   4.020   1.384
 3106SOL     OW10216   4.580   0.120   4.565
 3106SOL    HW110217   4.526   0.108   4.482
 3106SOL    HW210218   4.577   0.215   4.594
 3107SOL     OW10219   3.879   0.833   4.967
 3107SOL    HW110220   3.864   0.839   4.868
 3107SOL    HW210221   3.910   0.921   5.002
 3108SOL     OW10222   2.339   5.777   4.544
 3108SOL    HW110223   2.342   5.856   4.483
 3108SOL    HW210224   2.258   5.722   4.525
 3109SOL     OW10225   5.669   6.368   3.535
 3109SOL    HW110226   5.730   6.447   3.530
 3109SOL    HW210227   5.671   6.319   3.448
 3110SOL     OW10228   1.336   3.615   3.202
 3110SOL    HW110229   1.366   3.565   3.284
 3110SOL    HW210230   1.237   3.630   3.206
 3111SOL     OW10231   6.587   4.771   3.188
 3111SOL    HW110232   6.591   4.689   3.132
 3111SOL    HW210233   6.625   4.848   3.137
 3112SOL     OW10234   3.457   2.789   0.110
 3112SOL    HW110235   3.482   2.824   0.019
 3112SOL    HW210236   3.371   2.737   0.103
 3113SOL     OW10237   3.507   5.090   3.314
 3113SOL    HW110238   3.456   5.176   3.322
 3113SOL    HW210239   3.490   5.034   3.395
 3114SOL     OW10240   3.532   1.756   0.242
 3114SOL    HW110241   3.629   1.746   0.219
 3114SOL    HW210242   3.523   1.815   0.322
 3115SOL     OW10243   4.617   4.629   6.147
 3115SOL    HW110244   4.646   4.543   6.106
 3115SOL    HW210245   4.653   4.636   6.240
 3116SOL     OW10246   0.171   2.625   6.996
 3116SOL    HW110247   0.087   2.620   6.942
 3116SOL    HW210248   0.248   2.646   6.936
 3117SOL     OW10249   4.623   4.046   5.371
 3117SOL    HW110250   4.577   4.119   5.320
 3117SOL    HW210251   4.596   4.051   5.467
 3118SOL     OW10252   0.916   5.345   2.069
 3118SOL    HW110253   0.861   5.296   2.001
 3118SOL    HW210254   1.004   5.298   2.081
 3119SOL     OW10255   2.015   3.161   7.001
 3119SOL    HW110256   1.983   3.224   6.931
 3119SOL    HW210257   1.974   3.186   0.070
 3120SOL     OW10258   3.206   0.112   6.374
 3120SOL    HW110259   3.128   0.151   6.325
 3120SOL    HW210260   3.203   0.012   6.369
 3121SOL     OW10261   6.920   1.250   4.214
 3121SOL    HW110262   6.872   1.222   4.131
 3121SOL    HW210263   6.884   1.337   4.245
 3122SOL     OW10264   4.262   5.435   6.561
 3122SOL    HW110265   4.280   5.451   6.658
 3122SOL    HW210266   4.346   5.402   6.517
 3123SOL     OW10267   2.675   2.014   2.585
 3123SOL    HW110268   2.577   2.029   2.597
 3123SOL    HW210269   2.690   1.926   2.540
 3124SOL     OW10270   4.995   6.741   4.906
 3124SOL    HW110271   5.038   6.745   4.996
 3124SOL    HW210272   5.027   6.660   4.857
 3125SOL     OW10273   1.095   3.404   4.943
 3125SOL    HW110274   1.089   3.490   4.893
 3125SOL    HW210275   1.189   3.392   4.977
 3126SOL     OW10276   5.824   4.217   5.425
 3126SOL    HW110277   5.731   4.215   5.389
 3126SOL    HW210278   5.834   4.145   5.494
 3127SOL     OW10279   1.917   2.678   6.834
 3127SOL    HW110280   1.963   2.704   6.749
 3127SOL    HW210281   1.818   2.683   6.821
 3128SOL     OW10282   3.079   0.551   6.315
 3128SOL    HW110283   3.019   0.491   6.263
 3128SOL    HW210284   3.135   0.497   6.378
 3129SOL     OW10285   6.231   3.413   0.003
 3129SOL    HW110286   6.133   3.433   0.005
 3129SOL    HW210287   6.261   3.400   6.928
 3130SOL     OW10288   2.018   4.648   2.363
 3130SOL    HW110289   1.979   4.594   2.288
 3130SOL    HW210290   1.952   4.652   2.438
 3131SOL     OW10291   0.760   3.461   1.594
 3131SOL    HW110292   0.754   3.484   1.692
 3131SOL    HW210293   0.669   3.438   1.560
 3132SOL     OW10294   4.889   5.671   6.422
 3132SOL    HW110295   4.933   5.747   6.374
 3132SOL    HW210296   4.807   5.643   6.371
 3133SOL     OW10297   3.257   1.029   3.075
 3133SOL    HW110298   3.261   0.999   3.170
 3133SOL    HW210299   3.191   0.973   3.025
 3134SOL     OW10300   4.316   4.117   1.163
 3134SOL    HW110301   4.384   4.114   1.090
 3134SOL    HW210302   4.362   4.128   1.251
 3135SOL     OW10303   4.292   0.433   6.099
 3135SOL    HW110304   4.290   0.398   6.005
 3135SOL    HW210305   4.252   0.366   6.161
 3136SOL     OW10306   5.379   0.167   2.700
 3136SOL    HW110307   5.314   0.103   2.741
 3136SOL    HW210308   5.459   0.177   2.759
 3137SOL     OW10309   6.068   0.304   2.688
 3137SOL    HW110310   6.100   0.378   2.747
 3137SOL    HW210311   6.133   0.229   2.691
 3138SOL     OW10312   0.005   5.607   3.328
 3138SOL    HW110313   6.961   5.614   3.251
 3138SOL    HW210314   0.067   5.686   3.327
 3139SOL     OW10315   4.085   5.340   0.337
 3139SOL    HW110316   3.998   5.344   0.386
 3139SOL    HW210317   4.159   5.321   0.401
 3140SOL     OW10318   0.017   5.986   6.973
 3140SOL    HW110319   0.113   6.008   6.989
 3140SOL    HW210320   7.007   5.912   0.015
 3141SOL     OW10321   0.996   0.408   6.583
 3141SOL    HW110322   1.095   0.409   6.567
 3141SOL    HW210323   0.950   0.464   6.515
 3142SOL     OW10324   3.097   6.941   2.620
 3142SOL    HW110325   3.075   0.007   2.667
 3142SOL    HW210326   3.017   6.882   2.618
 3143SOL     OW10327   6.931   1.951   0.656
 3143SOL    HW110328   6.916   2.000   0.742
 3143SOL    HW210329   6.890   2.003   0.581
 3144SOL     OW10330   4.016   3.782   1.092
 3144SOL    HW110331   4.078   3.721   1.142
 3144SOL    HW210332   3.953   3.727   1.037
 3145SOL     OW10333   2.146   5.954   2.495
 3145SOL    HW110334   2.110   6.045   2.516
 3145SOL    HW210335   2.226   5.935   2.552
 3146SOL     OW10336   0.676   1.723   4.496
 3146SOL    HW110337   0.721   1.747   4.582
 3146SOL    HW210338   0.704   1.787   4.425
 3147SOL     OW10339   2.980   5.155   0.765
 3147SOL    HW110340   2.977   5.110   0.675
 3147SOL    HW210341   3.074   5.154   0.799
 3148SOL     OW10342   6.513   0.282   3.318
 3148SOL    HW110343   6.532   0.350   3.246
 3148SOL    HW210344   6.474   0.200   3.277
 3149SOL     OW10345   3.272   0.493   5.700
 3149SOL    HW110346   3.183   0.517   5.663
 3149SOL    HW210347   3.337   0.567   5.681
 3150SOL     OW10348   6.605   5.776   5.142
 3150SOL    HW110349   6.665   5.855   5.151
 3150SOL    HW210350   6.612   5.739   5.050
 3151SOL     OW10351   0.296   0.681   4.808
 3151SOL    HW110352   0.377   0.632   4.840
 3151SOL    HW210353   0.221   0.666   4.872
 3152SOL     OW10354   0.548   5.456   1.134
 3152SOL    HW110355   0.511   5.439   1.042
 3152SOL    HW210356   0.596   5.375   1.166
 3153SOL     OW10357   6.236   5.406   0.609
 3153SOL    HW110358   6.321   5.360   0.632
 3153SOL    HW210359   6.250   5.505   0.609
 3154SOL     OW10360   0.414   1.971   6.485
 3154SOL    HW110361   0.507   1.988   6.452
 3154SOL    HW210362   0.372   1.897   6.431
 3155SOL     OW10363   6.732   4.548   0.699
 3155SOL    HW110364   6.692   4.461   0.729
 3155SOL    HW210365   6.662   4.620   0.705
 3156SOL     OW10366   3.645   2.919   2.501
 3156SOL    HW110367   3.729   2.922   2.448
 3156SOL    HW210368   3.666   2.929   2.598
 3157SOL     OW10369   2.420   1.712   5.202
 3157SOL    HW110370   2.494   1.762   5.156
 3157SOL    HW210371   2.361   1.777   5.251
 3158SOL     OW10372   3.470   1.773   3.584
 3158SOL    HW110373   3.565   1.742   3.595
 3158SOL    HW210374   3.416   1.699   3.543
 3159SOL     OW10375   5.984   1.097   0.206
 3159SOL    HW110376   5.889   1.072   0.221
 3159SOL    HW210377   6.034   1.091   0.292
 3160SOL     OW10378   0.575   5.936   5.621
 3160SOL    HW110379   0.498   5.882   5.587
 3160SOL    HW210380   0.661   5.895   5.591
 3161SOL     OW10381   2.177   2.798   2.701
 3161SOL    HW110382   2.184   2.859   2.781
 3161SOL    HW210383   2.196   2.850   2.618
 3162SOL     OW10384   1.479   5.765   1.348
 3162SOL    HW110385   1.488   5.850   1.399
 3162SOL    HW210386   1.504   5.688   1.407
 3163SOL     OW10387   4.684   3.254   6.753
 3163SOL    HW110388   4.627   3.195   6.810
 3163SOL    HW210389   4.700   3.342   6.799
 3164SOL     OW10390   4.053   5.592   1.201
 3164SOL    HW110391   3.965   5.635   1.180
 3164SOL    HW210392   4.060   5.506   1.150
 3165SOL     OW10393   1.043   6.664   1.073
 3165SOL    HW110394   1.091   6.653   0.986
 3165SOL    HW210395   1.075   6.595   1.138
 3166SOL     OW10396   3.999   1.408   3.891
 3166SOL    HW110397   4.028   1.313   3.895
 3166SOL    HW210398   3.899   1.413   3.903
 3167SOL     OW10399   6.554   4.787   0.720
 3167SOL    HW110400   6.486   4.858   0.704
 3167SOL    HW210401   6.646   4.825   0.706
 3168SOL     OW10402   4.987   3.067   0.501
 3168SOL    HW110403   4.891   3.039   0.500
 3168SOL    HW210404   5.035   3.015   0.572
 3169SOL     OW10405   2.166   3.961   4.320
 3169SOL    HW110406   2.175   3.970   4.419
 3169SOL    HW210407   2.140   3.867   4.297
 3170SOL     OW10408   4.024   5.998   1.546
 3170SOL    HW110409   3.986   6.066   1.608
 3170SOL    HW210410   3.987   6.012   1.454
 3171SOL     OW10411   6.769   1.155   2.412
 3171SOL    HW110412   6.695   1.101   2.453
 3171SOL    HW210413   6.731   1.239   2.373
 3172SOL     OW10414   0.136   5.855   0.284
 3172SOL    HW110415   0.039   5.863   0.260
 3172SOL    HW210416   0.178   5.782   0.231
 3173SOL     OW10417   3.070   2.084   0.345
 3173SOL    HW110418   3.080   2.074   0.444
 3173SOL    HW210419   3.065   2.182   0.322
 3174SOL     OW10420   3.005   2.360   0.296
 3174SOL    HW110421   2.984   2.438   0.355
 3174SOL    HW210422   2.936   2.354   0.223
 3175SOL     OW10423   5.839   0.788   1.553
 3175SOL    HW110424   5.758   0.842   1.530
 3175SOL    HW210425   5.901   0.786   1.475
 3176SOL     OW10426   1.899   4.273   5.819
 3176SOL    HW110427   1.843   4.284   5.737
 3176SOL    HW210428   1.909   4.175   5.839
 3177SOL     OW10429   4.776   4.096   3.702
 3177SOL    HW110430   4.864   4.070   3.742
 3177SOL    HW210431   4.759   4.042   3.620
 3178SOL     OW10432   6.627   2.190   0.695
 3178SOL    HW110433   6.587   2.270   0.650
 3178SOL    HW210434   6.563   2.114   0.692
 3179SOL     OW10435   0.698   2.830   2.380
 3179SOL    HW110436   0.785   2.779   2.384
 3179SOL    HW210437   0.687   2.869   2.288
 3180SOL     OW10438   5.784   0.855   6.637
 3180SOL    HW110439   5.705   0.915   6.641
 3180SOL    HW210440   5.754   0.761   6.620
 3181SOL     OW10441   0.161   2.127   3.108
 3181SOL    HW110442   0.241   2.105   3.052
 3181SOL    HW210443   0.191   2.174   3.191
 3182SOL     OW10444   2.480   0.284   6.750
 3182SOL    HW110445   2.471   0.384   6.741
 3182SOL    HW210446   2.391   0.244   6.767
 3183SOL     OW10447   5.239   3.980   1.690
 3183SOL    HW110448   5.258   3.923   1.770
 3183SOL    HW210449   5.225   4.075   1.720
 3184SOL     OW10450   0.692   3.164   3.089
 3184SOL    HW110451   0.749   3.243   3.111
 3184SOL    HW210452   0.605   3.172   3.136
 3185SOL     OW10453   4.940   5.851   6.943
 3185SOL    HW110454   5.008   5.825   7.011
 3185SOL    HW210455   4.926   5.776   6.879
 3186SOL     OW10456   3.037   2.168   1.343
 3186SOL    HW110457   3.011   2.090   1.287
 3186SOL    HW210458   3.012   2.151   1.438
 3187SOL     OW10459   4.331   4.336   0.493
 3187SOL    HW110460   4.275   4.256   0.518
 3187SOL    HW210461   4.363   4.381   0.577
 3188SOL     OW10462   1.276   0.182   4.200
 3188SOL    HW110463   1.359   0.144   4.158
 3188SOL    HW210464   1.196   0.152   4.148
 3189SOL     OW10465   1.339   1.862   1.260
 3189SOL    HW110466   1.426   1.832   1.299
 3189SOL    HW210467   1.296   1.785   1.213
 3190SOL     OW10468   0.698   5.575   6.946
 3190SOL    HW110469   0.745   5.490   6.922
 3190SOL    HW210470   0.751   5.653   6.914
 3191SOL     OW10471   4.933   5.459   0.938
 3191SOL    HW110472   4.972   5.509   0.861
 3191SOL    HW210473   4.973   5.368   0.942
 3192SOL     OW10474   0.401   3.033   1.802
 3192SOL    HW110475   0.425   3.124   1.767
 3192SOL    HW210476   0.410   2.966   1.729
 3193SOL     OW10477   3.979   1.033   6.623
 3193SOL    HW110478   3.960   1.099   6.696
 3193SOL    HW210479   4.003   1.082   6.539
 3194SOL     OW10480   1.501   1.919   6.727
 3194SOL    HW110481   1.434   1.856   6.686
 3194SOL    HW210482   1.586   1.916   6.675
 3195SOL     OW10483   2.983   1.236   3.377
 3195SOL    HW110484   3.042   1.193   3.444
 3195SOL    HW210485   3.037   1.294   3.316
 3196SOL     OW10486   0.229   0.350   6.202
 3196SOL    HW110487   0.209   0.438   6.244
 3196SOL    HW210488   0.328   0.344   6.184
 3197SOL     OW10489   2.831   6.808   3.790
 3197SOL    HW110490   2.750   6.831   3.735
 3197SOL    HW210491   2.813   6.724   3.841
 3198SOL     OW10492   6.142   2.860   4.415
 3198SOL    HW110493   6.240   2.864   4.399
 3198SOL    HW210494   6.117   2.771   4.453
 3199SOL     OW10495   4.959   3.907   2.814
 3199SOL    HW110496   4.978   4.000   2.846
 3199SOL    HW210497   4.909   3.857   2.885
 3200SOL     OW10498   6.353   3.429   2.527
 3200SOL    HW110499   6.260   3.463   2.537
 3200SOL    HW210500   6.351   3.332   2.504
 3201SOL     OW10501   6.252   4.947   4.264
 3201SOL    HW110502   6.209   5.008   4.330
 3201SOL    HW210503   6.330   4.994   4.221
 3202SOL     OW10504   0.537   4.609   1.765
 3202SOL    HW110505   0.586   4.623   1.851
 3202SOL    HW210506   0.602   4.614   1.689
 3203SOL     OW10507   6.623   2.217   0.224
 3203SOL    HW110508   6.712   2.240   0.185
 3203SOL    HW210509   6.618   2.252   0.318
 3204SOL     OW10510   4.510   6.405   3.593
 3204SOL    HW110511   4.463   6.373   3.675
 3204SOL    HW210512   4.600   6.441   3.618
 3205SOL     OW10513   5.994   2.752   5.898
 3205SOL    HW110514   5.933   2.805   5.957
 3205SOL    HW210515   6.023   2.669   5.945
 3206SOL     OW10516   1.930   4.863   6.972
 3206SOL    HW110517   1.834   4.890   6.974
 3206SOL    HW210518   1.939   4.770   7.007
 3207SOL     OW10519   0.636   1.435   6.019
 3207SOL    HW110520   0.672   1.421   6.111
 3207SOL    HW210521   0.706   1.408   5.952
 3208SOL     OW10522   5.135   6.153   5.805
 3208SOL    HW110523   5.141   6.088   5.729
 3208SOL    HW210524   5.084   6.112   5.881
 3209SOL     OW10525   4.304   5.759   3.041
 3209SOL    HW110526   4.390   5.710   3.034
 3209SOL    HW210527   4.229   5.693   3.054
 3210SOL     OW10528   0.871   4.580   1.202
 3210SOL    HW110529   0.906   4.499   1.249
 3210SOL    HW210530   0.779   4.562   1.167
 3211SOL     OW10531   1.963   3.634   0.778
 3211SOL    HW110532   1.944   3.608   0.873
 3211SOL    HW210533   2.044   3.692   0.775
 3212SOL     OW10534   2.975   6.902   1.351
 3212SOL    HW110535   3.018   6.971   1.292
 3212SOL    HW210536   3.037   6.880   1.426
 3213SOL     OW10537   1.018   6.938   1.020
 3213SOL    HW110538   0.976   6.947   0.930
 3213SOL    HW210539   1.018   6.842   1.048
 3214SOL     OW10540   4.430   5.484   0.358
 3214SOL    HW110541   4.404   5.387   0.352
 3214SOL    HW210542   4.358   5.535   0.406
 3215SOL     OW10543   6.877   2.957   1.302
 3215SOL    HW110544   6.859   3.017   1.224
 3215SOL    HW210545   6.947   2.889   1.276
 3216SOL     OW10546   6.580   5.039   0.252
 3216SOL    HW110547   6.659   5.091   0.221
 3216SOL    HW210548   6.606   4.943   0.265
 3217SOL     OW10549   6.645   5.426   2.336
 3217SOL    HW110550   6.731   5.453   2.379
 3217SOL    HW210551   6.653   5.433   2.237
 3218SOL     OW10552   4.374   1.922   3.426
 3218SOL    HW110553   4.471   1.948   3.435
 3218SOL    HW210554   4.357   1.892   3.332
 3219SOL     OW10555   0.303   2.242   3.379
 3219SOL    HW110556   0.382   2.180   3.379
 3219SOL    HW210557   0.317   2.314   3.311
 3220SOL     OW10558   6.972   5.415   0.050
 3220SOL    HW110559   6.916   5.386   6.990
 3220SOL    HW210560   0.031   5.468   0.018
 3221SOL     OW10561   4.321   0.697   1.257
 3221SOL    HW110562   4.249   0.763   1.235
 3221SOL    HW210563   4.369   0.727   1.340
 3222SOL     OW10564   3.755   1.483   2.488
 3222SOL    HW110565   3.726   1.554   2.552
 3222SOL    HW210566   3.698   1.487   2.406
 3223SOL     OW10567   2.043   6.429   6.155
 3223SOL    HW110568   2.068   6.522   6.131
 3223SOL    HW210569   2.108   6.365   6.114
 3224SOL     OW10570   4.270   3.773   5.863
 3224SOL    HW110571   4.321   3.704   5.812
 3224SOL    HW210572   4.315   3.789   5.952
 3225SOL     OW10573   5.550   2.761   6.221
 3225SOL    HW110574   5.546   2.857   6.194
 3225SOL    HW210575   5.485   2.744   6.295
 3226SOL     OW10576   2.299   1.471   3.116
 3226SOL    HW110577   2.393   1.437   3.125
 3226SOL    HW210578   2.300   1.555   3.062
 3227SOL     OW10579   3.508   2.403   0.032
 3227SOL    HW110580   3.414   2.434   0.025
 3227SOL    HW210581   3.533   2.393   0.129
 3228SOL     OW10582   0.312   4.085   2.371
 3228SOL    HW110583   0.256   4.131   2.303
 3228SOL    HW210584   0.258   4.015   2.417
 3229SOL     OW10585   4.060   0.417   4.715
 3229SOL    HW110586   4.054   0.421   4.815
 3229SOL    HW210587   4.066   0.321   4.686
 3230SOL     OW10588   2.490   3.808   5.409
 3230SOL    HW110589   2.467   3.847   5.320
 3230SOL    HW210590   2.561   3.739   5.398
 3231SOL     OW10591   2.938   0.592   1.394
 3231SOL    HW110592   2.888   0.677   1.374
 3231SOL    HW210593   2.964   0.548   1.308
 3232SOL     OW10594   4.937   5.926   5.085
 3232SOL    HW110595   4.943   6.017   5.044
 3232SOL    HW210596   4.921   5.935   5.183
 3233SOL     OW10597   0.915   2.583   1.793
 3233SOL    HW110598   0.842   2.607   1.857
 3233SOL    HW210599   0.881   2.591   1.699
 3234SOL     OW10600   0.352   1.738   0.157
 3234SOL    HW110601   0.293   1.729   0.077
 3234SOL    HW210602   0.300   1.777   0.233
 3235SOL     OW10603   5.634   0.420   2.564
 3235SOL    HW110604   5.648   0.515   2.538
 3235SOL    HW210605   5.539   0.394   2.548
 3236SOL     OW10606   1.586   3.163   0.285
 3236SOL    HW110607   1.539   3.085   0.327
 3236SOL    HW210608   1.552   3.247   0.327
 3237SOL     OW10609   5.137   1.161   3.849
 3237SOL    HW110610   5.169   1.221   3.922
 3237SOL    HW210611   5.179   1.188   3.763
 3238SOL     OW10612   6.826   5.860   0.808
 3238SOL    HW110613   6.839   5.933   0.741
 3238SOL    HW210614   6.736   5.869   0.851
 3239SOL     OW10615   6.416   1.468   2.462
 3239SOL    HW110616   6.403   1.562   2.492
 3239SOL    HW210617   6.503   1.460   2.414
 3240SOL     OW10618   0.118   6.828   6.523
 3240SOL    HW110619   0.056   6.907   6.526
 3240SOL    HW210620   0.123   6.793   6.430
 3241SOL     OW10621   4.395   1.447   4.916
 3241SOL    HW110622   4.459   1.397   4.974
 3241SOL    HW210623   4.433   1.453   4.823
 3242SOL     OW10624   3.885   3.684   6.923
 3242SOL    HW110625   3.913   3.780   6.925
 3242SOL    HW210626   3.831   3.666   6.840
 3243SOL     OW10627   4.169   4.115   0.544
 3243SOL    HW110628   4.080   4.126   0.499
 3243SOL    HW210629   4.197   4.019   0.539
 3244SOL     OW10630   4.564   5.464   6.835
 3244SOL    HW110631   4.626   5.406   6.782
 3244SOL    HW210632   4.615   5.540   6.874
 3245SOL     OW10633   5.161   3.187   5.381
 3245SOL    HW110634   5.082   3.238   5.415
 3245SOL    HW210635   5.159   3.185   5.281
 3246SOL     OW10636   5.773   0.220   2.444
 3246SOL    HW110637   5.729   0.298   2.488
 3246SOL    HW210638   5.815   0.249   2.358
 3247SOL     OW10639   5.988   4.844   2.869
 3247SOL    HW110640   5.899   4.802   2.888
 3247SOL    HW210641   6.048   4.833   2.949
 3248SOL     OW10642   6.443   3.676   1.107
 3248SOL    HW110643   6.427   3.658   1.204
 3248SOL    HW210644   6.391   3.756   1.079
 3249SOL     OW10645   3.970   3.101   4.420
 3249SOL    HW110646   3.893   3.038   4.406
 3249SOL    HW210647   3.973   3.130   4.516
 3250SOL     OW10648   5.429   0.107   1.919
 3250SOL    HW110649   5.471   0.188   1.878
 3250SOL    HW210650   5.334   0.126   1.941
 3251SOL     OW10651   3.406   0.733   3.389
 3251SOL    HW110652   3.396   0.826   3.355
 3251SOL    HW210653   3.423   0.670   3.313
 3252SOL     OW10654   2.451   1.216   2.928
 3252SOL    HW110655   2.465   1.276   3.006
 3252SOL    HW210656   2.365   1.166   2.938
 3253SOL     OW10657   5.009   4.381   1.956
 3253SOL    HW110658   5.063   4.374   1.872
 3253SOL    HW210659   4.994   4.478   1.978
 3254SOL     OW10660   4.974   5.685   5.685
 3254SOL    HW110661   4.980   5.671   5.784
 3254SOL    HW210662   4.936   5.602   5.642
 3255SOL     OW10663   5.697   6.281   0.200
 3255SOL    HW110664   5.786   6.323   0.182
 3255SOL    HW210665   5.625   6.345   0.174
 3256SOL     OW10666   3.207   1.109   0.548
 3256SOL    HW110667   3.119   1.063   0.552
 3256SOL    HW210668   3.236   1.117   0.453
 3257SOL     OW10669   1.584   1.961   1.990
 3257SOL    HW110670   1.589   1.981   1.892
 3257SOL    HW210671   1.659   1.900   2.016
 3258SOL     OW10672   4.375   4.890   2.097
 3258SOL    HW110673   4.402   4.940   2.180
 3258SOL    HW210674   4.349   4.955   2.026
 3259SOL     OW10675   4.979   5.358   4.153
 3259SOL    HW110676   4.991   5.399   4.063
 3259SOL    HW210677   5.053   5.389   4.214
 3260SOL     OW10678   1.043   1.961   1.288
 3260SOL    HW110679   1.013   1.909   1.368
 3260SOL    HW210680   1.143   1.955   1.280
 3261SOL     OW10681   5.879   0.636   1.069
 3261SOL    HW110682   5.792   0.685   1.062
 3261SOL    HW210683   5.912   0.615   0.977
 3262SOL     OW10684   2.851   1.681   2.798
 3262SOL    HW110685   2.851   1.781   2.810
 3262SOL    HW210686   2.780   1.656   2.732
 3263SOL     OW10687   2.411   0.617   3.377
 3263SOL    HW110688   2.366   0.702   3.406
 3263SOL    HW210689   2.381   0.542   3.436
 3264SOL     OW10690   1.122   4.180   0.622
 3264SOL    HW110691   1.092   4.147   0.711
 3264SOL    HW210692   1.175   4.264   0.634
 3265SOL     OW10693   5.778   0.594   6.266
 3265SOL    HW110694   5.704   0.626   6.324
 3265SOL    HW210695   5.792   0.658   6.191
 3266SOL     OW10696   1.809   3.913   0.450
 3266SOL    HW110697   1.890   3.936   0.396
 3266SOL    HW210698   1.801   3.978   0.526
 3267SOL     OW10699   3.217   6.872   0.825
 3267SOL    HW110700   3.265   6.800   0.875
 3267SOL    HW210701   3.127   6.886   0.865
 3268SOL     OW10702   1.124   3.467   1.163
 3268SOL    HW110703   1.114   3.387   1.103
 3268SOL    HW210704   1.045   3.474   1.223
 3269SOL     OW10705   4.946   5.519   2.066
 3269SOL    HW110706   4.851   5.487   2.071
 3269SOL    HW210707   4.948   5.612   2.030
 3270SOL     OW10708   1.202   4.440   6.306
 3270SOL    HW110709   1.209   4.433   6.206
 3270SOL    HW210710   1.234   4.530   6.336
 3271SOL     OW10711   5.624   3.856   2.852
 3271SOL    HW110712   5.564   3.779   2.835
 3271SOL    HW210713   5.588   3.911   2.927
 3272SOL     OW10714   3.779   4.597   6.036
 3272SOL    HW110715   3.863   4.543   6.034
 3272SOL    HW210716   3.801   4.692   6.056
 3273SOL     OW10717   0.557   6.519   0.812
 3273SOL    HW110718   0.593   6.428   0.830
 3273SOL    HW210719   0.515   6.521   0.721
 3274SOL     OW10720   5.010   0.726   0.819
 3274SOL    HW110721   4.979   0.770   0.735
 3274SOL    HW210722   5.061   0.791   0.875
 3275SOL     OW10723   6.460   1.764   6.365
 3275SOL    HW110724   6.480   1.677   6.410
 3275SOL    HW210725   6.398   1.748   6.288
 3276SOL     OW10726   2.601   5.567   0.170
 3276SOL    HW110727   2.512   5.541   0.133
 3276SOL    HW210728   2.638   5.492   0.224
 3277SOL     OW10729   3.791   0.049   6.688
 3277SOL    HW110730   3.772   0.050   6.589
 3277SOL    HW210731   3.738   0.121   6.732
 3278SOL     OW10732   0.743   1.158   5.314
 3278SOL    HW110733   0.648   1.145   5.344
 3278SOL    HW210734   0.766   1.087   5.247
 3279SOL     OW10735   5.423   0.459   0.079
 3279SOL    HW110736   5.326   0.481   0.087
 3279SOL    HW210737   5.476   0.544   0.072
 3280SOL     OW10738   3.751   4.967   4.642
 3280SOL    HW110739   3.756   5.050   4.587
 3280SOL    HW210740   3.735   4.991   4.737
 3281SOL     OW10741   2.050   5.427   2.054
 3281SOL    HW110742   2.064   5.419   1.955
 3281SOL    HW210743   2.107   5.360   2.101
 3282SOL     OW10744   0.349   4.811   5.777
 3282SOL    HW110745   0.421   4.815   5.847
 3282SOL    HW210746   0.295   4.895   5.780
 3283SOL     OW10747   3.601   0.645   0.914
 3283SOL    HW110748   3.608   0.743   0.892
 3283SOL    HW210749   3.673   0.621   0.979
 3284SOL     OW10750   0.082   5.348   0.267
 3284SOL    HW110751   0.068   5.429   0.323
 3284SOL    HW210752   0.052   5.366   0.173
 3285SOL     OW10753   4.633   2.652   3.523
 3285SOL    HW110754   4.698   2.728   3.514
 3285SOL    HW210755   4.571   2.651   3.445
 3286SOL     OW10756   3.601   3.292   2.721
 3286SOL    HW110757   3.683   3.236   2.708
 3286SOL    HW210758   3.622   3.388   2.704
 3287SOL     OW10759   0.350   0.609   6.781
 3287SOL    HW110760   0.263   0.572   6.751
 3287SOL    HW210761   0.423   0.544   6.759
 3288SOL     OW10762   0.634   5.676   5.838
 3288SOL    HW110763   0.633   5.721   5.928
 3288SOL    HW210764   0.611   5.743   5.767
 3289SOL     OW10765   2.695   6.939   5.519
 3289SOL    HW110766   2.676   6.994   5.438
 3289SOL    HW210767   2.792   6.949   5.544
 3290SOL     OW10768   0.183   7.014   1.926
 3290SOL    HW110769   0.248   0.050   1.977
 3290SOL    HW210770   0.107   0.052   1.895
 3291SOL     OW10771   1.462   6.887   0.707
 3291SOL    HW110772   1.385   6.948   0.691
 3291SOL    HW210773   1.495   6.899   0.800
 3292SOL     OW10774   0.646   1.262   0.374
 3292SOL    HW110775   0.560   1.257   0.424
 3292SOL    HW210776   0.716   1.210   0.423
 3293SOL     OW10777   0.039   3.455   2.341
 3293SOL    HW110778   6.963   3.428   2.330
 3293SOL    HW210779   0.087   3.386   2.395
 3294SOL     OW10780   6.111   1.732   6.815
 3294SOL    HW110781   6.114   1.633   6.828
 3294SOL    HW210782   6.042   1.755   6.747
 3295SOL     OW10783   1.472   3.182   2.122
 3295SOL    HW110784   1.569   3.158   2.122
 3295SOL    HW210785   1.426   3.135   2.046
 3296SOL     OW10786   1.629   0.230   2.337
 3296SOL    HW110787   1.631   0.137   2.376
 3296SOL    HW210788   1.574   0.289   2.395
 3297SOL     OW10789   2.722   0.692   4.427
 3297SOL    HW110790   2.622   0.691   4.414
 3297SOL    HW210791   2.754   0.599   4.445
 3298SOL     OW10792   5.790   1.675   4.936
 3298SOL    HW110793   5.789   1.600   4.871
 3298SOL    HW210794   5.774   1.762   4.888
 3299SOL     OW10795   2.894   5.786   3.075
 3299SOL    HW110796   2.819   5.849   3.054
 3299SOL    HW210797   2.949   5.823   3.150
 3300SOL     OW10798   6.285   0.490   5.558
 3300SOL    HW110799   6.187   0.502   5.574
 3300SOL    HW210800   6.304   0.394   5.537
 3301SOL     OW10801   1.912   3.054   3.424
 3301SOL    HW110802   1.926   3.086   3.517
 3301SOL    HW210803   1.826   3.004   3.418
 3302SOL     OW10804   0.081   4.946   5.739
 3302SOL    HW110805   0.049   4.865   5.788
 3302SOL    HW210806   0.090   5.023   5.802
 3303SOL     OW10807   3.362   3.395   1.407
 3303SOL    HW110808   3.270   3.366   1.382
 3303SOL    HW210809   3.357   3.455   1.487
 3304SOL     OW10810   0.831   5.810   3.961
 3304SOL    HW110811   0.790   5.884   3.908
 3304SOL    HW210812   0.860   5.844   4.050
 3305SOL     OW10813   2.291   1.261   2.402
 3305SOL    HW110814   2.260   1.177   2.445
 3305SOL    HW210815   2.305   1.332   2.471
 3306SOL     OW10816   1.932   5.573   5.182
 3306SOL    HW110817   1.903   5.600   5.090
 3306SOL    HW210818   1.887   5.631   5.250
 3307SOL     OW10819   0.209   5.299   6.882
 3307SOL    HW110820   0.132   5.358   6.857
 3307SOL    HW210821   0.290   5.324   6.829
 3308SOL     OW10822   2.927   6.065   0.933
 3308SOL    HW110823   2.922   6.086   1.031
 3308SOL    HW210824   2.894   5.972   0.918
 3309SOL     OW10825   0.255   5.821   2.677
 3309SOL    HW110826   0.202   5.824   2.762
 3309SOL    HW210827   0.347   5.856   2.695
 3310SOL     OW10828   6.941   3.083   6.241
 3310SOL    HW110829   6.965   3.046   6.151
 3310SOL    HW210830   6.916   3.008   6.302
 3311SOL     OW10831   2.453   4.356   1.448
 3311SOL    HW110832   2.367   4.402   1.423
 3311SOL    HW210833   2.462   4.355   1.547
 3312SOL     OW10834   4.378   4.499   5.691
 3312SOL    HW110835   4.370   4.415   5.745
 3312SOL    HW210836   4.290   4.548   5.691
 3313SOL     OW10837   1.073   5.182   3.604
 3313SOL    HW110838   1.115   5.179   3.513
 3313SOL    HW210839   1.143   5.198   3.673
 3314SOL     OW10840   2.750   1.216   3.222
 3314SOL    HW110841   2.833   1.250   3.265
 3314SOL    HW210842   2.773   1.145   3.155
 3315SOL     OW10843   6.609   3.830   4.808
 3315SOL    HW110844   6.523   3.782   4.827
 3315SOL    HW210845   6.662   3.778   4.741
 3316SOL     OW10846   4.980   1.500   5.998
 3316SOL    HW110847   4.914   1.566   5.962
 3316SOL    HW210848   4.932   1.415   6.021
 3317SOL     OW10849   4.409   3.229   1.655
 3317SOL    HW110850   4.435   3.313   1.704
 3317SOL    HW210851   4.445   3.150   1.704
 3318SOL     OW10852   1.969   1.144   1.005
 3318SOL    HW110853   2.020   1.073   0.955
 3318SOL    HW210854   1.961   1.225   0.947
 3319SOL     OW10855   0.089   1.054   3.872
 3319SOL    HW110856   0.131   1.126   3.927
 3319SOL    HW210857   0.013   1.093   3.819
 3320SOL     OW10858   5.926   6.826   4.846
 3320SOL    HW110859   5.936   6.729   4.824
 3320SOL    HW210860   5.975   6.881   4.778
 3321SOL     OW10861   4.675   1.797   0.362
 3321SOL    HW110862   4.773   1.782   0.348
 3321SOL    HW210863   4.623   1.734   0.303
 3322SOL     OW10864   6.183   3.018   1.050
 3322SOL    HW110865   6.112   3.086   1.036
 3322SOL    HW210866   6.268   3.049   1.006
 3323SOL     OW10867   2.771   3.197   0.657
 3323SOL    HW110868   2.765   3.099   0.638
 3323SOL    HW210869   2.706   3.246   0.599
 3324SOL     OW10870   3.211   5.582   6.908
 3324SOL    HW110871   3.242   5.616   6.996
 3324SOL    HW210872   3.290   5.562   6.850
 3325SOL     OW10873   1.016   2.865   0.254
 3325SOL    HW110874   0.979   2.773   0.238
 3325SOL    HW210875   1.010   2.918   0.169
 3326SOL     OW10876   4.802   2.262   1.456
 3326SOL    HW110877   4.889   2.222   1.485
 3326SOL    HW210878   4.820   2.351   1.414
 3327SOL     OW10879   2.886   6.148   2.005
 3327SOL    HW110880   2.938   6.221   1.960
 3327SOL    HW210881   2.790   6.153   1.978
 3328SOL     OW10882   3.908   2.153   0.374
 3328SOL    HW110883   3.838   2.167   0.303
 3328SOL    HW210884   3.894   2.219   0.448
 3329SOL     OW10885   4.835   0.089   4.676
 3329SOL    HW110886   4.738   0.093   4.652
 3329SOL    HW210887   4.882   0.028   4.613
 3330SOL     OW10888   6.324   4.874   1.445
 3330SOL    HW110889   6.386   4.920   1.382
 3330SOL    HW210890   6.331   4.775   1.433
 3331SOL     OW10891   1.710   3.196   1.376
 3331SOL    HW110892   1.624   3.198   1.428
 3331SOL    HW210893   1.783   3.159   1.433
 3332SOL     OW10894   6.229   4.860   6.947
 3332SOL    HW110895   6.176   4.911   7.015
 3332SOL    HW210896   6.291   4.797   6.994
 3333SOL     OW10897   3.944   4.214   6.662
 3333SOL    HW110898   3.939   4.310   6.636
 3333SOL    HW210899   4.039   4.183   6.655
 3334SOL     OW10900   2.841   3.624   1.240
 3334SOL    HW110901   2.821   3.682   1.319
 3334SOL    HW210902   2.770   3.637   1.171
 3335SOL     OW10903   5.069   6.581   5.360
 3335SOL    HW110904   5.013   6.515   5.410
 3335SOL    HW210905   5.133   6.625   5.424
 3336SOL     OW10906   1.850   6.484   4.725
 3336SOL    HW110907   1.870   6.529   4.812
 3336SOL    HW210908   1.801   6.399   4.742
 3337SOL     OW10909   3.186   4.072   2.307
 3337SOL    HW110910   3.126   4.150   2.318
 3337SOL    HW210911   3.157   3.998   2.369
 3338SOL     OW10912   5.414   3.503   2.429
 3338SOL    HW110913   5.450   3.452   2.351
 3338SOL    HW210914   5.412   3.444   2.510
 3339SOL     OW10915   6.947   0.486   6.915
 3339SOL    HW110916   0.007   0.516   6.861
 3339SOL    HW210917   6.872   0.461   6.854
 3340SOL     OW10918   4.021   1.650   2.908
 3340SOL    HW110919   3.972   1.708   2.973
 3340SOL    HW210920   4.113   1.631   2.942
 3341SOL     OW10921   1.300   5.477   3.518
 3341SOL    HW110922   1.396   5.455   3.536
 3341SOL    HW210923   1.294   5.543   3.444
 3342SOL     OW10924   1.824   6.736   4.100
 3342SOL    HW110925   1.866   6.788   4.174
 3342SOL    HW210926   1.879   6.746   4.017
 3343SOL     OW10927   5.842   3.347   0.330
 3343SOL    HW110928   5.793   3.262   0.346
 3343SOL    HW210929   5.894   3.371   0.412
 3344SOL     OW10930   5.765   3.192   4.094
 3344SOL    HW110931   5.835   3.257   4.124
 3344SOL    HW210932   5.806   3.123   4.035
 3345SOL     OW10933   1.702   3.022   5.743
 3345SOL    HW110934   1.659   3.097   5.693
 3345SOL    HW210935   1.799   3.016   5.718
 3346SOL     OW10936   1.906   0.738   0.551
 3346SOL    HW110937   1.908   0.711   0.455
 3346SOL    HW210938   1.813   0.765   0.577
 3347SOL     OW10939   0.861   3.774   5.868
 3347SOL    HW110940   0.798   3.698   5.882
 3347SOL    HW210941   0.920   3.756   5.790
 3348SOL     OW10942   3.441   3.797   4.324
 3348SOL    HW110943   3.526   3.772   4.278
 3348SOL    HW210944   3.365   3.797   4.258
 3349SOL     OW10945   1.037   5.555   3.015
 3349SOL    HW110946   1.133   5.535   3.035
 3349SOL    HW210947   0.980   5.515   3.087
 3350SOL     OW10948   0.429   2.766   5.808
 3350SOL    HW110949   0.460   2.724   5.894
 3350SOL    HW210950   0.505   2.818   5.767
 3351SOL     OW10951   4.663   1.349   2.192
 3351SOL    HW110952   4.563   1.356   2.196
 3351SOL    HW210953   4.703   1.380   2.278
 3352SOL     OW10954   0.093   2.444   0.437
 3352SOL    HW110955   0.110   2.482   0.346
 3352SOL    HW210956   0.048   2.355   0.427
 3353SOL     OW10957   2.465   5.681   1.671
 3353SOL    HW110958   2.475   5.658   1.768
 3353SOL    HW210959   2.476   5.779   1.659
 3354SOL     OW10960   4.985   2.870   5.242
 3354SOL    HW110961   5.024   2.790   5.287
 3354SOL    HW210962   4.910   2.906   5.298
 3355SOL     OW10963   2.280   2.181   6.566
 3355SOL    HW110964   2.337   2.099   6.573
 3355SOL    HW210965   2.277   2.211   6.471
 3356SOL     OW10966   0.502   4.965   5.435
 3356SOL    HW110967   0.409   5.001   5.443
 3356SOL    HW210968   0.505   4.871   5.468
 3357SOL     OW10969   2.302   4.268   1.949
 3357SOL    HW110970   2.354   4.292   2.031
 3357SOL    HW210971   2.362   4.272   1.869
 3358SOL     OW10972   4.537   1.306   0.651
 3358SOL    HW110973   4.475   1.383   0.633
 3358SOL    HW210974   4.521   1.271   0.743
 3359SOL     OW10975   0.250   6.776   3.019
 3359SOL    HW110976   0.344   6.805   3.006
 3359SOL    HW210977   0.245   6.676   3.018
 3360SOL     OW10978   1.329   1.545   6.987
 3360SOL    HW110979   1.305   1.625   0.022
 3360SOL    HW210980   1.302   1.560   6.892
 3361SOL     OW10981   0.841   4.975   4.438
 3361SOL    HW110982   0.770   4.909   4.414
 3361SOL    HW210983   0.860   5.034   4.359
 3362SOL     OW10984   3.751   0.949   2.866
 3362SOL    HW110985   3.720   0.956   2.771
 3362SOL    HW210986   3.716   1.026   2.919
 3363SOL     OW10987   6.299   0.064   1.691
 3363SOL    HW110988   6.204   0.060   1.723
 3363SOL    HW210989   6.332   6.991   1.671
 3364SOL     OW10990   1.047   4.937   3.697
 3364SOL    HW110991   1.067   5.027   3.659
 3364SOL    HW210992   1.110   4.917   3.772
 3365SOL     OW10993   6.511   2.199   5.121
 3365SOL    HW110994   6.584   2.133   5.141
 3365SOL    HW210995   6.432   2.150   5.085
 3366SOL     OW10996   5.817   6.333   5.013
 3366SOL    HW110997   5.835   6.302   5.106
 3366SOL    HW210998   5.823   6.256   4.950
 3367SOL     OW10999   3.579   2.784   2.135
 3367SOL    HW111000   3.563   2.697   2.088
 3367SOL    HW211001   3.677   2.803   2.137
 3368SOL     OW11002   0.794   5.510   5.688
 3368SOL    HW111003   0.884   5.535   5.722
 3368SOL    HW211004   0.726   5.573   5.724
 3369SOL     OW11005   4.327   2.723   0.122
 3369SOL    HW111006   4.388   2.749   0.197
 3369SOL    HW211007   4.334   2.792   0.049
 3370SOL     OW11008   0.299   6.058   0.002
 3370SOL    HW111009   0.362   6.039   0.077
 3370SOL    HW211010   0.329   6.010   6.939
 3371SOL     OW11011   2.330   2.815   1.910
 3371SOL    HW111012   2.307   2.734   1.965
 3371SOL    HW211013   2.417   2.800   1.864
 3372SOL     OW11014   0.743   1.917   1.427
 3372SOL    HW111015   0.647   1.911   1.453
 3372SOL    HW211016   0.792   1.838   1.464
 3373SOL     OW11017   0.045   1.338   3.036
 3373SOL    HW111018   0.111   1.296   3.098
 3373SOL    HW211019   0.049   1.438   3.045
 3374SOL     OW11020   1.091   6.338   4.925
 3374SOL    HW111021   0.992   6.348   4.912
 3374SOL    HW211022   1.138   6.363   4.840
 3375SOL     OW11023   0.191   4.490   6.568
 3375SOL    HW111024   0.260   4.491   6.641
 3375SOL    HW211025   0.121   4.559   6.588
 3376SOL     OW11026   4.060   3.690   3.809
 3376SOL    HW111027   4.091   3.694   3.904
 3376SOL    HW211028   4.080   3.599   3.772
 3377SOL     OW11029   6.738   5.648   6.507
 3377SOL    HW111030   6.704   5.693   6.424
 3377SOL    HW211031   6.688   5.682   6.587
 3378SOL     OW11032   0.582   1.260   0.106
 3378SOL    HW111033   0.573   1.165   0.076
 3378SOL    HW211034   0.602   1.263   0.204
 3379SOL     OW11035   6.399   6.635   6.468
 3379SOL    HW111036   6.421   6.681   6.382
 3379SOL    HW211037   6.405   6.700   6.544
 3380SOL     OW11038   5.521   6.553   5.095
 3380SOL    HW111039   5.578   6.617   5.044
 3380SOL    HW211040   5.504   6.471   5.040
 3381SOL     OW11041   0.674   2.774   1.633
 3381SOL    HW111042   0.700   2.849   1.693
 3381SOL    HW211043   0.746   2.759   1.565
 3382SOL     OW11044   0.816   2.263   1.027
 3382SOL    HW111045   0.783   2.196   1.093
 3382SOL    HW211046   0.903   2.301   1.058
 3383SOL     OW11047   4.423   5.805   1.256
 3383SOL    HW111048   4.513   5.849   1.251
 3383SOL    HW211049   4.375   5.814   1.169
 3384SOL     OW11050   2.903   3.275   6.265
 3384SOL    HW111051   2.886   3.333   6.185
 3384SOL    HW211052   2.849   3.309   6.342
 3385SOL     OW11053   6.557   3.026   4.243
 3385SOL    HW111054   6.470   3.058   4.205
 3385SOL    HW211055   6.539   2.962   4.318
 3386SOL     OW11056   5.747   4.590   7.015
 3386SOL    HW111057   5.792   4.520   6.960
 3386SOL    HW211058   5.730   4.554   0.088
 3387SOL     OW11059   3.106   0.412   3.185
 3387SOL    HW111060   3.168   0.484   3.216
 3387SOL    HW211061   3.048   0.383   3.262
 3388SOL     OW11062   5.650   3.324   1.681
 3388SOL    HW111063   5.659   3.305   1.583
 3388SOL    HW211064   5.610   3.245   1.727
 3389SOL     OW11065   5.507   5.250   6.522
 3389SOL    HW111066   5.437   5.321   6.512
 3389SOL    HW211067   5.496   5.205   6.610
 3390SOL     OW11068   5.309   6.432   6.336
 3390SOL    HW111069   5.379   6.501   6.354
 3390SOL    HW211070   5.221   6.476   6.324
 3391SOL     OW11071   5.257   3.245   4.915
 3391SOL    HW111072   5.345   3.289   4.933
 3391SOL    HW211073   5.194   3.266   4.990
 3392SOL     OW11074   2.796   0.408   3.475
 3392SOL    HW111075   2.719   0.472   3.478
 3392SOL    HW211076   2.789   0.352   3.393
 3393SOL     OW11077   0.442   6.282   6.959
 3393SOL    HW111078   0.395   6.370   6.958
 3393SOL    HW211079   0.377   6.210   6.983
 3394SOL     OW11080   5.299   3.680   1.635
 3394SOL    HW111081   5.203   3.661   1.616
 3394SOL    HW211082   5.310   3.704   1.732
 3395SOL     OW11083   4.923   2.974   3.233
 3395SOL    HW111084   4.888   2.958   3.140
 3395SOL    HW211085   5.021   2.957   3.235
 3396SOL     OW11086   4.981   1.908   2.859
 3396SOL    HW111087   4.961   1.817   2.895
 3396SOL    HW211088   4.900   1.966   2.868
 3397SOL     OW11089   2.973   0.311   5.369
 3397SOL    HW111090   2.894   0.356   5.411
 3397SOL    HW211091   3.055   0.331   5.423
 3398SOL     OW11092   0.835   6.933   4.923
 3398SOL    HW111093   0.820   0.013   4.924
 3398SOL    HW211094   0.919   6.912   4.974
 3399SOL     OW11095   5.495   3.999   3.844
 3399SOL    HW111096   5.420   4.065   3.845
 3399SOL    HW211097   5.562   4.024   3.914
 3400SOL     OW11098   4.327   3.222   5.760
 3400SOL    HW111099   4.337   3.195   5.664
 3400SOL    HW211100   4.339   3.142   5.818
 3401SOL     OW11101   0.507   2.584   1.331
 3401SOL    HW111102   0.440   2.516   1.302
 3401SOL    HW211103   0.468   2.676   1.322
 3402SOL     OW11104   3.998   5.843   6.957
 3402SOL    HW111105   3.924   5.904   6.984
 3402SOL    HW211106   4.013   5.775   0.010
 3403SOL     OW11107   3.298   5.930   4.865
 3403SOL    HW111108   3.341   5.843   4.890
 3403SOL    HW211109   3.199   5.923   4.876
 3404SOL     OW11110   5.133   1.284   0.048
 3404SOL    HW111111   5.115   1.257   0.143
 3404SOL    HW211112   5.146   1.383   0.044
 3405SOL     OW11113   6.858   3.876   5.258
 3405SOL    HW111114   6.770   3.830   5.266
 3405SOL    HW211115   6.900   3.884   5.349
 3406SOL     OW11116   1.061   4.206   1.800
 3406SOL    HW111117   1.003   4.276   1.758
 3406SOL    HW211118   1.009   4.122   1.813
 3407SOL     OW11119   1.551   4.983   6.386
 3407SOL    HW111120   1.554   4.994   6.287
 3407SOL    HW211121   1.536   4.887   6.408
 3408SOL     OW11122   4.830   3.968   4.958
 3408SOL    HW111123   4.789   3.998   4.872
 3408SOL    HW211124   4.803   3.874   4.977
 3409SOL     OW11125   3.179   6.889   6.559
 3409SOL    HW111126   3.105   6.854   6.617
 3409SOL    HW211127   3.239   6.947   6.614
 3410SOL     OW11128   6.383   6.616   1.115
 3410SOL    HW111129   6.395   6.712   1.092
 3410SOL    HW211130   6.339   6.609   1.205
 3411SOL     OW11131   0.779   3.442   1.916
 3411SOL    HW111132   0.856   3.493   1.876
 3411SOL    HW211133   0.805   3.346   1.928
 3412SOL     OW11134   4.696   2.805   0.623
 3412SOL    HW111135   4.769   2.736   0.619
 3412SOL    HW211136   4.727   2.883   0.677
 3413SOL     OW11137   6.213   1.444   0.718
 3413SOL    HW111138   6.258   1.422   0.632
 3413SOL    HW211139   6.259   1.396   0.793
 3414SOL     OW11140   3.958   1.164   5.378
 3414SOL    HW111141   4.014   1.245   5.391
 3414SOL    HW211142   3.996   1.089   5.432
 3415SOL     OW11143   2.114   3.606   4.827
 3415SOL    HW111144   2.042   3.667   4.861
 3415SOL    HW211145   2.142   3.636   4.735
 3416SOL     OW11146   6.527   5.562   0.823
 3416SOL    HW111147   6.527   5.473   0.779
 3416SOL    HW211148   6.585   5.560   0.905
 3417SOL     OW11149   0.498   6.539   2.887
 3417SOL    HW111150   0.558   6.607   2.843
 3417SOL    HW211151   0.554   6.468   2.930
 3418SOL     OW11152   3.078   6.684   3.659
 3418SOL    HW111153   2.987   6.726   3.666
 3418SOL    HW211154   3.091   6.647   3.567
 3419SOL     OW11155   2.664   6.257   5.272
 3419SOL    HW111156   2.613   6.172   5.290
 3419SOL    HW211157   2.600   6.331   5.254
 3420SOL     OW11158   5.755   3.025   4.432
 3420SOL    HW111159   5.717   3.109   4.470
 3420SOL    HW211160   5.706   2.999   4.350
 3421SOL     OW11161   4.838   1.076   5.076
 3421SOL    HW111162   4.810   0.984   5.047
 3421SOL    HW211163   4.924   1.070   5.127
 3422SOL     OW11164   2.291   0.444   0.653
 3422SOL    HW111165   2.195   0.462   0.672
 3422SOL    HW211166   2.346   0.468   0.734
 3423SOL     OW11167   0.599   4.598   6.469
 3423SOL    HW111168   0.661   4.666   6.430
 3423SOL    HW211169   0.505   4.632   6.463
 3424SOL     OW11170   2.874   6.674   1.272
 3424SOL    HW111171   2.944   6.613   1.310
 3424SOL    HW211172   2.890   6.767   1.305
 3425SOL     OW11173   5.582   5.349   2.599
 3425SOL    HW111174   5.551   5.443   2.608
 3425SOL    HW211175   5.681   5.345   2.611
 3426SOL     OW11176   3.661   2.635   0.458
 3426SOL    HW111177   3.661   2.699   0.381
 3426SOL    HW211178   3.625   2.680   0.539
 3427SOL     OW11179   6.759   1.048   0.109
 3427SOL    HW111180   6.679   0.994   0.133
 3427SOL    HW211181   6.749   1.140   0.147
 3428SOL     OW11182   2.236   5.512   6.825
 3428SOL    HW111183   2.287   5.471   6.749
 3428SOL    HW211184   2.298   5.527   6.902
 3429SOL     OW11185   0.986   1.691   0.774
 3429SOL    HW111186   0.982   1.657   0.868
 3429SOL    HW211187   1.081   1.699   0.745
 3430SOL     OW11188   1.649   6.798   5.183
 3430SOL    HW111189   1.605   6.886   5.197
 3430SOL    HW211190   1.607   6.751   5.105
 3431SOL     OW11191   1.276   0.020   1.065
 3431SOL    HW111192   1.324   0.027   0.978
 3431SOL    HW211193   1.178   0.015   1.049
 3432SOL     OW11194   1.704   3.062   7.010
 3432SOL    HW111195   1.750   3.072   0.079
 3432SOL    HW211196   1.770   3.031   6.941
 3433SOL     OW11197   1.370   0.134   5.780
 3433SOL    HW111198   1.364   0.207   5.713
 3433SOL    HW211199   1.285   0.129   5.833
 3434SOL     OW11200   4.168   1.595   1.411
 3434SOL    HW111201   4.256   1.622   1.370
 3434SOL    HW211202   4.114   1.545   1.343
 3435SOL     OW11203   0.726   1.396   0.895
 3435SOL    HW111204   0.761   1.338   0.821
 3435SOL    HW211205   0.644   1.354   0.934
 3436SOL     OW11206   4.391   6.225   0.024
 3436SOL    HW111207   4.468   6.161   0.025
 3436SOL    HW211208   4.313   6.184   0.072
 3437SOL     OW11209   2.146   0.302   5.717
 3437SOL    HW111210   2.203   0.351   5.783
 3437SOL    HW211211   2.201   0.231   5.672
 3438SOL     OW11212   1.279   2.772   0.374
 3438SOL    HW111213   1.252   2.847   0.313
 3438SOL    HW211214   1.219   2.693   0.358
 3439SOL     OW11215   2.426   6.118   4.704
 3439SOL    HW111216   2.356   6.185   4.732
 3439SOL    HW211217   2.405   6.084   4.613
 3440SOL     OW11218   3.069   3.478   1.174
 3440SOL    HW111219   2.976   3.510   1.192
 3440SOL    HW211220   3.084   3.390   1.217
 3441SOL     OW11221   5.611   6.168   5.262
 3441SOL    HW111222   5.556   6.135   5.186
 3441SOL    HW211223   5.617   6.268   5.258
 3442SOL     OW11224   2.124   4.903   2.158
 3442SOL    HW111225   2.128   4.984   2.216
 3442SOL    HW211226   2.163   4.825   2.207
 3443SOL     OW11227   4.281   6.204   1.442
 3443SOL    HW111228   4.296   6.301   1.424
 3443SOL    HW211229   4.267   6.190   1.540
 3444SOL     OW11230   4.961   5.216   0.461
 3444SOL    HW111231   5.002   5.233   0.551
 3444SOL    HW211232   4.862   5.209   0.470
 3445SOL     OW11233   6.439   5.320   3.391
 3445SOL    HW111234   6.494   5.244   3.356
 3445SOL    HW211235   6.343   5.304   3.369
 3446SOL     OW11236   6.351   0.972   2.845
 3446SOL    HW111237   6.316   0.991   2.754
 3446SOL    HW211238   6.411   1.047   2.874
 3447SOL     OW11239   6.075   5.350   0.846
 3447SOL    HW111240   6.090   5.261   0.889
 3447SOL    HW211241   6.140   5.363   0.771
 3448SOL     OW11242   3.488   0.314   0.335
 3448SOL    HW111243   3.536   0.402   0.332
 3448SOL    HW211244   3.391   0.328   0.315
 3449SOL     OW11245   5.864   6.107   4.234
 3449SOL    HW111246   5.835   6.012   4.241
 3449SOL    HW211247   5.845   6.154   4.320
 3450SOL     OW11248   6.789   2.582   6.407
 3450SOL    HW111249   6.773   2.500   6.461
 3450SOL    HW211250   6.716   2.592   6.338
 3451SOL     OW11251   2.258   6.020   1.196
 3451SOL    HW111252   2.274   6.117   1.211
 3451SOL    HW211253   2.248   6.003   1.097
 3452SOL     OW11254   6.343   0.799   5.968
 3452SOL    HW111255   6.272   0.807   5.899
 3452SOL    HW211256   6.313   0.843   6.053
 3453SOL     OW11257   7.011   5.696   6.788
 3453SOL    HW111258   6.922   5.731   6.816
 3453SOL    HW211259   7.000   5.606   6.747
 3454SOL     OW11260   0.936   2.342   5.508
 3454SOL    HW111261   0.873   2.362   5.583
 3454SOL    HW211262   0.995   2.265   5.534
 3455SOL     OW11263   2.963   2.238   4.853
 3455SOL    HW111264   3.007   2.251   4.764
 3455SOL    HW211265   3.034   2.226   4.923
 3456SOL     OW11266   5.660   5.795   2.048
 3456SOL    HW111267   5.657   5.841   2.136
 3456SOL    HW211268   5.685   5.699   2.061
 3457SOL     OW11269   2.829   5.040   3.305
 3457SOL    HW111270   2.921   5.002   3.301
 3457SOL    HW211271   2.772   4.985   3.366
 3458SOL     OW11272   4.980   0.627   2.076
 3458SOL    HW111273   5.067   0.676   2.070
 3458SOL    HW211274   4.910   0.686   2.116
 3459SOL     OW11275   5.686   3.215   3.395
 3459SOL    HW111276   5.731   3.134   3.434
 3459SOL    HW211277   5.726   3.297   3.436
 3460SOL     OW11278   2.236   3.103   0.129
 3460SOL    HW111279   2.291   3.175   0.087
 3460SOL    HW211280   2.140   3.113   0.101
 3461SOL     OW11281   5.232   4.973   4.808
 3461SOL    HW111282   5.323   4.977   4.767
 3461SOL    HW211283   5.194   5.065   4.816
 3462SOL     OW11284   0.246   4.248   3.366
 3462SOL    HW111285   0.182   4.307   3.318
 3462SOL    HW211286   0.232   4.153   3.337
 3463SOL     OW11287   1.355   3.891   2.268
 3463SOL    HW111288   1.385   3.985   2.251
 3463SOL    HW211289   1.306   3.856   2.188
 3464SOL     OW11290   6.244   4.090   6.347
 3464SOL    HW111291   6.343   4.082   6.343
 3464SOL    HW211292   6.204   4.000   6.370
 3465SOL     OW11293   1.802   2.064   2.249
 3465SOL    HW111294   1.709   2.057   2.285
 3465SOL    HW211295   1.803   2.127   2.172
 3466SOL     OW11296   0.138   4.980   0.250
 3466SOL    HW111297   0.068   4.973   0.321
 3466SOL    HW211298   0.210   5.043   0.280
 3467SOL     OW11299   1.816   2.829   0.241
 3467SOL    HW111300   1.894   2.885   0.215
 3467SOL    HW211301   1.786   2.855   0.333
 3468SOL     OW11302   5.111   6.748   2.922
 3468SOL    HW111303   5.081   6.657   2.950
 3468SOL    HW211304   5.074   6.768   2.831
 3469SOL     OW11305   5.386   0.362   2.507
 3469SOL    HW111306   5.317   0.434   2.501
 3469SOL    HW211307   5.360   0.298   2.579
 3470SOL     OW11308   6.094   3.906   0.842
 3470SOL    HW111309   6.046   3.930   0.758
 3470SOL    HW211310   6.061   3.817   0.875
 3471SOL     OW11311   3.916   5.200   4.344
 3471SOL    HW111312   3.904   5.258   4.264
 3471SOL    HW211313   3.844   5.218   4.410
 3472SOL     OW11314   2.521   0.580   2.586
 3472SOL    HW111315   2.457   0.557   2.514
 3472SOL    HW211316   2.614   0.558   2.557
 3473SOL     OW11317   0.229   2.265   1.353
 3473SOL    HW111318   0.153   2.297   1.296
 3473SOL    HW211319   0.311   2.254   1.296
 3474SOL     OW11320   1.304   4.728   1.725
 3474SOL    HW111321   1.356   4.663   1.670
 3474SOL    HW211322   1.366   4.796   1.763
 3475SOL     OW11323   0.630   5.115   4.133
 3475SOL    HW111324   0.727   5.134   4.151
 3475SOL    HW211325   0.622   5.065   4.047
 3476SOL     OW11326   3.345   1.248   3.361
 3476SOL    HW111327   3.383   1.294   3.442
 3476SOL    HW211328   3.296   1.316   3.305
 3477SOL     OW11329   2.764   5.410   0.964
 3477SOL    HW111330   2.790   5.333   1.022
 3477SOL    HW211331   2.838   5.478   0.963
 3478SOL     OW11332   2.651   5.654   4.840
 3478SOL    HW111333   2.575   5.593   4.818
 3478SOL    HW211334   2.652   5.730   4.776
 3479SOL     OW11335   1.760   0.671   2.861
 3479SOL    HW111336   1.829   0.681   2.932
 3479SOL    HW211337   1.695   0.747   2.866
 3480SOL     OW11338   0.265   6.799   4.946
 3480SOL    HW111339   0.336   6.756   5.003
 3480SOL    HW211340   0.175   6.770   4.979
 3481SOL     OW11341   4.614   0.461   0.400
 3481SOL    HW111342   4.684   0.510   0.454
 3481SOL    HW211343   4.564   0.398   0.459
 3482SOL     OW11344   5.443   1.219   1.414
 3482SOL    HW111345   5.486   1.227   1.504
 3482SOL    HW211346   5.392   1.133   1.409
 3483SOL     OW11347   4.708   1.820   1.297
 3483SOL    HW111348   4.618   1.777   1.304
 3483SOL    HW211349   4.700   1.917   1.321
 3484SOL     OW11350   1.205   3.739   0.429
 3484SOL    HW111351   1.243   3.779   0.513
 3484SOL    HW211352   1.147   3.661   0.453
 3485SOL     OW11353   1.874   1.523   4.728
 3485SOL    HW111354   1.856   1.613   4.768
 3485SOL    HW211355   1.791   1.468   4.731
 3486SOL     OW11356   2.869   0.842   2.850
 3486SOL    HW111357   2.959   0.844   2.894
 3486SOL    HW211358   2.837   0.748   2.842
 3487SOL     OW11359   5.391   2.914   5.678
 3487SOL    HW111360   5.370   2.967   5.760
 3487SOL    HW211361   5.327   2.837   5.671
 3488SOL     OW11362   5.930   1.674   4.519
 3488SOL    HW111363   5.891   1.709   4.604
 3488SOL    HW211364   5.864   1.684   4.445
 3489SOL     OW11365   3.283   6.819   1.446
 3489SOL    HW111366   3.252   6.907   1.481
 3489SOL    HW211367   3.330   6.769   1.519
 3490SOL     OW11368   4.549   4.243   0.183
 3490SOL    HW111369   4.471   4.199   0.137
 3490SOL    HW211370   4.608   4.286   0.114
 3491SOL     OW11371   5.241   2.786   4.944
 3491SOL    HW111372   5.143   2.771   4.933
 3491SOL    HW211373   5.261   2.805   5.040
 3492SOL     OW11374   0.136   5.248   1.130
 3492SOL    HW111375   0.229   5.222   1.105
 3492SOL    HW211376   0.071   5.186   1.087
 3493SOL     OW11377   5.709   4.406   6.600
 3493SOL    HW111378   5.806   4.385   6.589
 3493SOL    HW211379   5.656   4.356   6.531
 3494SOL     OW11380   3.976   0.659   1.326
 3494SOL    HW111381   4.051   0.610   1.370
 3494SOL    HW211382   3.992   0.758   1.332
 3495SOL     OW11383   5.383   5.628   2.833
 3495SOL    HW111384   5.329   5.544   2.849
 3495SOL    HW211385   5.323   5.707   2.838
 3496SOL     OW11386   6.653   4.305   0.858
 3496SOL    HW111387   6.571   4.295   0.915
 3496SOL    HW211388   6.679   4.216   0.821
 3497SOL     OW11389   3.516   0.566   3.603
 3497SOL    HW111390   3.561   0.604   3.684
 3497SOL    HW211391   3.533   0.625   3.524
 3498SOL     OW11392   2.468   2.054   1.054
 3498SOL    HW111393   2.410   2.000   1.114
 3498SOL    HW211394   2.557   2.010   1.045
 3499SOL     OW11395   4.945   3.123   4.413
 3499SOL    HW111396   4.919   3.201   4.356
 3499SOL    HW211397   4.904   3.133   4.504
 3500SOL     OW11398   1.843   3.367   4.641
 3500SOL    HW111399   1.811   3.436   4.706
 3500SOL    HW211400   1.856   3.409   4.551
 3501SOL     OW11401   1.882   5.570   4.651
 3501SOL    HW111402   1.836   5.643   4.602
 3501SOL    HW211403   1.876   5.485   4.598
 3502SOL     OW11404   6.197   2.644   2.522
 3502SOL    HW111405   6.286   2.602   2.505
 3502SOL    HW211406   6.206   2.715   2.592
 3503SOL     OW11407   6.709   6.512   4.525
 3503SOL    HW111408   6.743   6.433   4.474
 3503SOL    HW211409   6.712   6.593   4.467
 3504SOL     OW11410   1.811   2.036   1.315
 3504SOL    HW111411   1.789   1.964   1.381
 3504SOL    HW211412   1.779   2.010   1.224
 3505SOL     OW11413   5.600   4.971   5.106
 3505SOL    HW111414   5.504   4.959   5.132
 3505SOL    HW211415   5.657   4.962   5.188
 3506SOL     OW11416   5.162   5.666   6.099
 3506SOL    HW111417   5.247   5.629   6.136
 3506SOL    HW211418   5.177   5.758   6.065
 3507SOL     OW11419   1.721   1.022   0.020
 3507SOL    HW111420   1.628   1.027   0.055
 3507SOL    HW211421   1.720   0.994   6.943
 3508SOL     OW11422   3.104   2.715   6.169
 3508SOL    HW111423   3.029   2.748   6.112
 3508SOL    HW211424   3.163   2.791   6.196
 3509SOL     OW11425   6.135   0.090   5.706
 3509SOL    HW111426   6.149   0.015   5.771
 3509SOL    HW211427   6.195   0.077   5.627
 3510SOL     OW11428   1.696   2.868   1.797
 3510SOL    HW111429   1.695   2.783   1.850
 3510SOL    HW211430   1.603   2.905   1.791
 3511SOL     OW11431   2.660   5.142   0.440
 3511SOL    HW111432   2.568   5.104   0.431
 3511SOL    HW211433   2.684   5.150   0.537
 3512SOL     OW11434   0.649   5.086   0.919
 3512SOL    HW111435   0.615   5.046   0.834
 3512SOL    HW211436   0.667   5.183   0.906
 3513SOL     OW11437   6.551   3.325   0.873
 3513SOL    HW111438   6.523   3.262   0.801
 3513SOL    HW211439   6.477   3.333   0.941
 3514SOL     OW11440   1.154   1.356   2.070
 3514SOL    HW111441   1.183   1.414   1.994
 3514SOL    HW211442   1.191   1.264   2.057
 3515SOL     OW11443   4.829   6.230   3.138
 3515SOL    HW111444   4.821   6.312   3.196
 3515SOL    HW211445   4.865   6.154   3.192
 3516SOL     OW11446   4.811   6.989   0.747
 3516SOL    HW111447   4.902   6.949   0.762
 3516SOL    HW211448   4.747   6.917   0.721
 3517SOL     OW11449   1.060   2.135   0.764
 3517SOL    HW111450   1.002   2.118   0.844
 3517SOL    HW211451   1.155   2.110   0.785
 3518SOL     OW11452   5.761   3.546   4.605
 3518SOL    HW111453   5.784   3.466   4.551
 3518SOL    HW211454   5.814   3.625   4.573
 3519SOL     OW11455   1.112   1.098   6.128
 3519SOL    HW111456   1.121   1.188   6.084
 3519SOL    HW211457   1.188   1.085   6.191
 3520SOL     OW11458   2.908   5.020   6.459
 3520SOL    HW111459   2.965   5.046   6.380
 3520SOL    HW211460   2.851   5.098   6.485
 3521SOL     OW11461   5.510   3.098   6.665
 3521SOL    HW111462   5.470   3.013   6.629
 3521SOL    HW211463   5.526   3.161   6.590
 3522SOL     OW11464   6.232   4.136   1.964
 3522SOL    HW111465   6.244   4.050   2.013
 3522SOL    HW211466   6.180   4.200   2.021
 3523SOL     OW11467   3.269   4.883   5.980
 3523SOL    HW111468   3.169   4.880   5.990
 3523SOL    HW211469   3.309   4.941   6.051
 3524SOL     OW11470   3.349   0.796   1.231
 3524SOL    HW111471   3.347   0.877   1.173
 3524SOL    HW211472   3.362   0.715   1.174
 3525SOL     OW11473   1.121   4.279   2.405
 3525SOL    HW111474   1.199   4.295   2.344
 3525SOL    HW211475   1.038   4.265   2.351
 3526SOL     OW11476   2.589   5.927   4.187
 3526SOL    HW111477   2.521   5.933   4.115
 3526SOL    HW211478   2.610   5.831   4.205
 3527SOL     OW11479   6.404   3.035   6.115
 3527SOL    HW111480   6.476   3.103   6.101
 3527SOL    HW211481   6.374   3.000   6.026
 3528SOL     OW11482   0.615   4.926   3.917
 3528SOL    HW111483   0.678   4.871   3.972
 3528SOL    HW211484   0.657   4.945   3.828
 3529SOL     OW11485   4.537   6.973   6.712
 3529SOL    HW111486   4.578   0.039   6.680
 3529SOL    HW211487   4.480   6.991   6.792
 3530SOL     OW11488   1.644   4.833   3.822
 3530SOL    HW111489   1.662   4.877   3.734
 3530SOL    HW211490   1.657   4.899   3.896
 3531SOL     OW11491   4.943   3.558   0.953
 3531SOL    HW111492   4.872   3.626   0.969
 3531SOL    HW211493   4.905   3.466   0.965
 3532SOL     OW11494   2.710   1.192   1.468
 3532SOL    HW111495   2.773   1.164   1.540
 3532SOL    HW211496   2.645   1.259   1.505
 3533SOL     OW11497   1.862   1.636   2.466
 3533SOL    HW111498   1.943   1.692   2.448
 3533SOL    HW211499   1.846   1.576   2.388
 3534SOL     OW11500   5.318   1.035   5.333
 3534SOL    HW111501   5.403   0.996   5.368
 3534SOL    HW211502   5.241   0.975   5.358
 3535SOL     OW11503   0.751   5.827   0.453
 3535SOL    HW111504   0.803   5.894   0.400
 3535SOL    HW211505   0.803   5.742   0.458
 3536SOL     OW11506   2.606   2.039   3.962
 3536SOL    HW111507   2.683   2.101   3.946
 3536SOL    HW211508   2.640   1.954   4.001
 3537SOL     OW11509   2.707   5.080   0.757
 3537SOL    HW111510   2.795   5.127   0.769
 3537SOL    HW211511   2.634   5.148   0.751
 3538SOL     OW11512   0.981   0.752   5.684
 3538SOL    HW111513   1.023   0.669   5.645
 3538SOL    HW211514   1.026   0.774   5.771
 3539SOL     OW11515   5.631   3.975   6.231
 3539SOL    HW111516   5.656   4.017   6.143
 3539SOL    HW211517   5.710   3.977   6.292
 3540SOL     OW11518   1.742   2.443   6.050
 3540SOL    HW111519   1.659   2.396   6.080
 3540SOL    HW211520   1.720   2.506   5.976
 3541SOL     OW11521   2.222   2.898   6.668
 3541SOL    HW111522   2.206   2.893   6.767
 3541SOL    HW211523   2.162   2.833   6.621
 3542SOL     OW11524   0.775   4.310   1.910
 3542SOL    HW111525   0.685   4.273   1.933
 3542SOL    HW211526   0.792   4.393   1.963
 3543SOL     OW11527   0.929   3.921   5.476
 3543SOL    HW111528   0.849   3.871   5.443
 3543SOL    HW211529   0.912   4.019   5.471
 3544SOL     OW11530   2.518   5.073   6.400
 3544SOL    HW111531   2.600   5.021   6.424
 3544SOL    HW211532   2.501   5.066   6.302
 3545SOL     OW11533   4.124   5.045   0.243
 3545SOL    HW111534   4.062   5.099   0.300
 3545SOL    HW211535   4.080   4.959   0.218
 3546SOL     OW11536   0.289   4.740   3.052
 3546SOL    HW111537   0.376   4.743   3.002
 3546SOL    HW211538   0.303   4.688   3.137
 3547SOL     OW11539   5.878   5.162   5.156
 3547SOL    HW111540   5.894   5.114   5.070
 3547SOL    HW211541   5.860   5.096   5.229
 3548SOL     OW11542   4.753   0.480   5.759
 3548SOL    HW111543   4.711   0.467   5.669
 3548SOL    HW211544   4.812   0.402   5.780
 3549SOL     OW11545   6.998   5.179   5.889
 3549SOL    HW111546   6.990   5.271   5.849
 3549SOL    HW211547   6.929   5.119   5.848
 3550SOL     OW11548   6.012   2.879   3.839
 3550SOL    HW111549   6.019   2.853   3.742
 3550SOL    HW211550   5.936   2.830   3.882
 3551SOL     OW11551   3.438   2.053   3.164
 3551SOL    HW111552   3.384   2.081   3.243
 3551SOL    HW211553   3.391   2.079   3.080
 3552SOL     OW11554   6.156   6.749   1.839
 3552SOL    HW111555   6.096   6.795   1.774
 3552SOL    HW211556   6.116   6.754   1.931
 3553SOL     OW11557   4.224   5.349   0.588
 3553SOL    HW111558   4.283   5.331   0.667
 3553SOL    HW211559   4.265   5.420   0.531
 3554SOL     OW11560   4.702   1.484   0.932
 3554SOL    HW111561   4.692   1.392   0.972
 3554SOL    HW211562   4.612   1.528   0.928
 3555SOL     OW11563   0.253   3.997   4.488
 3555SOL    HW111564   0.303   4.061   4.430
 3555SOL    HW211565   0.267   3.904   4.456
 3556SOL     OW11566   4.247   0.935   4.269
 3556SOL    HW111567   4.245   1.024   4.225
 3556SOL    HW211568   4.154   0.906   4.291
 3557SOL     OW11569   0.590   0.912   3.895
 3557SOL    HW111570   0.518   0.853   3.930
 3557SOL    HW211571   0.627   0.873   3.811
 3558SOL     OW11572   1.485   6.232   2.647
 3558SOL    HW111573   1.465   6.142   2.687
 3558SOL    HW211574   1.546   6.282   2.707
 3559SOL     OW11575   0.750   6.438   5.266
 3559SOL    HW111576   0.683   6.512   5.274
 3559SOL    HW211577   0.840   6.470   5.297
 3560SOL     OW11578   2.023   5.464   2.587
 3560SOL    HW111579   2.103   5.521   2.570
 3560SOL    HW211580   2.032   5.420   2.677
 3561SOL     OW11581   4.481   4.287   5.272
 3561SOL    HW111582   4.423   4.351   5.223
 3561SOL    HW211583   4.560   4.335   5.309
 3562SOL     OW11584   3.673   1.189   2.971
 3562SOL    HW111585   3.579   1.222   2.981
 3562SOL    HW211586   3.733   1.265   2.946
 3563SOL     OW11587   6.243   2.202   0.589
 3563SOL    HW111588   6.264   2.246   0.675
 3563SOL    HW211589   6.260   2.265   0.513
 3564SOL     OW11590   1.461   4.382   3.015
 3564SOL    HW111591   1.453   4.367   2.917
 3564SOL    HW211592   1.395   4.325   3.064
 3565SOL     OW11593   2.903   6.198   4.645
 3565SOL    HW111594   2.988   6.203   4.592
 3565SOL    HW211595   2.926   6.188   4.742
 3566SOL     OW11596   6.632   3.532   6.279
 3566SOL    HW111597   6.693   3.611   6.269
 3566SOL    HW211598   6.684   3.447   6.269
 3567SOL     OW11599   0.375   2.010   5.942
 3567SOL    HW111600   0.293   2.011   5.999
 3567SOL    HW211601   0.438   1.939   5.974
 3568SOL     OW11602   4.785   4.035   3.985
 3568SOL    HW111603   4.796   4.135   3.980
 3568SOL    HW211604   4.735   4.003   3.904
 3569SOL     OW11605   2.580   1.746   6.126
 3569SOL    HW111606   2.611   1.673   6.187
 3569SOL    HW211607   2.632   1.829   6.145
 3570SOL     OW11608   5.296   0.591   5.750
 3570SOL    HW111609   5.295   0.561   5.655
 3570SOL    HW211610   5.203   0.593   5.786
 3571SOL     OW11611   0.745   5.246   5.077
 3571SOL    HW111612   0.786   5.312   5.014
 3571SOL    HW211613   0.688   5.182   5.026
 3572SOL     OW11614   5.950   3.547   2.950
 3572SOL    HW111615   5.873   3.500   2.907
 3572SOL    HW211616   5.970   3.631   2.901
 3573SOL     OW11617   0.138   5.649   3.708
 3573SOL    HW111618   0.137   5.578   3.778
 3573SOL    HW211619   0.182   5.614   3.625
 3574SOL     OW11620   0.355   3.754   0.584
 3574SOL    HW111621   0.314   3.840   0.615
 3574SOL    HW211622   0.312   3.678   0.632
 3575SOL     OW11623   4.970   5.177   2.824
 3575SOL    HW111624   4.898   5.181   2.892
 3575SOL    HW211625   4.948   5.108   2.755
 3576SOL     OW11626   0.088   1.978   5.664
 3576SOL    HW111627   0.021   1.914   5.702
 3576SOL    HW211628   0.161   1.927   5.619
 3577SOL     OW11629   1.657   1.979   6.040
 3577SOL    HW111630   1.663   1.909   5.970
 3577SOL    HW211631   1.742   1.982   6.092
 3578SOL     OW11632   3.594   2.147   0.451
 3578SOL    HW111633   3.665   2.177   0.514
 3578SOL    HW211634   3.572   2.051   0.468
 3579SOL     OW11635   6.568   2.573   4.037
 3579SOL    HW111636   6.623   2.509   4.092
 3579SOL    HW211637   6.623   2.610   3.963
 3580SOL     OW11638   5.535   3.091   1.762
 3580SOL    HW111639   5.515   3.144   1.844
 3580SOL    HW211640   5.451   3.048   1.728
 3581SOL     OW11641   1.345   6.035   3.554
 3581SOL    HW111642   1.407   6.069   3.624
 3581SOL    HW211643   1.253   6.071   3.571
 3582SOL     OW11644   0.669   2.925   5.737
 3582SOL    HW111645   0.660   2.973   5.824
 3582SOL    HW211646   0.662   2.991   5.662
 3583SOL     OW11647   1.001   3.972   6.337
 3583SOL    HW111648   0.921   3.975   6.397
 3583SOL    HW211649   0.990   3.899   6.270
 3584SOL     OW11650   5.431   5.542   6.833
 3584SOL    HW111651   5.514   5.507   6.791
 3584SOL    HW211652   5.409   5.632   6.795
 3585SOL     OW11653   3.421   0.499   4.747
 3585SOL    HW111654   3.512   0.458   4.739
 3585SOL    HW211655   3.353   0.426   4.748
 3586SOL     OW11656   6.391   1.786   4.859
 3586SOL    HW111657   6.452   1.740   4.924
 3586SOL    HW211658   6.446   1.835   4.791
 3587SOL     OW11659   2.816   4.775   6.445
 3587SOL    HW111660   2.736   4.783   6.505
 3587SOL    HW211661   2.858   4.865   6.433
 3588SOL     OW11662   1.264   2.482   6.002
 3588SOL    HW111663   1.280   2.518   5.910
 3588SOL    HW211664   1.232   2.556   6.061
 3589SOL     OW11665   4.441   1.208   4.283
 3589SOL    HW111666   4.421   1.137   4.351
 3589SOL    HW211667   4.489   1.284   4.328
 3590SOL     OW11668   0.949   2.427   0.059
 3590SOL    HW111669   0.993   2.349   0.104
 3590SOL    HW211670   0.942   2.503   0.124
 3591SOL     OW11671   5.441   4.006   6.847
 3591SOL    HW111672   5.459   4.033   6.752
 3591SOL    HW211673   5.475   3.914   6.863
 3592SOL     OW11674   0.190   5.016   2.169
 3592SOL    HW111675   0.252   5.093   2.182
 3592SOL    HW211676   0.096   5.044   2.192
 3593SOL     OW11677   0.584   5.903   4.687
 3593SOL    HW111678   0.533   5.910   4.773
 3593SOL    HW211679   0.676   5.870   4.705
 3594SOL     OW11680   4.177   6.623   3.081
 3594SOL    HW111681   4.093   6.591   3.038
 3594SOL    HW211682   4.254   6.608   3.019
 3595SOL     OW11683   3.561   5.868   6.845
 3595SOL    HW111684   3.473   5.909   6.868
 3595SOL    HW211685   3.555   5.823   6.756
 3596SOL     OW11686   6.385   2.926   3.548
 3596SOL    HW111687   6.343   3.003   3.596
 3596SOL    HW211688   6.318   2.886   3.486
 3597SOL     OW11689   1.508   2.255   5.415
 3597SOL    HW111690   1.457   2.184   5.365
 3597SOL    HW211691   1.448   2.332   5.434
 3598SOL     OW11692   1.491   5.444   6.133
 3598SOL    HW111693   1.438   5.425   6.050
 3598SOL    HW211694   1.552   5.522   6.116
 3599SOL     OW11695   0.105   2.320   6.681
 3599SOL    HW111696   0.039   2.319   6.606
 3599SOL    HW211697   0.137   2.414   6.696
 3600SOL     OW11698   0.673   3.011   1.790
 3600SOL    HW111699   0.740   3.059   1.847
 3600SOL    HW211700   0.591   2.993   1.845
 3601SOL     OW11701   5.375   3.961   6.401
 3601SOL    HW111702   5.414   3.869   6.409
 3601SOL    HW211703   5.348   3.977   6.307
 3602SOL     OW11704   2.005   3.162   0.477
 3602SOL    HW111705   2.100   3.140   0.454
 3602SOL    HW211706   2.002   3.209   0.565
 3603SOL     OW11707   3.865   0.568   3.652
 3603SOL    HW111708   3.961   0.542   3.661
 3603SOL    HW211709   3.846   0.591   3.556
 3604SOL     OW11710   6.332   5.226   3.633
 3604SOL    HW111711   6.331   5.316   3.677
 3604SOL    HW211712   6.421   5.210   3.590
 3605SOL     OW11713   6.483   3.329   5.126
 3605SOL    HW111714   6.406   3.312   5.187
 3605SOL    HW211715   6.451   3.376   5.044
 3606SOL     OW11716   0.207   0.546   4.503
 3606SOL    HW111717   0.178   0.484   4.430
 3606SOL    HW211718   0.143   0.623   4.509
 3607SOL     OW11719   5.883   5.381   1.929
 3607SOL    HW111720   5.943   5.309   1.896
 3607SOL    HW211721   5.834   5.421   1.852
 3608SOL     OW11722   5.767   2.719   3.897
 3608SOL    HW111723   5.673   2.750   3.879
 3608SOL    HW211724   5.766   2.623   3.924
 3609SOL     OW11725   1.260   6.650   3.677
 3609SOL    HW111726   1.164   6.663   3.704
 3609SOL    HW211727   1.271   6.559   3.637
 3610SOL     OW11728   1.823   0.080   5.771
 3610SOL    HW111729   1.802   0.158   5.830
 3610SOL    HW211730   1.805   7.014   5.820
 3611SOL     OW11731   4.122   5.239   5.348
 3611SOL    HW111732   4.099   5.265   5.442
 3611SOL    HW211733   4.186   5.305   5.309
 3612SOL     OW11734   6.619   6.972   0.044
 3612SOL    HW111735   6.579   7.018   0.123
 3612SOL    HW211736   6.684   6.902   0.076
 3613SOL     OW11737   4.650   4.514   1.990
 3613SOL    HW111738   4.743   4.520   1.954
 3613SOL    HW211739   4.620   4.419   1.988
 3614SOL     OW11740   3.905   3.211   1.391
 3614SOL    HW111741   3.995   3.167   1.390
 3614SOL    HW211742   3.838   3.147   1.428
 3615SOL     OW11743   5.043   5.445   6.390
 3615SOL    HW111744   5.032   5.448   6.291
 3615SOL    HW211745   5.001   5.526   6.431
 3616SOL     OW11746   0.625   2.058   0.047
 3616SOL    HW111747   0.627   1.958   0.059
 3616SOL    HW211748   0.530   2.089   0.045
 3617SOL     OW11749   3.612   0.968   6.761
 3617SOL    HW111750   3.513   0.968   6.778
 3617SOL    HW211751   3.647   1.061   6.771
 3618SOL     OW11752   2.167   2.956   5.235
 3618SOL    HW111753   2.092   2.956   5.169
 3618SOL    HW211754   2.255   2.957   5.186
 3619SOL     OW11755   5.614   2.395   4.618
 3619SOL    HW111756   5.529   2.425   4.661
 3619SOL    HW211757   5.632   2.451   4.537
 3620SOL     OW11758   6.269   6.872   6.284
 3620SOL    HW111759   6.191   6.925   6.316
 3620SOL    HW211760   6.320   6.924   6.216
 3621SOL     OW11761   3.418   2.808   5.247
 3621SOL    HW111762   3.408   2.714   5.281
 3621SOL    HW211763   3.500   2.815   5.191
 3622SOL     OW11764   1.211   1.405   5.074
 3622SOL    HW111765   1.140   1.356   5.124
 3622SOL    HW211766   1.290   1.345   5.062
 3623SOL     OW11767   6.665   5.758   4.629
 3623SOL    HW111768   6.664   5.720   4.537
 3623SOL    HW211769   6.688   5.855   4.626
 3624SOL     OW11770   1.128   0.172   1.932
 3624SOL    HW111771   1.207   0.202   1.878
 3624SOL    HW211772   1.151   0.174   2.029
 3625SOL     OW11773   6.803   2.983   6.643
 3625SOL    HW111774   6.725   2.929   6.675
 3625SOL    HW211775   6.849   2.935   6.569
 3626SOL     OW11776   1.380   1.909   5.596
 3626SOL    HW111777   1.462   1.964   5.611
 3626SOL    HW211778   1.349   1.870   5.683
 3627SOL     OW11779   2.968   3.431   2.530
 3627SOL    HW111780   3.032   3.411   2.605
 3627SOL    HW211781   2.956   3.349   2.474
 3628SOL     OW11782   1.863   1.155   2.178
 3628SOL    HW111783   1.807   1.078   2.210
 3628SOL    HW211784   1.804   1.234   2.163
 3629SOL     OW11785   6.552   0.992   5.578
 3629SOL    HW111786   6.509   0.904   5.560
 3629SOL    HW211787   6.536   1.018   5.673
 3630SOL     OW11788   5.195   2.718   3.942
 3630SOL    HW111789   5.194   2.808   3.899
 3630SOL    HW211790   5.213   2.727   4.039
 3631SOL     OW11791   2.667   0.980   3.369
 3631SOL    HW111792   2.622   0.917   3.306
 3631SOL    HW211793   2.706   1.057   3.318
 3632SOL     OW11794   4.823   4.893   1.519
 3632SOL    HW111795   4.883   4.876   1.598
 3632SOL    HW211796   4.832   4.989   1.492
 3633SOL     OW11797   4.025   1.968   5.899
 3633SOL    HW111798   3.965   1.924   5.966
 3633SOL    HW211799   4.008   1.929   5.809
 3634SOL     OW11800   1.752   4.707   4.793
 3634SOL    HW111801   1.752   4.639   4.867
 3634SOL    HW211802   1.666   4.757   4.794
 3635SOL     OW11803   3.292   0.042   0.651
 3635SOL    HW111804   3.268   6.980   0.705
 3635SOL    HW211805   3.389   0.063   0.665
 3636SOL     OW11806   0.013   5.820   0.984
 3636SOL    HW111807   6.960   5.846   0.920
 3636SOL    HW211808   0.002   5.723   1.008
 3637SOL     OW11809   0.073   2.282   2.271
 3637SOL    HW111810   0.020   2.366   2.281
 3637SOL    HW211811   0.066   2.228   2.356
 3638SOL     OW11812   0.671   4.325   3.065
 3638SOL    HW111813   0.705   4.262   3.135
 3638SOL    HW211814   0.655   4.415   3.106
 3639SOL     OW11815   3.826   4.871   0.746
 3639SOL    HW111816   3.897   4.885   0.815
 3639SOL    HW211817   3.867   4.878   0.655
 3640SOL     OW11818   4.422   0.403   0.024
 3640SOL    HW111819   4.361   0.411   6.964
 3640SOL    HW211820   4.497   0.341   0.002
 3641SOL     OW11821   5.255   3.831   2.138
 3641SOL    HW111822   5.252   3.786   2.227
 3641SOL    HW211823   5.250   3.930   2.150
 3642SOL     OW11824   5.695   1.534   0.418
 3642SOL    HW111825   5.773   1.572   0.468
 3642SOL    HW211826   5.610   1.559   0.463
 3643SOL     OW11827   3.548   5.699   4.144
 3643SOL    HW111828   3.554   5.798   4.156
 3643SOL    HW211829   3.454   5.669   4.157
 3644SOL     OW11830   0.265   0.946   1.880
 3644SOL    HW111831   0.174   0.911   1.900
 3644SOL    HW211832   0.322   0.872   1.845
 3645SOL     OW11833   0.811   2.862   4.036
 3645SOL    HW111834   0.876   2.878   3.961
 3645SOL    HW211835   0.861   2.850   4.122
 3646SOL     OW11836   1.766   4.251   6.601
 3646SOL    HW111837   1.816   4.215   6.522
 3646SOL    HW211838   1.667   4.240   6.586
 3647SOL     OW11839   2.436   5.861   6.241
 3647SOL    HW111840   2.458   5.821   6.329
 3647SOL    HW211841   2.340   5.887   6.239
 3648SOL     OW11842   4.296   5.100   1.934
 3648SOL    HW111843   4.238   5.115   2.014
 3648SOL    HW211844   4.340   5.186   1.908
 3649SOL     OW11845   5.738   3.078   1.101
 3649SOL    HW111846   5.787   3.087   1.188
 3649SOL    HW211847   5.640   3.082   1.118
 3650SOL     OW11848   6.903   5.869   1.659
 3650SOL    HW111849   6.922   5.950   1.714
 3650SOL    HW211850   6.975   5.857   1.591
 3651SOL     OW11851   0.715   6.980   4.636
 3651SOL    HW111852   0.728   6.919   4.714
 3651SOL    HW211853   0.617   7.001   4.626
 3652SOL     OW11854   6.371   6.672   3.621
 3652SOL    HW111855   6.365   6.622   3.534
 3652SOL    HW211856   6.309   6.630   3.687
 3653SOL     OW11857   1.034   2.072   3.717
 3653SOL    HW111858   1.096   2.024   3.779
 3653SOL    HW211859   1.041   2.032   3.625
 3654SOL     OW11860   3.310   4.322   0.654
 3654SOL    HW111861   3.398   4.299   0.611
 3654SOL    HW211862   3.294   4.262   0.732
 3655SOL     OW11863   3.062   6.476   3.876
 3655SOL    HW111864   2.989   6.530   3.919
 3655SOL    HW211865   3.108   6.532   3.808
 3656SOL     OW11866   0.585   4.507   1.064
 3656SOL    HW111867   0.498   4.556   1.068
 3656SOL    HW211868   0.611   4.494   0.968
 3657SOL     OW11869   5.641   5.915   5.678
 3657SOL    HW111870   5.636   5.969   5.594
 3657SOL    HW211871   5.719   5.947   5.733
 3658SOL     OW11872   2.098   4.616   6.232
 3658SOL    HW111873   2.053   4.630   6.144
 3658SOL    HW211874   2.128   4.521   6.238
 3659SOL     OW11875   2.471   3.641   6.021
 3659SOL    HW111876   2.454   3.631   6.119
 3659SOL    HW211877   2.433   3.728   5.990
 3660SOL     OW11878   5.182   5.730   3.524
 3660SOL    HW111879   5.226   5.786   3.594
 3660SOL    HW211880   5.133   5.789   3.460
 3661SOL     OW11881   6.012   0.601   5.468
 3661SOL    HW111882   6.072   0.568   5.395
 3661SOL    HW211883   5.919   0.609   5.432
 3662SOL     OW11884   3.753   0.730   3.846
 3662SOL    HW111885   3.776   0.677   3.764
 3662SOL    HW211886   3.654   0.744   3.851
 3663SOL     OW11887   1.845   2.049   0.489
 3663SOL    HW111888   1.894   2.090   0.566
 3663SOL    HW211889   1.908   1.993   0.435
 3664SOL     OW11890   4.504   2.509   1.324
 3664SOL    HW111891   4.572   2.553   1.265
 3664SOL    HW211892   4.487   2.568   1.403
 3665SOL     OW11893   1.144   6.514   5.129
 3665SOL    HW111894   1.119   6.449   5.056
 3665SOL    HW211895   1.075   6.511   5.201
 3666SOL     OW11896   0.561   3.274   3.415
 3666SOL    HW111897   0.523   3.224   3.493
 3666SOL    HW211898   0.503   3.260   3.335
 3667SOL     OW11899   1.093   1.775   3.459
 3667SOL    HW111900   1.181   1.816   3.434
 3667SOL    HW211901   1.106   1.713   3.536
 3668SOL     OW11902   1.229   1.009   0.661
 3668SOL    HW111903   1.227   1.095   0.609
 3668SOL    HW211904   1.260   0.935   0.602
 3669SOL     OW11905   5.195   1.436   3.749
 3669SOL    HW111906   5.152   1.492   3.679
 3669SOL    HW211907   5.161   1.464   3.839
 3670SOL     OW11908   1.797   6.215   0.101
 3670SOL    HW111909   1.772   6.288   0.038
 3670SOL    HW211910   1.852   6.253   0.176
 3671SOL     OW11911   0.142   1.513   3.929
 3671SOL    HW111912   0.107   1.423   3.956
 3671SOL    HW211913   0.235   1.525   3.966
 3672SOL     OW11914   4.797   1.723   1.535
 3672SOL    HW111915   4.786   1.766   1.446
 3672SOL    HW211916   4.782   1.790   1.608
 3673SOL     OW11917   3.990   6.133   0.374
 3673SOL    HW111918   3.952   6.224   0.358
 3673SOL    HW211919   4.072   6.141   0.431
 3674SOL     OW11920   1.239   5.658   5.442
 3674SOL    HW111921   1.311   5.712   5.399
 3674SOL    HW211922   1.192   5.714   5.511
 3675SOL     OW11923   2.254   2.835   3.867
 3675SOL    HW111924   2.291   2.887   3.790
 3675SOL    HW211925   2.307   2.751   3.879
 3676SOL     OW11926   6.132   4.552   3.061
 3676SOL    HW111927   6.209   4.504   3.019
 3676SOL    HW211928   6.051   4.493   3.058
 3677SOL     OW11929   2.469   6.263   4.318
 3677SOL    HW111930   2.563   6.261   4.353
 3677SOL    HW211931   2.440   6.358   4.306
 3678SOL     OW11932   0.570   1.389   3.827
 3678SOL    HW111933   0.580   1.295   3.794
 3678SOL    HW211934   0.549   1.449   3.750
 3679SOL     OW11935   0.549   0.586   3.577
 3679SOL    HW111936   0.462   0.542   3.598
 3679SOL    HW211937   0.582   0.554   3.488
 3680SOL     OW11938   4.913   3.043   3.961
 3680SOL    HW111939   4.901   2.984   3.881
 3680SOL    HW211940   4.847   3.018   4.031
 3681SOL     OW11941   0.154   0.849   5.986
 3681SOL    HW111942   0.141   0.757   6.024
 3681SOL    HW211943   0.236   0.850   5.929
 3682SOL     OW11944   4.896   2.664   6.739
 3682SOL    HW111945   4.906   2.715   6.825
 3682SOL    HW211946   4.968   2.595   6.733
 3683SOL     OW11947   6.859   1.484   3.856
 3683SOL    HW111948   6.793   1.551   3.822
 3683SOL    HW211949   6.935   1.477   3.792
 3684SOL     OW11950   1.303   4.896   6.789
 3684SOL    HW111951   1.299   4.976   6.730
 3684SOL    HW211952   1.362   4.827   6.747
 3685SOL     OW11953   1.791   6.225   6.590
 3685SOL    HW111954   1.771   6.318   6.621
 3685SOL    HW211955   1.758   6.214   6.496
 3686SOL     OW11956   5.856   5.546   4.358
 3686SOL    HW111957   5.846   5.501   4.447
 3686SOL    HW211958   5.844   5.479   4.285
 3687SOL     OW11959   3.800   5.969   4.465
 3687SOL    HW111960   3.714   5.929   4.494
 3687SOL    HW211961   3.830   5.925   4.380
 3688SOL     OW11962   0.522   3.328   6.924
 3688SOL    HW111963   0.526   3.351   0.002
 3688SOL    HW211964   0.466   3.245   6.912
 3689SOL     OW11965   2.363   0.145   5.670
 3689SOL    HW111966   2.411   0.133   5.583
 3689SOL    HW211967   2.399   0.080   5.737
 3690SOL     OW11968   4.368   5.919   0.185
 3690SOL    HW111969   4.350   5.850   0.115
 3690SOL    HW211970   4.283   5.968   0.206
 3691SOL     OW11971   2.270   1.603   6.420
 3691SOL    HW111972   2.266   1.629   6.324
 3691SOL    HW211973   2.177   1.591   6.455
 3692SOL     OW11974   6.554   5.626   5.370
 3692SOL    HW111975   6.606   5.678   5.301
 3692SOL    HW211976   6.458   5.621   5.342
 3693SOL     OW11977   2.092   3.641   2.944
 3693SOL    HW111978   2.091   3.720   2.882
 3693SOL    HW211979   2.038   3.567   2.904
 3694SOL     OW11980   0.655   6.533   2.142
 3694SOL    HW111981   0.680   6.545   2.046
 3694SOL    HW211982   0.738   6.536   2.198
 3695SOL     OW11983   5.462   3.200   1.993
 3695SOL    HW111984   5.490   3.238   2.081
 3695SOL    HW211985   5.365   3.218   1.979
 3696SOL     OW11986   3.832   6.693   4.005
 3696SOL    HW111987   3.834   6.676   4.103
 3696SOL    HW211988   3.821   6.791   3.988
 3697SOL     OW11989   0.103   6.162   2.874
 3697SOL    HW111990   0.185   6.176   2.931
 3697SOL    HW211991   0.122   6.191   2.780
 3698SOL     OW11992   2.793   1.016   4.270
 3698SOL    HW111993   2.717   1.039   4.209
 3698SOL    HW211994   2.838   1.100   4.301
 3699SOL     OW11995   1.347   2.361   4.241
 3699SOL    HW111996   1.394   2.276   4.262
 3699SOL    HW211997   1.345   2.374   4.141
 3700SOL     OW11998   0.804   5.722   4.500
 3700SOL    HW111999   0.808   5.728   4.600
 3700SOL    HW212000   0.713   5.749   4.469
 3701SOL     OW12001   1.488   1.406   4.268
 3701SOL    HW112002   1.450   1.340   4.203
 3701SOL    HW212003   1.429   1.487   4.273
 3702SOL     OW12004   5.801   6.911   3.303
 3702SOL    HW112005   5.877   6.975   3.299
 3702SOL    HW212006   5.835   6.818   3.293
 3703SOL     OW12007   6.021   0.495   6.156
 3703SOL    HW112008   5.981   0.453   6.075
 3703SOL    HW212009   5.949   0.521   6.220
 3704SOL     OW12010   3.350   1.284   1.026
 3704SOL    HW112011   3.259   1.272   0.987
 3704SOL    HW212012   3.418   1.283   0.953
 3705SOL     OW12013   5.049   4.408   4.880
 3705SOL    HW112014   5.135   4.435   4.838
 3705SOL    HW212015   5.030   4.311   4.860
 3706SOL     OW12016   1.639   4.294   0.306
 3706SOL    HW112017   1.579   4.224   0.267
 3706SOL    HW212018   1.723   4.300   0.251
 3707SOL     OW12019   5.117   4.730   4.027
 3707SOL    HW112020   5.208   4.710   4.062
 3707SOL    HW212021   5.064   4.778   4.096
 3708SOL     OW12022   6.329   1.242   0.191
 3708SOL    HW112023   6.279   1.162   0.157
 3708SOL    HW212024   6.357   1.298   0.114
 3709SOL     OW12025   3.368   0.993   1.017
 3709SOL    HW112026   3.443   0.956   0.961
 3709SOL    HW212027   3.383   1.091   1.033
 3710SOL     OW12028   6.160   5.714   5.691
 3710SOL    HW112029   6.165   5.630   5.637
 3710SOL    HW212030   6.070   5.720   5.734
 3711SOL     OW12031   0.871   6.520   4.587
 3711SOL    HW112032   0.871   6.469   4.501
 3711SOL    HW212033   0.899   6.615   4.570
 3712SOL     OW12034   0.880   5.283   6.030
 3712SOL    HW112035   0.797   5.237   6.000
 3712SOL    HW212036   0.947   5.282   5.956
 3713SOL     OW12037   0.589   6.668   5.342
 3713SOL    HW112038   0.582   6.719   5.428
 3713SOL    HW212039   0.608   6.732   5.267
 3714SOL     OW12040   5.674   6.007   6.183
 3714SOL    HW112041   5.736   6.070   6.232
 3714SOL    HW212042   5.580   6.037   6.196
 3715SOL     OW12043   0.683   4.276   2.665
 3715SOL    HW112044   0.590   4.282   2.628
 3715SOL    HW212045   0.683   4.216   2.745
 3716SOL     OW12046   5.834   6.499   4.155
 3716SOL    HW112047   5.860   6.412   4.114
 3716SOL    HW212048   5.867   6.503   4.249
 3717SOL     OW12049   6.693   6.300   6.700
 3717SOL    HW112050   6.734   6.211   6.721
 3717SOL    HW212051   6.669   6.347   6.785
 3718SOL     OW12052   0.642   0.559   6.553
 3718SOL    HW112053   0.641   0.488   6.623
 3718SOL    HW212054   0.603   0.643   6.590
 3719SOL     OW12055   5.523   3.986   1.541
 3719SOL    HW112056   5.446   3.951   1.595
 3719SOL    HW212057   5.604   3.991   1.600
 3720SOL     OW12058   5.689   2.980   6.829
 3720SOL    HW112059   5.647   2.917   6.896
 3720SOL    HW212060   5.617   3.030   6.781
 3721SOL     OW12061   6.251   4.682   1.851
 3721SOL    HW112062   6.327   4.679   1.916
 3721SOL    HW212063   6.198   4.766   1.865
 3722SOL     OW12064   5.487   5.878   0.850
 3722SOL    HW112065   5.403   5.877   0.905
 3722SOL    HW212066   5.464   5.891   0.754
 3723SOL     OW12067   5.775   4.934   1.203
 3723SOL    HW112068   5.710   4.865   1.234
 3723SOL    HW212069   5.794   4.920   1.106
 3724SOL     OW12070   2.032   4.717   4.771
 3724SOL    HW112071   2.050   4.792   4.707
 3724SOL    HW212072   1.934   4.706   4.783
 3725SOL     OW12073   6.987   5.031   0.049
 3725SOL    HW112074   0.051   5.026   0.104
 3725SOL    HW212075   6.927   5.101   0.085
 3726SOL     OW12076   6.434   3.013   6.919
 3726SOL    HW112077   6.470   2.971   7.002
 3726SOL    HW212078   6.359   2.958   6.883
 3727SOL     OW12079   6.268   1.559   5.352
 3727SOL    HW112080   6.219   1.489   5.405
 3727SOL    HW212081   6.317   1.619   5.415
 3728SOL     OW12082   1.644   3.565   6.040
 3728SOL    HW112083   1.703   3.486   6.025
 3728SOL    HW212084   1.676   3.642   5.985
 3729SOL     OW12085   1.918   1.888   4.574
 3729SOL    HW112086   1.895   1.854   4.483
 3729SOL    HW212087   2.009   1.928   4.573
 3730SOL     OW12088   3.162   5.626   5.497
 3730SOL    HW112089   3.246   5.605   5.448
 3730SOL    HW212090   3.105   5.544   5.501
 3731SOL     OW12091   0.098   1.362   0.772
 3731SOL    HW112092   0.076   1.360   0.675
 3731SOL    HW212093   0.058   1.444   0.814
 3732SOL     OW12094   2.626   1.830   7.003
 3732SOL    HW112095   2.698   1.761   7.012
 3732SOL    HW212096   2.538   1.784   6.989
 3733SOL     OW12097   1.745   3.383   3.406
 3733SOL    HW112098   1.669   3.321   3.425
 3733SOL    HW212099   1.779   3.367   3.314
 3734SOL     OW12100   5.056   0.255   0.995
 3734SOL    HW112101   4.977   0.291   1.044
 3734SOL    HW212102   5.070   0.159   1.021
 3735SOL     OW12103   2.729   0.988   3.050
 3735SOL    HW112104   2.800   0.947   2.992
 3735SOL    HW212105   2.646   0.933   3.046
 3736SOL     OW12106   6.835   2.145   1.290
 3736SOL    HW112107   6.903   2.073   1.273
 3736SOL    HW212108   6.743   2.107   1.284
 3737SOL     OW12109   5.430   1.163   4.105
 3737SOL    HW112110   5.462   1.138   4.014
 3737SOL    HW212111   5.421   1.081   4.161
 3738SOL     OW12112   6.725   0.348   2.178
 3738SOL    HW112113   6.687   0.383   2.092
 3738SOL    HW212114   6.670   0.271   2.210
 3739SOL     OW12115   2.464   5.390   0.560
 3739SOL    HW112116   2.377   5.342   0.561
 3739SOL    HW212117   2.522   5.357   0.635
 3740SOL     OW12118   6.698   0.428   0.877
 3740SOL    HW112119   6.757   0.363   0.829
 3740SOL    HW212120   6.722   0.428   0.975
 3741SOL     OW12121   5.472   3.247   5.978
 3741SOL    HW112122   5.382   3.287   5.960
 3741SOL    HW212123   5.500   3.190   5.900
 3742SOL     OW12124   2.613   1.785   6.645
 3742SOL    HW112125   2.600   1.704   6.588
 3742SOL    HW212126   2.710   1.793   6.670
 3743SOL     OW12127   6.189   3.269   0.402
 3743SOL    HW112128   6.221   3.364   0.395
 3743SOL    HW212129   6.231   3.214   0.329
 3744SOL     OW12130   1.675   5.957   1.420
 3744SOL    HW112131   1.733   5.919   1.348
 3744SOL    HW212132   1.693   5.911   1.507
 3745SOL     OW12133   4.678   4.943   2.459
 3745SOL    HW112134   4.586   4.982   2.465
 3745SOL    HW212135   4.684   4.863   2.519
 3746SOL     OW12136   6.106   1.050   4.012
 3746SOL    HW112137   6.046   1.056   3.931
 3746SOL    HW212138   6.052   1.019   4.090
 3747SOL     OW12139   2.913   6.368   5.089
 3747SOL    HW112140   2.843   6.430   5.126
 3747SOL    HW212141   3.003   6.407   5.104
 3748SOL     OW12142   5.586   0.859   1.828
 3748SOL    HW112143   5.521   0.904   1.767
 3748SOL    HW212144   5.553   0.768   1.851
 3749SOL     OW12145   1.462   5.213   3.278
 3749SOL    HW112146   1.410   5.161   3.210
 3749SOL    HW212147   1.480   5.155   3.357
 3750SOL     OW12148   6.787   4.990   1.264
 3750SOL    HW112149   6.730   5.050   1.321
 3750SOL    HW212150   6.860   4.951   1.319
 3751SOL     OW12151   6.790   3.632   1.390
 3751SOL    HW112152   6.774   3.690   1.469
 3751SOL    HW212153   6.852   3.678   1.326
 3752SOL     OW12154   6.161   6.317   0.854
 3752SOL    HW112155   6.241   6.329   0.914
 3752SOL    HW212156   6.082   6.361   0.895
 3753SOL     OW12157   6.707   0.587   4.067
 3753SOL    HW112158   6.745   0.559   3.978
 3753SOL    HW212159   6.644   0.664   4.053
 3754SOL     OW12160   4.151   6.588   1.164
 3754SOL    HW112161   4.135   6.636   1.250
 3754SOL    HW212162   4.063   6.566   1.122
 3755SOL     OW12163   5.373   5.833   4.281
 3755SOL    HW112164   5.309   5.909   4.293
 3755SOL    HW212165   5.357   5.765   4.352
 3756SOL     OW12166   2.015   5.871   6.727
 3756SOL    HW112167   1.993   5.774   6.716
 3756SOL    HW212168   2.112   5.885   6.709
 3757SOL     OW12169   4.653   6.424   6.128
 3757SOL    HW112170   4.733   6.478   6.103
 3757SOL    HW212171   4.649   6.342   6.072
 3758SOL     OW12172   2.206   1.721   5.933
 3758SOL    HW112173   2.106   1.718   5.927
 3758SOL    HW212174   2.240   1.790   5.869
 3759SOL     OW12175   4.256   5.548   6.820
 3759SOL    HW112176   4.261   5.639   6.861
 3759SOL    HW212177   4.292   5.481   6.883
 3760SOL     OW12178   1.716   1.470   5.046
 3760SOL    HW112179   1.753   1.379   5.027
 3760SOL    HW212180   1.775   1.517   5.112
 3761SOL     OW12181   1.118   1.039   4.581
 3761SOL    HW112182   1.098   0.947   4.547
 3761SOL    HW212183   1.215   1.060   4.566
 3762SOL     OW12184   1.027   3.569   0.553
 3762SOL    HW112185   0.988   3.647   0.602
 3762SOL    HW212186   1.068   3.505   0.619
 3763SOL     OW12187   6.958   3.898   1.525
 3763SOL    HW112188   6.875   3.843   1.530
 3763SOL    HW212189   6.981   3.931   1.617
 3764SOL     OW12190   1.737   6.871   3.180
 3764SOL    HW112191   1.647   6.836   3.204
 3764SOL    HW212192   1.733   6.918   3.092
 3765SOL     OW12193   4.758   1.075   0.723
 3765SOL    HW112194   4.829   1.141   0.749
 3765SOL    HW212195   4.712   1.108   0.640
 3766SOL     OW12196   1.313   0.603   3.458
 3766SOL    HW112197   1.386   0.629   3.521
 3766SOL    HW212198   1.249   0.679   3.449
 3767SOL     OW12199   2.020   4.870   0.293
 3767SOL    HW112200   2.085   4.810   0.248
 3767SOL    HW212201   2.062   4.959   0.309
 3768SOL     OW12202   1.383   6.511   4.782
 3768SOL    HW112203   1.426   6.565   4.710
 3768SOL    HW212204   1.338   6.431   4.741
 3769SOL     OW12205   6.738   6.402   5.696
 3769SOL    HW112206   6.690   6.410   5.784
 3769SOL    HW212207   6.685   6.449   5.625
 3770SOL     OW12208   1.847   1.121   6.548
 3770SOL    HW112209   1.907   1.137   6.626
 3770SOL    HW212210   1.770   1.185   6.551
 3771SOL     OW12211   6.069   3.259   6.727
 3771SOL    HW112212   6.027   3.313   6.654
 3771SOL    HW212213   6.154   3.302   6.756
 3772SOL     OW12214   0.137   0.862   6.757
 3772SOL    HW112215   0.061   0.898   6.811
 3772SOL    HW212216   0.155   0.767   6.783
 3773SOL     OW12217   6.365   2.697   5.978
 3773SOL    HW112218   6.405   2.639   5.907
 3773SOL    HW212219   6.308   2.768   5.935
 3774SOL     OW12220   0.134   5.955   0.555
 3774SOL    HW112221   0.195   5.909   0.491
 3774SOL    HW212222   0.046   5.974   0.509
 3775SOL     OW12223   4.690   5.027   1.758
 3775SOL    HW112224   4.745   4.954   1.796
 3775SOL    HW212225   4.647   4.995   1.673
 3776SOL     OW12226   4.427   0.990   0.320
 3776SOL    HW112227   4.427   1.038   0.233
 3776SOL    HW212228   4.333   0.982   0.353
 3777SOL     OW12229   3.477   5.600   3.875
 3777SOL    HW112230   3.494   5.628   3.970
 3777SOL    HW212231   3.390   5.552   3.869
 3778SOL     OW12232   3.615   4.872   2.423
 3778SOL    HW112233   3.673   4.854   2.344
 3778SOL    HW212234   3.522   4.892   2.392
 3779SOL     OW12235   1.565   4.555   0.664
 3779SOL    HW112236   1.511   4.593   0.739
 3779SOL    HW212237   1.661   4.551   0.690
 3780SOL     OW12238   6.191   5.908   5.493
 3780SOL    HW112239   6.175   5.854   5.575
 3780SOL    HW212240   6.275   5.877   5.448
 3781SOL     OW12241   0.235   6.416   4.297
 3781SOL    HW112242   0.270   6.380   4.211
 3781SOL    HW212243   0.268   6.510   4.310
 3782SOL     OW12244   2.569   0.654   3.646
 3782SOL    HW112245   2.495   0.590   3.627
 3782SOL    HW212246   2.596   0.646   3.742
 3783SOL     OW12247   5.652   5.533   3.742
 3783SOL    HW112248   5.689   5.521   3.650
 3783SOL    HW212249   5.622   5.445   3.778
 3784SOL     OW12250   4.770   2.873   2.406
 3784SOL    HW112251   4.795   2.969   2.421
 3784SOL    HW212252   4.743   2.861   2.310
 3785SOL     OW12253   2.313   2.369   6.335
 3785SOL    HW112254   2.234   2.424   6.306
 3785SOL    HW212255   2.374   2.426   6.391
 3786SOL     OW12256   1.721   5.714   2.950
 3786SOL    HW112257   1.685   5.787   3.007
 3786SOL    HW212258   1.689   5.726   2.856
 3787SOL     OW12259   5.965   1.173   1.917
 3787SOL    HW112260   5.999   1.267   1.912
 3787SOL    HW212261   6.039   1.109   1.893
 3788SOL     OW12262   0.808   4.343   4.680
 3788SOL    HW112263   0.818   4.313   4.775
 3788SOL    HW212264   0.715   4.377   4.666
 3789SOL     OW12265   0.406   2.780   5.210
 3789SOL    HW112266   0.355   2.791   5.124
 3789SOL    HW212267   0.474   2.708   5.199
 3790SOL     OW12268   1.336   4.516   5.547
 3790SOL    HW112269   1.356   4.504   5.450
 3790SOL    HW212270   1.418   4.551   5.594
 3791SOL     OW12271   5.510   0.731   0.044
 3791SOL    HW112272   5.585   0.785   0.008
 3791SOL    HW212273   5.426   0.753   7.015
 3792SOL     OW12274   0.946   2.042   5.163
 3792SOL    HW112275   0.849   2.059   5.175
 3792SOL    HW212276   0.998   2.124   5.187
 3793SOL     OW12277   4.894   6.778   2.083
 3793SOL    HW112278   4.863   6.820   2.168
 3793SOL    HW212279   4.968   6.832   2.043
 3794SOL     OW12280   2.270   3.922   0.632
 3794SOL    HW112281   2.300   3.835   0.594
 3794SOL    HW212282   2.175   3.913   0.664
 3795SOL     OW12283   4.115   6.625   7.013
 3795SOL    HW112284   4.042   6.693   0.002
 3795SOL    HW212285   4.168   6.622   0.079
 3796SOL     OW12286   2.893   2.011   2.370
 3796SOL    HW112287   2.918   2.008   2.466
 3796SOL    HW212288   2.924   1.928   2.324
 3797SOL     OW12289   0.003   4.111   1.315
 3797SOL    HW112290   0.061   4.043   1.270
 3797SOL    HW212291   6.958   4.064   1.376
 3798SOL     OW12292   2.337   5.486   2.846
 3798SOL    HW112293   2.317   5.579   2.814
 3798SOL    HW212294   2.418   5.487   2.904
 3799SOL     OW12295   0.745   2.237   4.150
 3799SOL    HW112296   0.783   2.227   4.242
 3799SOL    HW212297   0.761   2.153   4.098
 3800SOL     OW12298   5.470   3.292   3.865
 3800SOL    HW112299   5.505   3.216   3.810
 3800SOL    HW212300   5.519   3.294   3.952
 3801SOL     OW12301   6.061   6.706   3.088
 3801SOL    HW112302   6.131   6.656   3.036
 3801SOL    HW212303   5.970   6.680   3.055
 3802SOL     OW12304   1.096   2.169   2.911
 3802SOL    HW112305   1.172   2.164   2.847
 3802SOL    HW212306   1.107   2.100   2.982
 3803SOL     OW12307   3.325   2.250   1.345
 3803SOL    HW112308   3.336   2.340   1.387
 3803SOL    HW212309   3.233   2.215   1.364
 3804SOL     OW12310   4.693   1.535   4.108
 3804SOL    HW112311   4.748   1.513   4.028
 3804SOL    HW212312   4.599   1.502   4.094
 3805SOL     OW12313   2.579   2.731   1.588
 3805SOL    HW112314   2.605   2.823   1.619
 3805SOL    HW212315   2.553   2.675   1.667
 3806SOL     OW12316   3.424   3.834   6.498
 3806SOL    HW112317   3.330   3.830   6.463
 3806SOL    HW212318   3.440   3.924   6.540
 3807SOL     OW12319   1.456   5.840   2.515
 3807SOL    HW112320   1.373   5.895   2.504
 3807SOL    HW212321   1.482   5.801   2.427
 3808SOL     OW12322   3.784   0.603   1.113
 3808SOL    HW112323   3.708   0.617   1.176
 3808SOL    HW212324   3.871   0.621   1.160
 3809SOL     OW12325   5.313   3.139   0.884
 3809SOL    HW112326   5.319   3.187   0.972
 3809SOL    HW212327   5.405   3.109   0.857
 3810SOL     OW12328   4.432   2.426   4.261
 3810SOL    HW112329   4.451   2.462   4.170
 3810SOL    HW212330   4.423   2.503   4.325
 3811SOL     OW12331   1.193   4.280   4.450
 3811SOL    HW112332   1.246   4.363   4.432
 3811SOL    HW212333   1.244   4.200   4.418
 3812SOL     OW12334   5.286   6.502   4.571
 3812SOL    HW112335   5.232   6.419   4.579
 3812SOL    HW212336   5.224   6.582   4.571
 3813SOL     OW12337   4.548   4.458   0.392
 3813SOL    HW112338   4.475   4.450   0.459
 3813SOL    HW212339   4.547   4.378   0.332
 3814SOL     OW12340   7.007   6.836   6.918
 3814SOL    HW112341   0.020   6.910   6.977
 3814SOL    HW212342   0.065   6.778   6.891
 3815SOL     OW12343   4.323   2.515   0.742
 3815SOL    HW112344   4.378   2.576   0.800
 3815SOL    HW212345   4.275   2.570   0.673
 3816SOL     OW12346   0.802   5.951   0.094
 3816SOL    HW112347   0.820   6.028   0.155
 3816SOL    HW212348   0.890   5.911   0.066
 3817SOL     OW12349   4.961   4.239   2.719
 3817SOL    HW112350   5.031   4.289   2.770
 3817SOL    HW212351   5.004   4.197   2.638
 3818SOL     OW12352   6.148   1.029   0.432
 3818SOL    HW112353   6.244   1.056   0.443
 3818SOL    HW212354   6.094   1.065   0.508
 3819SOL     OW12355   5.313   5.774   2.122
 3819SOL    HW112356   5.374   5.846   2.089
 3819SOL    HW212357   5.240   5.760   2.055
 3820SOL     OW12358   5.625   6.812   3.567
 3820SOL    HW112359   5.721   6.785   3.573
 3820SOL    HW212360   5.580   6.761   3.494
 3821SOL     OW12361   2.518   1.647   1.024
 3821SOL    HW112362   2.455   1.580   0.983
 3821SOL    HW212363   2.466   1.728   1.051
 3822SOL     OW12364   1.940   6.808   1.858
 3822SOL    HW112365   1.968   6.743   1.928
 3822SOL    HW212366   1.892   6.885   1.901
 3823SOL     OW12367   3.185   2.884   5.816
 3823SOL    HW112368   3.202   2.819   5.742
 3823SOL    HW212369   3.102   2.936   5.797
 3824SOL     OW12370   6.016   2.420   0.735
 3824SOL    HW112371   5.933   2.376   0.770
 3824SOL    HW212372   6.096   2.373   0.772
 3825SOL     OW12373   0.511   6.227   0.959
 3825SOL    HW112374   0.487   6.138   0.919
 3825SOL    HW212375   0.433   6.288   0.954
 3826SOL     OW12376   0.952   2.998   7.010
 3826SOL    HW112377   1.014   3.076   6.998
 3826SOL    HW212378   0.858   3.031   7.018
 3827SOL     OW12379   2.149   2.746   1.277
 3827SOL    HW112380   2.179   2.668   1.222
 3827SOL    HW212381   2.209   2.756   1.356
 3828SOL     OW12382   3.584   2.521   1.652
 3828SOL    HW112383   3.610   2.446   1.713
 3828SOL    HW212384   3.516   2.579   1.698
 3829SOL     OW12385   1.036   4.871   4.228
 3829SOL    HW112386   1.050   4.812   4.307
 3829SOL    HW212387   1.100   4.948   4.232
 3830SOL     OW12388   0.684   1.586   4.016
 3830SOL    HW112389   0.642   1.537   3.939
 3830SOL    HW212390   0.675   1.531   4.099
 3831SOL     OW12391   4.605   2.557   2.229
 3831SOL    HW112392   4.631   2.654   2.229
 3831SOL    HW212393   4.546   2.539   2.151
 3832SOL     OW12394   5.959   1.077   2.670
 3832SOL    HW112395   6.054   1.063   2.641
 3832SOL    HW212396   5.944   1.174   2.687
 3833SOL     OW12397   0.566   6.263   5.636
 3833SOL    HW112398   0.594   6.217   5.552
 3833SOL    HW212399   0.468   6.249   5.651
 3834SOL     OW12400   4.863   3.697   1.873
 3834SOL    HW112401   4.782   3.646   1.844
 3834SOL    HW212402   4.857   3.791   1.838
 3835SOL     OW12403   3.067   5.636   4.429
 3835SOL    HW112404   3.123   5.553   4.435
 3835SOL    HW212405   3.006   5.642   4.508
 3836SOL     OW12406   1.732   4.167   5.604
 3836SOL    HW112407   1.677   4.178   5.521
 3836SOL    HW212408   1.807   4.104   5.586
 3837SOL     OW12409   5.026   4.308   6.643
 3837SOL    HW112410   5.084   4.333   6.721
 3837SOL    HW212411   4.986   4.391   6.603
 3838SOL     OW12412   6.741   3.675   4.995
 3838SOL    HW112413   6.717   3.678   5.092
 3838SOL    HW212414   6.687   3.744   4.946
 3839SOL     OW12415   4.218   0.646   3.878
 3839SOL    HW112416   4.304   0.694   3.897
 3839SOL    HW212417   4.141   0.705   3.900
 3840SOL     OW12418   1.957   1.269   5.449
 3840SOL    HW112419   1.965   1.263   5.549
 3840SOL    HW212420   2.024   1.208   5.407
 3841SOL     OW12421   0.447   3.732   5.169
 3841SOL    HW112422   0.382   3.699   5.237
 3841SOL    HW212423   0.497   3.655   5.130
 3842SOL     OW12424   1.407   3.416   6.769
 3842SOL    HW112425   1.330   3.480   6.774
 3842SOL    HW212426   1.403   3.354   6.848
 3843SOL     OW12427   6.560   4.250   2.763
 3843SOL    HW112428   6.558   4.320   2.692
 3843SOL    HW212429   6.481   4.260   2.823
 3844SOL     OW12430   0.426   2.782   6.214
 3844SOL    HW112431   0.509   2.802   6.161
 3844SOL    HW212432   0.367   2.862   6.217
 3845SOL     OW12433   3.884   3.037   3.655
 3845SOL    HW112434   3.869   2.981   3.736
 3845SOL    HW212435   3.959   3.101   3.671
 3846SOL     OW12436   0.898   5.243   3.919
 3846SOL    HW112437   0.878   5.234   3.821
 3846SOL    HW212438   0.872   5.334   3.950
 3847SOL     OW12439   6.076   0.735   4.435
 3847SOL    HW112440   6.159   0.704   4.481
 3847SOL    HW212441   6.050   0.825   4.471
 3848SOL     OW12442   2.970   5.445   2.888
 3848SOL    HW112443   3.042   5.378   2.903
 3848SOL    HW212444   2.982   5.522   2.951
 3849SOL     OW12445   0.775   1.416   5.119
 3849SOL    HW112446   0.694   1.360   5.134
 3849SOL    HW212447   0.786   1.433   5.021
 3850SOL     OW12448   2.549   3.244   1.088
 3850SOL    HW112449   2.489   3.170   1.117
 3850SOL    HW212450   2.495   3.328   1.078
 3851SOL     OW12451   1.906   4.242   2.646
 3851SOL    HW112452   1.843   4.284   2.712
 3851SOL    HW212453   1.864   4.161   2.606
 3852SOL     OW12454   4.306   6.941   4.068
 3852SOL    HW112455   4.400   6.975   4.062
 3852SOL    HW212456   4.307   6.845   4.098
 3853SOL     OW12457   1.085   3.166   3.262
 3853SOL    HW112458   1.183   3.149   3.264
 3853SOL    HW212459   1.035   3.080   3.267
 3854SOL     OW12460   1.051   3.664   2.295
 3854SOL    HW112461   0.953   3.684   2.286
 3854SOL    HW212462   1.084   3.622   2.210
 3855SOL     OW12463   5.217   6.344   6.837
 3855SOL    HW112464   5.200   6.439   6.865
 3855SOL    HW212465   5.305   6.313   6.873
 3856SOL     OW12466   0.020   6.486   5.649
 3856SOL    HW112467   0.040   6.486   5.747
 3856SOL    HW212468   0.007   6.392   5.617
 3857SOL     OW12469   0.532   6.138   6.167
 3857SOL    HW112470   0.452   6.141   6.227
 3857SOL    HW212471   0.612   6.173   6.216
 3858SOL     OW12472   1.523   6.632   5.739
 3858SOL    HW112473   1.497   6.727   5.720
 3858SOL    HW212474   1.442   6.574   5.738
 3859SOL     OW12475   6.628   1.934   3.037
 3859SOL    HW112476   6.692   2.003   3.070
 3859SOL    HW212477   6.663   1.843   3.057
 3860SOL     OW12478   2.057   0.125   5.401
 3860SOL    HW112479   2.030   0.221   5.394
 3860SOL    HW212480   1.981   0.072   5.439
 3861SOL     OW12481   4.944   4.718   2.680
 3861SOL    HW112482   4.891   4.644   2.639
 3861SOL    HW212483   5.041   4.693   2.680
 3862SOL     OW12484   0.875   0.208   4.821
 3862SOL    HW112485   0.907   0.160   4.740
 3862SOL    HW212486   0.946   0.272   4.852
 3863SOL     OW12487   4.804   3.016   6.523
 3863SOL    HW112488   4.770   3.109   6.512
 3863SOL    HW212489   4.903   3.018   6.539
 3864SOL     OW12490   2.862   0.782   5.439
 3864SOL    HW112491   2.956   0.806   5.415
 3864SOL    HW212492   2.811   0.865   5.460
 3865SOL     OW12493   3.317   6.743   0.558
 3865SOL    HW112494   3.408   6.772   0.527
 3865SOL    HW212495   3.277   6.816   0.613
 3866SOL     OW12496   4.022   1.264   1.051
 3866SOL    HW112497   4.043   1.247   1.147
 3866SOL    HW212498   3.987   1.358   1.041
 3867SOL     OW12499   1.424   3.858   3.743
 3867SOL    HW112500   1.431   3.777   3.802
 3867SOL    HW212501   1.342   3.850   3.687
 3868SOL     OW12502   2.604   6.984   0.936
 3868SOL    HW112503   2.652   6.936   0.862
 3868SOL    HW212504   2.515   6.940   0.952
 3869SOL     OW12505   0.029   3.200   5.148
 3869SOL    HW112506   7.013   3.183   5.056
 3869SOL    HW212507   0.065   3.293   5.152
 3870SOL     OW12508   4.319   4.727   0.399
 3870SOL    HW112509   4.302   4.817   0.440
 3870SOL    HW212510   4.414   4.721   0.370
 3871SOL     OW12511   4.462   0.247   1.989
 3871SOL    HW112512   4.512   0.329   2.017
 3871SOL    HW212513   4.526   0.181   1.950
 3872SOL     OW12514   3.819   2.993   1.751
 3872SOL    HW112515   3.756   2.927   1.711
 3872SOL    HW212516   3.817   2.985   1.851
 3873SOL     OW12517   6.852   4.578   1.352
 3873SOL    HW112518   6.893   4.516   1.419
 3873SOL    HW212519   6.921   4.641   1.318
 3874SOL     OW12520   3.648   5.831   6.584
 3874SOL    HW112521   3.650   5.840   6.484
 3874SOL    HW212522   3.740   5.811   6.617
 3875SOL     OW12523   1.139   2.870   2.118
 3875SOL    HW112524   1.085   2.790   2.142
 3875SOL    HW212525   1.122   2.943   2.185
 3876SOL     OW12526   5.935   5.255   0.063
 3876SOL    HW112527   5.936   5.249   6.982
 3876SOL    HW212528   5.843   5.279   0.094
 3877SOL     OW12529   6.948   2.713   6.844
 3877SOL    HW112530   7.001   2.653   6.784
 3877SOL    HW212531   6.852   2.714   6.815
 3878SOL     OW12532   2.428   6.500   5.610
 3878SOL    HW112533   2.429   6.410   5.654
 3878SOL    HW212534   2.353   6.554   5.647
 3879SOL     OW12535   5.092   6.742   1.132
 3879SOL    HW112536   5.109   6.672   1.063
 3879SOL    HW212537   5.161   6.735   1.204
 3880SOL     OW12538   6.172   4.496   3.699
 3880SOL    HW112539   6.132   4.500   3.608
 3880SOL    HW212540   6.126   4.562   3.758
 3881SOL     OW12541   1.231   4.779   0.747
 3881SOL    HW112542   1.321   4.739   0.768
 3881SOL    HW212543   1.226   4.871   0.786
 3882SOL     OW12544   6.204   1.432   4.903
 3882SOL    HW112545   6.186   1.482   4.818
 3882SOL    HW212546   6.289   1.465   4.945
 3883SOL     OW12547   4.668   0.812   3.232
 3883SOL    HW112548   4.739   0.746   3.210
 3883SOL    HW212549   4.701   0.875   3.302
 3884SOL     OW12550   1.596   6.144   4.010
 3884SOL    HW112551   1.521   6.155   4.076
 3884SOL    HW212552   1.663   6.217   4.023
 3885SOL     OW12553   6.629   0.986   3.889
 3885SOL    HW112554   6.595   0.983   3.983
 3885SOL    HW212555   6.692   1.063   3.879
 3886SOL     OW12556   6.504   6.337   5.007
 3886SOL    HW112557   6.492   6.401   5.083
 3886SOL    HW212558   6.599   6.339   4.975
 3887SOL     OW12559   5.461   1.583   5.307
 3887SOL    HW112560   5.491   1.618   5.218
 3887SOL    HW212561   5.361   1.580   5.310
 3888SOL     OW12562   0.551   0.250   6.539
 3888SOL    HW112563   0.521   0.290   6.626
 3888SOL    HW212564   0.646   0.219   6.548
 3889SOL     OW12565   0.014   2.572   6.089
 3889SOL    HW112566   0.097   2.541   6.042
 3889SOL    HW212567   6.979   2.628   6.027
 3890SOL     OW12568   5.901   5.788   2.573
 3890SOL    HW112569   5.853   5.727   2.509
 3890SOL    HW212570   5.999   5.784   2.555
 3891SOL     OW12571   5.074   5.207   4.591
 3891SOL    HW112572   5.018   5.190   4.510
 3891SOL    HW212573   5.122   5.123   4.616
 3892SOL     OW12574   0.316   1.315   2.458
 3892SOL    HW112575   0.378   1.371   2.403
 3892SOL    HW212576   0.344   1.318   2.554
 3893SOL     OW12577   2.717   5.359   1.961
 3893SOL    HW112578   2.802   5.406   1.984
 3893SOL    HW212579   2.719   5.266   1.997
 3894SOL     OW12580   2.634   1.859   0.621
 3894SOL    HW112581   2.626   1.770   0.666
 3894SOL    HW212582   2.676   1.925   0.683
 3895SOL     OW12583   0.846   0.965   5.581
 3895SOL    HW112584   0.903   1.039   5.546
 3895SOL    HW212585   0.900   0.907   5.642
 3896SOL     OW12586   0.154   2.236   6.153
 3896SOL    HW112587   0.057   2.256   6.144
 3896SOL    HW212588   0.167   2.137   6.164
 3897SOL     OW12589   3.637   6.401   2.098
 3897SOL    HW112590   3.704   6.432   2.031
 3897SOL    HW212591   3.545   6.405   2.059
 3898SOL     OW12592   3.279   3.430   3.680
 3898SOL    HW112593   3.179   3.433   3.687
 3898SOL    HW212594   3.318   3.415   3.771
 3899SOL     OW12595   5.044   0.831   4.402
 3899SOL    HW112596   5.000   0.919   4.421
 3899SOL    HW212597   4.979   0.757   4.417
 3900SOL     OW12598   5.172   3.179   3.027
 3900SOL    HW112599   5.093   3.231   2.997
 3900SOL    HW212600   5.148   3.122   3.105
 3901SOL     OW12601   3.010   6.303   5.676
 3901SOL    HW112602   3.027   6.376   5.609
 3901SOL    HW212603   3.092   6.248   5.687
 3902SOL     OW12604   5.017   4.008   1.904
 3902SOL    HW112605   5.080   3.985   1.977
 3902SOL    HW212606   4.952   4.077   1.936
 3903SOL     OW12607   4.849   3.585   6.986
 3903SOL    HW112608   4.907   3.511   7.019
 3903SOL    HW212609   4.905   3.666   6.967
 3904SOL     OW12610   1.929   0.926   6.187
 3904SOL    HW112611   1.925   0.836   6.229
 3904SOL    HW212612   2.011   0.974   6.217
 3905SOL     OW12613   6.028   6.303   6.137
 3905SOL    HW112614   6.127   6.314   6.128
 3905SOL    HW212615   6.008   6.238   6.210
 3906SOL     OW12616   1.643   4.794   5.905
 3906SOL    HW112617   1.714   4.784   5.836
 3906SOL    HW212618   1.618   4.890   5.914
 3907SOL     OW12619   0.337   0.829   4.208
 3907SOL    HW112620   0.319   0.823   4.306
 3907SOL    HW212621   0.426   0.872   4.194
 3908SOL     OW12622   1.408   1.397   6.309
 3908SOL    HW112623   1.440   1.403   6.404
 3908SOL    HW212624   1.485   1.413   6.247
 3909SOL     OW12625   6.681   4.316   6.479
 3909SOL    HW112626   6.633   4.233   6.506
 3909SOL    HW212627   6.771   4.319   6.522
 3910SOL     OW12628   3.693   4.015   1.991
 3910SOL    HW112629   3.775   4.041   1.941
 3910SOL    HW212630   3.717   3.954   2.066
 3911SOL     OW12631   4.911   0.877   0.587
 3911SOL    HW112632   4.850   0.937   0.638
 3911SOL    HW212633   4.930   0.916   0.497
 3912SOL     OW12634   3.823   0.902   6.057
 3912SOL    HW112635   3.760   0.842   6.008
 3912SOL    HW212636   3.917   0.874   6.037
 3913SOL     OW12637   3.343   6.398   6.671
 3913SOL    HW112638   3.316   6.339   6.747
 3913SOL    HW212639   3.429   6.444   6.693
 3914SOL     OW12640   5.125   0.670   1.316
 3914SOL    HW112641   5.053   0.740   1.317
 3914SOL    HW212642   5.121   0.618   1.231
 3915SOL     OW12643   4.524   6.640   6.883
 3915SOL    HW112644   4.455   6.650   6.811
 3915SOL    HW212645   4.547   6.544   6.894
 3916SOL     OW12646   2.858   0.040   3.039
 3916SOL    HW112647   2.814   7.011   3.115
 3916SOL    HW212648   2.824   0.002   2.953
 3917SOL     OW12649   1.454   4.654   0.877
 3917SOL    HW112650   1.380   4.628   0.939
 3917SOL    HW212651   1.499   4.736   0.912
 3918SOL     OW12652   3.511   6.953   1.258
 3918SOL    HW112653   3.468   6.866   1.284
 3918SOL    HW212654   3.474   0.008   1.314
 3919SOL     OW12655   3.477   0.520   6.638
 3919SOL    HW112656   3.515   0.606   6.605
 3919SOL    HW212657   3.464   0.524   6.737
 3920SOL     OW12658   2.728   0.658   6.892
 3920SOL    HW112659   2.688   0.719   6.960
 3920SOL    HW212660   2.792   0.710   6.835
 3921SOL     OW12661   6.992   1.872   6.834
 3921SOL    HW112662   6.945   1.809   6.773
 3921SOL    HW212663   0.050   1.915   6.785
 3922SOL     OW12664   4.927   4.723   1.303
 3922SOL    HW112665   4.990   4.796   1.275
 3922SOL    HW212666   4.910   4.729   1.402
 3923SOL     OW12667   5.539   2.016   0.975
 3923SOL    HW112668   5.588   1.941   0.930
 3923SOL    HW212669   5.442   1.994   0.981
 3924SOL     OW12670   0.617   4.555   3.200
 3924SOL    HW112671   0.676   4.628   3.233
 3924SOL    HW212672   0.569   4.514   3.277
 3925SOL     OW12673   4.728   5.160   1.162
 3925SOL    HW112674   4.683   5.240   1.123
 3925SOL    HW212675   4.675   5.077   1.140
 3926SOL     OW12676   0.309   0.356   5.317
 3926SOL    HW112677   0.298   0.419   5.239
 3926SOL    HW212678   0.285   0.404   5.401
 3927SOL     OW12679   0.316   2.549   4.000
 3927SOL    HW112680   0.402   2.595   4.022
 3927SOL    HW212681   0.308   2.538   3.901
 3928SOL     OW12682   3.085   5.721   2.856
 3928SOL    HW112683   3.107   5.805   2.807
 3928SOL    HW212684   3.035   5.743   2.940
 3929SOL     OW12685   0.082   1.290   0.102
 3929SOL    HW112686   0.158   1.351   0.125
 3929SOL    HW212687   0.060   1.233   0.182
 3930SOL     OW12688   0.817   2.241   3.542
 3930SOL    HW112689   0.720   2.261   3.559
 3930SOL    HW212690   0.848   2.171   3.607
 3931SOL     OW12691   1.780   1.915   1.743
 3931SOL    HW112692   1.860   1.869   1.782
 3931SOL    HW212693   1.782   2.012   1.767
 3932SOL     OW12694   2.325   5.016   3.957
 3932SOL    HW112695   2.285   4.941   4.010
 3932SOL    HW212696   2.357   5.088   4.019
 3933SOL     OW12697   1.681   6.947   0.061
 3933SOL    HW112698   1.652   0.024   0.056
 3933SOL    HW212699   1.650   6.908   0.148
 3934SOL     OW12700   6.866   1.154   3.004
 3934SOL    HW112701   6.938   1.219   3.030
 3934SOL    HW212702   6.777   1.188   3.035
 3935SOL     OW12703   0.505   1.616   5.804
 3935SOL    HW112704   0.533   1.520   5.795
 3935SOL    HW212705   0.466   1.631   5.895
 3936SOL     OW12706   6.935   6.240   5.618
 3936SOL    HW112707   6.858   6.289   5.660
 3936SOL    HW212708   6.920   6.234   5.519
 3937SOL     OW12709   0.354   6.538   3.345
 3937SOL    HW112710   0.319   6.515   3.436
 3937SOL    HW212711   0.343   6.636   3.329
 3938SOL     OW12712   6.649   3.716   4.315
 3938SOL    HW112713   6.602   3.628   4.324
 3938SOL    HW212714   6.588   3.782   4.271
 3939SOL     OW12715   2.966   1.614   3.898
 3939SOL    HW112716   3.000   1.568   3.980
 3939SOL    HW212717   3.001   1.566   3.817
 3940SOL     OW12718   2.768   4.816   1.828
 3940SOL    HW112719   2.798   4.740   1.886
 3940SOL    HW212720   2.680   4.850   1.860
 3941SOL     OW12721   5.529   0.308   4.275
 3941SOL    HW112722   5.528   0.278   4.179
 3941SOL    HW212723   5.497   0.234   4.334
 3942SOL     OW12724   0.686   6.204   5.388
 3942SOL    HW112725   0.768   6.183   5.441
 3942SOL    HW212726   0.704   6.281   5.327
 3943SOL     OW12727   0.800   3.442   2.403
 3943SOL    HW112728   0.721   3.501   2.424
 3943SOL    HW212729   0.828   3.393   2.485
 3944SOL     OW12730   5.819   3.705   5.712
 3944SOL    HW112731   5.819   3.802   5.736
 3944SOL    HW212732   5.725   3.676   5.690
 3945SOL     OW12733   1.198   2.353   3.332
 3945SOL    HW112734   1.196   2.384   3.236
 3945SOL    HW212735   1.292   2.354   3.365
 3946SOL     OW12736   0.637   3.672   6.688
 3946SOL    HW112737   0.570   3.743   6.667
 3946SOL    HW212738   0.598   3.582   6.667
 3947SOL     OW12739   5.765   4.691   0.662
 3947SOL    HW112740   5.676   4.734   0.672
 3947SOL    HW212741   5.830   4.756   0.623
 3948SOL     OW12742   1.524   3.914   6.774
 3948SOL    HW112743   1.563   3.826   6.803
 3948SOL    HW212744   1.577   3.989   6.814
 3949SOL     OW12745   6.316   0.176   3.655
 3949SOL    HW112746   6.372   0.141   3.729
 3949SOL    HW212747   6.293   0.101   3.592
 3950SOL     OW12748   4.247   4.195   1.650
 3950SOL    HW112749   4.301   4.197   1.734
 3950SOL    HW212750   4.192   4.278   1.643
 3951SOL     OW12751   0.174   1.341   6.717
 3951SOL    HW112752   0.208   1.405   6.648
 3951SOL    HW212753   0.210   1.366   6.807
 3952SOL     OW12754   6.017   3.121   4.408
 3952SOL    HW112755   5.927   3.079   4.409
 3952SOL    HW212756   6.087   3.050   4.413
 3953SOL     OW12757   3.464   4.321   5.755
 3953SOL    HW112758   3.537   4.288   5.696
 3953SOL    HW212759   3.393   4.365   5.700
 3954SOL     OW12760   6.173   5.039   5.736
 3954SOL    HW112761   6.208   5.056   5.644
 3954SOL    HW212762   6.184   5.121   5.792
 3955SOL     OW12763   4.823   6.284   0.015
 3955SOL    HW112764   4.900   6.295   0.078
 3955SOL    HW212765   4.856   6.250   6.946
 3956SOL     OW12766   0.802   2.645   5.005
 3956SOL    HW112767   0.820   2.721   4.942
 3956SOL    HW212768   0.781   2.681   5.096
 3957SOL     OW12769   3.262   5.986   3.378
 3957SOL    HW112770   3.237   6.060   3.440
 3957SOL    HW212771   3.359   5.964   3.388
 3958SOL     OW12772   6.066   6.128   6.957
 3958SOL    HW112773   5.992   6.181   6.917
 3958SOL    HW212774   6.085   6.161   0.031
 3959SOL     OW12775   3.362   6.353   1.188
 3959SOL    HW112776   3.268   6.378   1.163
 3959SOL    HW212777   3.411   6.434   1.219
 3960SOL     OW12778   5.540   2.315   5.942
 3960SOL    HW112779   5.492   2.346   6.024
 3960SOL    HW212780   5.479   2.318   5.863
 3961SOL     OW12781   5.246   2.086   1.330
 3961SOL    HW112782   5.284   2.141   1.405
 3961SOL    HW212783   5.189   2.145   1.272
 3962SOL     OW12784   0.462   5.937   6.819
 3962SOL    HW112785   0.433   5.847   6.786
 3962SOL    HW212786   0.526   5.925   6.895
 3963SOL     OW12787   5.842   5.285   3.685
 3963SOL    HW112788   5.889   5.359   3.733
 3963SOL    HW212789   5.853   5.297   3.587
 3964SOL     OW12790   4.530   5.751   5.529
 3964SOL    HW112791   4.613   5.735   5.474
 3964SOL    HW212792   4.459   5.791   5.471
 3965SOL     OW12793   3.615   4.985   5.888
 3965SOL    HW112794   3.610   4.921   5.964
 3965SOL    HW212795   3.526   5.031   5.877
 3966SOL     OW12796   6.796   4.618   0.109
 3966SOL    HW112797   6.891   4.641   0.128
 3966SOL    HW212798   6.777   4.525   0.143
 3967SOL     OW12799   0.928   4.692   2.951
 3967SOL    HW112800   0.922   4.742   2.864
 3967SOL    HW212801   0.874   4.608   2.945
 3968SOL     OW12802   5.787   0.557   1.986
 3968SOL    HW112803   5.708   0.565   1.926
 3968SOL    HW212804   5.762   0.586   2.078
 3969SOL     OW12805   0.929   4.541   2.375
 3969SOL    HW112806   0.905   4.449   2.343
 3969SOL    HW212807   1.015   4.570   2.334
 3970SOL     OW12808   5.040   5.469   3.886
 3970SOL    HW112809   5.101   5.533   3.932
 3970SOL    HW212810   5.083   5.379   3.883
 3971SOL     OW12811   3.128   5.196   2.518
 3971SOL    HW112812   3.056   5.266   2.516
 3971SOL    HW212813   3.122   5.141   2.434
 3972SOL     OW12814   0.647   6.001   0.634
 3972SOL    HW112815   0.683   5.922   0.583
 3972SOL    HW212816   0.559   6.028   0.596
 3973SOL     OW12817   3.159   3.500   5.233
 3973SOL    HW112818   3.097   3.570   5.196
 3973SOL    HW212819   3.221   3.469   5.160
 3974SOL     OW12820   0.583   0.931   6.161
 3974SOL    HW112821   0.590   1.024   6.196
 3974SOL    HW212822   0.671   0.902   6.125
 3975SOL     OW12823   6.364   0.301   5.971
 3975SOL    HW112824   6.368   0.375   6.039
 3975SOL    HW212825   6.275   0.301   5.926
 3976SOL     OW12826   1.032   4.804   1.078
 3976SOL    HW112827   0.972   4.884   1.080
 3976SOL    HW212828   0.987   4.728   1.125
 3977SOL     OW12829   2.940   5.209   5.887
 3977SOL    HW112830   2.893   5.153   5.956
 3977SOL    HW212831   3.000   5.150   5.833
 3978SOL     OW12832   5.159   0.727   4.673
 3978SOL    HW112833   5.205   0.802   4.625
 3978SOL    HW212834   5.181   0.641   4.628
 3979SOL     OW12835   2.145   6.299   1.986
 3979SOL    HW112836   2.097   6.384   2.007
 3979SOL    HW212837   2.079   6.229   1.959
 3980SOL     OW12838   0.144   3.986   6.001
 3980SOL    HW112839   0.165   4.063   6.061
 3980SOL    HW212840   0.214   3.978   5.930
 3981SOL     OW12841   1.128   1.889   5.972
 3981SOL    HW112842   1.209   1.924   5.925
 3981SOL    HW212843   1.072   1.965   6.003
 3982SOL     OW12844   2.614   0.629   4.087
 3982SOL    HW112845   2.645   0.535   4.074
 3982SOL    HW212846   2.693   0.687   4.109
 3983SOL     OW12847   3.152   6.038   4.151
 3983SOL    HW112848   3.057   6.055   4.179
 3983SOL    HW212849   3.159   5.949   4.108
 3984SOL     OW12850   2.687   0.476   1.539
 3984SOL    HW112851   2.717   0.569   1.514
 3984SOL    HW212852   2.620   0.444   1.472
 3985SOL     OW12853   2.274   4.303   6.762
 3985SOL    HW112854   2.303   4.232   6.698
 3985SOL    HW212855   2.174   4.299   6.774
 3986SOL     OW12856   0.078   1.735   3.264
 3986SOL    HW112857   0.099   1.717   3.360
 3986SOL    HW212858   0.163   1.747   3.214
 3987SOL     OW12859   1.450   5.215   5.025
 3987SOL    HW112860   1.373   5.173   4.978
 3987SOL    HW212861   1.472   5.161   5.106
 3988SOL     OW12862   3.638   1.764   5.592
 3988SOL    HW112863   3.686   1.683   5.560
 3988SOL    HW212864   3.546   1.739   5.621
 3989SOL     OW12865   5.777   0.710   6.025
 3989SOL    HW112866   5.691   0.754   6.052
 3989SOL    HW212867   5.759   0.615   5.999
 3990SOL     OW12868   5.583   1.911   3.966
 3990SOL    HW112869   5.629   1.972   4.030
 3990SOL    HW212870   5.629   1.915   3.877
 3991SOL     OW12871   6.701   2.318   3.830
 3991SOL    HW112872   6.792   2.358   3.822
 3991SOL    HW212873   6.632   2.390   3.829
 3992SOL     OW12874   4.591   2.880   6.602
 3992SOL    HW112875   4.513   2.926   6.560
 3992SOL    HW212876   4.675   2.928   6.576
 3993SOL     OW12877   2.257   1.870   3.585
 3993SOL    HW112878   2.322   1.863   3.510
 3993SOL    HW212879   2.227   1.779   3.612
 3994SOL     OW12880   1.908   2.626   5.230
 3994SOL    HW112881   1.946   2.658   5.143
 3994SOL    HW212882   1.977   2.635   5.302
 3995SOL     OW12883   2.432   4.757   3.692
 3995SOL    HW112884   2.452   4.854   3.684
 3995SOL    HW212885   2.480   4.719   3.771
 3996SOL     OW12886   1.812   1.232   5.036
 3996SOL    HW112887   1.904   1.191   5.035
 3996SOL    HW212888   1.755   1.188   4.967
 3997SOL     OW12889   5.031   3.608   3.542
 3997SOL    HW112890   5.114   3.639   3.586
 3997SOL    HW212891   4.992   3.532   3.594
 3998SOL     OW12892   5.377   2.372   1.944
 3998SOL    HW112893   5.349   2.277   1.936
 3998SOL    HW212894   5.476   2.376   1.960
 3999SOL     OW12895   5.804   3.399   3.548
 3999SOL    HW112896   5.878   3.466   3.542
 3999SOL    HW212897   5.737   3.429   3.616
 4000SOL     OW12898   3.288   5.396   2.618
 4000SOL    HW112899   3.238   5.318   2.582
 4000SOL    HW212900   3.362   5.420   2.555
 4001SOL     OW12901   2.269   3.228   5.262
 4001SOL    HW112902   2.196   3.160   5.270
 4001SOL    HW212903   2.345   3.189   5.210
 4002SOL     OW12904   3.764   4.033   5.357
 4002SOL    HW112905   3.695   3.971   5.394
 4002SOL    HW212906   3.720   4.113   5.317
 4003SOL     OW12907   1.682   1.025   5.841
 4003SOL    HW112908   1.593   0.984   5.817
 4003SOL    HW212909   1.678   1.061   5.934
 4004SOL     OW12910   5.854   2.884   4.671
 4004SOL    HW112911   5.794   2.935   4.610
 4004SOL    HW212912   5.929   2.844   4.617
 4005SOL     OW12913   5.042   4.363   0.972
 4005SOL    HW112914   5.071   4.270   0.995
 4005SOL    HW212915   5.122   4.418   0.949
 4006SOL     OW12916   4.983   4.742   2.346
 4006SOL    HW112917   4.973   4.794   2.261
 4006SOL    HW212918   4.930   4.785   2.418
 4007SOL     OW12919   0.563   2.555   2.357
 4007SOL    HW112920   0.485   2.561   2.420
 4007SOL    HW212921   0.625   2.632   2.372
 4008SOL     OW12922   3.272   1.620   5.958
 4008SOL    HW112923   3.282   1.565   5.875
 4008SOL    HW212924   3.361   1.658   5.983
 4009SOL     OW12925   3.814   2.226   0.890
 4009SOL    HW112926   3.834   2.320   0.916
 4009SOL    HW212927   3.875   2.199   0.814
 4010SOL     OW12928   2.476   3.089   1.625
 4010SOL    HW112929   2.486   3.189   1.622
 4010SOL    HW212930   2.535   3.052   1.697
 4011SOL     OW12931   0.132   6.758   2.042
 4011SOL    HW112932   0.129   6.832   1.975
 4011SOL    HW212933   0.132   6.796   2.134
 4012SOL     OW12934   4.461   5.989   1.875
 4012SOL    HW112935   4.429   5.934   1.952
 4012SOL    HW212936   4.510   6.069   1.910
 4013SOL     OW12937   2.701   0.418   1.250
 4013SOL    HW112938   2.627   0.391   1.312
 4013SOL    HW212939   2.697   0.517   1.235
 4014SOL     OW12940   3.793   5.649   4.095
 4014SOL    HW112941   3.831   5.721   4.037
 4014SOL    HW212942   3.695   5.661   4.105
 4015SOL     OW12943   4.475   4.430   6.801
 4015SOL    HW112944   4.515   4.374   6.874
 4015SOL    HW212945   4.379   4.449   6.823
 4016SOL     OW12946   2.335   5.553   0.080
 4016SOL    HW112947   2.274   5.503   0.142
 4016SOL    HW212948   2.328   5.651   0.098
 4017SOL     OW12949   1.065   6.527   6.215
 4017SOL    HW112950   1.106   6.595   6.277
 4017SOL    HW212951   1.016   6.459   6.269
 4018SOL     OW12952   5.138   6.636   0.754
 4018SOL    HW112953   5.123   6.728   0.789
 4018SOL    HW212954   5.236   6.622   0.739
 4019SOL     OW12955   5.991   3.999   3.171
 4019SOL    HW112956   5.903   3.954   3.151
 4019SOL    HW212957   6.026   4.040   3.086
 4020SOL     OW12958   0.223   2.993   6.243
 4020SOL    HW112959   0.140   2.969   6.294
 4020SOL    HW212960   0.197   3.041   6.159
 4021SOL     OW12961   3.215   4.053   4.995
 4021SOL    HW112962   3.235   4.095   4.906
 4021SOL    HW212963   3.300   4.016   5.034
 4022SOL     OW12964   4.745   6.785   6.950
 4022SOL    HW112965   4.678   6.715   6.926
 4022SOL    HW212966   4.771   6.836   6.869
 4023SOL     OW12967   0.404   0.752   3.959
 4023SOL    HW112968   0.460   0.670   3.955
 4023SOL    HW212969   0.360   0.758   4.049
 4024SOL     OW12970   2.165   5.507   4.156
 4024SOL    HW112971   2.133   5.573   4.225
 4024SOL    HW212972   2.264   5.513   4.148
 4025SOL     OW12973   1.058   6.556   4.081
 4025SOL    HW112974   0.965   6.525   4.061
 4025SOL    HW212975   1.103   6.490   4.140
 4026SOL     OW12976   6.179   6.968   3.177
 4026SOL    HW112977   6.146   6.879   3.146
 4026SOL    HW212978   6.134   6.991   3.263
 4027SOL     OW12979   2.989   2.580   0.452
 4027SOL    HW112980   3.018   2.675   0.456
 4027SOL    HW212981   2.934   2.558   0.533
 4028SOL     OW12982   3.572   1.605   3.318
 4028SOL    HW112983   3.628   1.565   3.391
 4028SOL    HW212984   3.479   1.619   3.352
 4029SOL     OW12985   3.338   4.634   5.858
 4029SOL    HW112986   3.340   4.729   5.888
 4029SOL    HW212987   3.394   4.579   5.919
 4030SOL     OW12988   0.628   1.609   1.729
 4030SOL    HW112989   0.550   1.625   1.669
 4030SOL    HW212990   0.602   1.629   1.823
 4031SOL     OW12991   5.073   5.910   3.352
 4031SOL    HW112992   5.008   5.854   3.300
 4031SOL    HW212993   5.069   6.005   3.320
 4032SOL     OW12994   6.058   0.556   2.211
 4032SOL    HW112995   5.968   0.597   2.197
 4032SOL    HW212996   6.068   0.528   2.307
 4033SOL     OW12997   2.318   3.462   1.374
 4033SOL    HW112998   2.240   3.408   1.342
 4033SOL    HW212999   2.289   3.522   1.448
 4034SOL     OW13000   6.666   1.507   4.379
 4034SOL    HW113001   6.686   1.436   4.311
 4034SOL    HW213002   6.618   1.466   4.457
 4035SOL     OW13003   6.244   2.292   0.839
 4035SOL    HW113004   6.256   2.379   0.887
 4035SOL    HW213005   6.255   2.216   0.903
 4036SOL     OW13006   4.329   5.639   2.231
 4036SOL    HW113007   4.415   5.593   2.251
 4036SOL    HW213008   4.341   5.700   2.153
 4037SOL     OW13009   2.499   1.741   0.238
 4037SOL    HW113010   2.584   1.785   0.265
 4037SOL    HW213011   2.423   1.781   0.290
 4038SOL     OW13012   4.750   3.186   1.665
 4038SOL    HW113013   4.678   3.159   1.728
 4038SOL    HW213014   4.797   3.105   1.631
 4039SOL     OW13015   5.520   4.845   1.533
 4039SOL    HW113016   5.511   4.816   1.438
 4039SOL    HW213017   5.556   4.769   1.587
 4040SOL     OW13018   3.815   6.849   5.888
 4040SOL    HW113019   3.811   6.943   5.922
 4040SOL    HW213020   3.761   6.790   5.948
 4041SOL     OW13021   0.890   4.844   1.606
 4041SOL    HW113022   0.836   4.899   1.541
 4041SOL    HW213023   0.982   4.831   1.570
 4042SOL     OW13024   5.965   5.847   3.497
 4042SOL    HW113025   6.049   5.825   3.546
 4042SOL    HW213026   5.988   5.882   3.406
 4043SOL     OW13027   5.595   1.546   4.523
 4043SOL    HW113028   5.603   1.525   4.621
 4043SOL    HW213029   5.624   1.466   4.470
 4044SOL     OW13030   4.711   7.006   3.504
 4044SOL    HW113031   4.620   0.000   3.467
 4044SOL    HW213032   4.778   7.005   3.429
 4045SOL     OW13033   3.311   5.766   5.210
 4045SOL    HW113034   3.221   5.804   5.229
 4045SOL    HW213035   3.381   5.824   5.253
 4046SOL     OW13036   1.734   2.160   4.196
 4046SOL    HW113037   1.725   2.182   4.099
 4046SOL    HW213038   1.807   2.093   4.208
 4047SOL     OW13039   2.282   2.197   0.619
 4047SOL    HW113040   2.243   2.202   0.527
 4047SOL    HW213041   2.281   2.288   0.660
 4048SOL     OW13042   5.389   2.142   1.647
 4048SOL    HW113043   5.484   2.169   1.663
 4048SOL    HW213044   5.387   2.052   1.603
 4049SOL     OW13045   6.073   5.062   6.515
 4049SOL    HW113046   6.054   4.964   6.512
 4049SOL    HW213047   5.992   5.113   6.487
 4050SOL     OW13048   1.625   0.372   1.469
 4050SOL    HW113049   1.566   0.446   1.435
 4050SOL    HW213050   1.627   0.374   1.568
 4051SOL     OW13051   3.976   1.514   6.810
 4051SOL    HW113052   3.916   1.500   6.888
 4051SOL    HW213053   4.067   1.479   6.830
 4052SOL     OW13054   6.680   1.302   3.135
 4052SOL    HW113055   6.761   1.360   3.130
 4052SOL    HW213056   6.676   1.257   3.225
 4053SOL     OW13057   3.006   5.471   3.854
 4053SOL    HW113058   2.974   5.551   3.905
 4053SOL    HW213059   3.000   5.490   3.756
 4054SOL     OW13060   6.328   3.616   1.650
 4054SOL    HW113061   6.370   3.621   1.741
 4054SOL    HW213062   6.247   3.558   1.653
 4055SOL     OW13063   3.350   3.076   0.106
 4055SOL    HW113064   3.361   2.977   0.117
 4055SOL    HW213065   3.278   3.108   0.167
 4056SOL     OW13066   3.701   3.626   0.660
 4056SOL    HW113067   3.660   3.589   0.576
 4056SOL    HW213068   3.800   3.612   0.657
 4057SOL     OW13069   5.981   3.078   1.590
 4057SOL    HW113070   5.955   3.133   1.511
 4057SOL    HW213071   5.904   3.022   1.619
 4058SOL     OW13072   1.926   0.296   4.471
 4058SOL    HW113073   1.876   0.210   4.476
 4058SOL    HW213074   1.944   0.318   4.375
 4059SOL     OW13075   1.750   1.955   3.533
 4059SOL    HW113076   1.738   2.013   3.614
 4059SOL    HW213077   1.810   1.878   3.556
 4060SOL     OW13078   5.588   5.683   4.461
 4060SOL    HW113079   5.606   5.768   4.511
 4060SOL    HW213080   5.664   5.664   4.400
 4061SOL     OW13081   2.914   4.843   2.109
 4061SOL    HW113082   2.997   4.865   2.058
 4061SOL    HW213083   2.887   4.749   2.089
 4062SOL     OW13084   1.819   2.307   1.923
 4062SOL    HW113085   1.745   2.334   1.985
 4062SOL    HW213086   1.781   2.278   1.836
 4063SOL     OW13087   6.351   6.116   6.414
 4063SOL    HW113088   6.305   6.168   6.486
 4063SOL    HW213089   6.309   6.138   6.325
 4064SOL     OW13090   2.508   0.030   3.988
 4064SOL    HW113091   2.554   0.040   3.899
 4064SOL    HW213092   2.478   6.955   3.999
 4065SOL     OW13093   0.333   0.070   1.459
 4065SOL    HW113094   0.282   0.054   1.375
 4065SOL    HW213095   0.296   0.013   1.532
 4066SOL     OW13096   5.588   5.300   3.843
 4066SOL    HW113097   5.684   5.284   3.819
 4066SOL    HW213098   5.533   5.221   3.816
 4067SOL     OW13099   6.277   3.243   3.231
 4067SOL    HW113100   6.225   3.320   3.195
 4067SOL    HW213101   6.214   3.173   3.265
 4068SOL     OW13102   2.484   1.055   4.381
 4068SOL    HW113103   2.499   0.959   4.406
 4068SOL    HW213104   2.484   1.064   4.282
 4069SOL     OW13105   2.469   5.057   6.144
 4069SOL    HW113106   2.490   5.154   6.130
 4069SOL    HW213107   2.462   5.010   6.056
 4070SOL     OW13108   0.193   3.318   2.516
 4070SOL    HW113109   0.147   3.359   2.596
 4070SOL    HW213110   0.270   3.262   2.547
 4071SOL     OW13111   1.555   0.568   5.464
 4071SOL    HW113112   1.529   0.526   5.377
 4071SOL    HW213113   1.486   0.637   5.489
 4072SOL     OW13114   0.085   5.899   4.236
 4072SOL    HW113115   0.046   5.856   4.317
 4072SOL    HW213116   0.113   5.828   4.171
 4073SOL     OW13117   2.967   5.997   6.335
 4073SOL    HW113118   2.950   6.071   6.399
 4073SOL    HW213119   2.997   6.034   6.247
 4074SOL     OW13120   6.945   3.226   1.976
 4074SOL    HW113121   7.002   3.145   1.962
 4074SOL    HW213122   6.957   3.289   1.899
 4075SOL     OW13123   3.834   1.925   2.003
 4075SOL    HW113124   3.880   1.982   1.936
 4075SOL    HW213125   3.751   1.971   2.036
 4076SOL     OW13126   2.651   2.865   5.714
 4076SOL    HW113127   2.551   2.864   5.709
 4076SOL    HW213128   2.688   2.909   5.632
 4077SOL     OW13129   3.218   0.707   0.734
 4077SOL    HW113130   3.158   0.734   0.658
 4077SOL    HW213131   3.312   0.700   0.701
 4078SOL     OW13132   7.004   5.847   2.300
 4078SOL    HW113133   0.008   5.908   2.375
 4078SOL    HW213134   6.905   5.830   2.299
 4079SOL     OW13135   1.638   2.260   3.922
 4079SOL    HW113136   1.581   2.327   3.970
 4079SOL    HW213137   1.721   2.305   3.889
 4080SOL     OW13138   3.291   4.359   6.715
 4080SOL    HW113139   3.223   4.347   6.643
 4080SOL    HW213140   3.377   4.389   6.675
 4081SOL     OW13141   2.104   2.613   4.689
 4081SOL    HW113142   2.100   2.703   4.732
 4081SOL    HW213143   2.099   2.542   4.760
 4082SOL     OW13144   1.425   3.016   0.940
 4082SOL    HW113145   1.400   3.111   0.921
 4082SOL    HW213146   1.504   3.014   1.001
 4083SOL     OW13147   6.749   4.671   1.764
 4083SOL    HW113148   6.818   4.638   1.700
 4083SOL    HW213149   6.721   4.596   1.824
 4084SOL     OW13150   4.643   2.380   3.590
 4084SOL    HW113151   4.656   2.475   3.561
 4084SOL    HW213152   4.719   2.353   3.650
 4085SOL     OW13153   2.191   6.276   0.969
 4085SOL    HW113154   2.231   6.259   0.879
 4085SOL    HW213155   2.263   6.289   1.037
 4086SOL     OW13156   0.906   5.463   1.775
 4086SOL    HW113157   1.003   5.458   1.798
 4086SOL    HW213158   0.867   5.371   1.772
 4087SOL     OW13159   1.702   1.627   3.426
 4087SOL    HW113160   1.686   1.703   3.363
 4087SOL    HW213161   1.648   1.639   3.509
 4088SOL     OW13162   6.055   0.842   6.681
 4088SOL    HW113163   6.075   0.927   6.729
 4088SOL    HW213164   5.957   0.836   6.661
 4089SOL     OW13165   6.039   5.257   4.017
 4089SOL    HW113166   6.033   5.310   3.932
 4089SOL    HW213167   6.091   5.173   4.000
 4090SOL     OW13168   1.239   5.400   5.319
 4090SOL    HW113169   1.243   5.398   5.219
 4090SOL    HW213170   1.262   5.492   5.351
 4091SOL     OW13171   6.885   6.645   6.503
 4091SOL    HW113172   6.959   6.712   6.491
 4091SOL    HW213173   6.831   6.639   6.419
 4092SOL     OW13174   5.643   2.531   4.342
 4092SOL    HW113175   5.683   2.454   4.292
 4092SOL    HW213176   5.665   2.617   4.295
 4093SOL     OW13177   4.577   5.730   2.098
 4093SOL    HW113178   4.651   5.674   2.136
 4093SOL    HW213179   4.568   5.814   2.152
 4094SOL     OW13180   1.983   5.429   5.624
 4094SOL    HW113181   2.057   5.468   5.568
 4094SOL    HW213182   1.895   5.443   5.577
 4095SOL     OW13183   0.636   3.680   0.599
 4095SOL    HW113184   0.551   3.722   0.567
 4095SOL    HW213185   0.709   3.750   0.601
 4096SOL     OW13186   4.649   0.000   6.340
 4096SOL    HW113187   4.587   6.999   6.416
 4096SOL    HW213188   4.596   0.038   6.264
 4097SOL     OW13189   3.933   4.923   4.957
 4097SOL    HW113190   3.975   5.000   5.006
 4097SOL    HW213191   4.005   4.865   4.919
 4098SOL     OW13192   6.644   2.882   1.715
 4098SOL    HW113193   6.597   2.802   1.754
 4098SOL    HW213194   6.721   2.907   1.773
 4099SOL     OW13195   3.429   4.916   1.526
 4099SOL    HW113196   3.395   4.832   1.484
 4099SOL    HW213197   3.399   4.920   1.621
 4100SOL     OW13198   0.137   0.100   4.544
 4100SOL    HW113199   0.134   0.056   4.455
 4100SOL    HW213200   0.101   0.038   4.614
 4101SOL     OW13201   6.467   1.235   6.264
 4101SOL    HW113202   6.532   1.165   6.293
 4101SOL    HW213203   6.400   1.196   6.201
 4102SOL     OW13204   0.268   1.065   0.435
 4102SOL    HW113205   0.328   1.130   0.481
 4102SOL    HW213206   0.292   1.061   0.338
 4103SOL     OW13207   0.182   6.873   0.273
 4103SOL    HW113208   0.128   6.915   0.346
 4103SOL    HW213209   0.166   6.924   0.188
 4104SOL     OW13210   6.669   5.045   3.097
 4104SOL    HW113211   6.767   5.036   3.076
 4104SOL    HW213212   6.623   5.091   3.021
 4105SOL     OW13213   5.573   0.318   1.846
 4105SOL    HW113214   5.590   0.270   1.760
 4105SOL    HW213215   5.569   0.416   1.829
 4106SOL     OW13216   6.669   3.204   2.942
 4106SOL    HW113217   6.600   3.228   2.874
 4106SOL    HW213218   6.705   3.287   2.983
 4107SOL     OW13219   1.035   5.271   0.962
 4107SOL    HW113220   1.130   5.275   0.993
 4107SOL    HW213221   0.980   5.334   1.017
 4108SOL     OW13222   6.235   5.110   5.468
 4108SOL    HW113223   6.227   5.052   5.387
 4108SOL    HW213224   6.146   5.149   5.490
 4109SOL     OW13225   6.170   6.890   4.442
 4109SOL    HW113226   6.187   6.885   4.344
 4109SOL    HW213227   6.143   6.799   4.476
 4110SOL     OW13228   4.516   3.500   6.004
 4110SOL    HW113229   4.574   3.550   6.069
 4110SOL    HW213230   4.524   3.402   6.020
 4111SOL     OW13231   5.505   3.541   0.036
 4111SOL    HW113232   5.588   3.524   0.089
 4111SOL    HW213233   5.495   3.470   6.985
 4112SOL     OW13234   5.451   6.098   4.545
 4112SOL    HW113235   5.445   6.052   4.633
 4112SOL    HW213236   5.377   6.066   4.485
 4113SOL     OW13237   5.171   6.168   4.825
 4113SOL    HW113238   5.229   6.246   4.848
 4113SOL    HW213239   5.076   6.190   4.844
 4114SOL     OW13240   3.752   2.138   4.349
 4114SOL    HW113241   3.848   2.158   4.368
 4114SOL    HW213242   3.696   2.166   4.427
 4115SOL     OW13243   3.804   5.372   2.003
 4115SOL    HW113244   3.792   5.328   1.914
 4115SOL    HW213245   3.812   5.302   2.074
 4116SOL     OW13246   3.691   1.193   2.439
 4116SOL    HW113247   3.733   1.265   2.495
 4116SOL    HW213248   3.760   1.154   2.379
 4117SOL     OW13249   1.635   3.888   2.411
 4117SOL    HW113250   1.537   3.902   2.397
 4117SOL    HW213251   1.673   3.840   2.332
 4118SOL     OW13252   4.681   5.623   0.337
 4118SOL    HW113253   4.594   5.577   0.323
 4118SOL    HW213254   4.685   5.659   0.430
 4119SOL     OW13255   3.293   1.875   3.774
 4119SOL    HW113256   3.350   1.829   3.706
 4119SOL    HW213257   3.345   1.948   3.817
 4120SOL     OW13258   3.423   0.617   6.338
 4120SOL    HW113259   3.463   0.532   6.304
 4120SOL    HW213260   3.401   0.607   6.435
 4121SOL     OW13261   5.949   0.555   4.264
 4121SOL    HW113262   5.997   0.514   4.186
 4121SOL    HW213263   6.015   0.605   4.321
 4122SOL     OW13264   1.198   6.308   4.166
 4122SOL    HW113265   1.290   6.294   4.202
 4122SOL    HW213266   1.202   6.317   4.067
 4123SOL     OW13267   4.266   4.783   5.242
 4123SOL    HW113268   4.237   4.864   5.293
 4123SOL    HW213269   4.200   4.709   5.257
 4124SOL     OW13270   6.801   6.370   0.464
 4124SOL    HW113271   6.773   6.332   0.375
 4124SOL    HW213272   6.787   6.469   0.463
 4125SOL     OW13273   4.831   1.753   1.944
 4125SOL    HW113274   4.914   1.810   1.946
 4125SOL    HW213275   4.858   1.656   1.939
 4126SOL     OW13276   1.623   3.551   3.697
 4126SOL    HW113277   1.717   3.536   3.669
 4126SOL    HW213278   1.566   3.474   3.667
 4127SOL     OW13279   5.329   4.947   5.200
 4127SOL    HW113280   5.234   4.977   5.195
 4127SOL    HW213281   5.332   4.848   5.214
 4128SOL     OW13282   0.751   2.697   2.008
 4128SOL    HW113283   0.772   2.784   2.054
 4128SOL    HW213284   0.652   2.686   2.001
 4129SOL     OW13285   3.681   0.892   6.301
 4129SOL    HW113286   3.732   0.913   6.218
 4129SOL    HW213287   3.661   0.977   6.350
 4130SOL     OW13288   6.804   3.296   0.246
 4130SOL    HW113289   6.895   3.332   0.227
 4130SOL    HW213290   6.762   3.264   0.161
 4131SOL     OW13291   0.506   1.577   3.639
 4131SOL    HW113292   0.422   1.556   3.589
 4131SOL    HW213293   0.540   1.666   3.610
 4132SOL     OW13294   5.007   4.340   3.489
 4132SOL    HW113295   4.969   4.254   3.453
 4132SOL    HW213296   5.106   4.331   3.498
 4133SOL     OW13297   3.028   5.529   0.731
 4133SOL    HW113298   3.045   5.522   0.830
 4133SOL    HW213299   3.044   5.623   0.701
 4134SOL     OW13300   2.412   4.024   0.889
 4134SOL    HW113301   2.507   3.997   0.877
 4134SOL    HW213302   2.359   3.999   0.808
 4135SOL     OW13303   1.130   1.869   2.720
 4135SOL    HW113304   1.165   1.799   2.658
 4135SOL    HW213305   1.136   1.836   2.814
 4136SOL     OW13306   1.145   2.901   3.432
 4136SOL    HW113307   1.051   2.902   3.397
 4136SOL    HW213308   1.168   2.810   3.466
 4137SOL     OW13309   1.144   4.139   1.316
 4137SOL    HW113310   1.118   4.104   1.406
 4137SOL    HW213311   1.238   4.112   1.295
 4138SOL     OW13312   4.577   6.043   2.430
 4138SOL    HW113313   4.506   5.974   2.440
 4138SOL    HW213314   4.597   6.057   2.332
 4139SOL     OW13315   2.091   1.539   5.606
 4139SOL    HW113316   2.186   1.567   5.613
 4139SOL    HW213317   2.072   1.468   5.674
 4140SOL     OW13318   3.264   0.442   5.393
 4140SOL    HW113319   3.190   0.509   5.388
 4140SOL    HW213320   3.346   0.480   5.350
 4141SOL     OW13321   5.412   6.565   0.791
 4141SOL    HW113322   5.444   6.502   0.861
 4141SOL    HW213323   5.454   6.542   0.703
 4142SOL     OW13324   6.748   4.893   0.990
 4142SOL    HW113325   6.770   4.796   0.995
 4142SOL    HW213326   6.770   4.937   1.077
 4143SOL     OW13327   5.552   1.919   0.579
 4143SOL    HW113328   5.565   1.864   0.662
 4143SOL    HW213329   5.641   1.941   0.540
 4144SOL     OW13330   4.967   2.640   0.062
 4144SOL    HW113331   4.873   2.609   0.070
 4144SOL    HW213332   5.012   2.590   7.007
 4145SOL     OW13333   0.065   6.518   1.599
 4145SOL    HW113334   0.060   6.442   1.664
 4145SOL    HW213335   0.142   6.578   1.623
 4146SOL     OW13336   6.492   0.190   3.040
 4146SOL    HW113337   6.476   0.278   2.996
 4146SOL    HW213338   6.590   0.169   3.038
 4147SOL     OW13339   5.177   4.684   6.024
 4147SOL    HW113340   5.174   4.725   5.933
 4147SOL    HW213341   5.087   4.692   6.067
 4148SOL     OW13342   1.468   0.524   5.145
 4148SOL    HW113343   1.484   0.622   5.159
 4148SOL    HW213344   1.375   0.511   5.111
 4149SOL     OW13345   0.309   3.800   0.992
 4149SOL    HW113346   0.388   3.758   0.948
 4149SOL    HW213347   0.231   3.739   0.986
 4150SOL     OW13348   1.370   0.254   5.501
 4150SOL    HW113349   1.314   0.227   5.423
 4150SOL    HW213350   1.336   0.341   5.538
 4151SOL     OW13351   2.842   6.154   5.491
 4151SOL    HW113352   2.907   6.174   5.563
 4151SOL    HW213353   2.780   6.232   5.478
 4152SOL     OW13354   4.239   5.606   0.500
 4152SOL    HW113355   4.228   5.682   0.436
 4152SOL    HW213356   4.210   5.636   0.591
 4153SOL     OW13357   5.463   5.426   0.045
 4153SOL    HW113358   5.485   5.474   6.979
 4153SOL    HW213359   5.376   5.377   0.034
 4154SOL     OW13360   6.952   5.127   3.450
 4154SOL    HW113361   6.890   5.053   3.424
 4154SOL    HW213362   0.025   5.089   3.463
 4155SOL     OW13363   1.111   1.271   2.947
 4155SOL    HW113364   1.082   1.336   3.017
 4155SOL    HW213365   1.123   1.181   2.988
 4156SOL     OW13366   5.697   5.735   4.809
 4156SOL    HW113367   5.690   5.636   4.821
 4156SOL    HW213368   5.792   5.764   4.823
 4157SOL     OW13369   4.627   5.205   3.738
 4157SOL    HW113370   4.717   5.245   3.723
 4157SOL    HW213371   4.615   5.125   3.678
 4158SOL     OW13372   0.005   3.884   1.791
 4158SOL    HW113373   6.983   3.845   1.874
 4158SOL    HW213374   0.083   3.829   1.764
 4159SOL     OW13375   2.144   3.513   3.830
 4159SOL    HW113376   2.145   3.436   3.766
 4159SOL    HW213377   2.149   3.478   3.924
 4160SOL     OW13378   6.355   1.021   0.764
 4160SOL    HW113379   6.435   0.992   0.816
 4160SOL    HW213380   6.274   0.975   0.799
 4161SOL     OW13381   1.184   1.260   1.008
 4161SOL    HW113382   1.157   1.219   1.095
 4161SOL    HW213383   1.129   1.221   0.934
 4162SOL     OW13384   0.084   5.896   6.602
 4162SOL    HW113385   7.017   5.911   6.552
 4162SOL    HW213386   0.066   5.839   6.682
 4163SOL     OW13387   4.639   6.727   3.338
 4163SOL    HW113388   4.542   6.739   3.360
 4163SOL    HW213389   4.680   6.817   3.318
 4164SOL     OW13390   1.673   6.550   5.941
 4164SOL    HW113391   1.600   6.555   5.873
 4164SOL    HW213392   1.693   6.454   5.962
 4165SOL     OW13393   4.165   6.940   6.182
 4165SOL    HW113394   4.185   6.906   6.274
 4165SOL    HW213395   4.138   0.017   6.187
 4166SOL     OW13396   5.966   2.946   0.660
 4166SOL    HW113397   5.973   2.846   0.648
 4166SOL    HW213398   5.932   2.966   0.751
 4167SOL     OW13399   1.692   4.041   0.659
 4167SOL    HW113400   1.689   4.062   0.757
 4167SOL    HW213401   1.606   4.000   0.631
 4168SOL     OW13402   6.385   4.479   1.769
 4168SOL    HW113403   6.334   4.562   1.791
 4168SOL    HW213404   6.475   4.483   1.813
 4169SOL     OW13405   5.868   4.363   4.746
 4169SOL    HW113406   5.815   4.403   4.821
 4169SOL    HW213407   5.806   4.320   4.680
 4170SOL     OW13408   4.481   4.079   6.045
 4170SOL    HW113409   4.418   4.109   6.117
 4170SOL    HW213410   4.503   3.982   6.058
 4171SOL     OW13411   6.375   6.070   0.699
 4171SOL    HW113412   6.315   6.103   0.626
 4171SOL    HW213413   6.323   6.009   0.759
 4172SOL     OW13414   0.903   2.144   5.958
 4172SOL    HW113415   0.850   2.110   5.881
 4172SOL    HW213416   0.850   2.213   6.007
 4173SOL     OW13417   5.311   3.969   5.620
 4173SOL    HW113418   5.223   3.927   5.598
 4173SOL    HW213419   5.360   3.913   5.687
 4174SOL     OW13420   5.645   0.333   3.536
 4174SOL    HW113421   5.677   0.350   3.629
 4174SOL    HW213422   5.719   0.353   3.471
 4175SOL     OW13423   1.875   5.867   4.025
 4175SOL    HW113424   1.953   5.813   4.055
 4175SOL    HW213425   1.888   5.963   4.049
 4176SOL     OW13426   3.142   5.948   2.310
 4176SOL    HW113427   3.159   6.033   2.362
 4176SOL    HW213428   3.054   5.910   2.337
 4177SOL     OW13429   6.534   4.327   5.349
 4177SOL    HW113430   6.528   4.232   5.319
 4177SOL    HW213431   6.628   4.360   5.340
 4178SOL     OW13432   4.839   0.721   3.899
 4178SOL    HW113433   4.846   0.766   3.988
 4178SOL    HW213434   4.844   0.622   3.911
 4179SOL     OW13435   4.591   2.655   3.811
 4179SOL    HW113436   4.554   2.577   3.862
 4179SOL    HW213437   4.585   2.636   3.713
 4180SOL     OW13438   5.700   4.802   0.946
 4180SOL    HW113439   5.639   4.818   0.868
 4180SOL    HW213440   5.716   4.704   0.956
 4181SOL     OW13441   2.358   1.497   0.810
 4181SOL    HW113442   2.297   1.508   0.731
 4181SOL    HW213443   2.374   1.400   0.826
 4182SOL     OW13444   0.877   6.851   3.229
 4182SOL    HW113445   0.948   6.813   3.288
 4182SOL    HW213446   0.846   6.781   3.165
 4183SOL     OW13447   3.576   1.141   0.347
 4183SOL    HW113448   3.639   1.218   0.343
 4183SOL    HW213449   3.620   1.059   0.310
 4184SOL     OW13450   4.487   5.183   1.488
 4184SOL    HW113451   4.428   5.209   1.564
 4184SOL    HW213452   4.522   5.266   1.443
 4185SOL     OW13453   0.324   5.588   2.325
 4185SOL    HW113454   0.292   5.601   2.231
 4185SOL    HW213455   0.247   5.598   2.388
 4186SOL     OW13456   2.203   5.285   0.082
 4186SOL    HW113457   2.257   5.310   0.163
 4186SOL    HW213458   2.251   5.314   7.019
 4187SOL     OW13459   3.621   3.424   5.452
 4187SOL    HW113460   3.594   3.328   5.454
 4187SOL    HW213461   3.539   3.482   5.442
 4188SOL     OW13462   4.779   6.749   4.540
 4188SOL    HW113463   4.814   6.837   4.507
 4188SOL    HW213464   4.728   6.763   4.625
 4189SOL     OW13465   3.544   5.915   5.284
 4189SOL    HW113466   3.627   5.883   5.329
 4189SOL    HW213467   3.563   6.001   5.236
 4190SOL     OW13468   0.796   0.742   0.181
 4190SOL    HW113469   0.888   0.780   0.166
 4190SOL    HW213470   0.790   0.652   0.136
 4191SOL     OW13471   4.919   3.569   3.250
 4191SOL    HW113472   4.881   3.476   3.256
 4191SOL    HW213473   4.919   3.610   3.341
 4192SOL     OW13474   1.014   1.542   4.289
 4192SOL    HW113475   1.101   1.508   4.324
 4192SOL    HW213476   0.940   1.507   4.347
 4193SOL     OW13477   1.329   0.924   1.803
 4193SOL    HW113478   1.291   1.001   1.854
 4193SOL    HW213479   1.274   0.842   1.820
 4194SOL     OW13480   5.524   0.794   5.101
 4194SOL    HW113481   5.620   0.771   5.114
 4194SOL    HW213482   5.467   0.713   5.112
 4195SOL     OW13483   3.777   6.450   1.601
 4195SOL    HW113484   3.867   6.408   1.606
 4195SOL    HW213485   3.707   6.379   1.591
 4196SOL     OW13486   5.692   1.965   3.034
 4196SOL    HW113487   5.610   2.020   3.019
 4196SOL    HW213488   5.736   1.992   3.120
 4197SOL     OW13489   5.276   5.886   6.021
 4197SOL    HW113490   5.240   5.979   6.025
 4197SOL    HW213491   5.372   5.888   5.995
 4198SOL     OW13492   5.674   2.763   7.006
 4198SOL    HW113493   5.698   2.666   7.010
 4198SOL    HW213494   5.715   2.811   0.064
 4199SOL     OW13495   2.327   2.974   5.829
 4199SOL    HW113496   2.269   3.024   5.893
 4199SOL    HW213497   2.317   2.876   5.843
 4200SOL     OW13498   3.542   6.517   6.291
 4200SOL    HW113499   3.593   6.487   6.372
 4200SOL    HW213500   3.444   6.518   6.312
 4201SOL     OW13501   6.088   6.274   3.862
 4201SOL    HW113502   6.046   6.280   3.771
 4201SOL    HW213503   6.016   6.263   3.931
 4202SOL     OW13504   4.229   4.857   5.775
 4202SOL    HW113505   4.179   4.909   5.844
 4202SOL    HW213506   4.183   4.769   5.760
 4203SOL     OW13507   4.829   4.854   0.437
 4203SOL    HW113508   4.923   4.821   0.446
 4203SOL    HW213509   4.830   4.943   0.390
 4204SOL     OW13510   3.945   3.401   2.422
 4204SOL    HW113511   4.002   3.484   2.422
 4204SOL    HW213512   3.858   3.420   2.468
 4205SOL     OW13513   3.655   5.675   3.673
 4205SOL    HW113514   3.678   5.772   3.675
 4205SOL    HW213515   3.583   5.656   3.740
 4206SOL     OW13516   6.521   6.983   6.449
 4206SOL    HW113517   6.458   0.036   6.422
 4206SOL    HW213518   6.610   6.998   6.407
 4207SOL     OW13519   1.520   1.684   1.340
 4207SOL    HW113520   1.535   1.585   1.342
 4207SOL    HW213521   1.598   1.730   1.384
 4208SOL     OW13522   1.091   3.693   6.268
 4208SOL    HW113523   1.057   3.679   6.361
 4208SOL    HW213524   1.014   3.715   6.208
 4209SOL     OW13525   0.276   0.875   5.644
 4209SOL    HW113526   0.340   0.811   5.600
 4209SOL    HW213527   0.302   0.886   5.740
 4210SOL     OW13528   3.052   3.132   2.760
 4210SOL    HW113529   3.073   3.228   2.743
 4210SOL    HW213530   2.980   3.102   2.697
 4211SOL     OW13531   4.065   5.200   5.774
 4211SOL    HW113532   4.161   5.198   5.800
 4211SOL    HW213533   4.022   5.113   5.799
 4212SOL     OW13534   5.938   2.190   2.856
 4212SOL    HW113535   5.851   2.141   2.864
 4212SOL    HW213536   5.957   2.208   2.760
 4213SOL     OW13537   2.321   1.163   1.374
 4213SOL    HW113538   2.253   1.205   1.315
 4213SOL    HW213539   2.298   1.180   1.470
 4214SOL     OW13540   1.813   4.757   5.395
 4214SOL    HW113541   1.716   4.735   5.386
 4214SOL    HW213542   1.867   4.691   5.343
 4215SOL     OW13543   6.739   6.352   4.879
 4215SOL    HW113544   6.790   6.268   4.896
 4215SOL    HW213545   6.804   6.426   4.858
 4216SOL     OW13546   1.197   1.823   2.999
 4216SOL    HW113547   1.294   1.800   3.011
 4216SOL    HW213548   1.140   1.747   3.029
 4217SOL     OW13549   0.494   0.736   2.725
 4217SOL    HW113550   0.454   0.773   2.809
 4217SOL    HW213551   0.423   0.692   2.670
 4218SOL     OW13552   4.289   1.029   1.612
 4218SOL    HW113553   4.298   0.930   1.610
 4218SOL    HW213554   4.204   1.054   1.658
 4219SOL     OW13555   2.543   5.377   3.353
 4219SOL    HW113556   2.517   5.307   3.419
 4219SOL    HW213557   2.533   5.341   3.261
 4220SOL     OW13558   5.340   2.678   3.561
 4220SOL    HW113559   5.287   2.638   3.636
 4220SOL    HW213560   5.298   2.655   3.474
 4221SOL     OW13561   6.316   5.109   6.635
 4221SOL    HW113562   6.285   5.137   6.726
 4221SOL    HW213563   6.237   5.092   6.576
 4222SOL     OW13564   5.796   2.018   3.285
 4222SOL    HW113565   5.870   2.038   3.349
 4222SOL    HW213566   5.759   1.928   3.305
 4223SOL     OW13567   3.488   3.994   6.004
 4223SOL    HW113568   3.433   3.959   6.079
 4223SOL    HW213569   3.436   3.989   5.919
 4224SOL     OW13570   4.813   3.125   3.572
 4224SOL    HW113571   4.739   3.137   3.638
 4224SOL    HW213572   4.782   3.067   3.496
 4225SOL     OW13573   3.870   1.145   5.897
 4225SOL    HW113574   3.810   1.069   5.925
 4225SOL    HW213575   3.838   1.229   5.940
 4226SOL     OW13576   1.097   0.939   2.325
 4226SOL    HW113577   1.021   0.933   2.390
 4226SOL    HW213578   1.067   0.985   2.242
 4227SOL     OW13579   4.223   4.742   6.971
 4227SOL    HW113580   4.127   4.769   6.976
 4227SOL    HW213581   4.260   4.766   6.882
 4228SOL     OW13582   0.456   3.542   4.364
 4228SOL    HW113583   0.433   3.581   4.454
 4228SOL    HW213584   0.500   3.612   4.308
 4229SOL     OW13585   4.724   5.233   5.408
 4229SOL    HW113586   4.770   5.163   5.462
 4229SOL    HW213587   4.763   5.235   5.316
 4230SOL     OW13588   1.547   0.616   4.138
 4230SOL    HW113589   1.519   0.680   4.066
 4230SOL    HW213590   1.553   0.524   4.100
 4231SOL     OW13591   5.509   6.273   4.920
 4231SOL    HW113592   5.601   6.234   4.927
 4231SOL    HW213593   5.500   6.323   4.834
 4232SOL     OW13594   0.306   4.523   2.569
 4232SOL    HW113595   0.256   4.578   2.501
 4232SOL    HW213596   0.372   4.581   2.616
 4233SOL     OW13597   6.872   0.146   0.175
 4233SOL    HW113598   6.845   0.123   0.269
 4233SOL    HW213599   6.805   0.110   0.111
 4234SOL     OW13600   2.086   0.055   5.913
 4234SOL    HW113601   2.033   0.081   5.833
 4234SOL    HW213602   2.118   6.980   5.903
 4235SOL     OW13603   5.346   3.757   5.918
 4235SOL    HW113604   5.342   3.856   5.929
 4235SOL    HW213605   5.259   3.716   5.944
 4236SOL     OW13606   0.624   3.832   3.173
 4236SOL    HW113607   0.677   3.855   3.091
 4236SOL    HW213608   0.624   3.732   3.185
 4237SOL     OW13609   6.378   5.258   3.098
 4237SOL    HW113610   6.302   5.321   3.114
 4237SOL    HW213611   6.443   5.300   3.035
 4238SOL     OW13612   3.173   4.828   2.586
 4238SOL    HW113613   3.099   4.891   2.611
 4238SOL    HW213614   3.136   4.754   2.531
 4239SOL     OW13615   5.336   1.685   3.531
 4239SOL    HW113616   5.263   1.618   3.530
 4239SOL    HW213617   5.303   1.771   3.571
 4240SOL     OW13618   2.510   0.294   0.240
 4240SOL    HW113619   2.563   0.220   0.279
 4240SOL    HW213620   2.412   0.275   0.251
 4241SOL     OW13621   5.887   0.382   1.165
 4241SOL    HW113622   5.981   0.349   1.153
 4241SOL    HW213623   5.879   0.475   1.130
 4242SOL     OW13624   2.079   0.712   3.091
 4242SOL    HW113625   1.994   0.762   3.075
 4242SOL    HW213626   2.058   0.626   3.138
 4243SOL     OW13627   5.729   4.194   3.707
 4243SOL    HW113628   5.707   4.125   3.775
 4243SOL    HW213629   5.794   4.260   3.747
 4244SOL     OW13630   5.473   4.709   1.865
 4244SOL    HW113631   5.414   4.713   1.946
 4244SOL    HW213632   5.416   4.700   1.784
 4245SOL     OW13633   6.335   0.884   6.265
 4245SOL    HW113634   6.286   0.957   6.218
 4245SOL    HW213635   6.343   0.907   6.362
 4246SOL     OW13636   5.944   3.232   3.147
 4246SOL    HW113637   5.920   3.219   3.051
 4246SOL    HW213638   5.950   3.330   3.166
 4247SOL     OW13639   2.278   4.849   3.249
 4247SOL    HW113640   2.252   4.812   3.338
 4247SOL    HW213641   2.376   4.835   3.234
 4248SOL     OW13642   1.738   1.198   3.641
 4248SOL    HW113643   1.749   1.283   3.693
 4248SOL    HW213644   1.644   1.164   3.652
 4249SOL     OW13645   4.964   1.510   4.037
 4249SOL    HW113646   5.021   1.442   4.084
 4249SOL    HW213647   4.939   1.582   4.101
 4250SOL     OW13648   6.307   6.245   4.190
 4250SOL    HW113649   6.276   6.187   4.115
 4250SOL    HW213650   6.269   6.337   4.179
 4251SOL     OW13651   6.001   3.416   1.275
 4251SOL    HW113652   5.975   3.510   1.254
 4251SOL    HW213653   6.099   3.412   1.293
 4252SOL     OW13654   6.613   6.389   6.455
 4252SOL    HW113655   6.657   6.374   6.544
 4252SOL    HW213656   6.533   6.448   6.467
 4253SOL     OW13657   3.223   6.804   1.166
 4253SOL    HW113658   3.237   6.798   1.265
 4253SOL    HW213659   3.188   6.895   1.143
 4254SOL     OW13660   1.725   3.450   1.956
 4254SOL    HW113661   1.641   3.490   1.993
 4254SOL    HW213662   1.705   3.406   1.868
 4255SOL     OW13663   6.968   4.278   4.216
 4255SOL    HW113664   6.931   4.220   4.143
 4255SOL    HW213665   6.946   4.238   4.305
 4256SOL     OW13666   1.376   6.388   0.796
 4256SOL    HW113667   1.407   6.423   0.885
 4256SOL    HW213668   1.415   6.444   0.723
 4257SOL     OW13669   3.753   1.274   4.227
 4257SOL    HW113670   3.683   1.325   4.178
 4257SOL    HW213671   3.758   1.181   4.191
 4258SOL     OW13672   3.407   5.618   0.954
 4258SOL    HW113673   3.370   5.709   0.972
 4258SOL    HW213674   3.503   5.626   0.926
 4259SOL     OW13675   1.248   0.330   1.256
 4259SOL    HW113676   1.248   0.250   1.196
 4259SOL    HW213677   1.294   0.406   1.210
 4260SOL     OW13678   5.483   0.386   3.105
 4260SOL    HW113679   5.576   0.414   3.080
 4260SOL    HW213680   5.419   0.458   3.078
 4261SOL     OW13681   2.255   0.838   2.604
 4261SOL    HW113682   2.353   0.850   2.621
 4261SOL    HW213683   2.220   0.766   2.664
 4262SOL     OW13684   0.563   3.928   6.380
 4262SOL    HW113685   0.518   3.880   6.305
 4262SOL    HW213686   0.600   4.015   6.347
 4263SOL     OW13687   2.520   0.828   3.173
 4263SOL    HW113688   2.516   0.739   3.218
 4263SOL    HW213689   2.498   0.818   3.076
 4264SOL     OW13690   6.511   1.918   4.658
 4264SOL    HW113691   6.508   2.001   4.601
 4264SOL    HW213692   6.591   1.863   4.632
 4265SOL     OW13693   3.909   1.371   0.409
 4265SOL    HW113694   3.922   1.467   0.435
 4265SOL    HW213695   3.815   1.356   0.379
 4266SOL     OW13696   1.905   6.827   6.146
 4266SOL    HW113697   1.905   6.926   6.132
 4266SOL    HW213698   1.827   6.803   6.204
 4267SOL     OW13699   2.107   3.647   4.270
 4267SOL    HW113700   2.089   3.707   4.192
 4267SOL    HW213701   2.145   3.561   4.237
 4268SOL     OW13702   1.151   5.872   6.564
 4268SOL    HW113703   1.076   5.807   6.578
 4268SOL    HW213704   1.225   5.828   6.513
 4269SOL     OW13705   2.744   6.998   2.787
 4269SOL    HW113706   2.691   6.919   2.756
 4269SOL    HW213707   2.835   6.995   2.745
 4270SOL     OW13708   4.088   3.414   2.768
 4270SOL    HW113709   4.080   3.345   2.840
 4270SOL    HW213710   3.999   3.457   2.753
 4271SOL     OW13711   6.546   0.511   0.306
 4271SOL    HW113712   6.642   0.527   0.281
 4271SOL    HW213713   6.492   0.496   0.224
 4272SOL     OW13714   6.829   1.943   4.456
 4272SOL    HW113715   6.802   1.856   4.498
 4272SOL    HW213716   6.747   1.988   4.419
 4273SOL     OW13717   3.938   6.725   5.013
 4273SOL    HW113718   3.850   6.768   5.034
 4273SOL    HW213719   3.939   6.697   4.917
 4274SOL     OW13720   1.733   0.233   1.248
 4274SOL    HW113721   1.703   0.285   1.329
 4274SOL    HW213722   1.704   0.138   1.258
 4275SOL     OW13723   6.717   2.074   3.975
 4275SOL    HW113724   6.801   2.060   4.028
 4275SOL    HW213725   6.725   2.160   3.924
 4276SOL     OW13726   2.515   5.030   3.726
 4276SOL    HW113727   2.615   5.035   3.723
 4276SOL    HW213728   2.482   5.061   3.815
 4277SOL     OW13729   6.544   5.063   3.344
 4277SOL    HW113730   6.591   5.062   3.257
 4277SOL    HW213731   6.456   5.016   3.336
 4278SOL     OW13732   0.413   6.989   4.579
 4278SOL    HW113733   0.448   0.033   4.510
 4278SOL    HW213734   0.358   0.021   4.646
 4279SOL     OW13735   3.158   1.039   3.478
 4279SOL    HW113736   3.219   1.081   3.411
 4279SOL    HW213737   3.155   0.940   3.463
 4280SOL     OW13738   5.674   6.814   5.758
 4280SOL    HW113739   5.634   6.798   5.668
 4280SOL    HW213740   5.633   6.896   5.798
 4281SOL     OW13741   6.318   4.940   3.301
 4281SOL    HW113742   6.373   4.899   3.228
 4281SOL    HW213743   6.234   4.887   3.313
 4282SOL     OW13744   3.270   4.125   0.444
 4282SOL    HW113745   3.231   4.168   0.525
 4282SOL    HW213746   3.340   4.059   0.471
 4283SOL     OW13747   2.233   0.826   3.392
 4283SOL    HW113748   2.274   0.898   3.336
 4283SOL    HW213749   2.134   0.827   3.381
 4284SOL     OW13750   3.759   3.902   1.224
 4284SOL    HW113751   3.679   3.853   1.188
 4284SOL    HW213752   3.839   3.880   1.169
 4285SOL     OW13753   2.266   0.785   5.617
 4285SOL    HW113754   2.312   0.808   5.532
 4285SOL    HW213755   2.188   0.725   5.598
 4286SOL     OW13756   5.675   6.856   6.078
 4286SOL    HW113757   5.717   6.778   6.031
 4286SOL    HW213758   5.582   6.832   6.105
 4287SOL     OW13759   4.794   0.663   6.104
 4287SOL    HW113760   4.842   0.586   6.147
 4287SOL    HW213761   4.743   0.713   6.174
 4288SOL     OW13762   0.756   5.470   3.540
 4288SOL    HW113763   0.813   5.547   3.511
 4288SOL    HW213764   0.667   5.477   3.496
 4289SOL     OW13765   6.976   2.698   5.842
 4289SOL    HW113766   0.017   2.620   5.823
 4289SOL    HW213767   7.018   2.782   5.807
 4290SOL     OW13768   1.283   6.739   4.044
 4290SOL    HW113769   1.211   6.670   4.049
 4290SOL    HW213770   1.372   6.694   4.036
 4291SOL     OW13771   4.610   3.584   6.900
 4291SOL    HW113772   4.699   3.589   6.946
 4291SOL    HW213773   4.620   3.609   6.804
 4292SOL     OW13774   6.675   2.899   0.345
 4292SOL    HW113775   6.628   2.855   0.422
 4292SOL    HW213776   6.748   2.958   0.380
 4293SOL     OW13777   2.952   3.488   6.881
 4293SOL    HW113778   2.982   3.525   6.793
 4293SOL    HW213779   3.009   3.525   6.954
 4294SOL     OW13780   2.030   1.722   6.596
 4294SOL    HW113781   2.018   1.632   6.637
 4294SOL    HW213782   2.110   1.767   6.636
 4295SOL     OW13783   4.317   5.993   4.955
 4295SOL    HW113784   4.264   5.911   4.976
 4295SOL    HW213785   4.266   6.074   4.984
 4296SOL     OW13786   3.504   6.736   0.113
 4296SOL    HW113787   3.451   6.817   0.140
 4296SOL    HW213788   3.460   6.654   0.148
 4297SOL     OW13789   5.870   0.250   1.575
 4297SOL    HW113790   5.772   0.271   1.582
 4297SOL    HW213791   5.899   0.201   1.657
 4298SOL     OW13792   4.115   5.706   0.704
 4298SOL    HW113793   4.044   5.773   0.680
 4298SOL    HW213794   4.189   5.752   0.753
 4299SOL     OW13795   1.568   3.273   6.603
 4299SOL    HW113796   1.511   3.330   6.662
 4299SOL    HW213797   1.508   3.217   6.544
 4300SOL     OW13798   2.702   6.675   0.337
 4300SOL    HW113799   2.725   6.772   0.332
 4300SOL    HW213800   2.602   6.664   0.334
 4301SOL     OW13801   4.975   0.200   1.456
 4301SOL    HW113802   4.988   0.297   1.435
 4301SOL    HW213803   4.879   0.176   1.443
 4302SOL     OW13804   6.890   6.979   5.850
 4302SOL    HW113805   6.835   6.963   5.768
 4302SOL    HW213806   6.883   0.056   5.876
 4303SOL     OW13807   6.763   4.738   4.579
 4303SOL    HW113808   6.802   4.769   4.492
 4303SOL    HW213809   6.664   4.735   4.572
 4304SOL     OW13810   3.261   3.084   2.437
 4304SOL    HW113811   3.296   2.991   2.426
 4304SOL    HW213812   3.284   3.118   2.529
 4305SOL     OW13813   1.280   6.896   5.388
 4305SOL    HW113814   1.309   6.825   5.324
 4305SOL    HW213815   1.342   6.899   5.466
 4306SOL     OW13816   4.172   5.232   4.443
 4306SOL    HW113817   4.073   5.240   4.431
 4306SOL    HW213818   4.217   5.311   4.402
 4307SOL     OW13819   6.472   3.931   5.435
 4307SOL    HW113820   6.476   3.906   5.338
 4307SOL    HW213821   6.563   3.960   5.465
 4308SOL     OW13822   6.317   5.273   1.738
 4308SOL    HW113823   6.343   5.184   1.700
 4308SOL    HW213824   6.261   5.323   1.672
 4309SOL     OW13825   1.027   1.308   1.366
 4309SOL    HW113826   1.111   1.329   1.416
 4309SOL    HW213827   1.032   1.215   1.330
 4310SOL     OW13828   1.681   2.587   1.853
 4310SOL    HW113829   1.668   2.533   1.936
 4310SOL    HW213830   1.624   2.550   1.779
 4311SOL     OW13831   0.995   6.334   2.430
 4311SOL    HW113832   1.084   6.374   2.410
 4311SOL    HW213833   0.923   6.396   2.395
 4312SOL     OW13834   1.275   6.079   1.905
 4312SOL    HW113835   1.303   6.081   2.001
 4312SOL    HW213836   1.270   6.172   1.870
 4313SOL     OW13837   5.149   1.830   0.670
 4313SOL    HW113838   5.204   1.759   0.713
 4313SOL    HW213839   5.055   1.826   0.706
 4314SOL     OW13840   5.591   1.428   4.776
 4314SOL    HW113841   5.496   1.402   4.759
 4314SOL    HW213842   5.610   1.423   4.874
 4315SOL     OW13843   2.358   0.451   3.675
 4315SOL    HW113844   2.354   0.502   3.761
 4315SOL    HW213845   2.278   0.475   3.619
 4316SOL     OW13846   5.212   0.946   1.892
 4316SOL    HW113847   5.205   1.033   1.844
 4316SOL    HW213848   5.246   0.875   1.830
 4317SOL     OW13849   5.364   2.286   5.211
 4317SOL    HW113850   5.456   2.267   5.246
 4317SOL    HW213851   5.335   2.211   5.153
 4318SOL     OW13852   0.595   2.132   5.076
 4318SOL    HW113853   0.538   2.193   5.022
 4318SOL    HW213854   0.540   2.056   5.111
 4319SOL     OW13855   1.555   1.723   0.975
 4319SOL    HW113856   1.514   1.632   0.963
 4319SOL    HW213857   1.491   1.792   0.941
 4320SOL     OW13858   4.086   4.868   1.185
 4320SOL    HW113859   4.080   4.959   1.225
 4320SOL    HW213860   4.020   4.807   1.231
 4321SOL     OW13861   0.039   5.141   5.050
 4321SOL    HW113862   0.119   5.182   5.094
 4321SOL    HW213863   6.995   5.213   5.021
 4322SOL     OW13864   6.252   2.597   6.841
 4322SOL    HW113865   6.271   2.608   6.743
 4322SOL    HW213866   6.260   2.501   6.866
 4323SOL     OW13867   4.682   4.113   0.397
 4323SOL    HW113868   4.630   4.164   0.328
 4323SOL    HW213869   4.624   4.043   0.438
 4324SOL     OW13870   5.702   4.474   5.885
 4324SOL    HW113871   5.741   4.396   5.933
 4324SOL    HW213872   5.754   4.556   5.906
 4325SOL     OW13873   3.182   1.466   1.981
 4325SOL    HW113874   3.186   1.379   1.931
 4325SOL    HW213875   3.138   1.451   2.069
 4326SOL     OW13876   4.940   4.482   2.350
 4326SOL    HW113877   4.849   4.457   2.317
 4326SOL    HW213878   4.959   4.577   2.326
 4327SOL     OW13879   5.539   5.615   1.789
 4327SOL    HW113880   5.615   5.679   1.789
 4327SOL    HW213881   5.496   5.613   1.880
 4328SOL     OW13882   4.705   4.750   5.689
 4328SOL    HW113883   4.698   4.655   5.657
 4328SOL    HW213884   4.779   4.757   5.756
 4329SOL     OW13885   4.902   2.634   5.755
 4329SOL    HW113886   4.805   2.614   5.771
 4329SOL    HW213887   4.945   2.660   5.842
 4330SOL     OW13888   1.700   6.257   4.793
 4330SOL    HW113889   1.667   6.244   4.700
 4330SOL    HW213890   1.625   6.288   4.851
 4331SOL     OW13891   5.566   1.392   2.173
 4331SOL    HW113892   5.621   1.309   2.182
 4331SOL    HW213893   5.608   1.466   2.225
 4332SOL     OW13894   5.230   2.835   2.825
 4332SOL    HW113895   5.252   2.772   2.751
 4332SOL    HW213896   5.191   2.784   2.902
 4333SOL     OW13897   4.489   1.557   5.779
 4333SOL    HW113898   4.417   1.592   5.840
 4333SOL    HW213899   4.518   1.630   5.718
 4334SOL     OW13900   2.395   2.591   2.475
 4334SOL    HW113901   2.438   2.680   2.464
 4334SOL    HW213902   2.295   2.601   2.477
 4335SOL     OW13903   3.319   3.411   2.184
 4335SOL    HW113904   3.298   3.449   2.094
 4335SOL    HW213905   3.293   3.314   2.186
 4336SOL     OW13906   2.951   6.709   5.875
 4336SOL    HW113907   2.956   6.682   5.972
 4336SOL    HW213908   2.938   6.808   5.869
 4337SOL     OW13909   1.506   4.249   0.779
 4337SOL    HW113910   1.411   4.238   0.809
 4337SOL    HW213911   1.525   4.347   0.767
 4338SOL     OW13912   6.130   0.046   6.384
 4338SOL    HW113913   6.038   0.042   6.346
 4338SOL    HW213914   6.127   0.020   6.480
 4339SOL     OW13915   3.914   3.314   5.900
 4339SOL    HW113916   3.941   3.408   5.878
 4339SOL    HW213917   3.995   3.259   5.918
 4340SOL     OW13918   6.939   3.380   1.490
 4340SOL    HW113919   6.878   3.426   1.426
 4340SOL    HW213920   7.013   3.442   1.517
 4341SOL     OW13921   1.352   5.349   1.596
 4341SOL    HW113922   1.360   5.252   1.576
 4341SOL    HW213923   1.257   5.378   1.584
 4342SOL     OW13924   5.036   4.117   3.309
 4342SOL    HW113925   5.128   4.155   3.294
 4342SOL    HW213926   5.042   4.040   3.372
 4343SOL     OW13927   2.830   5.783   4.363
 4343SOL    HW113928   2.911   5.725   4.356
 4343SOL    HW213929   2.754   5.729   4.398
 4344SOL     OW13930   0.821   4.267   2.357
 4344SOL    HW113931   0.728   4.284   2.326
 4344SOL    HW213932   0.819   4.206   2.436
 4345SOL     OW13933   3.887   4.165   4.958
 4345SOL    HW113934   3.921   4.235   4.895
 4345SOL    HW213935   3.946   4.161   5.039
 4346SOL     OW13936   1.939   3.723   3.217
 4346SOL    HW113937   1.869   3.688   3.280
 4346SOL    HW213938   1.960   3.653   3.149
 4347SOL     OW13939   5.813   6.761   2.773
 4347SOL    HW113940   5.817   6.841   2.713
 4347SOL    HW213941   5.878   6.692   2.741
 4348SOL     OW13942   0.058   5.436   4.214
 4348SOL    HW113943   7.017   5.484   4.278
 4348SOL    HW213944   0.038   5.338   4.217
 4349SOL     OW13945   6.037   1.915   3.012
 4349SOL    HW113946   6.009   2.007   3.039
 4349SOL    HW213947   6.049   1.911   2.913
 4350SOL     OW13948   3.629   1.839   3.976
 4350SOL    HW113949   3.624   1.937   3.997
 4350SOL    HW213950   3.692   1.795   4.040
 4351SOL     OW13951   1.282   6.147   1.138
 4351SOL    HW113952   1.269   6.181   1.231
 4351SOL    HW213953   1.253   6.217   1.073
 4352SOL     OW13954   6.459   3.823   2.433
 4352SOL    HW113955   6.477   3.776   2.519
 4352SOL    HW213956   6.482   3.920   2.443
 4353SOL     OW13957   3.616   2.665   6.760
 4353SOL    HW113958   3.522   2.667   6.727
 4353SOL    HW213959   3.666   2.743   6.724
 4354SOL     OW13960   1.763   1.139   6.078
 4354SOL    HW113961   1.831   1.071   6.106
 4354SOL    HW213962   1.713   1.171   6.158
 4355SOL     OW13963   2.350   6.806   2.430
 4355SOL    HW113964   2.322   6.855   2.348
 4355SOL    HW213965   2.361   6.870   2.506
 4356SOL     OW13966   5.144   3.256   6.404
 4356SOL    HW113967   5.048   3.272   6.430
 4356SOL    HW213968   5.203   3.319   6.454
 4357SOL     OW13969   6.586   1.050   1.632
 4357SOL    HW113970   6.511   1.095   1.584
 4357SOL    HW213971   6.598   1.091   1.722
 4358SOL     OW13972   6.924   0.998   0.912
 4358SOL    HW113973   6.874   1.028   0.831
 4358SOL    HW213974   6.934   0.899   0.911
 4359SOL     OW13975   0.904   1.136   6.614
 4359SOL    HW113976   0.873   1.054   6.662
 4359SOL    HW213977   0.852   1.147   6.529
 4360SOL     OW13978   1.184   3.613   3.892
 4360SOL    HW113979   1.148   3.530   3.849
 4360SOL    HW213980   1.284   3.608   3.894
 4361SOL     OW13981   2.234   3.788   1.855
 4361SOL    HW113982   2.243   3.706   1.912
 4361SOL    HW213983   2.322   3.808   1.812
 4362SOL     OW13984   6.860   5.252   3.678
 4362SOL    HW113985   6.892   5.207   3.595
 4362SOL    HW213986   6.929   5.242   3.750
 4363SOL     OW13987   4.865   2.085   0.878
 4363SOL    HW113988   4.847   2.103   0.975
 4363SOL    HW213989   4.964   2.081   0.863
 4364SOL     OW13990   3.208   4.086   3.437
 4364SOL    HW113991   3.210   3.988   3.418
 4364SOL    HW213992   3.115   4.114   3.460
 4365SOL     OW13993   3.136   0.561   2.062
 4365SOL    HW113994   3.057   0.595   2.011
 4365SOL    HW213995   3.126   0.585   2.159
 4366SOL     OW13996   6.365   0.188   6.379
 4366SOL    HW113997   6.357   0.275   6.427
 4366SOL    HW213998   6.276   0.143   6.376
 4367SOL     OW13999   2.545   4.694   3.934
 4367SOL    HW114000   2.625   4.743   3.971
 4367SOL    HW214001   2.529   4.612   3.988
 4368SOL     OW14002   3.700   5.565   1.429
 4368SOL    HW114003   3.662   5.641   1.377
 4368SOL    HW214004   3.769   5.600   1.493
 4369SOL     OW14005   4.482   4.960   2.695
 4369SOL    HW114006   4.560   4.952   2.756
 4369SOL    HW214007   4.400   4.924   2.740
 4370SOL     OW14008   3.722   4.458   1.688
 4370SOL    HW114009   3.816   4.491   1.703
 4370SOL    HW214010   3.660   4.505   1.751
 4371SOL     OW14011   1.814   1.846   2.094
 4371SOL    HW114012   1.810   1.910   2.171
 4371SOL    HW214013   1.877   1.881   2.025
 4372SOL     OW14014   2.528   2.195   4.262
 4372SOL    HW114015   2.584   2.271   4.230
 4372SOL    HW214016   2.525   2.124   4.192
 4373SOL     OW14017   4.835   1.145   0.007
 4373SOL    HW114018   4.804   1.122   0.099
 4373SOL    HW214019   4.924   1.190   0.011
 4374SOL     OW14020   0.809   1.591   1.447
 4374SOL    HW114021   0.714   1.563   1.428
 4374SOL    HW214022   0.839   1.549   1.532
 4375SOL     OW14023   4.344   6.239   3.058
 4375SOL    HW114024   4.276   6.170   3.035
 4375SOL    HW214025   4.324   6.278   3.148
 4376SOL     OW14026   6.274   0.124   2.705
 4376SOL    HW114027   6.269   0.055   2.778
 4376SOL    HW214028   6.369   0.132   2.674
 4377SOL     OW14029   5.698   5.412   6.838
 4377SOL    HW114030   5.755   5.422   6.756
 4377SOL    HW214031   5.668   5.317   6.846
 4378SOL     OW14032   1.723   3.278   2.802
 4378SOL    HW114033   1.731   3.369   2.762
 4378SOL    HW214034   1.647   3.276   2.867
 4379SOL     OW14035   2.474   2.068   2.287
 4379SOL    HW114036   2.549   2.118   2.243
 4379SOL    HW214037   2.419   2.132   2.341
 4380SOL     OW14038   1.136   6.716   3.364
 4380SOL    HW114039   1.181   6.800   3.333
 4380SOL    HW214040   1.195   6.670   3.431
 4381SOL     OW14041   2.347   4.072   5.445
 4381SOL    HW114042   2.335   4.081   5.346
 4381SOL    HW214043   2.416   4.003   5.465
 4382SOL     OW14044   6.191   3.544   6.441
 4382SOL    HW114045   6.151   3.471   6.496
 4382SOL    HW214046   6.162   3.533   6.346
 4383SOL     OW14047   0.838   2.720   5.793
 4383SOL    HW114048   0.881   2.660   5.726
 4383SOL    HW214049   0.808   2.804   5.749
 4384SOL     OW14050   5.206   1.591   6.345
 4384SOL    HW114051   5.118   1.571   6.388
 4384SOL    HW214052   5.229   1.517   6.281
 4385SOL     OW14053   6.671   2.589   5.338
 4385SOL    HW114054   6.666   2.678   5.384
 4385SOL    HW214055   6.579   2.552   5.327
 4386SOL     OW14056   2.455   3.490   6.637
 4386SOL    HW114057   2.487   3.576   6.678
 4386SOL    HW214058   2.373   3.459   6.685
 4387SOL     OW14059   0.008   0.889   1.916
 4387SOL    HW114060   6.972   0.869   1.997
 4387SOL    HW214061   6.969   0.931   1.847
 4388SOL     OW14062   5.326   1.276   6.579
 4388SOL    HW114063   5.370   1.349   6.631
 4388SOL    HW214064   5.339   1.292   6.481
 4389SOL     OW14065   6.817   3.345   0.932
 4389SOL    HW114066   6.851   3.343   0.838
 4389SOL    HW214067   6.719   3.328   0.932
 4390SOL     OW14068   3.782   1.450   1.961
 4390SOL    HW114069   3.832   1.414   2.039
 4390SOL    HW214070   3.816   1.542   1.939
 4391SOL     OW14071   1.335   5.704   6.427
 4391SOL    HW114072   1.316   5.654   6.511
 4391SOL    HW214073   1.322   5.644   6.348
 4392SOL     OW14074   6.949   3.319   5.898
 4392SOL    HW114075   6.857   3.353   5.919
 4392SOL    HW214076   7.013   3.395   5.897
 4393SOL     OW14077   5.836   7.007   2.571
 4393SOL    HW114078   5.842   6.945   2.493
 4393SOL    HW214079   5.803   0.077   2.540
 4394SOL     OW14080   5.796   6.060   2.528
 4394SOL    HW114081   5.824   5.964   2.519
 4394SOL    HW214082   5.852   6.105   2.597
 4395SOL     OW14083   3.746   0.644   1.721
 4395SOL    HW114084   3.649   0.623   1.703
 4395SOL    HW214085   3.779   0.585   1.795
 4396SOL     OW14086   2.732   2.365   4.180
 4396SOL    HW114087   2.742   2.328   4.088
 4396SOL    HW214088   2.670   2.443   4.178
 4397SOL     OW14089   0.203   1.140   4.519
 4397SOL    HW114090   0.224   1.167   4.612
 4397SOL    HW214091   0.229   1.044   4.505
 4398SOL     OW14092   0.719   4.735   5.202
 4398SOL    HW114093   0.755   4.744   5.295
 4398SOL    HW214094   0.622   4.760   5.202
 4399SOL     OW14095   1.686   1.174   1.381
 4399SOL    HW114096   1.710   1.146   1.288
 4399SOL    HW214097   1.764   1.220   1.423
 4400SOL     OW14098   3.075   6.511   5.436
 4400SOL    HW114099   2.981   6.478   5.430
 4400SOL    HW214100   3.088   6.558   5.523
 4401SOL     OW14101   4.882   6.993   6.735
 4401SOL    HW114102   4.910   6.900   6.709
 4401SOL    HW214103   4.825   0.013   6.663
 4402SOL     OW14104   2.612   6.667   1.227
 4402SOL    HW114105   2.702   6.626   1.244
 4402SOL    HW214106   2.605   6.692   1.130
 4403SOL     OW14107   0.894   6.980   3.529
 4403SOL    HW114108   0.865   0.037   3.471
 4403SOL    HW214109   0.827   6.907   3.523
 4404SOL     OW14110   0.266   4.089   5.737
 4404SOL    HW114111   0.222   4.166   5.783
 4404SOL    HW214112   0.212   4.061   5.658
 4405SOL     OW14113   1.890   4.719   1.406
 4405SOL    HW114114   1.974   4.728   1.354
 4405SOL    HW214115   1.909   4.730   1.504
 4406SOL     OW14116   6.975   3.964   0.490
 4406SOL    HW114117   6.898   3.934   0.546
 4406SOL    HW214118   7.000   3.891   0.427
 4407SOL     OW14119   0.154   4.551   0.387
 4407SOL    HW114120   0.059   4.565   0.415
 4407SOL    HW214121   0.215   4.588   0.456
 4408SOL     OW14122   3.225   1.023   1.457
 4408SOL    HW114123   3.267   1.088   1.520
 4408SOL    HW214124   3.292   0.952   1.433
 4409SOL     OW14125   4.563   0.114   1.213
 4409SOL    HW114126   4.605   0.066   1.135
 4409SOL    HW214127   4.630   0.121   1.287
 4410SOL     OW14128   1.338   5.783   6.986
 4410SOL    HW114129   1.380   5.735   6.909
 4410SOL    HW214130   1.364   5.879   6.983
 4411SOL     OW14131   3.217   4.091   3.809
 4411SOL    HW114132   3.135   4.040   3.836
 4411SOL    HW214133   3.266   4.041   3.737
 4412SOL     OW14134   3.908   6.909   4.609
 4412SOL    HW114135   3.989   6.881   4.558
 4412SOL    HW214136   3.826   6.874   4.563
 4413SOL     OW14137   5.095   5.720   4.718
 4413SOL    HW114138   5.077   5.660   4.796
 4413SOL    HW214139   5.010   5.766   4.692
 4414SOL     OW14140   3.944   4.618   1.403
 4414SOL    HW114141   3.869   4.591   1.464
 4414SOL    HW214142   3.907   4.638   1.312
 4415SOL     OW14143   3.643   3.379   6.939
 4415SOL    HW114144   3.576   3.319   6.896
 4415SOL    HW214145   3.721   3.326   6.972
 4416SOL     OW14146   2.134   0.733   3.972
 4416SOL    HW114147   2.203   0.671   3.937
 4416SOL    HW214148   2.049   0.683   3.989
 4417SOL     OW14149   5.810   4.374   3.304
 4417SOL    HW114150   5.767   4.286   3.326
 4417SOL    HW214151   5.740   4.444   3.293
 4418SOL     OW14152   5.537   1.256   2.537
 4418SOL    HW114153   5.618   1.271   2.480
 4418SOL    HW214154   5.562   1.200   2.616
 4419SOL     OW14155   5.621   5.614   0.490
 4419SOL    HW114156   5.550   5.562   0.443
 4419SOL    HW214157   5.580   5.663   0.568
 4420SOL     OW14158   5.125   1.404   1.612
 4420SOL    HW114159   5.100   1.488   1.661
 4420SOL    HW214160   5.071   1.397   1.528
 4421SOL     OW14161   1.925   0.836   4.784
 4421SOL    HW114162   1.850   0.873   4.729
 4421SOL    HW214163   1.952   0.747   4.747
 4422SOL     OW14164   3.053   4.572   5.883
 4422SOL    HW114165   3.153   4.580   5.880
 4422SOL    HW214166   3.014   4.617   5.803
 4423SOL     OW14167   1.517   2.802   5.770
 4423SOL    HW114168   1.573   2.882   5.747
 4423SOL    HW214169   1.430   2.808   5.720
 4424SOL     OW14170   5.761   0.408   4.410
 4424SOL    HW114171   5.831   0.432   4.342
 4424SOL    HW214172   5.673   0.398   4.364
 4425SOL     OW14173   3.508   5.183   7.018
 4425SOL    HW114174   3.498   5.269   0.050
 4425SOL    HW214175   3.434   5.175   6.952
 4426SOL     OW14176   6.971   1.205   4.824
 4426SOL    HW114177   6.961   1.270   4.900
 4426SOL    HW214178   6.992   1.114   4.861
 4427SOL     OW14179   0.180   6.068   2.385
 4427SOL    HW114180   0.136   6.028   2.304
 4427SOL    HW214181   0.184   5.999   2.457
 4428SOL     OW14182   2.959   6.389   1.620
 4428SOL    HW114183   2.947   6.474   1.672
 4428SOL    HW214184   3.051   6.354   1.634
 4429SOL     OW14185   3.040   0.146   2.737
 4429SOL    HW114186   2.993   0.233   2.752
 4429SOL    HW214187   3.116   0.137   2.803
 4430SOL     OW14188   4.964   3.712   4.837
 4430SOL    HW114189   5.050   3.727   4.886
 4430SOL    HW214190   4.888   3.711   4.902
 4431SOL     OW14191   2.455   0.799   2.105
 4431SOL    HW114192   2.403   0.880   2.077
 4431SOL    HW214193   2.395   0.720   2.109
 4432SOL     OW14194   3.995   3.701   4.741
 4432SOL    HW114195   3.942   3.675   4.822
 4432SOL    HW214196   3.968   3.792   4.710
 4433SOL     OW14197   5.345   0.700   4.887
 4433SOL    HW114198   5.268   0.712   4.825
 4433SOL    HW214199   5.363   0.786   4.935
 4434SOL     OW14200   4.450   1.900   3.938
 4434SOL    HW114201   4.387   1.955   3.993
 4434SOL    HW214202   4.410   1.881   3.849
 4435SOL     OW14203   4.433   3.237   1.383
 4435SOL    HW114204   4.479   3.150   1.365
 4435SOL    HW214205   4.430   3.254   1.481
 4436SOL     OW14206   3.648   1.544   0.930
 4436SOL    HW114207   3.612   1.456   0.899
 4436SOL    HW214208   3.590   1.580   1.004
 4437SOL     OW14209   5.903   1.385   3.695
 4437SOL    HW114210   5.971   1.420   3.759
 4437SOL    HW214211   5.943   1.375   3.605
 4438SOL     OW14212   5.057   0.660   0.458
 4438SOL    HW114213   5.135   0.719   0.479
 4438SOL    HW214214   4.972   0.707   0.485
 4439SOL     OW14215   0.311   5.510   1.244
 4439SOL    HW114216   0.259   5.447   1.301
 4439SOL    HW214217   0.406   5.478   1.236
 4440SOL     OW14218   2.276   5.273   0.821
 4440SOL    HW114219   2.249   5.224   0.738
 4440SOL    HW214220   2.226   5.359   0.827
 4441SOL     OW14221   6.722   1.908   2.694
 4441SOL    HW114222   6.771   1.912   2.781
 4441SOL    HW214223   6.653   1.836   2.698
 4442SOL     OW14224   2.620   5.914   4.711
 4442SOL    HW114225   2.555   5.966   4.767
 4442SOL    HW214226   2.618   5.948   4.617
 4443SOL     OW14227   0.098   2.535   0.813
 4443SOL    HW114228   0.025   2.540   0.745
 4443SOL    HW214229   0.166   2.606   0.795
 4444SOL     OW14230   3.650   5.017   6.186
 4444SOL    HW114231   3.690   5.108   6.183
 4444SOL    HW214232   3.716   4.950   6.150
 4445SOL     OW14233   0.004   0.712   1.144
 4445SOL    HW114234   0.039   0.631   1.193
 4445SOL    HW214235   0.001   0.692   1.046
 4446SOL     OW14236   5.534   1.259   1.670
 4446SOL    HW114237   5.538   1.356   1.693
 4446SOL    HW214238   5.611   1.211   1.713
 4447SOL     OW14239   5.526   4.088   6.597
 4447SOL    HW114240   5.502   4.022   6.527
 4447SOL    HW214241   5.498   4.180   6.568
 4448SOL     OW14242   2.859   3.945   1.230
 4448SOL    HW114243   2.799   3.915   1.304
 4448SOL    HW214244   2.802   3.971   1.151
 4449SOL     OW14245   5.035   0.740   5.737
 4449SOL    HW114246   5.041   0.823   5.682
 4449SOL    HW214247   5.013   0.662   5.678
 4450SOL     OW14248   3.556   2.947   3.958
 4450SOL    HW114249   3.487   2.962   3.887
 4450SOL    HW214250   3.563   3.028   4.016
 4451SOL     OW14251   5.678   4.168   4.321
 4451SOL    HW114252   5.762   4.142   4.273
 4451SOL    HW214253   5.628   4.086   4.348
 4452SOL     OW14254   5.266   6.203   4.132
 4452SOL    HW114255   5.326   6.281   4.148
 4452SOL    HW214256   5.307   6.142   4.063
 4453SOL     OW14257   0.269   2.767   1.709
 4453SOL    HW114258   0.345   2.704   1.691
 4453SOL    HW214259   0.208   2.726   1.777
 4454SOL     OW14260   0.447   1.970   6.771
 4454SOL    HW114261   0.453   1.987   6.673
 4454SOL    HW214262   0.444   2.057   6.820
 4455SOL     OW14263   3.940   6.189   6.254
 4455SOL    HW114264   3.947   6.097   6.215
 4455SOL    HW214265   3.858   6.234   6.218
 4456SOL     OW14266   3.377   5.120   1.802
 4456SOL    HW114267   3.301   5.184   1.792
 4456SOL    HW214268   3.342   5.026   1.803
 4457SOL     OW14269   4.678   1.827   0.968
 4457SOL    HW114270   4.721   1.859   1.052
 4457SOL    HW214271   4.580   1.816   0.982
 4458SOL     OW14272   1.417   3.129   6.412
 4458SOL    HW114273   1.443   3.160   6.320
 4458SOL    HW214274   1.330   3.081   6.409
 4459SOL     OW14275   4.574   0.599   4.437
 4459SOL    HW114276   4.569   0.538   4.516
 4459SOL    HW214277   4.487   0.646   4.425
 4460SOL     OW14278   3.320   3.103   5.594
 4460SOL    HW114279   3.268   3.024   5.623
 4460SOL    HW214280   3.295   3.182   5.651
 4461SOL     OW14281   1.571   1.191   1.923
 4461SOL    HW114282   1.635   1.125   1.963
 4461SOL    HW214283   1.575   1.277   1.975
 4462SOL     OW14284   6.203   4.571   2.363
 4462SOL    HW114285   6.185   4.657   2.314
 4462SOL    HW214286   6.189   4.494   2.302
 4463SOL     OW14287   4.801   2.126   6.198
 4463SOL    HW114288   4.707   2.096   6.212
 4463SOL    HW214289   4.809   2.173   6.110
 4464SOL     OW14290   0.253   4.974   0.829
 4464SOL    HW114291   0.318   4.898   0.825
 4464SOL    HW214292   0.303   5.060   0.837
 4465SOL     OW14293   2.544   5.606   1.911
 4465SOL    HW114294   2.532   5.522   1.965
 4465SOL    HW214295   2.641   5.630   1.907
 4466SOL     OW14296   2.235   1.575   3.359
 4466SOL    HW114297   2.226   1.533   3.268
 4466SOL    HW214298   2.172   1.652   3.366
 4467SOL     OW14299   1.957   6.756   2.368
 4467SOL    HW114300   1.986   6.704   2.448
 4467SOL    HW214301   1.924   6.846   2.396
 4468SOL     OW14302   2.056   2.999   1.282
 4468SOL    HW114303   1.986   3.005   1.353
 4468SOL    HW214304   2.085   2.904   1.272
 4469SOL     OW14305   4.187   0.275   1.080
 4469SOL    HW114306   4.213   0.336   1.155
 4469SOL    HW214307   4.184   0.326   0.994
 4470SOL     OW14308   5.891   2.210   2.032
 4470SOL    HW114309   5.865   2.190   1.938
 4470SOL    HW214310   5.814   2.253   2.079
 4471SOL     OW14311   0.162   1.635   6.567
 4471SOL    HW114312   0.091   1.662   6.633
 4471SOL    HW214313   0.122   1.629   6.476
 4472SOL     OW14314   1.571   2.788   3.718
 4472SOL    HW114315   1.625   2.778   3.802
 4472SOL    HW214316   1.474   2.785   3.741
 4473SOL     OW14317   6.952   2.274   4.182
 4473SOL    HW114318   6.859   2.309   4.196
 4473SOL    HW214319   6.948   2.179   4.153
 4474SOL     OW14320   3.095   0.975   1.709
 4474SOL    HW114321   3.158   0.972   1.631
 4474SOL    HW214322   3.148   0.983   1.794
 4475SOL     OW14323   1.842   4.245   2.957
 4475SOL    HW114324   1.819   4.328   3.008
 4475SOL    HW214325   1.927   4.206   2.993
 4476SOL     OW14326   4.062   6.760   3.859
 4476SOL    HW114327   3.984   6.707   3.892
 4476SOL    HW214328   4.127   6.775   3.934
 4477SOL     OW14329   1.831   7.016   5.526
 4477SOL    HW114330   1.839   0.026   5.621
 4477SOL    HW214331   1.743   0.025   5.489
 4478SOL     OW14332   4.015   6.858   2.670
 4478SOL    HW114333   3.968   6.935   2.626
 4478SOL    HW214334   4.094   6.832   2.615
 4479SOL     OW14335   1.510   0.948   1.384
 4479SOL    HW114336   1.535   1.043   1.364
 4479SOL    HW214337   1.458   0.911   1.306
 4480SOL     OW14338   2.474   3.355   6.021
 4480SOL    HW114339   2.461   3.454   6.027
 4480SOL    HW214340   2.518   3.332   5.934
 4481SOL     OW14341   2.507   6.263   5.745
 4481SOL    HW114342   2.506   6.208   5.661
 4481SOL    HW214343   2.601   6.286   5.769
 4482SOL     OW14344   1.168   4.696   4.412
 4482SOL    HW114345   1.191   4.686   4.509
 4482SOL    HW214346   1.212   4.623   4.359
 4483SOL     OW14347   4.931   3.576   2.142
 4483SOL    HW114348   4.915   3.625   2.056
 4483SOL    HW214349   4.928   3.641   2.219
 4484SOL     OW14350   3.406   2.975   5.954
 4484SOL    HW114351   3.318   2.952   5.912
 4484SOL    HW214352   3.460   2.892   5.965
 4485SOL     OW14353   5.106   1.773   5.180
 4485SOL    HW114354   5.130   1.694   5.236
 4485SOL    HW214355   5.007   1.785   5.180
 4486SOL     OW14356   5.202   4.899   4.517
 4486SOL    HW114357   5.215   4.923   4.613
 4486SOL    HW214358   5.175   4.803   4.510
 4487SOL     OW14359   2.573   2.633   6.315
 4487SOL    HW114360   2.657   2.580   6.309
 4487SOL    HW214361   2.517   2.599   6.391
 4488SOL     OW14362   6.660   3.172   6.080
 4488SOL    HW114363   6.707   3.087   6.055
 4488SOL    HW214364   6.720   3.227   6.138
 4489SOL     OW14365   6.219   5.640   4.213
 4489SOL    HW114366   6.130   5.632   4.170
 4489SOL    HW214367   6.289   5.652   4.142
 4490SOL     OW14368   6.248   2.736   3.128
 4490SOL    HW114369   6.224   2.662   3.065
 4490SOL    HW214370   6.188   2.815   3.111
 4491SOL     OW14371   0.040   2.055   4.507
 4491SOL    HW114372   6.986   1.991   4.483
 4491SOL    HW214373   0.128   2.016   4.482
 4492SOL     OW14374   5.824   4.256   2.121
 4492SOL    HW114375   5.801   4.159   2.132
 4492SOL    HW214376   5.810   4.303   2.208
 4493SOL     OW14377   4.909   5.960   5.348
 4493SOL    HW114378   4.958   5.930   5.429
 4493SOL    HW214379   4.922   6.058   5.336
 4494SOL     OW14380   6.411   1.219   5.656
 4494SOL    HW114381   6.461   1.148   5.606
 4494SOL    HW214382   6.394   1.296   5.595
 4495SOL     OW14383   3.777   6.526   4.533
 4495SOL    HW114384   3.744   6.555   4.623
 4495SOL    HW214385   3.773   6.426   4.527
 4496SOL     OW14386   5.519   5.370   1.242
 4496SOL    HW114387   5.448   5.348   1.309
 4496SOL    HW214388   5.502   5.460   1.202
 4497SOL     OW14389   5.083   0.668   6.758
 4497SOL    HW114390   5.090   0.572   6.784
 4497SOL    HW214391   5.030   0.718   6.827
 4498SOL     OW14392   6.795   3.504   6.515
 4498SOL    HW114393   6.731   3.514   6.439
 4498SOL    HW214394   6.805   3.407   6.537
 4499SOL     OW14395   6.510   3.312   4.468
 4499SOL    HW114396   6.431   3.280   4.520
 4499SOL    HW214397   6.488   3.399   4.424
 4500SOL     OW14398   2.915   3.623   3.956
 4500SOL    HW114399   2.851   3.664   4.020
 4500SOL    HW214400   2.959   3.544   3.999
 4501SOL     OW14401   0.526   3.124   4.293
 4501SOL    HW114402   0.550   3.169   4.379
 4501SOL    HW214403   0.441   3.163   4.257
 4502SOL     OW14404   1.033   2.982   6.482
 4502SOL    HW114405   0.994   2.986   6.390
 4502SOL    HW214406   1.032   3.074   6.522
 4503SOL     OW14407   3.564   6.750   2.006
 4503SOL    HW114408   3.570   6.813   2.084
 4503SOL    HW214409   3.481   6.770   1.954
 4504SOL     OW14410   6.108   1.233   5.060
 4504SOL    HW114411   6.129   1.314   5.006
 4504SOL    HW214412   6.011   1.233   5.085
 4505SOL     OW14413   6.014   5.415   2.214
 4505SOL    HW114414   6.007   5.511   2.240
 4505SOL    HW214415   6.022   5.407   2.115
 4506SOL     OW14416   4.134   2.090   3.841
 4506SOL    HW114417   4.193   2.121   3.916
 4506SOL    HW214418   4.186   2.092   3.755
 4507SOL     OW14419   5.578   5.420   2.278
 4507SOL    HW114420   5.484   5.402   2.308
 4507SOL    HW214421   5.642   5.378   2.342
 4508SOL     OW14422   0.893   4.350   6.298
 4508SOL    HW114423   0.894   4.431   6.239
 4508SOL    HW214424   0.987   4.327   6.325
 4509SOL     OW14425   4.922   2.382   2.243
 4509SOL    HW114426   4.984   2.323   2.296
 4509SOL    HW214427   4.831   2.342   2.242
 4510SOL     OW14428   4.535   0.959   4.435
 4510SOL    HW114429   4.438   0.983   4.431
 4510SOL    HW214430   4.559   0.933   4.529
 4511SOL     OW14431   0.171   3.155   6.713
 4511SOL    HW114432   0.246   3.096   6.742
 4511SOL    HW214433   0.174   3.166   6.613
 4512SOL     OW14434   2.768   0.190   4.903
 4512SOL    HW114435   2.857   0.155   4.931
 4512SOL    HW214436   2.737   0.259   4.969
 4513SOL     OW14437   5.911   5.242   0.593
 4513SOL    HW114438   5.870   5.320   0.547
 4513SOL    HW214439   5.972   5.274   0.665
 4514SOL     OW14440   4.771   1.261   6.384
 4514SOL    HW114441   4.768   1.360   6.392
 4514SOL    HW214442   4.678   1.225   6.380
 4515SOL     OW14443   6.994   2.230   5.666
 4515SOL    HW114444   6.930   2.217   5.590
 4515SOL    HW214445   0.022   2.144   5.685
 4516SOL     OW14446   1.253   0.472   6.832
 4516SOL    HW114447   1.238   0.421   6.748
 4516SOL    HW214448   1.244   0.570   6.813
 4517SOL     OW14449   3.317   0.912   6.533
 4517SOL    HW114450   3.244   0.862   6.486
 4517SOL    HW214451   3.394   0.851   6.551
 4518SOL     OW14452   0.077   0.405   2.839
 4518SOL    HW114453   0.049   0.310   2.852
 4518SOL    HW214454   0.001   0.465   2.860
 4519SOL     OW14455   5.992   0.753   1.315
 4519SOL    HW114456   6.013   0.669   1.365
 4519SOL    HW214457   5.958   0.731   1.224
 4520SOL     OW14458   4.669   6.044   4.556
 4520SOL    HW114459   4.582   6.046   4.604
 4520SOL    HW214460   4.653   6.043   4.458
 4521SOL     OW14461   6.271   1.903   4.273
 4521SOL    HW114462   6.364   1.915   4.238
 4521SOL    HW214463   6.205   1.942   4.209
 4522SOL     OW14464   6.273   6.960   3.500
 4522SOL    HW114465   6.228   6.876   3.471
 4522SOL    HW214466   6.368   6.960   3.467
 4523SOL     OW14467   1.506   4.525   0.408
 4523SOL    HW114468   1.538   4.553   0.499
 4523SOL    HW214469   1.552   4.441   0.380
 4524SOL     OW14470   5.564   2.456   3.558
 4524SOL    HW114471   5.551   2.555   3.563
 4524SOL    HW214472   5.642   2.435   3.498
 4525SOL     OW14473   5.111   0.959   4.051
 4525SOL    HW114474   5.145   0.997   4.137
 4525SOL    HW214475   5.096   1.033   3.985
 4526SOL     OW14476   6.156   0.301   1.160
 4526SOL    HW114477   6.217   0.362   1.109
 4526SOL    HW214478   6.204   0.263   1.239
 4527SOL     OW14479   4.861   1.552   3.389
 4527SOL    HW114480   4.843   1.454   3.377
 4527SOL    HW214481   4.827   1.581   3.478
 4528SOL     OW14482   4.766   0.348   0.193
 4528SOL    HW114483   4.834   0.413   0.159
 4528SOL    HW214484   4.719   0.389   0.272
 4529SOL     OW14485   3.316   1.366   5.095
 4529SOL    HW114486   3.286   1.424   5.171
 4529SOL    HW214487   3.413   1.345   5.106
 4530SOL     OW14488   1.790   3.857   6.181
 4530SOL    HW114489   1.700   3.874   6.221
 4530SOL    HW214490   1.818   3.763   6.200
 4531SOL     OW14491   0.274   3.357   4.589
 4531SOL    HW114492   0.243   3.428   4.652
 4531SOL    HW214493   0.311   3.400   4.506
 4532SOL     OW14494   5.969   2.073   3.497
 4532SOL    HW114495   5.919   2.143   3.549
 4532SOL    HW214496   6.049   2.044   3.549
 4533SOL     OW14497   1.714   0.939   2.042
 4533SOL    HW114498   1.724   0.922   2.140
 4533SOL    HW214499   1.770   0.874   1.990
 4534SOL     OW14500   4.590   4.410   4.662
 4534SOL    HW114501   4.600   4.389   4.759
 4534SOL    HW214502   4.526   4.486   4.650
 4535SOL     OW14503   4.929   1.067   2.337
 4535SOL    HW114504   4.934   1.111   2.427
 4535SOL    HW214505   4.998   1.107   2.276
 4536SOL     OW14506   4.056   1.015   3.779
 4536SOL    HW114507   4.156   1.020   3.771
 4536SOL    HW214508   4.014   1.071   3.707
 4537SOL     OW14509   3.672   2.932   6.255
 4537SOL    HW114510   3.642   2.900   6.166
 4537SOL    HW214511   3.621   3.015   6.280
 4538SOL     OW14512   2.267   0.267   4.174
 4538SOL    HW114513   2.271   0.173   4.209
 4538SOL    HW214514   2.326   0.276   4.094
 4539SOL     OW14515   2.145   0.502   5.032
 4539SOL    HW114516   2.122   0.584   4.979
 4539SOL    HW214517   2.084   0.427   5.004
 4540SOL     OW14518   2.968   2.660   5.341
 4540SOL    HW114519   2.875   2.687   5.368
 4540SOL    HW214520   2.972   2.561   5.330
 4541SOL     OW14521   6.280   1.519   1.084
 4541SOL    HW114522   6.302   1.448   1.017
 4541SOL    HW214523   6.184   1.545   1.075
 4542SOL     OW14524   6.544   1.159   2.875
 4542SOL    HW114525   6.603   1.212   2.936
 4542SOL    HW214526   6.520   1.214   2.796
 4543SOL     OW14527   4.609   2.076   1.372
 4543SOL    HW114528   4.668   2.142   1.419
 4543SOL    HW214529   4.520   2.119   1.353
 4544SOL     OW14530   3.122   6.310   6.159
 4544SOL    HW114531   3.045   6.254   6.127
 4544SOL    HW214532   3.091   6.404   6.175
 4545SOL     OW14533   5.247   3.661   4.927
 4545SOL    HW114534   5.329   3.695   4.972
 4545SOL    HW214535   5.272   3.618   4.840
 4546SOL     OW14536   1.761   1.335   5.876
 4546SOL    HW114537   1.752   1.260   5.942
 4546SOL    HW214538   1.678   1.391   5.878
 4547SOL     OW14539   5.993   2.541   3.190
 4547SOL    HW114540   6.062   2.503   3.252
 4547SOL    HW214541   5.934   2.467   3.158
 4548SOL     OW14542   1.314   4.009   4.432
 4548SOL    HW114543   1.407   4.043   4.418
 4548SOL    HW214544   1.305   3.919   4.389
 4549SOL     OW14545   6.082   4.301   2.152
 4549SOL    HW114546   6.074   4.247   2.236
 4549SOL    HW214547   5.990   4.318   2.115
 4550SOL     OW14548   1.189   5.919   3.360
 4550SOL    HW114549   1.264   5.955   3.415
 4550SOL    HW214550   1.149   5.992   3.305
 4551SOL     OW14551   6.952   1.790   5.499
 4551SOL    HW114552   0.030   1.808   5.512
 4551SOL    HW214553   6.914   1.857   5.435
 4552SOL     OW14554   6.374   2.710   0.683
 4552SOL    HW114555   6.470   2.733   0.698
 4552SOL    HW214556   6.364   2.673   0.590
 4553SOL     OW14557   3.660   4.628   6.788
 4553SOL    HW114558   3.625   4.702   6.845
 4553SOL    HW214559   3.737   4.584   6.835
 4554SOL     OW14560   5.257   0.551   1.550
 4554SOL    HW114561   5.352   0.544   1.520
 4554SOL    HW214562   5.205   0.604   1.483
 4555SOL     OW14563   3.264   1.525   5.676
 4555SOL    HW114564   3.291   1.432   5.701
 4555SOL    HW214565   3.169   1.526   5.647
 4556SOL     OW14566   4.657   2.201   4.147
 4556SOL    HW114567   4.616   2.209   4.237
 4556SOL    HW214568   4.723   2.126   4.147
 4557SOL     OW14569   4.983   6.491   5.081
 4557SOL    HW114570   4.886   6.481   5.061
 4557SOL    HW214571   4.996   6.511   5.178
 4558SOL     OW14572   0.777   3.953   4.826
 4558SOL    HW114573   0.686   3.937   4.788
 4558SOL    HW214574   0.771   4.008   4.908
 4559SOL     OW14575   0.253   3.888   2.145
 4559SOL    HW114576   0.184   3.960   2.140
 4559SOL    HW214577   0.212   3.804   2.179
 4560SOL     OW14578   5.349   5.188   2.624
 4560SOL    HW114579   5.299   5.199   2.538
 4560SOL    HW214580   5.422   5.256   2.628
 4561SOL     OW14581   2.638   0.978   2.067
 4561SOL    HW114582   2.575   0.909   2.103
 4561SOL    HW214583   2.653   0.962   1.970
 4562SOL     OW14584   3.175   6.465   4.659
 4562SOL    HW114585   3.130   6.532   4.600
 4562SOL    HW214586   3.180   6.500   4.752
 4563SOL     OW14587   0.315   3.570   1.296
 4563SOL    HW114588   0.244   3.640   1.306
 4563SOL    HW214589   0.386   3.603   1.235
 4564SOL     OW14590   6.339   6.717   0.789
 4564SOL    HW114591   6.333   6.664   0.873
 4564SOL    HW214592   6.360   6.656   0.712
 4565SOL     OW14593   0.118   1.518   5.647
 4565SOL    HW114594   0.069   1.504   5.733
 4565SOL    HW214595   0.060   1.491   5.570
 4566SOL     OW14596   6.681   2.182   1.038
 4566SOL    HW114597   6.762   2.223   1.080
 4566SOL    HW214598   6.615   2.253   1.015
 4567SOL     OW14599   6.976   0.421   0.164
 4567SOL    HW114600   6.926   0.334   0.159
 4567SOL    HW214601   6.996   0.453   0.072
 4568SOL     OW14602   2.093   3.987   5.878
 4568SOL    HW114603   1.994   3.999   5.867
 4568SOL    HW214604   2.141   4.061   5.830
 4569SOL     OW14605   1.894   1.452   3.363
 4569SOL    HW114606   1.815   1.507   3.389
 4569SOL    HW214607   1.956   1.443   3.441
 4570SOL     OW14608   0.571   6.407   3.322
 4570SOL    HW114609   0.482   6.450   3.339
 4570SOL    HW214610   0.593   6.412   3.225
 4571SOL     OW14611   4.002   3.601   5.886
 4571SOL    HW114612   4.093   3.561   5.879
 4571SOL    HW214613   4.002   3.693   5.847
 4572SOL     OW14614   1.395   6.678   6.615
 4572SOL    HW114615   1.388   6.602   6.551
 4572SOL    HW214616   1.489   6.714   6.614
 4573SOL     OW14617   6.086   6.605   0.436
 4573SOL    HW114618   6.124   6.576   0.348
 4573SOL    HW214619   6.078   6.525   0.496
 4574SOL     OW14620   6.753   4.040   1.240
 4574SOL    HW114621   6.774   4.120   1.185
 4574SOL    HW214622   6.654   4.034   1.255
 4575SOL     OW14623   5.935   1.817   6.583
 4575SOL    HW114624   5.837   1.823   6.566
 4575SOL    HW214625   5.978   1.906   6.565
 4576SOL     OW14626   2.619   6.280   6.144
 4576SOL    HW114627   2.555   6.247   6.075
 4576SOL    HW214628   2.588   6.368   6.179
 4577SOL     OW14629   1.120   1.971   4.777
 4577SOL    HW114630   1.136   1.881   4.817
 4577SOL    HW214631   1.176   2.039   4.824
 4578SOL     OW14632   1.167   3.596   4.746
 4578SOL    HW114633   1.120   3.569   4.662
 4578SOL    HW214634   1.262   3.620   4.725
 4579SOL     OW14635   4.846   2.398   3.215
 4579SOL    HW114636   4.861   2.481   3.161
 4579SOL    HW214637   4.750   2.392   3.242
 4580SOL     OW14638   4.893   4.467   0.013
 4580SOL    HW114639   4.941   4.403   0.072
 4580SOL    HW214640   4.881   4.554   0.061
 4581SOL     OW14641   2.779   4.714   2.567
 4581SOL    HW114642   2.752   4.728   2.662
 4581SOL    HW214643   2.815   4.621   2.556
 4582SOL     OW14644   6.014   6.535   4.796
 4582SOL    HW114645   5.935   6.475   4.789
 4582SOL    HW214646   6.077   6.499   4.865
 4583SOL     OW14647   2.377   2.028   5.860
 4583SOL    HW114648   2.359   1.971   5.779
 4583SOL    HW214649   2.306   2.098   5.868
 4584SOL     OW14650   0.258   5.368   6.249
 4584SOL    HW114651   0.176   5.404   6.206
 4584SOL    HW214652   0.295   5.292   6.195
 4585SOL     OW14653   2.372   6.960   3.025
 4585SOL    HW114654   2.426   7.009   2.956
 4585SOL    HW214655   2.359   7.019   3.105
 4586SOL     OW14656   3.344   4.598   0.681
 4586SOL    HW114657   3.382   4.631   0.767
 4586SOL    HW214658   3.339   4.498   0.683
 4587SOL     OW14659   3.785   3.702   2.266
 4587SOL    HW114660   3.789   3.801   2.257
 4587SOL    HW214661   3.709   3.676   2.325
 4588SOL     OW14662   3.870   3.847   4.993
 4588SOL    HW114663   3.939   3.829   5.064
 4588SOL    HW214664   3.884   3.938   4.955
 4589SOL     OW14665   5.962   0.901   2.215
 4589SOL    HW114666   5.904   0.937   2.288
 4589SOL    HW214667   5.938   0.944   2.128
 4590SOL     OW14668   5.025   5.709   0.331
 4590SOL    HW114669   4.987   5.721   0.239
 4590SOL    HW214670   4.978   5.634   0.377
 4591SOL     OW14671   0.541   6.484   4.430
 4591SOL    HW114672   0.616   6.419   4.430
 4591SOL    HW214673   0.471   6.456   4.496
 4592SOL     OW14674   3.362   1.554   1.670
 4592SOL    HW114675   3.436   1.602   1.716
 4592SOL    HW214676   3.308   1.619   1.617
 4593SOL     OW14677   4.417   5.384   3.716
 4593SOL    HW114678   4.445   5.477   3.740
 4593SOL    HW214679   4.497   5.325   3.714
 4594SOL     OW14680   3.265   1.256   2.215
 4594SOL    HW114681   3.318   1.172   2.202
 4594SOL    HW214682   3.302   1.327   2.155
 4595SOL     OW14683   4.104   2.267   6.599
 4595SOL    HW114684   4.175   2.329   6.630
 4595SOL    HW214685   4.077   2.206   6.673
 4596SOL     OW14686   6.260   6.766   2.574
 4596SOL    HW114687   6.225   6.673   2.580
 4596SOL    HW214688   6.252   6.798   2.479
 4597SOL     OW14689   4.224   4.705   6.389
 4597SOL    HW114690   4.212   4.626   6.449
 4597SOL    HW214691   4.161   4.697   6.311
 4598SOL     OW14692   2.075   5.967   0.150
 4598SOL    HW114693   2.100   6.035   0.082
 4598SOL    HW214694   2.018   5.896   0.107
 4599SOL     OW14695   0.691   5.323   0.828
 4599SOL    HW114696   0.775   5.377   0.833
 4599SOL    HW214697   0.668   5.307   0.732
 4600SOL     OW14698   1.548   4.745   5.381
 4600SOL    HW114699   1.465   4.781   5.425
 4600SOL    HW214700   1.533   4.650   5.354
 4601SOL     OW14701   1.913   0.442   5.717
 4601SOL    HW114702   1.830   0.409   5.673
 4601SOL    HW214703   1.983   0.370   5.715
 4602SOL     OW14704   1.286   5.717   1.171
 4602SOL    HW114705   1.212   5.782   1.191
 4602SOL    HW214706   1.361   5.732   1.236
 4603SOL     OW14707   3.206   5.952   0.733
 4603SOL    HW114708   3.225   5.927   0.638
 4603SOL    HW214709   3.232   6.047   0.748
 4604SOL     OW14710   4.504   0.359   1.173
 4604SOL    HW114711   4.411   0.379   1.205
 4604SOL    HW214712   4.524   0.262   1.188
 4605SOL     OW14713   3.382   0.500   3.234
 4605SOL    HW114714   3.374   0.446   3.318
 4605SOL    HW214715   3.401   0.439   3.157
 4606SOL     OW14716   1.220   0.341   2.184
 4606SOL    HW114717   1.175   0.351   2.272
 4606SOL    HW214718   1.177   0.401   2.117
 4607SOL     OW14719   2.178   2.445   1.198
 4607SOL    HW114720   2.087   2.406   1.187
 4607SOL    HW214721   2.242   2.397   1.138
 4608SOL     OW14722   0.685   6.032   3.874
 4608SOL    HW114723   0.617   6.101   3.899
 4608SOL    HW214724   0.747   6.069   3.804
 4609SOL     OW14725   4.460   4.750   6.511
 4609SOL    HW114726   4.369   4.739   6.471
 4609SOL    HW214727   4.513   4.815   6.455
 4610SOL     OW14728   5.104   2.856   0.663
 4610SOL    HW114729   5.041   2.785   0.628
 4610SOL    HW214730   5.177   2.870   0.597
 4611SOL     OW14731   0.069   6.145   5.817
 4611SOL    HW114732   0.021   6.162   5.731
 4611SOL    HW214733   0.014   6.083   5.874
 4612SOL     OW14734   1.057   6.443   0.040
 4612SOL    HW114735   1.114   6.448   0.122
 4612SOL    HW214736   1.076   6.359   7.010
 4613SOL     OW14737   1.980   6.091   2.065
 4613SOL    HW114738   2.051   6.024   2.085
 4613SOL    HW214739   1.892   6.058   2.097
 4614SOL     OW14740   6.710   3.397   4.878
 4614SOL    HW114741   6.730   3.481   4.927
 4614SOL    HW214742   6.726   3.318   4.938
 4615SOL     OW14743   1.574   0.572   0.105
 4615SOL    HW114744   1.477   0.575   0.080
 4615SOL    HW214745   1.597   0.482   0.142
 4616SOL     OW14746   6.393   0.726   5.586
 4616SOL    HW114747   6.383   0.626   5.576
 4616SOL    HW214748   6.330   0.758   5.656
 4617SOL     OW14749   0.717   2.364   2.155
 4617SOL    HW114750   0.677   2.450   2.187
 4617SOL    HW214751   0.647   2.293   2.153
 4618SOL     OW14752   2.198   3.165   4.838
 4618SOL    HW114753   2.242   3.102   4.903
 4618SOL    HW214754   2.206   3.259   4.872
 4619SOL     OW14755   3.513   6.265   3.281
 4619SOL    HW114756   3.586   6.206   3.247
 4619SOL    HW214757   3.538   6.300   3.371
 4620SOL     OW14758   2.422   4.968   0.465
 4620SOL    HW114759   2.410   4.988   0.368
 4620SOL    HW214760   2.373   4.883   0.487
 4621SOL     OW14761   5.256   1.164   2.452
 4621SOL    HW114762   5.205   1.198   2.531
 4621SOL    HW214763   5.331   1.227   2.431
 4622SOL     OW14764   2.298   4.483   0.414
 4622SOL    HW114765   2.206   4.446   0.398
 4622SOL    HW214766   2.366   4.412   0.397
 4623SOL     OW14767   5.799   0.024   0.623
 4623SOL    HW114768   5.810   6.955   0.576
 4623SOL    HW214769   5.796   0.009   0.722
 4624SOL     OW14770   5.363   0.167   3.173
 4624SOL    HW114771   5.438   0.106   3.200
 4624SOL    HW214772   5.401   0.249   3.132
 4625SOL     OW14773   1.430   3.944   0.603
 4625SOL    HW114774   1.470   3.852   0.604
 4625SOL    HW214775   1.365   3.952   0.678
 4626SOL     OW14776   5.310   5.450   2.359
 4626SOL    HW114777   5.356   5.539   2.361
 4626SOL    HW214778   5.255   5.442   2.276
 4627SOL     OW14779   2.732   4.742   4.294
 4627SOL    HW114780   2.831   4.758   4.297
 4627SOL    HW214781   2.712   4.650   4.326
 4628SOL     OW14782   6.303   4.662   4.283
 4628SOL    HW114783   6.286   4.759   4.264
 4628SOL    HW214784   6.370   4.626   4.218
 4629SOL     OW14785   1.879   5.092   5.625
 4629SOL    HW114786   1.932   5.076   5.708
 4629SOL    HW214787   1.931   5.058   5.546
 4630SOL     OW14788   3.897   5.413   2.463
 4630SOL    HW114789   3.803   5.382   2.446
 4630SOL    HW214790   3.916   5.409   2.561
 4631SOL     OW14791   2.044   6.284   2.874
 4631SOL    HW114792   2.127   6.324   2.834
 4631SOL    HW214793   2.020   6.334   2.957
 4632SOL     OW14794   3.682   5.242   2.512
 4632SOL    HW114795   3.638   5.280   2.594
 4632SOL    HW214796   3.769   5.200   2.538
 4633SOL     OW14797   5.618   1.231   4.403
 4633SOL    HW114798   5.646   1.206   4.310
 4633SOL    HW214799   5.524   1.265   4.401
 4634SOL     OW14800   2.772   5.016   5.990
 4634SOL    HW114801   2.752   4.937   5.931
 4634SOL    HW214802   2.714   5.013   6.070
 4635SOL     OW14803   5.485   3.734   1.037
 4635SOL    HW114804   5.429   3.721   1.119
 4635SOL    HW214805   5.443   3.803   0.979
 4636SOL     OW14806   1.814   4.800   0.476
 4636SOL    HW114807   1.749   4.876   0.485
 4636SOL    HW214808   1.884   4.824   0.408
 4637SOL     OW14809   0.563   6.769   0.456
 4637SOL    HW114810   0.527   6.712   0.530
 4637SOL    HW214811   0.637   6.720   0.410
 4638SOL     OW14812   5.071   3.404   0.016
 4638SOL    HW114813   5.129   3.486   0.018
 4638SOL    HW214814   5.129   3.322   0.026
 4639SOL     OW14815   2.900   4.239   5.375
 4639SOL    HW114816   2.930   4.254   5.469
 4639SOL    HW214817   2.939   4.310   5.316
 4640SOL     OW14818   4.703   4.236   3.424
 4640SOL    HW114819   4.730   4.145   3.393
 4640SOL    HW214820   4.654   4.283   3.350
 4641SOL     OW14821   2.080   6.541   5.242
 4641SOL    HW114822   2.080   6.612   5.172
 4641SOL    HW214823   1.985   6.516   5.265
 4642SOL     OW14824   0.230   5.737   4.066
 4642SOL    HW114825   0.326   5.762   4.082
 4642SOL    HW214826   0.223   5.638   4.057
 4643SOL     OW14827   5.872   3.212   1.381
 4643SOL    HW114828   5.928   3.278   1.330
 4643SOL    HW214829   5.791   3.258   1.416
 4644SOL     OW14830   6.905   4.900   5.009
 4644SOL    HW114831   6.968   4.966   5.050
 4644SOL    HW214832   6.889   4.824   5.073
 4645SOL     OW14833   0.838   1.192   4.428
 4645SOL    HW114834   0.808   1.103   4.464
 4645SOL    HW214835   0.858   1.254   4.504
 4646SOL     OW14836   1.872   6.014   3.776
 4646SOL    HW114837   1.867   5.933   3.835
 4646SOL    HW214838   1.783   6.030   3.733
 4647SOL     OW14839   1.509   1.042   3.592
 4647SOL    HW114840   1.428   0.991   3.562
 4647SOL    HW214841   1.503   1.136   3.558
 4648SOL     OW14842   4.352   1.178   2.408
 4648SOL    HW114843   4.433   1.140   2.453
 4648SOL    HW214844   4.272   1.164   2.467
 4649SOL     OW14845   5.228   0.166   6.742
 4649SOL    HW114846   5.158   0.225   6.701
 4649SOL    HW214847   5.243   0.087   6.684
 4650SOL     OW14848   4.917   5.409   3.032
 4650SOL    HW114849   4.869   5.329   3.070
 4650SOL    HW214850   5.004   5.421   3.079
 4651SOL     OW14851   7.009   2.205   0.409
 4651SOL    HW114852   6.944   2.132   0.387
 4651SOL    HW214853   0.051   2.175   0.482
 4652SOL     OW14854   6.826   0.243   4.476
 4652SOL    HW114855   6.734   0.232   4.511
 4652SOL    HW214856   6.845   0.172   4.408
 4653SOL     OW14857   5.811   4.820   0.355
 4653SOL    HW114858   5.882   4.754   0.331
 4653SOL    HW214859   5.830   4.859   0.445
 4654SOL     OW14860   1.242   6.646   0.023
 4654SOL    HW114861   1.166   6.583   0.004
 4654SOL    HW214862   1.229   6.688   0.112
 4655SOL     OW14863   5.882   4.251   1.807
 4655SOL    HW114864   5.881   4.282   1.901
 4655SOL    HW214865   5.796   4.277   1.762
 4656SOL     OW14866   1.091   0.768   3.430
 4656SOL    HW114867   1.040   0.752   3.515
 4656SOL    HW214868   1.032   0.814   3.364
 4657SOL     OW14869   5.265   5.979   1.395
 4657SOL    HW114870   5.183   5.943   1.438
 4657SOL    HW214871   5.346   5.946   1.444
 4658SOL     OW14872   4.196   0.882   2.891
 4658SOL    HW114873   4.113   0.879   2.947
 4658SOL    HW214874   4.244   0.968   2.907
 4659SOL     OW14875   3.147   4.508   5.358
 4659SOL    HW114876   3.070   4.499   5.295
 4659SOL    HW214877   3.187   4.418   5.376
 4660SOL     OW14878   1.380   4.356   6.056
 4660SOL    HW114879   1.423   4.326   6.141
 4660SOL    HW214880   1.436   4.428   6.014
 4661SOL     OW14881   3.454   4.316   6.021
 4661SOL    HW114882   3.476   4.407   6.057
 4661SOL    HW214883   3.472   4.314   5.923
 4662SOL     OW14884   3.647   6.989   5.274
 4662SOL    HW114885   3.563   0.023   5.287
 4662SOL    HW214886   3.676   6.951   5.362
 4663SOL     OW14887   0.510   1.810   2.406
 4663SOL    HW114888   0.596   1.819   2.356
 4663SOL    HW214889   0.528   1.775   2.498
 4664SOL     OW14890   1.284   1.282   0.615
 4664SOL    HW114891   1.384   1.295   0.612
 4664SOL    HW214892   1.239   1.370   0.602
 4665SOL     OW14893   3.519   6.771   6.835
 4665SOL    HW114894   3.518   6.776   6.934
 4665SOL    HW214895   3.490   6.859   6.797
 4666SOL     OW14896   1.328   1.925   0.944
 4666SOL    HW114897   1.343   2.000   1.008
 4666SOL    HW214898   1.277   1.852   0.990
 4667SOL     OW14899   5.800   3.648   2.678
 4667SOL    HW114900   5.769   3.569   2.624
 4667SOL    HW214901   5.723   3.684   2.730
 4668SOL     OW14902   5.043   1.775   2.563
 4668SOL    HW114903   4.949   1.792   2.535
 4668SOL    HW214904   5.048   1.688   2.612
 4669SOL     OW14905   4.846   6.146   6.789
 4669SOL    HW114906   4.841   6.193   6.701
 4669SOL    HW214907   4.899   6.061   6.779
 4670SOL     OW14908   3.010   2.037   5.178
 4670SOL    HW114909   3.057   2.116   5.139
 4670SOL    HW214910   3.014   2.042   5.278
 4671SOL     OW14911   6.848   2.980   2.251
 4671SOL    HW114912   6.797   3.048   2.198
 4671SOL    HW214913   6.877   3.020   2.337
 4672SOL     OW14914   3.050   4.674   6.351
 4672SOL    HW114915   3.026   4.629   6.265
 4672SOL    HW214916   2.975   4.732   6.381
 4673SOL     OW14917   5.137   6.621   1.534
 4673SOL    HW114918   5.187   6.535   1.531
 4673SOL    HW214919   5.061   6.614   1.599
 4674SOL     OW14920   4.897   0.194   6.411
 4674SOL    HW114921   4.839   0.121   6.375
 4674SOL    HW214922   4.993   0.169   6.400
 4675SOL     OW14923   1.001   1.419   6.259
 4675SOL    HW114924   0.976   1.423   6.162
 4675SOL    HW214925   0.921   1.393   6.313
 4676SOL     OW14926   0.075   6.350   3.490
 4676SOL    HW114927   0.138   6.380   3.561
 4676SOL    HW214928   0.030   6.429   3.449
 4677SOL     OW14929   2.981   1.306   6.758
 4677SOL    HW114930   3.046   1.288   6.685
 4677SOL    HW214931   2.898   1.252   6.743
 4678SOL     OW14932   1.968   4.706   3.514
 4678SOL    HW114933   2.066   4.726   3.520
 4678SOL    HW214934   1.953   4.607   3.521
 4679SOL     OW14935   3.780   0.431   0.306
 4679SOL    HW114936   3.862   0.488   0.307
 4679SOL    HW214937   3.763   0.398   0.213
 4680SOL     OW14938   2.862   1.834   6.709
 4680SOL    HW114939   2.924   1.903   6.672
 4680SOL    HW214940   2.914   1.751   6.731
 4681SOL     OW14941   5.250   5.273   7.005
 4681SOL    HW114942   5.186   5.234   0.052
 4681SOL    HW214943   5.263   5.208   6.930
 4682SOL     OW14944   4.774   4.379   5.368
 4682SOL    HW114945   4.836   4.373   5.290
 4682SOL    HW214946   4.785   4.468   5.413
 4683SOL     OW14947   4.883   5.034   2.076
 4683SOL    HW114948   4.929   5.054   2.162
 4683SOL    HW214949   4.949   5.035   2.001
 4684SOL     OW14950   5.544   0.388   5.234
 4684SOL    HW114951   5.536   0.475   5.284
 4684SOL    HW214952   5.609   0.400   5.159
 4685SOL     OW14953   1.084   5.532   5.703
 4685SOL    HW114954   1.050   5.506   5.612
 4685SOL    HW214955   1.183   5.518   5.706
 4686SOL     OW14956   4.340   4.904   0.144
 4686SOL    HW114957   4.294   4.829   0.096
 4686SOL    HW214958   4.288   4.928   0.225
 4687SOL     OW14959   5.537   3.331   4.147
 4687SOL    HW114960   5.467   3.305   4.214
 4687SOL    HW214961   5.626   3.299   4.178
 4688SOL     OW14962   5.835   4.084   5.003
 4688SOL    HW114963   5.847   3.988   5.030
 4688SOL    HW214964   5.747   4.117   5.036
 4689SOL     OW14965   4.354   0.813   0.051
 4689SOL    HW114966   4.265   0.769   0.056
 4689SOL    HW214967   4.425   0.752   0.087
 4690SOL     OW14968   0.867   0.395   6.824
 4690SOL    HW114969   0.928   0.402   6.745
 4690SOL    HW214970   0.825   0.304   6.826
 4691SOL     OW14971   2.641   4.904   1.150
 4691SOL    HW114972   2.707   4.854   1.094
 4691SOL    HW214973   2.602   4.843   1.219
 4692SOL     OW14974   5.406   5.522   2.043
 4692SOL    HW114975   5.385   5.604   2.098
 4692SOL    HW214976   5.475   5.467   2.091
 4693SOL     OW14977   1.632   2.169   3.657
 4693SOL    HW114978   1.544   2.122   3.654
 4693SOL    HW214979   1.641   2.216   3.745
 4694SOL     OW14980   1.914   0.727   0.280
 4694SOL    HW114981   1.951   0.648   0.230
 4694SOL    HW214982   1.928   0.810   0.226
 4695SOL     OW14983   0.927   4.032   2.163
 4695SOL    HW114984   0.868   3.960   2.202
 4695SOL    HW214985   0.915   4.116   2.216
 4696SOL     OW14986   0.013   4.017   7.017
 4696SOL    HW114987   0.006   4.056   6.925
 4696SOL    HW214988   7.014   4.088   0.066
 4697SOL     OW14989   1.425   3.285   1.077
 4697SOL    HW114990   1.454   3.205   1.128
 4697SOL    HW214991   1.473   3.366   1.111
 4698SOL     OW14992   4.478   5.526   2.568
 4698SOL    HW114993   4.496   5.497   2.474
 4698SOL    HW214994   4.467   5.445   2.626
 4699SOL     OW14995   1.153   6.746   2.108
 4699SOL    HW114996   1.082   6.801   2.066
 4699SOL    HW214997   1.114   6.658   2.137
 4700SOL     OW14998   0.057   0.936   2.988
 4700SOL    HW114999   0.011   0.848   3.001
 4700SOL    HW215000   7.012   1.010   3.006
 4701SOL     OW15001   2.800   2.509   0.640
 4701SOL    HW115002   2.773   2.421   0.602
 4701SOL    HW215003   2.784   2.509   0.739
 4702SOL     OW15004   4.764   4.724   0.114
 4702SOL    HW115005   4.720   4.753   0.199
 4702SOL    HW215006   4.710   4.755   0.036
 4703SOL     OW15007   0.264   1.631   2.275
 4703SOL    HW115008   0.224   1.719   2.298
 4703SOL    HW215009   0.199   1.577   2.222
 4704SOL     OW15010   0.320   6.011   6.587
 4704SOL    HW115011   0.381   5.988   6.663
 4704SOL    HW215012   0.229   5.974   6.604
 4705SOL     OW15013   3.651   2.460   1.377
 4705SOL    HW115014   3.636   2.514   1.460
 4705SOL    HW215015   3.693   2.372   1.402
 4706SOL     OW15016   2.751   6.885   0.719
 4706SOL    HW115017   2.811   6.808   0.696
 4706SOL    HW215018   2.683   6.896   0.647
 4707SOL     OW15019   1.411   6.623   0.636
 4707SOL    HW115020   1.424   6.594   0.541
 4707SOL    HW215021   1.437   6.719   0.645
 4708SOL     OW15022   1.253   2.264   6.379
 4708SOL    HW115023   1.306   2.217   6.308
 4708SOL    HW215024   1.298   2.254   6.467
 4709SOL     OW15025   4.709   5.801   5.295
 4709SOL    HW115026   4.788   5.856   5.324
 4709SOL    HW215027   4.639   5.862   5.258
 4710SOL     OW15028   4.577   0.105   5.800
 4710SOL    HW115029   4.515   0.182   5.816
 4710SOL    HW215030   4.605   0.066   5.888
 4711SOL     OW15031   5.855   1.424   1.667
 4711SOL    HW115032   5.821   1.349   1.610
 4711SOL    HW215033   5.779   1.484   1.691
 4712SOL     OW15034   3.517   4.651   0.154
 4712SOL    HW115035   3.507   4.750   0.144
 4712SOL    HW215036   3.450   4.616   0.219
 4713SOL     OW15037   3.683   3.858   0.914
 4713SOL    HW115038   3.591   3.827   0.934
 4713SOL    HW215039   3.682   3.913   0.830
 4714SOL     OW15040   1.001   2.110   6.207
 4714SOL    HW115041   1.039   2.188   6.258
 4714SOL    HW215042   0.953   2.143   6.126
 4715SOL     OW15043   6.281   3.152   2.509
 4715SOL    HW115044   6.208   3.129   2.573
 4715SOL    HW215045   6.281   3.087   2.432
 4716SOL     OW15046   4.156   6.367   6.192
 4716SOL    HW115047   4.124   6.462   6.193
 4716SOL    HW215048   4.080   6.306   6.216
 4717SOL     OW15049   0.012   6.322   4.127
 4717SOL    HW115050   6.989   6.232   4.114
 4717SOL    HW215051   0.040   6.331   4.223
 4718SOL     OW15052   5.881   2.563   1.241
 4718SOL    HW115053   5.922   2.642   1.195
 4718SOL    HW215054   5.898   2.481   1.187
 4719SOL     OW15055   4.936   3.235   1.861
 4719SOL    HW115056   4.896   3.199   1.777
 4719SOL    HW215057   4.922   3.170   1.936
 4720SOL     OW15058   2.074   5.419   6.123
 4720SOL    HW115059   2.060   5.378   6.213
 4720SOL    HW215060   2.136   5.362   6.070
 4721SOL     OW15061   6.310   1.906   2.152
 4721SOL    HW115062   6.358   1.820   2.166
 4721SOL    HW215063   6.376   1.978   2.130
 4722SOL     OW15064   1.059   6.074   6.745
 4722SOL    HW115065   0.979   6.044   6.694
 4722SOL    HW215066   1.141   6.030   6.707
 4723SOL     OW15067   2.795   3.093   5.997
 4723SOL    HW115068   2.715   3.061   6.047
 4723SOL    HW215069   2.875   3.040   6.023
 4724SOL     OW15070   6.080   6.716   3.373
 4724SOL    HW115071   6.091   6.711   3.274
 4724SOL    HW215072   6.109   6.629   3.414
 4725SOL     OW15073   6.669   5.469   1.067
 4725SOL    HW115074   6.720   5.474   1.154
 4725SOL    HW215075   6.733   5.458   0.992
 4726SOL     OW15076   1.216   3.315   6.081
 4726SOL    HW115077   1.293   3.329   6.020
 4726SOL    HW215078   1.236   3.355   6.170
 4727SOL     OW15079   1.079   6.376   1.241
 4727SOL    HW115080   1.159   6.348   1.294
 4727SOL    HW215081   1.100   6.370   1.143
 4728SOL     OW15082   5.776   1.211   1.501
 4728SOL    HW115083   5.718   1.167   1.433
 4728SOL    HW215084   5.782   1.154   1.582
 4729SOL     OW15085   3.928   1.648   0.415
 4729SOL    HW115086   3.877   1.723   0.371
 4729SOL    HW215087   3.919   1.655   0.514
 4730SOL     OW15088   3.542   6.083   5.672
 4730SOL    HW115089   3.498   6.004   5.629
 4730SOL    HW215090   3.489   6.165   5.652
 4731SOL     OW15091   3.464   0.767   0.213
 4731SOL    HW115092   3.542   0.765   0.277
 4731SOL    HW215093   3.499   0.767   0.119
 4732SOL     OW15094   1.758   4.304   5.203
 4732SOL    HW115095   1.786   4.311   5.108
 4732SOL    HW215096   1.704   4.221   5.216
 4733SOL     OW15097   1.635   4.192   4.056
 4733SOL    HW115098   1.575   4.113   4.054
 4733SOL    HW215099   1.588   4.270   4.014
 4734SOL     OW15100   4.165   3.466   6.671
 4734SOL    HW115101   4.142   3.418   6.756
 4734SOL    HW215102   4.120   3.422   6.594
 4735SOL     OW15103   6.667   4.885   4.162
 4735SOL    HW115104   6.706   4.908   4.073
 4735SOL    HW215105   6.740   4.872   4.228
 4736SOL     OW15106   5.915   1.769   5.564
 4736SOL    HW115107   5.849   1.697   5.582
 4736SOL    HW215108   5.900   1.806   5.472
 4737SOL     OW15109   2.634   4.496   1.726
 4737SOL    HW115110   2.708   4.479   1.661
 4737SOL    HW215111   2.673   4.511   1.817
 4738SOL     OW15112   1.133   6.140   3.184
 4738SOL    HW115113   1.072   6.118   3.107
 4738SOL    HW215114   1.206   6.200   3.153
 4739SOL     OW15115   4.615   1.320   2.485
 4739SOL    HW115116   4.595   1.226   2.512
 4739SOL    HW215117   4.533   1.361   2.445
 4740SOL     OW15118   0.563   1.570   1.353
 4740SOL    HW115119   0.534   1.488   1.404
 4740SOL    HW215120   0.615   1.542   1.272
 4741SOL     OW15121   5.568   3.845   0.663
 4741SOL    HW115122   5.534   3.934   0.693
 4741SOL    HW215123   5.497   3.799   0.610
 4742SOL     OW15124   2.781   6.781   6.477
 4742SOL    HW115125   2.775   6.763   6.379
 4742SOL    HW215126   2.776   6.695   6.527
 4743SOL     OW15127   1.860   3.536   4.410
 4743SOL    HW115128   1.815   3.602   4.470
 4743SOL    HW215129   1.841   3.559   4.315
 4744SOL     OW15130   2.672   4.216   6.649
 4744SOL    HW115131   2.678   4.262   6.561
 4744SOL    HW215132   2.590   4.159   6.652
 4745SOL     OW15133   3.078   5.053   6.220
 4745SOL    HW115134   3.072   4.992   6.140
 4745SOL    HW215135   3.174   5.064   6.247
 4746SOL     OW15136   5.117   6.050   2.038
 4746SOL    HW115137   5.148   5.980   1.974
 4746SOL    HW215138   5.174   6.048   2.120
 4747SOL     OW15139   2.438   4.092   6.658
 4747SOL    HW115140   2.406   4.055   6.571
 4747SOL    HW215141   2.388   4.048   6.733
 4748SOL     OW15142   0.961   5.130   0.522
 4748SOL    HW115143   1.031   5.070   0.484
 4748SOL    HW215144   1.001   5.190   0.590
 4749SOL     OW15145   2.812   6.440   5.423
 4749SOL    HW115146   2.744   6.509   5.449
 4749SOL    HW215147   2.781   6.392   5.341
 4750SOL     OW15148   0.442   4.076   4.048
 4750SOL    HW115149   0.384   3.998   4.025
 4750SOL    HW215150   0.445   4.088   4.147
 4751SOL     OW15151   3.579   1.770   1.367
 4751SOL    HW115152   3.526   1.854   1.379
 4751SOL    HW215153   3.554   1.704   1.438
 4752SOL     OW15154   3.131   0.815   6.364
 4752SOL    HW115155   3.104   0.870   6.284
 4752SOL    HW215156   3.146   0.720   6.335
 4753SOL     OW15157   5.400   0.039   4.467
 4753SOL    HW115158   5.442   6.979   4.512
 4753SOL    HW215159   5.338   0.008   4.394
 4754SOL     OW15160   5.492   0.029   5.046
 4754SOL    HW115161   5.519   0.028   5.142
 4754SOL    HW215162   5.560   0.078   4.992
 4755SOL     OW15163   2.017   0.745   1.005
 4755SOL    HW115164   2.017   0.653   1.043
 4755SOL    HW215165   2.081   0.803   1.055
 4756SOL     OW15166   5.642   2.672   0.654
 4756SOL    HW115167   5.601   2.699   0.741
 4756SOL    HW215168   5.684   2.581   0.663
 4757SOL     OW15169   2.172   2.029   0.984
 4757SOL    HW115170   2.268   2.057   0.986
 4757SOL    HW215171   2.162   1.950   0.923
 4758SOL     OW15172   2.344   6.792   4.044
 4758SOL    HW115173   2.264   6.732   4.040
 4758SOL    HW215174   2.365   6.812   4.140
 4759SOL     OW15175   5.882   4.603   5.168
 4759SOL    HW115176   5.803   4.582   5.226
 4759SOL    HW215177   5.880   4.700   5.144
 4760SOL     OW15178   1.980   1.793   0.674
 4760SOL    HW115179   1.952   1.889   0.677
 4760SOL    HW215180   2.078   1.786   0.692
 4761SOL     OW15181   0.576   6.355   6.736
 4761SOL    HW115182   0.506   6.330   6.803
 4761SOL    HW215183   0.664   6.318   6.764
 4762SOL     OW15184   1.139   5.967   2.247
 4762SOL    HW115185   1.237   5.966   2.227
 4762SOL    HW215186   1.093   5.899   2.191
 4763SOL     OW15187   6.098   6.465   3.560
 4763SOL    HW115188   6.194   6.437   3.566
 4763SOL    HW215189   6.039   6.384   3.568
 4764SOL     OW15190   4.842   3.862   4.595
 4764SOL    HW115191   4.830   3.776   4.643
 4764SOL    HW215192   4.933   3.898   4.612
 4765SOL     OW15193   4.610   0.495   3.865
 4765SOL    HW115194   4.581   0.446   3.782
 4765SOL    HW215195   4.703   0.469   3.888
 4766SOL     OW15196   5.168   5.939   3.959
 4766SOL    HW115197   5.069   5.938   3.948
 4766SOL    HW215198   5.201   5.847   3.978
 4767SOL     OW15199   3.395   5.151   5.674
 4767SOL    HW115200   3.428   5.219   5.608
 4767SOL    HW215201   3.424   5.060   5.644
 4768SOL     OW15202   4.255   1.707   5.852
 4768SOL    HW115203   4.216   1.634   5.910
 4768SOL    HW215204   4.291   1.779   5.910
 4769SOL     OW15205   5.192   3.925   6.752
 4769SOL    HW115206   5.281   3.950   6.790
 4769SOL    HW215207   5.166   3.993   6.683
 4770SOL     OW15208   1.322   0.744   4.590
 4770SOL    HW115209   1.369   0.691   4.661
 4770SOL    HW215210   1.301   0.684   4.512
 4771SOL     OW15211   2.976   6.188   4.905
 4771SOL    HW115212   3.069   6.215   4.877
 4771SOL    HW215213   2.950   6.239   4.987
 4772SOL     OW15214   3.664   4.570   1.448
 4772SOL    HW115215   3.648   4.667   1.463
 4772SOL    HW215216   3.657   4.521   1.535
 4773SOL     OW15217   0.081   5.370   3.583
 4773SOL    HW115218   0.057   5.355   3.487
 4773SOL    HW215219   0.002   5.350   3.641
 4774SOL     OW15220   1.445   3.431   2.041
 4774SOL    HW115221   1.380   3.464   2.109
 4774SOL    HW215222   1.478   3.340   2.068
 4775SOL     OW15223   5.098   6.508   2.487
 4775SOL    HW115224   5.153   6.426   2.503
 4775SOL    HW215225   5.025   6.485   2.422
 4776SOL     OW15226   1.454   6.463   5.437
 4776SOL    HW115227   1.399   6.546   5.446
 4776SOL    HW215228   1.526   6.477   5.370
 4777SOL     OW15229   2.250   5.089   1.014
 4777SOL    HW115230   2.343   5.088   1.050
 4777SOL    HW215231   2.244   5.154   0.938
 4778SOL     OW15232   6.345   2.356   3.552
 4778SOL    HW115233   6.354   2.324   3.647
 4778SOL    HW215234   6.428   2.405   3.525
 4779SOL     OW15235   6.565   6.461   2.580
 4779SOL    HW115236   6.662   6.484   2.595
 4779SOL    HW215237   6.509   6.540   2.604
 4780SOL     OW15238   5.800   1.149   6.920
 4780SOL    HW115239   5.717   1.183   6.876
 4780SOL    HW215240   5.874   1.142   6.852
 4781SOL     OW15241   2.735   5.417   2.263
 4781SOL    HW115242   2.814   5.386   2.211
 4781SOL    HW215243   2.718   5.514   2.243
 4782SOL     OW15244   4.854   5.597   0.103
 4782SOL    HW115245   4.797   5.622   0.181
 4782SOL    HW215246   4.826   5.650   0.023
 4783SOL     OW15247   4.236   3.654   6.929
 4783SOL    HW115248   4.137   3.640   6.919
 4783SOL    HW215249   4.272   3.696   6.846
 4784SOL     OW15250   6.292   4.119   6.663
 4784SOL    HW115251   6.385   4.120   6.626
 4784SOL    HW215252   6.241   4.197   6.626
 4785SOL     OW15253   0.892   6.559   2.310
 4785SOL    HW115254   0.863   6.654   2.324
 4785SOL    HW215255   0.984   6.559   2.270
 4786SOL     OW15256   2.823   1.652   0.033
 4786SOL    HW115257   2.848   1.692   0.122
 4786SOL    HW215258   2.819   1.553   0.041
 4787SOL     OW15259   4.215   1.557   2.242
 4787SOL    HW115260   4.150   1.534   2.315
 4787SOL    HW215261   4.201   1.652   2.214
 4788SOL     OW15262   0.177   5.973   5.474
 4788SOL    HW115263   0.216   6.056   5.515
 4788SOL    HW215264   0.241   5.937   5.406
 4789SOL     OW15265   5.348   1.723   0.797
 4789SOL    HW115266   5.360   1.624   0.794
 4789SOL    HW215267   5.378   1.758   0.886
 4790SOL     OW15268   5.874   2.260   4.931
 4790SOL    HW115269   5.971   2.281   4.921
 4790SOL    HW215270   5.851   2.180   4.877
 4791SOL     OW15271   7.007   2.637   1.764
 4791SOL    HW115272   6.957   2.723   1.773
 4791SOL    HW215273   6.979   2.591   1.680
 4792SOL     OW15274   1.729   4.120   3.466
 4792SOL    HW115275   1.703   4.030   3.502
 4792SOL    HW215276   1.693   4.131   3.373
 4793SOL     OW15277   1.874   3.117   5.346
 4793SOL    HW115278   1.863   3.181   5.422
 4793SOL    HW215279   1.895   3.167   5.262
 4794SOL     OW15280   4.609   0.342   3.645
 4794SOL    HW115281   4.561   0.324   3.559
 4794SOL    HW215282   4.702   0.305   3.640
 4795SOL     OW15283   5.592   2.308   3.801
 4795SOL    HW115284   5.514   2.335   3.858
 4795SOL    HW215285   5.588   2.357   3.714
 4796SOL     OW15286   4.635   1.733   5.226
 4796SOL    HW115287   4.584   1.811   5.261
 4796SOL    HW215288   4.692   1.762   5.149
 4797SOL     OW15289   0.885   6.194   5.561
 4797SOL    HW115290   0.946   6.272   5.576
 4797SOL    HW215291   0.928   6.111   5.597
 4798SOL     OW15292   0.454   3.992   5.026
 4798SOL    HW115293   0.429   4.018   4.933
 4798SOL    HW215294   0.434   3.895   5.040
 4799SOL     OW15295   4.924   1.852   0.234
 4799SOL    HW115296   5.015   1.853   0.191
 4799SOL    HW215297   4.889   1.946   0.237
 4800SOL     OW15298   3.517   3.135   6.371
 4800SOL    HW115299   3.440   3.125   6.435
 4800SOL    HW215300   3.593   3.180   6.416
 4801SOL     OW15301   2.807   2.480   6.376
 4801SOL    HW115302   2.795   2.391   6.420
 4801SOL    HW215303   2.840   2.546   6.444
 4802SOL     OW15304   1.014   6.924   1.923
 4802SOL    HW115305   1.045   7.017   1.941
 4802SOL    HW215306   0.918   6.926   1.896
 4803SOL     OW15307   0.731   5.648   1.101
 4803SOL    HW115308   0.729   5.667   1.003
 4803SOL    HW215309   0.666   5.575   1.122
 4804SOL     OW15310   5.361   5.885   0.595
 4804SOL    HW115311   5.337   5.825   0.518
 4804SOL    HW215312   5.291   5.956   0.605
 4805SOL     OW15313   5.682   2.016   2.495
 4805SOL    HW115314   5.763   1.970   2.460
 4805SOL    HW215315   5.641   2.073   2.424
 4806SOL     OW15316   1.646   4.567   2.758
 4806SOL    HW115317   1.615   4.481   2.798
 4806SOL    HW215318   1.567   4.617   2.723
 4807SOL     OW15319   0.689   5.131   0.381
 4807SOL    HW115320   0.787   5.134   0.401
 4807SOL    HW215321   0.676   5.128   0.282
 4808SOL     OW15322   5.488   4.223   7.011
 4808SOL    HW115323   5.575   4.216   0.041
 4808SOL    HW215324   5.478   4.145   6.948
 4809SOL     OW15325   4.047   4.026   0.011
 4809SOL    HW115326   4.023   3.995   6.938
 4809SOL    HW215327   3.963   4.036   0.065
 4810SOL     OW15328   1.474   4.974   2.241
 4810SOL    HW115329   1.437   5.066   2.260
 4810SOL    HW215330   1.556   4.982   2.184
 4811SOL     OW15331   2.597   4.047   1.645
 4811SOL    HW115332   2.606   3.954   1.682
 4811SOL    HW215333   2.603   4.044   1.545
 4812SOL     OW15334   6.904   5.310   3.013
 4812SOL    HW115335   6.819   5.353   2.984
 4812SOL    HW215336   6.909   5.310   3.113
 4813SOL     OW15337   5.418   2.461   0.904
 4813SOL    HW115338   5.498   2.436   0.959
 4813SOL    HW215339   5.431   2.551   0.864
 4814SOL     OW15340   6.880   3.797   1.186
 4814SOL    HW115341   6.811   3.860   1.222
 4814SOL    HW215342   6.846   3.752   1.104
 4815SOL     OW15343   5.798   4.217   2.702
 4815SOL    HW115344   5.706   4.211   2.740
 4815SOL    HW215345   5.861   4.254   2.771
 4816SOL     OW15346   2.163   4.690   0.823
 4816SOL    HW115347   2.143   4.597   0.794
 4816SOL    HW215348   2.090   4.751   0.791
 4817SOL     OW15349   1.023   1.717   6.483
 4817SOL    HW115350   0.957   1.753   6.417
 4817SOL    HW215351   1.105   1.686   6.435
 4818SOL     OW15352   0.934   6.430   3.826
 4818SOL    HW115353   1.006   6.367   3.853
 4818SOL    HW215354   0.962   6.480   3.744
 4819SOL     OW15355   1.356   1.506   0.278
 4819SOL    HW115356   1.325   1.487   0.185
 4819SOL    HW215357   1.403   1.594   0.280
 4820SOL     OW15358   6.161   2.260   2.141
 4820SOL    HW115359   6.155   2.198   2.219
 4820SOL    HW215360   6.073   2.263   2.093
 4821SOL     OW15361   1.336   6.831   2.329
 4821SOL    HW115362   1.303   6.789   2.245
 4821SOL    HW215363   1.331   6.931   2.321
 4822SOL     OW15364   1.842   2.596   4.942
 4822SOL    HW115365   1.889   2.523   4.991
 4822SOL    HW215366   1.756   2.618   4.989
 4823SOL     OW15367   2.131   0.322   4.664
 4823SOL    HW115368   2.078   0.295   4.584
 4823SOL    HW215369   2.086   0.288   4.747
 4824SOL     OW15370   5.018   2.161   4.877
 4824SOL    HW115371   5.021   2.187   4.781
 4824SOL    HW215372   5.086   2.213   4.928
 4825SOL     OW15373   1.889   3.038   4.367
 4825SOL    HW115374   1.852   3.115   4.315
 4825SOL    HW215375   1.978   3.062   4.404
 4826SOL     OW15376   5.802   1.776   7.019
 4826SOL    HW115377   5.728   1.841   7.005
 4826SOL    HW215378   5.770   1.700   0.057
 4827SOL     OW15379   6.484   1.564   0.539
 4827SOL    HW115380   6.406   1.626   0.533
 4827SOL    HW215381   6.532   1.579   0.625
 4828SOL     OW15382   5.217   2.262   0.879
 4828SOL    HW115383   5.175   2.275   0.789
 4828SOL    HW215384   5.307   2.306   0.881
 4829SOL     OW15385   3.677   6.259   6.153
 4829SOL    HW115386   3.665   6.353   6.187
 4829SOL    HW215387   3.733   6.261   6.070
 4830SOL     OW15388   4.030   6.608   4.220
 4830SOL    HW115389   3.979   6.524   4.202
 4830SOL    HW215390   3.978   6.665   4.283
 4831SOL     OW15391   0.991   4.162   6.025
 4831SOL    HW115392   0.927   4.112   6.083
 4831SOL    HW215393   0.970   4.145   5.929
 4832SOL     OW15394   3.793   3.081   4.181
 4832SOL    HW115395   3.861   3.069   4.253
 4832SOL    HW215396   3.761   3.176   4.180
 4833SOL     OW15397   4.704   2.200   2.758
 4833SOL    HW115398   4.768   2.223   2.831
 4833SOL    HW215399   4.750   2.210   2.669
 4834SOL     OW15400   3.402   6.225   0.566
 4834SOL    HW115401   3.461   6.306   0.564
 4834SOL    HW215402   3.378   6.204   0.660
 4835SOL     OW15403   5.997   1.707   0.268
 4835SOL    HW115404   6.026   1.753   0.184
 4835SOL    HW215405   5.942   1.626   0.243
 4836SOL     OW15406   5.351   2.540   4.898
 4836SOL    HW115407   5.349   2.505   4.804
 4836SOL    HW215408   5.308   2.630   4.901
 4837SOL     OW15409   6.868   4.410   3.110
 4837SOL    HW115410   6.796   4.478   3.122
 4837SOL    HW215411   6.845   4.349   3.034
 4838SOL     OW15412   1.324   5.584   0.154
 4838SOL    HW115413   1.315   5.661   0.091
 4838SOL    HW215414   1.283   5.608   0.242
 4839SOL     OW15415   1.664   3.662   6.908
 4839SOL    HW115416   1.616   3.574   6.907
 4839SOL    HW215417   1.725   3.666   6.987
 4840SOL     OW15418   6.194   4.310   6.492
 4840SOL    HW115419   6.221   4.252   6.416
 4840SOL    HW215420   6.251   4.393   6.493
 4841SOL     OW15421   2.540   5.099   2.187
 4841SOL    HW115422   2.472   5.133   2.122
 4841SOL    HW215423   2.630   5.102   2.145
 4842SOL     OW15424   3.471   5.437   2.413
 4842SOL    HW115425   3.446   5.527   2.377
 4842SOL    HW215426   3.495   5.376   2.338
 4843SOL     OW15427   6.970   3.397   1.770
 4843SOL    HW115428   6.937   3.482   1.730
 4843SOL    HW215429   0.049   3.387   1.752
 4844SOL     OW15430   0.880   3.715   6.501
 4844SOL    HW115431   0.834   3.646   6.445
 4844SOL    HW215432   0.868   3.692   6.598
 4845SOL     OW15433   4.896   5.345   7.011
 4845SOL    HW115434   4.888   5.437   0.031
 4845SOL    HW215435   4.954   5.289   0.050
 4846SOL     OW15436   6.572   2.498   3.516
 4846SOL    HW115437   6.534   2.582   3.554
 4846SOL    HW215438   6.572   2.503   3.416
 4847SOL     OW15439   2.223   0.510   6.459
 4847SOL    HW115440   2.142   0.452   6.448
 4847SOL    HW215441   2.295   0.480   6.396
 4848SOL     OW15442   1.487   1.300   4.517
 4848SOL    HW115443   1.508   1.312   4.420
 4848SOL    HW215444   1.434   1.217   4.530
 4849SOL     OW15445   0.720   6.242   6.365
 4849SOL    HW115446   0.727   6.342   6.367
 4849SOL    HW215447   0.693   6.208   6.455
 4850SOL     OW15448   4.034   1.102   1.728
 4850SOL    HW115449   4.055   1.155   1.810
 4850SOL    HW215450   3.968   1.031   1.751
 4851SOL     OW15451   3.864   6.707   5.653
 4851SOL    HW115452   3.915   6.624   5.677
 4851SOL    HW215453   3.862   6.769   5.731
 4852SOL     OW15454   1.827   5.893   4.875
 4852SOL    HW115455   1.921   5.863   4.888
 4852SOL    HW215456   1.769   5.814   4.857
 4853SOL     OW15457   3.316   0.702   3.073
 4853SOL    HW115458   3.401   0.731   3.030
 4853SOL    HW215459   3.332   0.619   3.127
 4854SOL     OW15460   4.353   6.469   1.484
 4854SOL    HW115461   4.418   6.498   1.554
 4854SOL    HW215462   4.388   6.495   1.394
 4855SOL     OW15463   6.149   2.445   4.147
 4855SOL    HW115464   6.109   2.361   4.182
 4855SOL    HW215465   6.085   2.521   4.158
 4856SOL     OW15466   1.399   2.821   3.217
 4856SOL    HW115467   1.339   2.795   3.293
 4856SOL    HW215468   1.494   2.819   3.248
 4857SOL     OW15469   3.557   2.150   3.853
 4857SOL    HW115470   3.651   2.138   3.884
 4857SOL    HW215471   3.493   2.120   3.924
 4858SOL     OW15472   0.422   0.238   4.838
 4858SOL    HW115473   0.398   0.256   4.743
 4858SOL    HW215474   0.343   0.199   4.885
 4859SOL     OW15475   1.097   6.144   3.611
 4859SOL    HW115476   0.998   6.149   3.623
 4859SOL    HW215477   1.142   6.204   3.677
 4860SOL     OW15478   4.406   4.404   0.921
 4860SOL    HW115479   4.308   4.393   0.937
 4860SOL    HW215480   4.422   4.490   0.873
 4861SOL     OW15481   6.115   5.404   0.170
 4861SOL    HW115482   6.049   5.366   0.106
 4861SOL    HW215483   6.131   5.340   0.245
 4862SOL     OW15484   2.450   4.460   5.041
 4862SOL    HW115485   2.517   4.403   5.089
 4862SOL    HW215486   2.425   4.538   5.098
 4863SOL     OW15487   4.830   3.797   1.513
 4863SOL    HW115488   4.848   3.880   1.567
 4863SOL    HW215489   4.748   3.811   1.458
 4864SOL     OW15490   3.867   1.694   2.141
 4864SOL    HW115491   3.865   1.777   2.085
 4864SOL    HW215492   3.880   1.719   2.237
 4865SOL     OW15493   2.442   6.818   4.330
 4865SOL    HW115494   2.532   6.858   4.344
 4865SOL    HW215495   2.447   6.719   4.338
 4866SOL     OW15496   6.451   4.373   1.033
 4866SOL    HW115497   6.356   4.342   1.040
 4866SOL    HW215498   6.489   4.386   1.125
 4867SOL     OW15499   4.621   5.222   2.252
 4867SOL    HW115500   4.607   5.188   2.159
 4867SOL    HW215501   4.717   5.210   2.278
 4868SOL     OW15502   6.798   5.020   2.618
 4868SOL    HW115503   6.876   5.081   2.633
 4868SOL    HW215504   6.755   5.041   2.530
 4869SOL     OW15505   0.268   1.051   1.610
 4869SOL    HW115506   0.340   1.055   1.540
 4869SOL    HW215507   0.310   1.031   1.698
 4870SOL     OW15508   6.938   6.017   1.896
 4870SOL    HW115509   6.953   6.022   1.994
 4870SOL    HW215510   6.847   6.053   1.874
 4871SOL     OW15511   0.839   1.457   4.852
 4871SOL    HW115512   0.933   1.424   4.848
 4871SOL    HW215513   0.829   1.535   4.790
 4872SOL     OW15514   6.760   5.360   4.504
 4872SOL    HW115515   6.676   5.366   4.450
 4872SOL    HW215516   6.749   5.288   4.573
 4873SOL     OW15517   6.884   4.572   3.546
 4873SOL    HW115518   6.855   4.568   3.642
 4873SOL    HW215519   6.810   4.610   3.491
 4874SOL     OW15520   6.091   3.159   3.569
 4874SOL    HW115521   6.017   3.208   3.614
 4874SOL    HW215522   6.077   3.163   3.470
 4875SOL     OW15523   5.816   3.347   1.906
 4875SOL    HW115524   5.782   3.300   1.987
 4875SOL    HW215525   5.741   3.359   1.841
 4876SOL     OW15526   5.309   1.587   4.161
 4876SOL    HW115527   5.296   1.681   4.129
 4876SOL    HW215528   5.303   1.585   4.261
 4877SOL     OW15529   0.622   1.912   0.649
 4877SOL    HW115530   0.566   1.974   0.594
 4877SOL    HW215531   0.568   1.832   0.674
 4878SOL     OW15532   5.864   0.725   3.102
 4878SOL    HW115533   5.883   0.766   3.013
 4878SOL    HW215534   5.921   0.644   3.115
 4879SOL     OW15535   4.424   5.677   3.308
 4879SOL    HW115536   4.373   5.609   3.360
 4879SOL    HW215537   4.364   5.754   3.286
 4880SOL     OW15538   6.246   2.864   6.782
 4880SOL    HW115539   6.239   2.767   6.804
 4880SOL    HW215540   6.154   2.901   6.767
 4881SOL     OW15541   1.968   0.415   6.393
 4881SOL    HW115542   1.954   0.457   6.303
 4881SOL    HW215543   1.884   0.421   6.447
 4882SOL     OW15544   5.230   1.554   4.410
 4882SOL    HW115545   5.134   1.533   4.428
 4882SOL    HW215546   5.268   1.606   4.486
 4883SOL     OW15547   5.013   5.055   2.346
 4883SOL    HW115548   4.957   5.138   2.353
 4883SOL    HW215549   5.109   5.080   2.355
 4884SOL     OW15550   3.830   0.387   1.355
 4884SOL    HW115551   3.755   0.370   1.291
 4884SOL    HW215552   3.843   0.486   1.364
 4885SOL     OW15553   1.781   5.573   2.466
 4885SOL    HW115554   1.794   5.667   2.432
 4885SOL    HW215555   1.857   5.548   2.525
 4886SOL     OW15556   0.301   6.395   0.974
 4886SOL    HW115557   0.307   6.479   1.027
 4886SOL    HW215558   0.224   6.401   0.911
 4887SOL     OW15559   0.663   0.274   2.867
 4887SOL    HW115560   0.616   0.361   2.849
 4887SOL    HW215561   0.635   0.207   2.799
 4888SOL     OW15562   2.191   6.609   4.707
 4888SOL    HW115563   2.272   6.631   4.653
 4888SOL    HW215564   2.155   6.520   4.678
 4889SOL     OW15565   6.071   1.100   6.808
 4889SOL    HW115566   6.079   1.040   6.887
 4889SOL    HW215567   6.159   1.147   6.793
 4890SOL     OW15568   0.830   1.760   6.007
 4890SOL    HW115569   0.844   1.776   5.909
 4890SOL    HW215570   0.886   1.684   6.037
 4891SOL     OW15571   1.784   5.308   0.472
 4891SOL    HW115572   1.834   5.316   0.386
 4891SOL    HW215573   1.723   5.229   0.467
 4892SOL     OW15574   3.340   5.804   1.676
 4892SOL    HW115575   3.312   5.791   1.581
 4892SOL    HW215576   3.306   5.727   1.731
 4893SOL     OW15577   0.201   4.357   1.573
 4893SOL    HW115578   0.259   4.437   1.580
 4893SOL    HW215579   0.219   4.295   1.649
 4894SOL     OW15580   2.321   2.258   2.428
 4894SOL    HW115581   2.223   2.269   2.446
 4894SOL    HW215582   2.373   2.304   2.500
 4895SOL     OW15583   0.882   5.513   2.806
 4895SOL    HW115584   0.893   5.427   2.757
 4895SOL    HW215585   0.961   5.529   2.865
 4896SOL     OW15586   2.073   5.374   1.788
 4896SOL    HW115587   2.004   5.308   1.760
 4896SOL    HW215588   2.134   5.393   1.711
 4897SOL     OW15589   2.474   4.509   5.962
 4897SOL    HW115590   2.546   4.455   5.918
 4897SOL    HW215591   2.499   4.606   5.961
 4898SOL     OW15592   3.851   1.683   4.113
 4898SOL    HW115593   3.847   1.725   4.204
 4898SOL    HW215594   3.946   1.663   4.090
 4899SOL     OW15595   6.419   5.609   3.454
 4899SOL    HW115596   6.421   5.514   3.423
 4899SOL    HW215597   6.509   5.650   3.442
 4900SOL     OW15598   2.306   5.763   4.835
 4900SOL    HW115599   2.345   5.674   4.856
 4900SOL    HW215600   2.343   5.796   4.748
 4901SOL     OW15601   3.104   6.657   5.655
 4901SOL    HW115602   3.027   6.651   5.718
 4901SOL    HW215603   3.182   6.699   5.701
 4902SOL     OW15604   2.428   2.247   4.525
 4902SOL    HW115605   2.450   2.211   4.435
 4902SOL    HW215606   2.441   2.176   4.594
 4903SOL     OW15607   2.879   5.951   0.131
 4903SOL    HW115608   2.794   6.003   0.129
 4903SOL    HW215609   2.861   5.859   0.167
 4904SOL     OW15610   1.231   0.639   4.349
 4904SOL    HW115611   1.277   0.666   4.264
 4904SOL    HW215612   1.244   0.541   4.364
 4905SOL     OW15613   4.194   1.282   2.189
 4905SOL    HW115614   4.217   1.379   2.196
 4905SOL    HW215615   4.240   1.232   2.262
 4906SOL     OW15616   4.325   2.100   6.514
 4906SOL    HW115617   4.239   2.149   6.501
 4906SOL    HW215618   4.361   2.072   6.425
 4907SOL     OW15619   4.529   5.598   0.938
 4907SOL    HW115620   4.599   5.657   0.898
 4907SOL    HW215621   4.449   5.654   0.963
 4908SOL     OW15622   5.304   5.031   5.907
 4908SOL    HW115623   5.260   5.115   5.874
 4908SOL    HW215624   5.326   5.040   6.004
 4909SOL     OW15625   6.533   0.026   4.767
 4909SOL    HW115626   6.434   0.026   4.785
 4909SOL    HW215627   6.574   6.965   4.809
 4910SOL     OW15628   5.339   6.479   4.144
 4910SOL    HW115629   5.425   6.442   4.180
 4910SOL    HW215630   5.352   6.575   4.119
 4911SOL     OW15631   0.574   3.398   4.776
 4911SOL    HW115632   0.661   3.367   4.814
 4911SOL    HW215633   0.529   3.458   4.841
 4912SOL     OW15634   5.679   2.384   0.596
 4912SOL    HW115635   5.735   2.343   0.668
 4912SOL    HW215636   5.590   2.337   0.593
 4913SOL     OW15637   3.659   3.761   4.138
 4913SOL    HW115638   3.738   3.789   4.192
 4913SOL    HW215639   3.666   3.799   4.046
 4914SOL     OW15640   3.368   6.885   5.537
 4914SOL    HW115641   3.340   6.843   5.624
 4914SOL    HW215642   3.455   6.847   5.508
 4915SOL     OW15643   4.299   0.697   4.383
 4915SOL    HW115644   4.307   0.787   4.340
 4915SOL    HW215645   4.215   0.693   4.437
 4916SOL     OW15646   1.894   1.420   3.985
 4916SOL    HW115647   1.847   1.433   4.072
 4916SOL    HW215648   1.992   1.406   4.002
 4917SOL     OW15649   1.912   5.103   0.772
 4917SOL    HW115650   1.974   5.148   0.708
 4917SOL    HW215651   1.826   5.154   0.778
 4918SOL     OW15652   3.886   6.621   2.282
 4918SOL    HW115653   3.788   6.623   2.265
 4918SOL    HW215654   3.915   6.709   2.320
 4919SOL     OW15655   2.375   2.308   6.824
 4919SOL    HW115656   2.298   2.346   6.874
 4919SOL    HW215657   2.341   2.255   6.746
 4920SOL     OW15658   4.951   0.544   5.544
 4920SOL    HW115659   4.929   0.459   5.496
 4920SOL    HW215660   4.897   0.619   5.504
 4921SOL     OW15661   2.041   4.193   0.604
 4921SOL    HW115662   1.947   4.207   0.573
 4921SOL    HW215663   2.104   4.225   0.534
 4922SOL     OW15664   1.782   2.853   4.777
 4922SOL    HW115665   1.833   2.938   4.785
 4922SOL    HW215666   1.799   2.795   4.857
 4923SOL     OW15667   3.664   1.404   0.300
 4923SOL    HW115668   3.639   1.460   0.379
 4923SOL    HW215669   3.611   1.433   0.220
 4924SOL     OW15670   2.324   1.832   5.673
 4924SOL    HW115671   2.348   1.736   5.691
 4924SOL    HW215672   2.362   1.860   5.585
 4925SOL     OW15673   5.531   6.961   2.110
 4925SOL    HW115674   5.502   6.989   2.202
 4925SOL    HW215675   5.492   0.005   2.043
 4926SOL     OW15676   5.339   2.341   0.314
 4926SOL    HW115677   5.358   2.316   0.219
 4926SOL    HW215678   5.244   2.374   0.321
 4927SOL     OW15679   4.042   3.384   4.012
 4927SOL    HW115680   4.063   3.479   4.036
 4927SOL    HW215681   4.057   3.326   4.092
 4928SOL     OW15682   0.272   0.187   6.488
 4928SOL    HW115683   0.229   0.222   6.404
 4928SOL    HW215684   0.370   0.204   6.484
 4929SOL     OW15685   1.351   4.647   4.923
 4929SOL    HW115686   1.399   4.572   4.969
 4929SOL    HW215687   1.417   4.704   4.874
 4930SOL     OW15688   4.717   0.953   2.210
 4930SOL    HW115689   4.786   1.003   2.263
 4930SOL    HW215690   4.651   1.018   2.172
 4931SOL     OW15691   6.478   0.222   1.110
 4931SOL    HW115692   6.568   0.205   1.151
 4931SOL    HW215693   6.485   0.212   1.011
 4932SOL     OW15694   2.146   3.291   1.749
 4932SOL    HW115695   2.213   3.346   1.799
 4932SOL    HW215696   2.066   3.347   1.727
 4933SOL     OW15697   1.955   0.247   3.367
 4933SOL    HW115698   1.865   0.288   3.351
 4933SOL    HW215699   2.026   0.309   3.333
 4934SOL     OW15700   1.945   4.998   2.913
 4934SOL    HW115701   1.869   4.955   2.865
 4934SOL    HW215702   1.989   4.931   2.974
 4935SOL     OW15703   1.168   1.486   6.766
 4935SOL    HW115704   1.095   1.536   6.720
 4935SOL    HW215705   1.133   1.398   6.798
 4936SOL     OW15706   1.615   4.872   0.993
 4936SOL    HW115707   1.598   4.967   1.018
 4936SOL    HW215708   1.648   4.822   1.073
 4937SOL     OW15709   6.754   2.911   5.947
 4937SOL    HW115710   6.788   2.818   5.956
 4937SOL    HW215711   6.738   2.931   5.850
 4938SOL     OW15712   2.518   5.756   6.473
 4938SOL    HW115713   2.512   5.663   6.508
 4938SOL    HW215714   2.612   5.790   6.483
 4939SOL     OW15715   0.373   1.491   4.074
 4939SOL    HW115716   0.371   1.424   4.149
 4939SOL    HW215717   0.447   1.468   4.011
 4940SOL     OW15718   0.722   1.634   5.311
 4940SOL    HW115719   0.630   1.601   5.330
 4940SOL    HW215720   0.764   1.575   5.241
 4941SOL     OW15721   4.726   2.910   5.336
 4941SOL    HW115722   4.735   3.001   5.296
 4941SOL    HW215723   4.711   2.918   5.435
 4942SOL     OW15724   5.585   2.582   5.797
 4942SOL    HW115725   5.586   2.506   5.862
 4942SOL    HW215726   5.494   2.591   5.758
 4943SOL     OW15727   4.997   4.489   6.197
 4943SOL    HW115728   5.043   4.438   6.124
 4943SOL    HW215729   4.962   4.425   6.265
 4944SOL     OW15730   2.469   4.268   1.723
 4944SOL    HW115731   2.541   4.337   1.719
 4944SOL    HW215732   2.509   4.177   1.715
 4945SOL     OW15733   1.273   6.909   4.280
 4945SOL    HW115734   1.216   6.871   4.207
 4945SOL    HW215735   1.262   7.009   4.283
 4946SOL     OW15736   0.817   5.327   6.888
 4946SOL    HW115737   0.813   5.278   6.801
 4946SOL    HW215738   0.912   5.354   6.907
 4947SOL     OW15739   2.315   0.513   0.400
 4947SOL    HW115740   2.310   0.495   0.498
 4947SOL    HW215741   2.407   0.493   0.367
 4948SOL     OW15742   2.140   3.074   2.803
 4948SOL    HW115743   2.156   3.122   2.717
 4948SOL    HW215744   2.042   3.064   2.818
 4949SOL     OW15745   5.995   4.858   5.834
 4949SOL    HW115746   6.036   4.791   5.772
 4949SOL    HW215747   6.040   4.946   5.822
 4950SOL     OW15748   2.197   4.626   4.571
 4950SOL    HW115749   2.255   4.694   4.524
 4950SOL    HW215750   2.175   4.659   4.663
 4951SOL     OW15751   5.724   1.057   4.585
 4951SOL    HW115752   5.681   1.099   4.505
 4951SOL    HW215753   5.730   1.124   4.658
 4952SOL     OW15754   6.743   6.968   6.182
 4952SOL    HW115755   6.809   6.968   6.257
 4952SOL    HW215756   6.680   0.026   6.192
 4953SOL     OW15757   1.844   6.952   3.423
 4953SOL    HW115758   1.759   7.000   3.443
 4953SOL    HW215759   1.846   6.926   3.327
 4954SOL     OW15760   2.701   3.533   0.417
 4954SOL    HW115761   2.775   3.469   0.399
 4954SOL    HW215762   2.732   3.603   0.481
 4955SOL     OW15763   3.356   6.299   0.173
 4955SOL    HW115764   3.347   6.222   0.236
 4955SOL    HW215765   3.387   6.379   0.223
 4956SOL     OW15766   2.742   0.370   5.477
 4956SOL    HW115767   2.645   0.362   5.456
 4956SOL    HW215768   2.757   0.448   5.538
 4957SOL     OW15769   5.657   2.729   1.800
 4957SOL    HW115770   5.694   2.644   1.839
 4957SOL    HW215771   5.573   2.708   1.749
 4958SOL     OW15772   0.404   5.354   5.512
 4958SOL    HW115773   0.304   5.361   5.512
 4958SOL    HW215774   0.441   5.399   5.431
 4959SOL     OW15775   6.114   1.982   0.847
 4959SOL    HW115776   6.054   2.061   0.853
 4959SOL    HW215777   6.147   1.971   0.753
 4960SOL     OW15778   3.817   4.860   3.544
 4960SOL    HW115779   3.795   4.887   3.450
 4960SOL    HW215780   3.879   4.782   3.542
 4961SOL     OW15781   4.029   0.918   5.540
 4961SOL    HW115782   3.969   0.892   5.616
 4961SOL    HW215783   4.019   0.853   5.465
 4962SOL     OW15784   5.378   2.763   6.953
 4962SOL    HW115785   5.476   2.782   6.954
 4962SOL    HW215786   5.346   2.752   0.028
 4963SOL     OW15787   0.222   6.118   0.751
 4963SOL    HW115788   0.165   6.199   0.753
 4963SOL    HW215789   0.182   6.050   0.689
 4964SOL     OW15790   2.828   0.437   4.430
 4964SOL    HW115791   2.823   0.397   4.522
 4964SOL    HW215792   2.920   0.425   4.393
 4965SOL     OW15793   0.378   0.674   2.303
 4965SOL    HW115794   0.413   0.586   2.274
 4965SOL    HW215795   0.445   0.746   2.282
 4966SOL     OW15796   2.472   6.439   5.198
 4966SOL    HW115797   2.419   6.431   5.113
 4966SOL    HW215798   2.441   6.519   5.249
 4967SOL     OW15799   3.693   5.048   4.946
 4967SOL    HW115800   3.772   4.987   4.954
 4967SOL    HW215801   3.714   5.136   4.989
 4968SOL     OW15802   0.296   1.500   3.495
 4968SOL    HW115803   0.232   1.424   3.488
 4968SOL    HW215804   0.246   1.585   3.512
 4969SOL     OW15805   2.177   5.599   3.156
 4969SOL    HW115806   2.183   5.585   3.255
 4969SOL    HW215807   2.082   5.585   3.127
 4970SOL     OW15808   2.476   2.368   2.229
 4970SOL    HW115809   2.555   2.371   2.290
 4970SOL    HW215810   2.398   2.326   2.276
 4971SOL     OW15811   5.583   5.776   3.331
 4971SOL    HW115812   5.562   5.679   3.343
 4971SOL    HW215813   5.639   5.807   3.408
 4972SOL     OW15814   1.137   3.570   0.859
 4972SOL    HW115815   1.037   3.568   0.856
 4972SOL    HW215816   1.172   3.480   0.886
 4973SOL     OW15817   1.464   0.455   2.089
 4973SOL    HW115818   1.377   0.426   2.127
 4973SOL    HW215819   1.505   0.381   2.036
 4974SOL     OW15820   6.633   4.387   1.279
 4974SOL    HW115821   6.708   4.437   1.323
 4974SOL    HW215822   6.576   4.344   1.349
 4975SOL     OW15823   6.313   4.121   5.906
 4975SOL    HW115824   6.269   4.046   5.955
 4975SOL    HW215825   6.319   4.099   5.809
 4976SOL     OW15826   2.438   1.275   3.664
 4976SOL    HW115827   2.521   1.296   3.612
 4976SOL    HW215828   2.399   1.359   3.700
 4977SOL     OW15829   4.210   4.164   6.601
 4977SOL    HW115830   4.211   4.128   6.508
 4977SOL    HW215831   4.304   4.180   6.632
 4978SOL     OW15832   6.735   4.566   5.380
 4978SOL    HW115833   6.643   4.580   5.417
 4978SOL    HW215834   6.783   4.499   5.436
 4979SOL     OW15835   6.755   6.566   6.255
 4979SOL    HW115836   6.699   6.637   6.212
 4979SOL    HW215837   6.697   6.507   6.312
 4980SOL     OW15838   5.154   6.382   3.113
 4980SOL    HW115839   5.071   6.390   3.058
 4980SOL    HW215840   5.232   6.360   3.054
 4981SOL     OW15841   4.162   4.976   0.679
 4981SOL    HW115842   4.235   5.005   0.617
 4981SOL    HW215843   4.078   5.026   0.659
 4982SOL     OW15844   3.250   1.093   5.160
 4982SOL    HW115845   3.271   1.183   5.121
 4982SOL    HW215846   3.151   1.084   5.171
 4983SOL     OW15847   5.994   4.032   5.616
 4983SOL    HW115848   6.064   3.986   5.561
 4983SOL    HW215849   6.025   4.124   5.639
 4984SOL     OW15850   5.267   4.469   3.155
 4984SOL    HW115851   5.365   4.488   3.160
 4984SOL    HW215852   5.249   4.378   3.194
 4985SOL     OW15853   5.368   0.257   3.648
 4985SOL    HW115854   5.430   0.277   3.571
 4985SOL    HW215855   5.392   0.169   3.687
 4986SOL     OW15856   0.216   4.457   1.274
 4986SOL    HW115857   0.136   4.413   1.234
 4986SOL    HW215858   0.208   4.456   1.374
 4987SOL     OW15859   1.318   0.602   2.379
 4987SOL    HW115860   1.286   0.521   2.430
 4987SOL    HW215861   1.407   0.631   2.416
 4988SOL     OW15862   5.533   0.942   2.196
 4988SOL    HW115863   5.589   0.859   2.203
 4988SOL    HW215864   5.479   0.939   2.112
 4989SOL     OW15865   5.108   6.792   1.792
 4989SOL    HW115866   5.150   6.705   1.819
 4989SOL    HW215867   5.181   6.860   1.777
 4990SOL     OW15868   2.647   2.203   5.773
 4990SOL    HW115869   2.577   2.163   5.713
 4990SOL    HW215870   2.670   2.138   5.845
 4991SOL     OW15871   6.230   5.552   3.755
 4991SOL    HW115872   6.198   5.616   3.684
 4991SOL    HW215873   6.330   5.550   3.755
 4992SOL     OW15874   4.669   0.785   2.731
 4992SOL    HW115875   4.628   0.703   2.771
 4992SOL    HW215876   4.722   0.760   2.650
 4993SOL     OW15877   3.153   6.191   4.552
 4993SOL    HW115878   3.221   6.119   4.563
 4993SOL    HW215879   3.172   6.266   4.615
 4994SOL     OW15880   1.726   0.746   3.736
 4994SOL    HW115881   1.707   0.789   3.647
 4994SOL    HW215882   1.762   0.815   3.799
 4995SOL     OW15883   0.185   2.557   5.180
 4995SOL    HW115884   0.120   2.632   5.190
 4995SOL    HW215885   0.263   2.572   5.240
 4996SOL     OW15886   0.798   1.183   2.767
 4996SOL    HW115887   0.770   1.111   2.830
 4996SOL    HW215888   0.752   1.169   2.679
 4997SOL     OW15889   4.968   2.599   2.736
 4997SOL    HW115890   5.063   2.631   2.737
 4997SOL    HW215891   4.938   2.589   2.641
 4998SOL     OW15892   2.273   4.318   4.908
 4998SOL    HW115893   2.297   4.223   4.931
 4998SOL    HW215894   2.333   4.380   4.957
 4999SOL     OW15895   6.453   4.123   0.241
 4999SOL    HW115896   6.460   4.197   0.174
 4999SOL    HW215897   6.467   4.035   0.195
 5000SOL     OW15898   3.573   6.603   3.203
 5000SOL    HW115899   3.626   6.647   3.131
 5000SOL    HW215900   3.539   6.515   3.170
 5001SOL     OW15901   6.935   4.254   1.868
 5001SOL    HW115902   6.892   4.278   1.780
 5001SOL    HW215903   0.001   4.205   1.852
 5002SOL     OW15904   0.415   3.177   2.581
 5002SOL    HW115905   0.470   3.180   2.664
 5002SOL    HW215906   0.457   3.115   2.515
 5003SOL     OW15907   2.916   5.630   2.636
 5003SOL    HW115908   2.983   5.637   2.710
 5003SOL    HW215909   2.920   5.538   2.596
 5004SOL     OW15910   2.696   5.306   5.758
 5004SOL    HW115911   2.644   5.223   5.735
 5004SOL    HW215912   2.789   5.280   5.783
 5005SOL     OW15913   2.976   2.763   0.747
 5005SOL    HW115914   2.974   2.663   0.747
 5005SOL    HW215915   3.070   2.795   0.735
 5006SOL     OW15916   4.773   0.571   0.596
 5006SOL    HW115917   4.770   0.668   0.618
 5006SOL    HW215918   4.850   0.529   0.644
 5007SOL     OW15919   0.811   6.711   0.348
 5007SOL    HW115920   0.891   6.679   0.399
 5007SOL    HW215921   0.841   6.752   0.262
 5008SOL     OW15922   5.757   6.862   2.010
 5008SOL    HW115923   5.671   6.884   2.057
 5008SOL    HW215924   5.739   6.848   1.912
 5009SOL     OW15925   0.495   0.555   0.837
 5009SOL    HW115926   0.582   0.535   0.882
 5009SOL    HW215927   0.486   0.498   0.755
 5010SOL     OW15928   4.017   3.159   2.496
 5010SOL    HW115929   3.984   3.245   2.457
 5010SOL    HW215930   4.117   3.159   2.498
 5011SOL     OW15931   1.940   4.208   2.161
 5011SOL    HW115932   1.966   4.177   2.070
 5011SOL    HW215933   1.946   4.132   2.225
 5012SOL     OW15934   5.866   4.111   6.334
 5012SOL    HW115935   5.908   4.095   6.423
 5012SOL    HW215936   5.933   4.154   6.273
 5013SOL     OW15937   4.882   0.910   0.291
 5013SOL    HW115938   4.868   1.003   0.323
 5013SOL    HW215939   4.794   0.863   0.284
 5014SOL     OW15940   6.924   4.544   0.503
 5014SOL    HW115941   6.943   4.446   0.504
 5014SOL    HW215942   6.861   4.566   0.577
 5015SOL     OW15943   4.496   1.973   4.589
 5015SOL    HW115944   4.460   1.922   4.667
 5015SOL    HW215945   4.549   2.051   4.622
 5016SOL     OW15946   1.495   2.581   0.410
 5016SOL    HW115947   1.429   2.656   0.413
 5016SOL    HW215948   1.465   2.509   0.472
 5017SOL     OW15949   1.889   2.982   0.802
 5017SOL    HW115950   1.857   2.936   0.885
 5017SOL    HW215951   1.847   3.073   0.795
 5018SOL     OW15952   0.403   4.226   2.604
 5018SOL    HW115953   0.392   4.176   2.518
 5018SOL    HW215954   0.360   4.316   2.597
 5019SOL     OW15955   1.233   4.719   5.980
 5019SOL    HW115956   1.289   4.638   5.999
 5019SOL    HW215957   1.270   4.767   5.901
 5020SOL     OW15958   5.144   0.428   6.382
 5020SOL    HW115959   5.158   0.386   6.472
 5020SOL    HW215960   5.217   0.492   6.363
 5021SOL     OW15961   0.793   0.911   6.745
 5021SOL    HW115962   0.713   0.855   6.723
 5021SOL    HW215963   0.856   0.859   6.803
 5022SOL     OW15964   0.847   1.518   6.613
 5022SOL    HW115965   0.850   1.517   6.713
 5022SOL    HW215966   0.925   1.570   6.578
 5023SOL     OW15967   6.636   2.878   1.446
 5023SOL    HW115968   6.640   2.882   1.545
 5023SOL    HW215969   6.728   2.882   1.408
 5024SOL     OW15970   6.371   5.014   1.672
 5024SOL    HW115971   6.350   4.967   1.586
 5024SOL    HW215972   6.448   4.969   1.716
 5025SOL     OW15973   3.237   1.763   2.137
 5025SOL    HW115974   3.165   1.731   2.198
 5025SOL    HW215975   3.327   1.748   2.179
 5026SOL     OW15976   6.303   6.209   5.958
 5026SOL    HW115977   6.275   6.299   5.925
 5026SOL    HW215978   6.319   6.214   6.057
 5027SOL     OW15979   6.838   6.475   1.859
 5027SOL    HW115980   6.927   6.511   1.889
 5027SOL    HW215981   6.787   6.443   1.939
 5028SOL     OW15982   0.224   1.893   2.355
 5028SOL    HW115983   0.159   1.945   2.410
 5028SOL    HW215984   0.314   1.895   2.399
 5029SOL     OW15985   6.531   2.542   2.275
 5029SOL    HW115986   6.483   2.561   2.189
 5029SOL    HW215987   6.587   2.461   2.265
 5030SOL     OW15988   6.639   6.807   0.699
 5030SOL    HW115989   6.696   6.779   0.777
 5030SOL    HW215990   6.550   6.763   0.706
 5031SOL     OW15991   5.585   6.738   5.510
 5031SOL    HW115992   5.527   6.658   5.531
 5031SOL    HW215993   5.557   6.776   5.422
 5032SOL     OW15994   2.005   2.108   0.689
 5032SOL    HW115995   1.982   2.145   0.779
 5032SOL    HW215996   2.102   2.124   0.670
 5033SOL     OW15997   2.338   0.094   5.343
 5033SOL    HW115998   2.249   0.132   5.368
 5033SOL    HW215999   2.332   7.013   5.340
 5034SOL     OW16000   5.696   0.525   3.762
 5034SOL    HW116001   5.711   0.610   3.712
 5034SOL    HW216002   5.598   0.503   3.761
 5035SOL     OW16003   1.362   4.158   0.442
 5035SOL    HW116004   1.304   4.212   0.503
 5035SOL    HW216005   1.384   4.070   0.487
 5036SOL     OW16006   0.996   4.717   6.938
 5036SOL    HW116007   0.981   4.675   0.008
 5036SOL    HW216008   1.010   4.645   6.870
 5037SOL     OW16009   4.915   3.696   2.407
 5037SOL    HW116010   5.013   3.714   2.420
 5037SOL    HW216011   4.864   3.780   2.427
 5038SOL     OW16012   2.882   3.943   5.961
 5038SOL    HW116013   2.793   3.982   5.937
 5038SOL    HW216014   2.913   3.982   6.048
 5039SOL     OW16015   3.260   4.743   5.418
 5039SOL    HW116016   3.207   4.672   5.373
 5039SOL    HW216017   3.356   4.715   5.424
 5040SOL     OW16018   1.601   5.977   5.923
 5040SOL    HW116019   1.694   5.946   5.943
 5040SOL    HW216020   1.595   6.005   5.827
 5041SOL     OW16021   2.028   1.422   2.600
 5041SOL    HW116022   1.959   1.495   2.597
 5041SOL    HW216023   2.011   1.357   2.525
 5042SOL     OW16024   6.840   2.671   0.200
 5042SOL    HW116025   6.803   2.763   0.188
 5042SOL    HW216026   6.938   2.672   0.179
 5043SOL     OW16027   3.630   0.309   5.882
 5043SOL    HW116028   3.681   0.348   5.959
 5043SOL    HW216029   3.539   0.282   5.913
 5044SOL     OW16030   0.640   6.594   6.953
 5044SOL    HW116031   0.692   6.676   6.929
 5044SOL    HW216032   0.622   6.540   6.871
 5045SOL     OW16033   5.145   1.098   6.649
 5045SOL    HW116034   5.164   1.025   6.584
 5045SOL    HW216035   5.189   1.182   6.618
 5046SOL     OW16036   3.345   4.096   2.909
 5046SOL    HW116037   3.412   4.129   2.975
 5046SOL    HW216038   3.260   4.073   2.956
 5047SOL     OW16039   0.474   3.851   2.341
 5047SOL    HW116040   0.389   3.842   2.290
 5047SOL    HW216041   0.498   3.948   2.350
 5048SOL     OW16042   0.534   1.661   1.997
 5048SOL    HW116043   0.541   1.748   1.948
 5048SOL    HW216044   0.531   1.678   2.095
 5049SOL     OW16045   5.706   2.077   6.224
 5049SOL    HW116046   5.643   2.066   6.148
 5049SOL    HW216047   5.715   2.174   6.246
 5050SOL     OW16048   1.518   1.425   1.362
 5050SOL    HW116049   1.429   1.400   1.401
 5050SOL    HW216050   1.576   1.344   1.356
 5051SOL     OW16051   4.703   4.692   0.924
 5051SOL    HW116052   4.636   4.686   0.999
 5051SOL    HW216053   4.682   4.772   0.867
 5052SOL     OW16054   2.436   0.416   6.302
 5052SOL    HW116055   2.431   0.332   6.248
 5052SOL    HW216056   2.531   0.438   6.321
 5053SOL     OW16057   2.220   4.171   2.980
 5053SOL    HW116058   2.287   4.235   3.017
 5053SOL    HW216059   2.223   4.086   3.033
 5054SOL     OW16060   3.256   6.190   4.879
 5054SOL    HW116061   3.338   6.216   4.930
 5054SOL    HW216062   3.258   6.092   4.862
 5055SOL     OW16063   1.671   1.479   5.512
 5055SOL    HW116064   1.684   1.530   5.427
 5055SOL    HW216065   1.756   1.431   5.535
 5056SOL     OW16066   6.578   4.464   6.767
 5056SOL    HW116067   6.605   4.434   6.675
 5056SOL    HW216068   6.620   4.551   6.788
 5057SOL     OW16069   0.377   6.181   4.405
 5057SOL    HW116070   0.350   6.276   4.387
 5057SOL    HW216071   0.476   6.177   4.421
 5058SOL     OW16072   3.333   3.349   5.364
 5058SOL    HW116073   3.301   3.256   5.386
 5058SOL    HW216074   3.255   3.407   5.341
 5059SOL     OW16075   5.922   1.767   3.711
 5059SOL    HW116076   5.946   1.744   3.617
 5059SOL    HW216077   5.977   1.711   3.774
 5060SOL     OW16078   0.760   2.048   5.740
 5060SOL    HW116079   0.708   1.965   5.721
 5060SOL    HW216080   0.829   2.061   5.670
 5061SOL     OW16081   4.070   3.101   1.742
 5061SOL    HW116082   3.990   3.040   1.752
 5061SOL    HW216083   4.113   3.114   1.831
 5062SOL     OW16084   5.041   0.943   3.150
 5062SOL    HW116085   5.065   0.936   3.246
 5062SOL    HW216086   5.003   0.856   3.118
 5063SOL     OW16087   1.333   0.071   2.175
 5063SOL    HW116088   1.371   0.026   2.095
 5063SOL    HW216089   1.395   0.143   2.206
 5064SOL     OW16090   5.156   4.309   1.658
 5064SOL    HW116091   5.186   4.291   1.564
 5064SOL    HW216092   5.065   4.349   1.657
 5065SOL     OW16093   1.605   1.689   3.829
 5065SOL    HW116094   1.652   1.763   3.877
 5065SOL    HW216095   1.506   1.701   3.839
 5066SOL     OW16096   4.101   4.736   1.943
 5066SOL    HW116097   4.025   4.799   1.965
 5066SOL    HW216098   4.158   4.777   1.872
 5067SOL     OW16099   4.284   0.751   1.601
 5067SOL    HW116100   4.186   0.758   1.616
 5067SOL    HW216101   4.321   0.677   1.657
 5068SOL     OW16102   2.646   4.857   6.656
 5068SOL    HW116103   2.709   4.796   6.705
 5068SOL    HW216104   2.557   4.813   6.648
 5069SOL     OW16105   2.136   2.933   5.534
 5069SOL    HW116106   2.122   2.970   5.442
 5069SOL    HW216107   2.231   2.903   5.543
 5070SOL     OW16108   4.395   4.779   3.722
 5070SOL    HW116109   4.329   4.854   3.720
 5070SOL    HW216110   4.393   4.735   3.811
 5071SOL     OW16111   4.148   1.468   3.321
 5071SOL    HW116112   4.077   1.438   3.258
 5071SOL    HW216113   4.126   1.438   3.413
 5072SOL     OW16114   1.222   0.408   1.670
 5072SOL    HW116115   1.314   0.445   1.679
 5072SOL    HW216116   1.227   0.313   1.639
 5073SOL     OW16117   0.229   6.193   1.715
 5073SOL    HW116118   0.169   6.182   1.637
 5073SOL    HW216119   0.202   6.130   1.788
 5074SOL     OW16120   3.187   2.889   1.334
 5074SOL    HW116121   3.269   2.831   1.340
 5074SOL    HW216122   3.145   2.896   1.424
 5075SOL     OW16123   1.036   2.310   6.641
 5075SOL    HW116124   1.017   2.388   6.701
 5075SOL    HW216125   1.099   2.339   6.568
 5076SOL     OW16126   4.107   0.374   0.430
 5076SOL    HW116127   4.061   0.376   0.519
 5076SOL    HW216128   4.148   0.284   0.415
 5077SOL     OW16129   2.206   4.287   5.572
 5077SOL    HW116130   2.257   4.214   5.525
 5077SOL    HW216131   2.143   4.330   5.507
 5078SOL     OW16132   0.325   1.269   3.704
 5078SOL    HW116133   0.339   1.356   3.656
 5078SOL    HW216134   0.287   1.287   3.795
 5079SOL     OW16135   1.884   3.316   5.538
 5079SOL    HW116136   1.861   3.391   5.600
 5079SOL    HW216137   1.977   3.329   5.502
 5080SOL     OW16138   5.986   6.768   6.744
 5080SOL    HW116139   5.915   6.788   6.677
 5080SOL    HW216140   5.945   6.726   6.825
 5081SOL     OW16141   2.972   3.190   4.936
 5081SOL    HW116142   2.981   3.159   4.842
 5081SOL    HW216143   2.911   3.270   4.940
 5082SOL     OW16144   5.263   5.553   0.627
 5082SOL    HW116145   5.289   5.579   0.720
 5082SOL    HW216146   5.303   5.618   0.562
 5083SOL     OW16147   2.294   6.551   2.488
 5083SOL    HW116148   2.337   6.483   2.429
 5083SOL    HW216149   2.322   6.642   2.459
 5084SOL     OW16150   0.396   4.390   4.140
 5084SOL    HW116151   0.456   4.470   4.133
 5084SOL    HW216152   0.389   4.345   4.051
 5085SOL     OW16153   5.756   2.747   6.685
 5085SOL    HW116154   5.666   2.717   6.652
 5085SOL    HW216155   5.745   2.829   6.741
 5086SOL     OW16156   1.228   5.659   3.326
 5086SOL    HW116157   1.196   5.750   3.354
 5086SOL    HW216158   1.308   5.669   3.267
 5087SOL     OW16159   1.579   5.359   2.581
 5087SOL    HW116160   1.608   5.292   2.649
 5087SOL    HW216161   1.659   5.393   2.531
 5088SOL     OW16162   6.495   0.865   4.656
 5088SOL    HW116163   6.465   0.772   4.677
 5088SOL    HW216164   6.577   0.886   4.709
 5089SOL     OW16165   4.936   4.242   4.223
 5089SOL    HW116166   5.012   4.184   4.252
 5089SOL    HW216167   4.853   4.214   4.271
 5090SOL     OW16168   1.866   4.013   2.526
 5090SOL    HW116169   1.950   4.026   2.472
 5090SOL    HW216170   1.802   3.958   2.474
 5091SOL     OW16171   0.711   1.022   2.179
 5091SOL    HW116172   0.726   1.109   2.225
 5091SOL    HW216173   0.617   1.017   2.146
 5092SOL     OW16174   3.245   3.522   2.411
 5092SOL    HW116175   3.269   3.469   2.329
 5092SOL    HW216176   3.156   3.564   2.398
 5093SOL     OW16177   2.666   1.268   0.965
 5093SOL    HW116178   2.652   1.294   0.869
 5093SOL    HW216179   2.577   1.244   1.006
 5094SOL     OW16180   2.521   5.332   5.989
 5094SOL    HW116181   2.508   5.427   5.964
 5094SOL    HW216182   2.580   5.287   5.922
 5095SOL     OW16183   5.767   2.443   3.968
 5095SOL    HW116184   5.767   2.401   4.059
 5095SOL    HW216185   5.714   2.385   3.906
 5096SOL     OW16186   3.732   4.719   0.409
 5096SOL    HW116187   3.652   4.664   0.434
 5096SOL    HW216188   3.811   4.659   0.396
 5097SOL     OW16189   1.543   0.390   6.700
 5097SOL    HW116190   1.444   0.404   6.699
 5097SOL    HW216191   1.580   0.412   6.609
 5098SOL     OW16192   2.539   0.444   1.793
 5098SOL    HW116193   2.572   0.492   1.711
 5098SOL    HW216194   2.587   0.357   1.801
 5099SOL     OW16195   0.732   6.827   6.883
 5099SOL    HW116196   0.821   6.808   6.841
 5099SOL    HW216197   0.674   6.877   6.818
 5100SOL     OW16198   3.398   5.445   4.881
 5100SOL    HW116199   3.383   5.387   4.801
 5100SOL    HW216200   3.327   5.427   4.949
 5101SOL     OW16201   5.338   6.915   6.944
 5101SOL    HW116202   5.401   6.933   0.001
 5101SOL    HW216203   5.378   6.951   6.860
 5102SOL     OW16204   5.455   6.747   4.151
 5102SOL    HW116205   5.386   6.754   4.223
 5102SOL    HW216206   5.517   6.825   4.157
 5103SOL     OW16207   0.068   0.848   4.079
 5103SOL    HW116208   0.056   0.903   3.996
 5103SOL    HW216209   0.157   0.867   4.119
 5104SOL     OW16210   1.796   6.899   2.732
 5104SOL    HW116211   1.700   6.898   2.762
 5104SOL    HW216212   1.837   6.809   2.746
 5105SOL     OW16213   3.703   3.103   0.751
 5105SOL    HW116214   3.612   3.119   0.788
 5105SOL    HW216215   3.766   3.173   0.787
 5106SOL     OW16216   4.303   1.365   0.394
 5106SOL    HW116217   4.233   1.305   0.433
 5106SOL    HW216218   4.346   1.417   0.468
 5107SOL     OW16219   2.939   1.369   0.345
 5107SOL    HW116220   2.956   1.374   0.246
 5107SOL    HW216221   2.955   1.459   0.386
 5108SOL     OW16222   3.120   2.862   5.221
 5108SOL    HW116223   3.074   2.784   5.263
 5108SOL    HW216224   3.217   2.862   5.247
 5109SOL     OW16225   1.324   0.629   0.555
 5109SOL    HW116226   1.403   0.638   0.495
 5109SOL    HW216227   1.252   0.691   0.525
 5110SOL     OW16228   0.124   0.302   5.833
 5110SOL    HW116229   0.108   0.263   5.742
 5110SOL    HW216230   0.068   0.384   5.845
 5111SOL     OW16231   1.942   1.659   5.125
 5111SOL    HW116232   2.000   1.651   5.206
 5111SOL    HW216233   1.966   1.743   5.075
 5112SOL     OW16234   1.926   0.795   2.656
 5112SOL    HW116235   1.910   0.726   2.727
 5112SOL    HW216236   1.925   0.752   2.566
 5113SOL     OW16237   2.132   0.052   0.937
 5113SOL    HW116238   2.105   6.975   0.932
 5113SOL    HW216239   2.105   0.089   1.026
 5114SOL     OW16240   2.812   1.111   0.101
 5114SOL    HW116241   2.789   1.072   0.012
 5114SOL    HW216242   2.742   1.084   0.168
 5115SOL     OW16243   2.069   5.152   4.358
 5115SOL    HW116244   2.063   5.208   4.275
 5115SOL    HW216245   1.982   5.105   4.373
 5116SOL     OW16246   6.600   0.155   6.235
 5116SOL    HW116247   6.506   0.160   6.267
 5116SOL    HW216248   6.617   0.229   6.169
 5117SOL     OW16249   2.341   4.364   4.374
 5117SOL    HW116250   2.326   4.283   4.317
 5117SOL    HW216251   2.304   4.348   4.465
 5118SOL     OW16252   5.189   0.589   0.112
 5118SOL    HW116253   5.164   0.541   0.196
 5118SOL    HW216254   5.170   0.687   0.122
 5119SOL     OW16255   4.908   0.917   1.982
 5119SOL    HW116256   4.832   0.953   2.036
 5119SOL    HW216257   4.961   0.992   1.944
 5120SOL     OW16258   3.839   0.987   4.067
 5120SOL    HW116259   3.829   0.989   3.968
 5120SOL    HW216260   3.764   0.933   4.106
 5121SOL     OW16261   2.830   2.031   6.907
 5121SOL    HW116262   2.770   1.984   6.971
 5121SOL    HW216263   2.857   1.969   6.834
 5122SOL     OW16264   3.350   6.651   2.597
 5122SOL    HW116265   3.423   6.667   2.530
 5122SOL    HW216266   3.359   6.716   2.673
 5123SOL     OW16267   4.541   2.189   5.109
 5123SOL    HW116268   4.476   2.256   5.075
 5123SOL    HW216269   4.542   2.190   5.209
 5124SOL     OW16270   3.135   5.196   5.268
 5124SOL    HW116271   3.049   5.179   5.316
 5124SOL    HW216272   3.196   5.117   5.280
 5125SOL     OW16273   6.202   3.345   4.521
 5125SOL    HW116274   6.148   3.267   4.488
 5125SOL    HW216275   6.186   3.357   4.619
 5126SOL     OW16276   6.550   5.219   5.137
 5126SOL    HW116277   6.553   5.238   5.235
 5126SOL    HW216278   6.498   5.290   5.090
 5127SOL     OW16279   0.755   3.460   6.900
 5127SOL    HW116280   0.779   3.489   6.992
 5127SOL    HW216281   0.666   3.413   6.902
 5128SOL     OW16282   6.772   0.723   6.423
 5128SOL    HW116283   6.707   0.777   6.370
 5128SOL    HW216284   6.736   0.707   6.515
 5129SOL     OW16285   5.020   0.239   2.812
 5129SOL    HW116286   5.103   0.195   2.845
 5129SOL    HW216287   4.940   0.193   2.850
 5130SOL     OW16288   1.585   6.009   3.779
 5130SOL    HW116289   1.594   6.054   3.868
 5130SOL    HW216290   1.551   5.915   3.792
 5131SOL     OW16291   2.783   5.053   3.690
 5131SOL    HW116292   2.865   5.041   3.747
 5131SOL    HW216293   2.796   5.131   3.629
 5132SOL     OW16294   2.875   2.698   5.710
 5132SOL    HW116295   2.801   2.765   5.722
 5132SOL    HW216296   2.844   2.608   5.740
 5133SOL     OW16297   1.478   5.628   6.801
 5133SOL    HW116298   1.510   5.624   6.706
 5133SOL    HW216299   1.493   5.540   6.845
 5134SOL     OW16300   6.272   1.227   2.380
 5134SOL    HW116301   6.353   1.199   2.328
 5134SOL    HW216302   6.289   1.315   2.424
 5135SOL     OW16303   5.356   3.370   4.395
 5135SOL    HW116304   5.304   3.445   4.354
 5135SOL    HW216305   5.300   3.325   4.465
 5136SOL     OW16306   5.488   0.906   6.646
 5136SOL    HW116307   5.426   0.920   6.569
 5136SOL    HW216308   5.451   0.950   6.728
 5137SOL     OW16309   4.378   3.580   5.693
 5137SOL    HW116310   4.358   3.483   5.704
 5137SOL    HW216311   4.471   3.592   5.659
 5138SOL     OW16312   3.697   2.870   4.728
 5138SOL    HW116313   3.613   2.881   4.780
 5138SOL    HW216314   3.771   2.843   4.790
 5139SOL     OW16315   0.954   0.778   3.668
 5139SOL    HW116316   0.971   0.828   3.753
 5139SOL    HW216317   0.857   0.786   3.644
 5140SOL     OW16318   3.848   2.458   5.538
 5140SOL    HW116319   3.853   2.557   5.550
 5140SOL    HW216320   3.756   2.426   5.563
 5141SOL     OW16321   6.234   3.697   0.607
 5141SOL    HW116322   6.300   3.764   0.641
 5141SOL    HW216323   6.261   3.605   0.636
 5142SOL     OW16324   5.705   6.091   2.891
 5142SOL    HW116325   5.798   6.062   2.870
 5142SOL    HW216326   5.678   6.056   2.981
 5143SOL     OW16327   6.559   4.121   4.390
 5143SOL    HW116328   6.597   4.170   4.468
 5143SOL    HW216329   6.534   4.186   4.318
 5144SOL     OW16330   0.921   4.960   5.239
 5144SOL    HW116331   0.919   5.009   5.326
 5144SOL    HW216332   0.839   4.904   5.231
 5145SOL     OW16333   3.921   5.838   6.683
 5145SOL    HW116334   4.018   5.812   6.682
 5145SOL    HW216335   3.891   5.849   6.778
 5146SOL     OW16336   3.177   3.651   5.542
 5146SOL    HW116337   3.161   3.739   5.498
 5146SOL    HW216338   3.124   3.580   5.495
 5147SOL     OW16339   6.495   5.729   3.046
 5147SOL    HW116340   6.412   5.780   3.069
 5147SOL    HW216341   6.565   5.745   3.116
 5148SOL     OW16342   6.839   0.923   1.737
 5148SOL    HW116343   6.819   0.840   1.686
 5148SOL    HW216344   6.757   0.981   1.740
 5149SOL     OW16345   6.855   5.666   3.582
 5149SOL    HW116346   6.810   5.577   3.579
 5149SOL    HW216347   6.951   5.656   3.555
 5150SOL     OW16348   2.275   5.534   3.475
 5150SOL    HW116349   2.325   5.451   3.450
 5150SOL    HW216350   2.201   5.510   3.537
 5151SOL     OW16351   6.720   4.018   2.440
 5151SOL    HW116352   6.659   3.997   2.517
 5151SOL    HW216353   6.756   3.933   2.403
 5152SOL     OW16354   1.529   5.365   6.926
 5152SOL    HW116355   1.577   5.408   7.002
 5152SOL    HW216356   1.593   5.313   6.870
 5153SOL     OW16357   1.107   1.839   0.311
 5153SOL    HW116358   1.024   1.784   0.321
 5153SOL    HW216359   1.084   1.936   0.311
 5154SOL     OW16360   1.140   3.133   5.885
 5154SOL    HW116361   1.216   3.122   5.820
 5154SOL    HW216362   1.177   3.158   5.975
 5155SOL     OW16363   4.282   6.656   1.953
 5155SOL    HW116364   4.330   6.732   1.910
 5155SOL    HW216365   4.206   6.692   2.008
 5156SOL     OW16366   5.435   4.508   5.928
 5156SOL    HW116367   5.404   4.601   5.912
 5156SOL    HW216368   5.531   4.498   5.901
 5157SOL     OW16369   3.812   2.070   3.219
 5157SOL    HW116370   3.739   2.073   3.149
 5157SOL    HW216371   3.770   2.070   3.310
 5158SOL     OW16372   3.564   1.882   1.028
 5158SOL    HW116373   3.664   1.886   1.031
 5158SOL    HW216374   3.532   1.798   1.071
 5159SOL     OW16375   5.855   3.586   5.482
 5159SOL    HW116376   5.794   3.508   5.495
 5159SOL    HW216377   5.855   3.643   5.564
 5160SOL     OW16378   0.288   5.180   3.268
 5160SOL    HW116379   0.355   5.129   3.322
 5160SOL    HW216380   0.257   5.259   3.319
 5161SOL     OW16381   1.743   4.054   6.880
 5161SOL    HW116382   1.799   4.050   6.797
 5161SOL    HW216383   1.772   3.981   6.943
 5162SOL     OW16384   0.846   6.018   2.637
 5162SOL    HW116385   0.867   6.044   2.543
 5162SOL    HW216386   0.868   5.921   2.651
 5163SOL     OW16387   2.753   6.557   0.633
 5163SOL    HW116388   2.734   6.562   0.535
 5163SOL    HW216389   2.843   6.597   0.651
 5164SOL     OW16390   3.768   2.288   6.774
 5164SOL    HW116391   3.689   2.340   6.807
 5164SOL    HW216392   3.814   2.245   6.852
 5165SOL     OW16393   0.203   4.592   5.697
 5165SOL    HW116394   0.216   4.685   5.730
 5165SOL    HW216395   0.292   4.552   5.673
 5166SOL     OW16396   0.959   6.071   2.389
 5166SOL    HW116397   0.966   6.171   2.391
 5166SOL    HW216398   1.029   6.034   2.328
 5167SOL     OW16399   6.458   4.997   5.568
 5167SOL    HW116400   6.500   5.086   5.582
 5167SOL    HW216401   6.359   5.008   5.557
 5168SOL     OW16402   5.034   3.481   1.818
 5168SOL    HW116403   4.981   3.557   1.856
 5168SOL    HW216404   4.990   3.395   1.842
 5169SOL     OW16405   4.153   1.835   4.324
 5169SOL    HW116406   4.055   1.822   4.335
 5169SOL    HW216407   4.196   1.749   4.295
 5170SOL     OW16408   1.432   4.027   4.876
 5170SOL    HW116409   1.357   4.004   4.814
 5170SOL    HW216410   1.399   4.088   4.948
 5171SOL     OW16411   0.856   4.165   5.428
 5171SOL    HW116412   0.901   4.211   5.504
 5171SOL    HW216413   0.868   4.218   5.344
 5172SOL     OW16414   1.428   3.526   2.650
 5172SOL    HW116415   1.405   3.525   2.747
 5172SOL    HW216416   1.357   3.573   2.598
 5173SOL     OW16417   4.792   5.158   4.916
 5173SOL    HW116418   4.857   5.218   4.869
 5173SOL    HW216419   4.746   5.100   4.850
 5174SOL     OW16420   2.412   5.208   3.556
 5174SOL    HW116421   2.356   5.170   3.481
 5174SOL    HW216422   2.434   5.135   3.620
 5175SOL     OW16423   2.930   4.005   6.408
 5175SOL    HW116424   2.859   3.956   6.459
 5175SOL    HW216425   2.967   4.078   6.466
 5176SOL     OW16426   5.500   3.130   0.016
 5176SOL    HW116427   5.596   3.125   0.045
 5176SOL    HW216428   5.485   3.216   6.986
 5177SOL     OW16429   5.665   0.230   0.552
 5177SOL    HW116430   5.695   0.305   0.610
 5177SOL    HW216431   5.724   0.151   0.566
 5178SOL     OW16432   0.502   3.486   2.914
 5178SOL    HW116433   0.575   3.498   2.981
 5178SOL    HW216434   0.512   3.554   2.842
 5179SOL     OW16435   4.783   4.844   4.358
 5179SOL    HW116436   4.769   4.869   4.454
 5179SOL    HW216437   4.875   4.868   4.330
 5180SOL     OW16438   2.707   2.035   0.811
 5180SOL    HW116439   2.806   2.053   0.807
 5180SOL    HW216440   2.657   2.118   0.786
 5181SOL     OW16441   5.051   0.794   2.775
 5181SOL    HW116442   5.004   0.753   2.854
 5181SOL    HW216443   4.993   0.786   2.694
 5182SOL     OW16444   4.185   4.466   1.635
 5182SOL    HW116445   4.100   4.504   1.672
 5182SOL    HW216446   4.255   4.537   1.633
 5183SOL     OW16447   4.006   1.826   2.667
 5183SOL    HW116448   4.002   1.740   2.719
 5183SOL    HW216449   3.987   1.903   2.727
 5184SOL     OW16450   0.803   2.020   3.964
 5184SOL    HW116451   0.742   1.960   4.016
 5184SOL    HW216452   0.817   1.983   3.873
 5185SOL     OW16453   5.206   0.478   2.777
 5185SOL    HW116454   5.199   0.491   2.876
 5185SOL    HW216455   5.169   0.389   2.751
 5186SOL     OW16456   6.609   2.082   6.967
 5186SOL    HW116457   6.546   2.091   0.026
 5186SOL    HW216458   6.566   2.122   6.885
 5187SOL     OW16459   1.451   6.268   4.224
 5187SOL    HW116460   1.453   6.182   4.275
 5187SOL    HW216461   1.503   6.337   4.274
 5188SOL     OW16462   0.205   5.717   1.640
 5188SOL    HW116463   0.178   5.753   1.730
 5188SOL    HW216464   0.173   5.780   1.569
 5189SOL     OW16465   4.006   4.954   0.930
 5189SOL    HW116466   4.078   4.954   0.861
 5189SOL    HW216467   4.043   4.921   1.017
 5190SOL     OW16468   0.546   2.125   4.404
 5190SOL    HW116469   0.461   2.129   4.352
 5190SOL    HW216470   0.608   2.059   4.361
 5191SOL     OW16471   3.904   6.953   2.006
 5191SOL    HW116472   3.884   6.889   1.931
 5191SOL    HW216473   3.977   7.015   1.979
 5192SOL     OW16474   2.495   5.660   1.399
 5192SOL    HW116475   2.575   5.607   1.369
 5192SOL    HW216476   2.463   5.625   1.486
 5193SOL     OW16477   5.416   5.147   4.667
 5193SOL    HW116478   5.373   5.222   4.617
 5193SOL    HW216479   5.462   5.182   4.749
 5194SOL     OW16480   4.155   1.738   0.048
 5194SOL    HW116481   4.161   1.655   7.012
 5194SOL    HW216482   4.126   1.714   0.141
 5195SOL     OW16483   0.058   6.939   4.336
 5195SOL    HW116484   0.130   6.897   4.280
 5195SOL    HW216485   0.038   6.880   4.414
 5196SOL     OW16486   3.859   6.534   1.080
 5196SOL    HW116487   3.866   6.473   1.159
 5196SOL    HW216488   3.766   6.572   1.075
 5197SOL     OW16489   2.577   4.069   5.830
 5197SOL    HW116490   2.574   4.011   5.911
 5197SOL    HW216491   2.611   4.017   5.752
 5198SOL     OW16492   4.711   5.941   2.947
 5198SOL    HW116493   4.728   6.033   2.912
 5198SOL    HW216494   4.626   5.905   2.907
 5199SOL     OW16495   1.108   6.580   0.460
 5199SOL    HW116496   1.063   6.523   0.529
 5199SOL    HW216497   1.106   6.676   0.489
 5200SOL     OW16498   0.770   3.774   5.274
 5200SOL    HW116499   0.854   3.815   5.241
 5200SOL    HW216500   0.712   3.749   5.196
 5201SOL     OW16501   0.274   0.384   3.018
 5201SOL    HW116502   0.204   0.402   2.949
 5201SOL    HW216503   0.269   0.288   3.046
 5202SOL     OW16504   6.091   3.271   6.182
 5202SOL    HW116505   6.122   3.366   6.181
 5202SOL    HW216506   6.168   3.210   6.199
 5203SOL     OW16507   2.095   2.909   0.256
 5203SOL    HW116508   2.163   2.956   0.199
 5203SOL    HW216509   2.137   2.830   0.300
 5204SOL     OW16510   4.027   5.066   6.686
 5204SOL    HW116511   3.946   5.107   6.728
 5204SOL    HW216512   4.106   5.076   6.748
 5205SOL     OW16513   0.426   6.171   0.553
 5205SOL    HW116514   0.471   6.258   0.571
 5205SOL    HW216515   0.354   6.156   0.620
 5206SOL     OW16516   0.634   4.308   5.835
 5206SOL    HW116517   0.590   4.230   5.879
 5206SOL    HW216518   0.723   4.280   5.799
 5207SOL     OW16519   1.523   6.290   3.666
 5207SOL    HW116520   1.575   6.251   3.590
 5207SOL    HW216521   1.550   6.245   3.751
 5208SOL     OW16522   4.243   2.767   6.044
 5208SOL    HW116523   4.214   2.773   6.140
 5208SOL    HW216524   4.343   2.772   6.039
 5209SOL     OW16525   5.710   5.989   3.150
 5209SOL    HW116526   5.660   5.907   3.178
 5209SOL    HW216527   5.804   5.984   3.182
 5210SOL     OW16528   4.249   3.029   6.318
 5210SOL    HW116529   4.336   3.043   6.366
 5210SOL    HW216530   4.233   2.932   6.305
 5211SOL     OW16531   3.568   3.025   5.553
 5211SOL    HW116532   3.472   3.049   5.568
 5211SOL    HW216533   3.605   2.981   5.635
 5212SOL     OW16534   0.027   2.568   1.089
 5212SOL    HW116535   0.048   2.563   0.991
 5212SOL    HW216536   7.012   2.479   1.119
 5213SOL     OW16537   4.864   3.661   6.561
 5213SOL    HW116538   4.937   3.636   6.624
 5213SOL    HW216539   4.879   3.754   6.527
 5214SOL     OW16540   4.532   1.904   5.849
 5214SOL    HW116541   4.608   1.969   5.845
 5214SOL    HW216542   4.449   1.953   5.876
 5215SOL     OW16543   6.811   4.639   3.845
 5215SOL    HW116544   6.879   4.571   3.872
 5215SOL    HW216545   6.724   4.619   3.888
 5216SOL     OW16546   5.181   4.662   1.544
 5216SOL    HW116547   5.266   4.615   1.568
 5216SOL    HW216548   5.197   4.761   1.542
 5217SOL     OW16549   3.891   5.386   4.718
 5217SOL    HW116550   3.960   5.331   4.765
 5217SOL    HW216551   3.818   5.410   4.782
 5218SOL     OW16552   0.823   1.149   3.512
 5218SOL    HW116553   0.778   1.164   3.600
 5218SOL    HW216554   0.756   1.112   3.447
 5219SOL     OW16555   4.261   1.368   5.604
 5219SOL    HW116556   4.206   1.310   5.665
 5219SOL    HW216557   4.294   1.447   5.654
 5220SOL     OW16558   1.396   5.923   2.808
 5220SOL    HW116559   1.447   5.885   2.732
 5220SOL    HW216560   1.301   5.939   2.780
 5221SOL     OW16561   5.889   2.556   3.688
 5221SOL    HW116562   5.861   2.590   3.778
 5221SOL    HW216563   5.881   2.630   3.621
 5222SOL     OW16564   3.985   5.928   3.285
 5222SOL    HW116565   3.893   5.889   3.273
 5222SOL    HW216566   3.992   6.013   3.233
 5223SOL     OW16567   6.487   2.733   1.255
 5223SOL    HW116568   6.523   2.776   1.172
 5223SOL    HW216569   6.522   2.781   1.336
 5224SOL     OW16570   0.124   2.304   4.394
 5224SOL    HW116571   0.118   2.214   4.435
 5224SOL    HW216572   0.060   2.311   4.317
 5225SOL     OW16573   0.736   0.182   3.395
 5225SOL    HW116574   0.701   0.090   3.415
 5225SOL    HW216575   0.685   0.221   3.319
 5226SOL     OW16576   0.337   5.869   4.819
 5226SOL    HW116577   0.307   5.911   4.734
 5226SOL    HW216578   0.303   5.775   4.823
 5227SOL     OW16579   1.005   3.368   4.539
 5227SOL    HW116580   0.967   3.288   4.585
 5227SOL    HW216581   1.094   3.345   4.500
 5228SOL     OW16582   6.232   2.888   1.289
 5228SOL    HW116583   6.218   2.944   1.207
 5228SOL    HW216584   6.315   2.834   1.278
 5229SOL     OW16585   1.795   5.946   6.993
 5229SOL    HW116586   1.801   6.002   6.911
 5229SOL    HW216587   1.784   6.006   0.054
 5230SOL     OW16588   0.399   6.366   1.905
 5230SOL    HW116589   0.437   6.286   1.950
 5230SOL    HW216590   0.335   6.336   1.834
 5231SOL     OW16591   4.503   3.196   5.359
 5231SOL    HW116592   4.414   3.188   5.405
 5231SOL    HW216593   4.516   3.290   5.329
 5232SOL     OW16594   3.572   2.361   5.891
 5232SOL    HW116595   3.554   2.447   5.844
 5232SOL    HW216596   3.533   2.286   5.838
 5233SOL     OW16597   5.025   0.807   2.358
 5233SOL    HW116598   4.980   0.894   2.339
 5233SOL    HW216599   5.123   0.822   2.369
 5234SOL     OW16600   2.324   1.121   6.575
 5234SOL    HW116601   2.248   1.056   6.580
 5234SOL    HW216602   2.334   1.166   6.664
 5235SOL     OW16603   1.645   2.827   1.536
 5235SOL    HW116604   1.575   2.894   1.512
 5235SOL    HW216605   1.692   2.855   1.620
 5236SOL     OW16606   5.529   4.175   2.803
 5236SOL    HW116607   5.496   4.084   2.774
 5236SOL    HW216608   5.464   4.245   2.773
 5237SOL     OW16609   1.736   0.886   5.189
 5237SOL    HW116610   1.780   0.830   5.118
 5237SOL    HW216611   1.637   0.877   5.182
 5238SOL     OW16612   0.623   4.421   0.318
 5238SOL    HW116613   0.620   4.420   0.418
 5238SOL    HW216614   0.547   4.476   0.284
 5239SOL     OW16615   3.369   3.211   3.886
 5239SOL    HW116616   3.332   3.147   3.818
 5239SOL    HW216617   3.374   3.165   3.975
 5240SOL     OW16618   2.921   1.411   6.151
 5240SOL    HW116619   2.929   1.448   6.059
 5240SOL    HW216620   2.837   1.356   6.157
 5241SOL     OW16621   1.245   5.150   5.436
 5241SOL    HW116622   1.148   5.138   5.454
 5241SOL    HW216623   1.259   5.239   5.392
 5242SOL     OW16624   0.383   6.576   6.332
 5242SOL    HW116625   0.421   6.597   6.422
 5242SOL    HW216626   0.303   6.517   6.342
 5243SOL     OW16627   1.203   5.508   1.844
 5243SOL    HW116628   1.288   5.461   1.818
 5243SOL    HW216629   1.216   5.552   1.933
 5244SOL     OW16630   3.544   4.858   6.899
 5244SOL    HW116631   3.600   4.933   6.862
 5244SOL    HW216632   3.520   4.878   6.994
 5245SOL     OW16633   4.074   3.683   0.614
 5245SOL    HW116634   4.063   3.770   0.566
 5245SOL    HW216635   4.165   3.646   0.595
 5246SOL     OW16636   5.683   3.922   2.587
 5246SOL    HW116637   5.759   3.870   2.627
 5246SOL    HW216638   5.624   3.955   2.661
 5247SOL     OW16639   0.725   0.533   0.022
 5247SOL    HW116640   0.676   0.452   0.053
 5247SOL    HW216641   0.799   0.507   6.980
 5248SOL     OW16642   5.937   0.979   4.227
 5248SOL    HW116643   5.990   1.037   4.288
 5248SOL    HW216644   5.880   0.916   4.280
 5249SOL     OW16645   6.898   4.950   5.382
 5249SOL    HW116646   6.852   4.902   5.456
 5249SOL    HW216647   6.924   5.042   5.412
 5250SOL     OW16648   1.504   0.022   5.221
 5250SOL    HW116649   1.469   0.095   5.163
 5250SOL    HW216650   1.549   0.061   5.301
 5251SOL     OW16651   0.411   3.256   0.485
 5251SOL    HW116652   0.488   3.317   0.465
 5251SOL    HW216653   0.337   3.273   0.420
 5252SOL     OW16654   2.158   6.151   0.347
 5252SOL    HW116655   2.254   6.130   0.363
 5252SOL    HW216656   2.124   6.098   0.269
 5253SOL     OW16657   5.422   4.484   4.229
 5253SOL    HW116658   5.402   4.571   4.183
 5253SOL    HW216659   5.450   4.502   4.323
 5254SOL     OW16660   4.630   1.321   3.049
 5254SOL    HW116661   4.635   1.380   3.130
 5254SOL    HW216662   4.661   1.229   3.073
 5255SOL     OW16663   4.872   1.124   6.643
 5255SOL    HW116664   4.972   1.124   6.650
 5255SOL    HW216665   4.843   1.059   6.573
 5256SOL     OW16666   4.732   1.075   3.097
 5256SOL    HW116667   4.769   1.073   3.004
 5256SOL    HW216668   4.693   0.986   3.119
 5257SOL     OW16669   5.011   6.073   1.766
 5257SOL    HW116670   4.936   6.009   1.753
 5257SOL    HW216671   5.006   6.112   1.859
 5258SOL     OW16672   5.982   3.540   1.877
 5258SOL    HW116673   5.904   3.481   1.900
 5258SOL    HW216674   5.980   3.562   1.780
 5259SOL     OW16675   5.434   6.392   0.125
 5259SOL    HW116676   5.339   6.423   0.127
 5259SOL    HW216677   5.491   6.459   0.174
 5260SOL     OW16678   5.761   3.817   1.018
 5260SOL    HW116679   5.691   3.751   1.044
 5260SOL    HW216680   5.822   3.777   0.950
 5261SOL     OW16681   1.050   3.939   0.024
 5261SOL    HW116682   0.985   3.955   6.968
 5261SOL    HW216683   1.133   3.897   7.006
 5262SOL     OW16684   2.523   0.097   2.865
 5262SOL    HW116685   2.526   0.189   2.906
 5262SOL    HW216686   2.616   0.066   2.845
 5263SOL     OW16687   2.032   1.885   4.982
 5263SOL    HW116688   1.968   1.839   4.921
 5263SOL    HW216689   2.088   1.949   4.928
 5264SOL     OW16690   5.968   1.509   2.169
 5264SOL    HW116691   5.875   1.532   2.196
 5264SOL    HW216692   6.003   1.578   2.106
 5265SOL     OW16693   5.507   3.806   4.335
 5265SOL    HW116694   5.480   3.866   4.260
 5265SOL    HW216695   5.530   3.715   4.299
 5266SOL     OW16696   2.591   6.336   1.199
 5266SOL    HW116697   2.592   6.242   1.165
 5266SOL    HW216698   2.654   6.344   1.277
 5267SOL     OW16699   4.750   4.164   5.112
 5267SOL    HW116700   4.651   4.152   5.109
 5267SOL    HW216701   4.795   4.080   5.080
 5268SOL     OW16702   6.300   0.739   6.547
 5268SOL    HW116703   6.202   0.758   6.547
 5268SOL    HW216704   6.321   0.669   6.479
 5269SOL     OW16705   1.804   6.779   3.631
 5269SOL    HW116706   1.800   6.839   3.551
 5269SOL    HW216707   1.754   6.695   3.613
 5270SOL     OW16708   5.372   1.686   1.330
 5270SOL    HW116709   5.301   1.712   1.265
 5270SOL    HW216710   5.348   1.601   1.376
 5271SOL     OW16711   5.963   5.731   4.583
 5271SOL    HW116712   5.899   5.808   4.588
 5271SOL    HW216713   5.943   5.677   4.502
 5272SOL     OW16714   2.522   5.354   1.743
 5272SOL    HW116715   2.570   5.361   1.830
 5272SOL    HW216716   2.503   5.445   1.707
 5273SOL     OW16717   6.587   3.083   3.455
 5273SOL    HW116718   6.591   3.047   3.362
 5273SOL    HW216719   6.512   3.039   3.505
 5274SOL     OW16720   6.444   6.155   1.723
 5274SOL    HW116721   6.478   6.094   1.651
 5274SOL    HW216722   6.373   6.108   1.775
 5275SOL     OW16723   3.352   1.765   6.848
 5275SOL    HW116724   3.269   1.812   6.877
 5275SOL    HW216725   3.425   1.831   6.833
 5276SOL     OW16726   0.985   0.105   0.593
 5276SOL    HW116727   1.069   0.145   0.556
 5276SOL    HW216728   0.936   0.174   0.646
 5277SOL     OW16729   1.761   2.006   3.037
 5277SOL    HW116730   1.861   1.998   3.027
 5277SOL    HW216731   1.716   1.937   2.981
 5278SOL     OW16732   4.992   0.310   4.091
 5278SOL    HW116733   4.996   0.233   4.027
 5278SOL    HW216734   5.085   0.339   4.114
 5279SOL     OW16735   1.333   5.195   6.825
 5279SOL    HW116736   1.379   5.140   6.755
 5279SOL    HW216737   1.398   5.261   6.863
 5280SOL     OW16738   3.520   6.515   5.100
 5280SOL    HW116739   3.423   6.494   5.092
 5280SOL    HW216740   3.569   6.474   5.023
 5281SOL     OW16741   0.881   2.039   2.390
 5281SOL    HW116742   0.868   1.954   2.337
 5281SOL    HW216743   0.792   2.082   2.405
 5282SOL     OW16744   2.762   1.575   3.288
 5282SOL    HW116745   2.721   1.658   3.250
 5282SOL    HW216746   2.813   1.528   3.216
 5283SOL     OW16747   4.441   6.796   1.380
 5283SOL    HW116748   4.430   6.780   1.478
 5283SOL    HW216749   4.411   6.888   1.357
 5284SOL     OW16750   5.231   3.361   3.531
 5284SOL    HW116751   5.305   3.296   3.513
 5284SOL    HW216752   5.144   3.312   3.538
 5285SOL     OW16753   2.119   4.211   3.875
 5285SOL    HW116754   2.048   4.274   3.906
 5285SOL    HW216755   2.077   4.127   3.842
 5286SOL     OW16756   1.010   3.564   1.827
 5286SOL    HW116757   1.009   3.657   1.863
 5286SOL    HW216758   1.039   3.565   1.731
 5287SOL     OW16759   1.539   6.415   1.400
 5287SOL    HW116760   1.602   6.338   1.393
 5287SOL    HW216761   1.589   6.501   1.388
 5288SOL     OW16762   3.997   0.416   1.737
 5288SOL    HW116763   4.009   0.514   1.719
 5288SOL    HW216764   4.064   0.387   1.806
 5289SOL     OW16765   1.773   5.344   6.093
 5289SOL    HW116766   1.825   5.261   6.074
 5289SOL    HW216767   1.747   5.388   6.008
 5290SOL     OW16768   1.820   4.736   5.673
 5290SOL    HW116769   1.816   4.756   5.575
 5290SOL    HW216770   1.868   4.649   5.687
 5291SOL     OW16771   2.942   5.134   5.448
 5291SOL    HW116772   2.947   5.057   5.512
 5291SOL    HW216773   2.861   5.189   5.469
 5292SOL     OW16774   6.816   3.924   0.229
 5292SOL    HW116775   6.872   3.967   0.159
 5292SOL    HW216776   6.853   3.834   0.251
 5293SOL     OW16777   1.077   0.963   3.841
 5293SOL    HW116778   1.154   0.905   3.866
 5293SOL    HW216779   1.048   1.017   3.920
 5294SOL     OW16780   5.023   3.571   5.401
 5294SOL    HW116781   5.060   3.582   5.308
 5294SOL    HW216782   4.932   3.613   5.405
 5295SOL     OW16783   4.599   0.149   2.322
 5295SOL    HW116784   4.564   0.243   2.321
 5295SOL    HW216785   4.648   0.131   2.236
 5296SOL     OW16786   1.949   5.426   0.651
 5296SOL    HW116787   2.017   5.480   0.601
 5296SOL    HW216788   1.885   5.384   0.586
 5297SOL     OW16789   3.037   1.781   1.361
 5297SOL    HW116790   3.013   1.868   1.319
 5297SOL    HW216791   2.959   1.746   1.413
 5298SOL     OW16792   1.553   5.869   6.378
 5298SOL    HW116793   1.470   5.815   6.392
 5298SOL    HW216794   1.619   5.848   6.451
 5299SOL     OW16795   3.083   2.518   0.773
 5299SOL    HW116796   3.146   2.530   0.696
 5299SOL    HW216797   3.134   2.496   0.855
 5300SOL     OW16798   0.018   6.126   2.137
 5300SOL    HW116799   6.959   6.124   2.199
 5300SOL    HW216800   0.081   6.199   2.165
 5301SOL     OW16801   4.183   2.672   0.554
 5301SOL    HW116802   4.241   2.753   0.564
 5301SOL    HW216803   4.105   2.695   0.496
 5302SOL     OW16804   6.263   4.504   3.338
 5302SOL    HW116805   6.176   4.507   3.387
 5302SOL    HW216806   6.248   4.470   3.245
 5303SOL     OW16807   6.988   5.707   2.769
 5303SOL    HW116808   6.986   5.610   2.790
 5303SOL    HW216809   0.036   5.753   2.828
 5304SOL     OW16810   5.848   1.546   6.833
 5304SOL    HW116811   5.808   1.637   6.843
 5304SOL    HW216812   5.913   1.530   6.908
 5305SOL     OW16813   1.416   5.633   4.218
 5305SOL    HW116814   1.401   5.567   4.144
 5305SOL    HW216815   1.514   5.649   4.228
 5306SOL     OW16816   0.342   5.170   4.972
 5306SOL    HW116817   0.396   5.164   5.056
 5306SOL    HW216818   0.269   5.237   4.985
 5307SOL     OW16819   4.167   0.059   0.092
 5307SOL    HW116820   4.210   0.028   0.008
 5307SOL    HW216821   4.081   0.105   0.071
 5308SOL     OW16822   1.284   6.007   3.881
 5308SOL    HW116823   1.343   6.023   3.803
 5308SOL    HW216824   1.233   5.922   3.868
 5309SOL     OW16825   3.826   4.211   1.651
 5309SOL    HW116826   3.798   4.286   1.711
 5309SOL    HW216827   3.874   4.249   1.572
 5310SOL     OW16828   6.093   3.230   1.794
 5310SOL    HW116829   6.010   3.279   1.822
 5310SOL    HW216830   6.068   3.156   1.732
 5311SOL     OW16831   6.903   6.242   1.009
 5311SOL    HW116832   6.883   6.249   0.911
 5311SOL    HW216833   6.923   6.333   1.045
 5312SOL     OW16834   0.573   4.153   1.993
 5312SOL    HW116835   0.554   4.183   2.087
 5312SOL    HW216836   0.528   4.065   1.977
 5313SOL     OW16837   1.177   4.153   6.454
 5313SOL    HW116838   1.244   4.210   6.407
 5313SOL    HW216839   1.136   4.089   6.389
 5314SOL     OW16840   3.450   6.550   0.326
 5314SOL    HW116841   3.478   6.645   0.339
 5314SOL    HW216842   3.477   6.497   0.406
 5315SOL     OW16843   4.074   3.713   1.762
 5315SOL    HW116844   3.985   3.683   1.728
 5315SOL    HW216845   4.116   3.774   1.695
 5316SOL     OW16846   6.978   4.467   4.975
 5316SOL    HW116847   7.015   4.389   4.925
 5316SOL    HW216848   6.973   4.547   4.915
 5317SOL     OW16849   0.110   0.372   4.682
 5317SOL    HW116850   0.139   0.437   4.612
 5317SOL    HW216851   0.109   0.279   4.644
 5318SOL     OW16852   0.206   1.961   6.154
 5318SOL    HW116853   0.119   1.927   6.188
 5318SOL    HW216854   0.278   1.895   6.175
 5319SOL     OW16855   4.558   6.308   6.353
 5319SOL    HW116856   4.595   6.359   6.275
 5319SOL    HW216857   4.569   6.362   6.436
 5320SOL     OW16858   5.579   5.180   6.813
 5320SOL    HW116859   5.483   5.152   6.810
 5320SOL    HW216860   5.628   5.123   6.879
 5321SOL     OW16861   1.015   3.977   2.969
 5321SOL    HW116862   1.106   3.970   2.928
 5321SOL    HW216863   0.976   4.067   2.949
 5322SOL     OW16864   3.587   5.853   6.292
 5322SOL    HW116865   3.514   5.800   6.335
 5322SOL    HW216866   3.636   5.796   6.226
 5323SOL     OW16867   3.955   3.115   6.788
 5323SOL    HW116868   3.963   3.194   6.727
 5323SOL    HW216869   4.009   3.039   6.752
 5324SOL     OW16870   3.908   2.322   1.740
 5324SOL    HW116871   3.819   2.319   1.785
 5324SOL    HW216872   3.955   2.407   1.766
 5325SOL     OW16873   5.262   0.224   3.915
 5325SOL    HW116874   5.338   0.231   3.980
 5325SOL    HW216875   5.294   0.249   3.823
 5326SOL     OW16876   0.252   5.562   3.475
 5326SOL    HW116877   0.243   5.579   3.377
 5326SOL    HW216878   0.202   5.479   3.499
 5327SOL     OW16879   5.759   4.477   4.976
 5327SOL    HW116880   5.742   4.561   4.925
 5327SOL    HW216881   5.809   4.499   5.060
 5328SOL     OW16882   4.420   2.955   5.802
 5328SOL    HW116883   4.334   2.905   5.786
 5328SOL    HW216884   4.484   2.935   5.728
 5329SOL     OW16885   0.200   4.021   0.592
 5329SOL    HW116886   0.251   4.072   0.522
 5329SOL    HW216887   0.109   3.998   0.557
 5330SOL     OW16888   3.747   3.945   5.955
 5330SOL    HW116889   3.763   3.864   6.011
 5330SOL    HW216890   3.653   3.976   5.968
 5331SOL     OW16891   5.636   0.571   1.752
 5331SOL    HW116892   5.719   0.622   1.729
 5331SOL    HW216893   5.575   0.569   1.672
 5332SOL     OW16894   0.296   3.848   0.276
 5332SOL    HW116895   0.365   3.896   0.221
 5332SOL    HW216896   0.312   3.866   0.373
 5333SOL     OW16897   0.853   0.551   3.203
 5333SOL    HW116898   0.806   0.638   3.217
 5333SOL    HW216899   0.785   0.478   3.190
 5334SOL     OW16900   3.850   5.975   5.090
 5334SOL    HW116901   3.820   6.060   5.132
 5334SOL    HW216902   3.896   5.918   5.159
 5335SOL     OW16903   0.472   4.999   2.731
 5335SOL    HW116904   0.414   4.988   2.811
 5335SOL    HW216905   0.418   4.983   2.648
 5336SOL     OW16906   2.608   1.705   3.664
 5336SOL    HW116907   2.571   1.650   3.590
 5336SOL    HW216908   2.620   1.799   3.633
 5337SOL     OW16909   5.185   5.092   1.997
 5337SOL    HW116910   5.199   5.105   1.899
 5337SOL    HW216911   5.272   5.098   2.045
 5338SOL     OW16912   6.034   0.819   5.981
 5338SOL    HW116913   5.951   0.771   6.008
 5338SOL    HW216914   6.020   0.917   5.987
 5339SOL     OW16915   5.590   1.301   3.224
 5339SOL    HW116916   5.592   1.387   3.275
 5339SOL    HW216917   5.549   1.317   3.134
 5340SOL     OW16918   6.134   3.852   1.296
 5340SOL    HW116919   6.069   3.778   1.278
 5340SOL    HW216920   6.086   3.929   1.337
 5341SOL     OW16921   3.391   5.519   5.338
 5341SOL    HW116922   3.352   5.603   5.301
 5341SOL    HW216923   3.487   5.512   5.312
 5342SOL     OW16924   4.726   6.811   4.802
 5342SOL    HW116925   4.824   6.803   4.824
 5342SOL    HW216926   4.672   6.782   4.881
 5343SOL     OW16927   4.267   3.627   5.060
 5343SOL    HW116928   4.244   3.530   5.071
 5343SOL    HW216929   4.348   3.636   5.003
 5344SOL     OW16930   1.585   2.368   1.205
 5344SOL    HW116931   1.570   2.439   1.136
 5344SOL    HW216932   1.506   2.363   1.266
 5345SOL     OW16933   5.123   6.827   0.239
 5345SOL    HW116934   5.105   6.749   0.300
 5345SOL    HW216935   5.073   6.814   0.154
 5346SOL     OW16936   2.591   5.388   3.728
 5346SOL    HW116937   2.646   5.462   3.690
 5346SOL    HW216938   2.561   5.327   3.654
 5347SOL     OW16939   0.814   2.941   2.893
 5347SOL    HW116940   0.845   3.034   2.870
 5347SOL    HW216941   0.776   2.940   2.985
 5348SOL     OW16942   7.001   1.162   0.324
 5348SOL    HW116943   6.910   1.204   0.317
 5348SOL    HW216944   6.992   1.063   0.319
 5349SOL     OW16945   2.122   3.686   0.091
 5349SOL    HW116946   2.084   3.607   0.140
 5349SOL    HW216947   2.047   3.745   0.060
 5350SOL     OW16948   1.683   0.103   4.497
 5350SOL    HW116949   1.693   0.087   4.399
 5350SOL    HW216950   1.610   0.170   4.513
 5351SOL     OW16951   6.834   5.292   2.007
 5351SOL    HW116952   6.753   5.296   1.949
 5351SOL    HW216953   6.879   5.381   2.009
 5352SOL     OW16954   2.247   4.579   3.080
 5352SOL    HW116955   2.281   4.487   3.100
 5352SOL    HW216956   2.325   4.641   3.065
 5353SOL     OW16957   3.747   5.610   4.421
 5353SOL    HW116958   3.739   5.625   4.323
 5353SOL    HW216959   3.828   5.554   4.440
 5354SOL     OW16960   2.185   4.479   1.485
 5354SOL    HW116961   2.141   4.401   1.529
 5354SOL    HW216962   2.133   4.506   1.404
 5355SOL     OW16963   5.884   5.020   4.472
 5355SOL    HW116964   5.936   5.091   4.426
 5355SOL    HW216965   5.941   4.975   4.541
 5356SOL     OW16966   6.206   3.460   2.838
 5356SOL    HW116967   6.114   3.438   2.870
 5356SOL    HW216968   6.201   3.491   2.743
 5357SOL     OW16969   2.753   5.433   0.649
 5357SOL    HW116970   2.720   5.400   0.737
 5357SOL    HW216971   2.841   5.478   0.661
 5358SOL     OW16972   4.226   1.773   0.434
 5358SOL    HW116973   4.305   1.721   0.466
 5358SOL    HW216974   4.143   1.718   0.446
 5359SOL     OW16975   2.571   1.289   6.203
 5359SOL    HW116976   2.479   1.296   6.164
 5359SOL    HW216977   2.570   1.226   6.281
 5360SOL     OW16978   3.863   6.334   3.443
 5360SOL    HW116979   3.893   6.402   3.375
 5360SOL    HW216980   3.766   6.347   3.462
 5361SOL     OW16981   2.254   0.002   4.578
 5361SOL    HW116982   2.294   6.936   4.610
 5361SOL    HW216983   2.188   0.036   4.645
 5362SOL     OW16984   6.560   6.392   2.313
 5362SOL    HW116985   6.583   6.405   2.410
 5362SOL    HW216986   6.462   6.371   2.305
 5363SOL     OW16987   6.493   6.108   5.764
 5363SOL    HW116988   6.510   6.018   5.803
 5363SOL    HW216989   6.444   6.165   5.831
 5364SOL     OW16990   6.188   0.102   1.976
 5364SOL    HW116991   6.149   0.011   1.985
 5364SOL    HW216992   6.155   0.160   2.051
 5365SOL     OW16993   3.599   3.219   1.456
 5365SOL    HW116994   3.657   3.259   1.527
 5365SOL    HW216995   3.525   3.283   1.434
 5366SOL     OW16996   5.933   6.516   1.239
 5366SOL    HW116997   6.011   6.572   1.265
 5366SOL    HW216998   5.935   6.430   1.290
 5367SOL     OW16999   0.243   6.929   1.656
 5367SOL    HW117000   0.231   6.830   1.652
 5367SOL    HW217001   0.251   6.957   1.752
 5368SOL     OW17002   5.591   0.147   2.855
 5368SOL    HW117003   5.593   0.197   2.942
 5368SOL    HW217004   5.684   0.134   2.821
 5369SOL     OW17005   2.575   6.529   0.855
 5369SOL    HW117006   2.645   6.530   0.783
 5369SOL    HW217007   2.556   6.435   0.883
 5370SOL     OW17008   4.835   3.277   0.911
 5370SOL    HW117009   4.881   3.284   0.822
 5370SOL    HW217010   4.873   3.201   0.963
 5371SOL     OW17011   0.992   4.275   5.624
 5371SOL    HW117012   0.964   4.364   5.588
 5371SOL    HW217013   1.084   4.282   5.661
 5372SOL     OW17014   1.143   6.082   2.817
 5372SOL    HW117015   1.191   6.164   2.848
 5372SOL    HW217016   1.086   6.046   2.891
 5373SOL     OW17017   3.939   6.329   5.348
 5373SOL    HW117018   4.027   6.294   5.380
 5373SOL    HW217019   3.952   6.418   5.305
 5374SOL     OW17020   2.423   4.576   0.929
 5374SOL    HW117021   2.410   4.492   0.878
 5374SOL    HW217022   2.334   4.612   0.958
 5375SOL     OW17023   0.441   5.966   5.058
 5375SOL    HW117024   0.377   5.972   5.136
 5375SOL    HW217025   0.389   5.954   4.974
 5376SOL     OW17026   1.372   2.341   1.358
 5376SOL    HW117027   1.288   2.395   1.360
 5376SOL    HW217028   1.350   2.246   1.334
 5377SOL     OW17029   0.409   0.146   2.064
 5377SOL    HW117030   0.494   0.134   2.115
 5377SOL    HW217031   0.430   0.171   1.970
 5378SOL     OW17032   6.690   6.973   2.751
 5378SOL    HW117033   6.790   6.964   2.744
 5378SOL    HW217034   6.650   6.963   2.660
 5379SOL     OW17035   1.114   3.761   4.983
 5379SOL    HW117036   1.113   3.860   4.968
 5379SOL    HW217037   1.142   3.715   4.898
 5380SOL     OW17038   3.519   6.789   2.395
 5380SOL    HW117039   3.541   6.693   2.377
 5380SOL    HW217040   3.580   6.847   2.341
 5381SOL     OW17041   6.517   5.740   2.316
 5381SOL    HW117042   6.459   5.707   2.242
 5381SOL    HW217043   6.497   5.689   2.400
 5382SOL     OW17044   3.058   1.987   1.858
 5382SOL    HW117045   3.137   2.007   1.915
 5382SOL    HW217046   3.056   1.890   1.836
 5383SOL     OW17047   1.766   2.555   4.674
 5383SOL    HW117048   1.785   2.645   4.635
 5383SOL    HW217049   1.798   2.552   4.768
 5384SOL     OW17050   5.558   0.181   5.411
 5384SOL    HW117051   5.589   0.100   5.362
 5384SOL    HW217052   5.550   0.258   5.347
 5385SOL     OW17053   3.910   3.341   5.181
 5385SOL    HW117054   3.848   3.408   5.138
 5385SOL    HW217055   3.933   3.372   5.273
 5386SOL     OW17056   4.675   1.322   3.859
 5386SOL    HW117057   4.770   1.325   3.829
 5386SOL    HW217058   4.641   1.228   3.855
 5387SOL     OW17059   2.139   6.642   2.838
 5387SOL    HW117060   2.155   6.718   2.901
 5387SOL    HW217061   2.159   6.556   2.885
 5388SOL     OW17062   1.034   1.012   2.826
 5388SOL    HW117063   1.045   1.003   2.727
 5388SOL    HW217064   0.950   1.062   2.846
 5389SOL     OW17065   3.907   1.152   3.584
 5389SOL    HW117066   3.817   1.116   3.559
 5389SOL    HW217067   3.903   1.251   3.590
 5390SOL     OW17068   5.099   3.995   3.932
 5390SOL    HW117069   5.044   4.063   3.980
 5390SOL    HW217070   5.119   3.919   3.994
 5391SOL     OW17071   2.227   1.441   0.563
 5391SOL    HW117072   2.188   1.511   0.503
 5391SOL    HW217073   2.216   1.352   0.521
 5392SOL     OW17074   5.968   3.664   0.888
 5392SOL    HW117075   5.920   3.674   0.801
 5392SOL    HW217076   6.012   3.574   0.891
 5393SOL     OW17077   4.739   0.839   5.007
 5393SOL    HW117078   4.819   0.814   4.953
 5393SOL    HW217079   4.661   0.784   4.977
 5394SOL     OW17080   0.155   5.795   1.206
 5394SOL    HW117081   0.217   5.717   1.199
 5394SOL    HW217082   0.110   5.809   1.117
 5395SOL     OW17083   4.801   0.602   0.942
 5395SOL    HW117084   4.727   0.668   0.941
 5395SOL    HW217085   4.874   0.632   0.880
 5396SOL     OW17086   5.511   4.772   1.238
 5396SOL    HW117087   5.471   4.689   1.277
 5396SOL    HW217088   5.490   4.777   1.140
 5397SOL     OW17089   0.410   2.275   1.152
 5397SOL    HW117090   0.345   2.296   1.079
 5397SOL    HW217091   0.503   2.272   1.114
 5398SOL     OW17092   3.016   2.167   3.837
 5398SOL    HW117093   2.978   2.075   3.848
 5398SOL    HW217094   3.068   2.191   3.919
 5399SOL     OW17095   2.743   6.556   6.644
 5399SOL    HW117096   2.739   6.553   6.744
 5399SOL    HW217097   2.794   6.477   6.610
 5400SOL     OW17098   3.104   3.623   6.673
 5400SOL    HW117099   3.021   3.626   6.618
 5400SOL    HW217100   3.142   3.715   6.682
 5401SOL     OW17101   6.031   4.431   2.693
 5401SOL    HW117102   6.039   4.342   2.738
 5401SOL    HW217103   6.115   4.483   2.705
 5402SOL     OW17104   2.741   5.774   1.785
 5402SOL    HW117105   2.701   5.819   1.705
 5402SOL    HW217106   2.816   5.714   1.756
 5403SOL     OW17107   4.767   3.428   6.244
 5403SOL    HW117108   4.834   3.395   6.179
 5403SOL    HW217109   4.769   3.528   6.246
 5404SOL     OW17110   0.645   0.792   2.284
 5404SOL    HW117111   0.684   0.875   2.244
 5404SOL    HW217112   0.710   0.717   2.277
 5405SOL     OW17113   5.680   5.274   0.146
 5405SOL    HW117114   5.664   5.176   0.159
 5405SOL    HW217115   5.594   5.319   0.120
 5406SOL     OW17116   1.827   0.555   5.267
 5406SOL    HW117117   1.851   0.623   5.336
 5406SOL    HW217118   1.836   0.596   5.176
 5407SOL     OW17119   2.946   1.984   1.192
 5407SOL    HW117120   2.994   2.025   1.114
 5407SOL    HW217121   2.855   1.955   1.163
 5408SOL     OW17122   3.897   0.028   5.065
 5408SOL    HW117123   3.975   0.059   5.009
 5408SOL    HW217124   3.818   0.013   5.005
 5409SOL     OW17125   6.644   1.646   3.052
 5409SOL    HW117126   6.545   1.660   3.052
 5409SOL    HW217127   6.667   1.572   2.989
 5410SOL     OW17128   0.860   2.566   6.349
 5410SOL    HW117129   0.882   2.589   6.443
 5410SOL    HW217130   0.934   2.511   6.309
 5411SOL     OW17131   5.984   5.376   5.986
 5411SOL    HW117132   6.034   5.462   5.981
 5411SOL    HW217133   5.906   5.380   5.923
 5412SOL     OW17134   3.421   1.346   6.824
 5412SOL    HW117135   3.366   1.390   6.753
 5412SOL    HW217136   3.362   1.315   6.898
 5413SOL     OW17137   6.803   0.615   0.257
 5413SOL    HW117138   6.871   0.543   0.239
 5413SOL    HW217139   6.798   0.675   0.177
 5414SOL     OW17140   6.101   4.236   5.002
 5414SOL    HW117141   6.005   4.227   4.974
 5414SOL    HW217142   6.119   4.331   5.027
 5415SOL     OW17143   1.508   6.632   1.693
 5415SOL    HW117144   1.573   6.626   1.617
 5415SOL    HW217145   1.425   6.679   1.662
 5416SOL     OW17146   3.118   5.053   5.730
 5416SOL    HW117147   3.202   5.102   5.707
 5416SOL    HW217148   3.139   4.955   5.741
 5417SOL     OW17149   4.445   6.388   4.957
 5417SOL    HW117150   4.366   6.329   4.968
 5417SOL    HW217151   4.425   6.479   4.995
 5418SOL     OW17152   5.266   0.099   4.908
 5418SOL    HW117153   5.350   0.075   4.957
 5418SOL    HW217154   5.290   0.131   4.816
 5419SOL     OW17155   3.110   5.304   0.505
 5419SOL    HW117156   3.136   5.358   0.585
 5419SOL    HW217157   3.089   5.211   0.533
 5420SOL     OW17158   2.247   2.201   1.458
 5420SOL    HW117159   2.279   2.289   1.425
 5420SOL    HW217160   2.149   2.207   1.478
 5421SOL     OW17161   2.987   5.206   3.125
 5421SOL    HW117162   2.911   5.157   3.168
 5421SOL    HW217163   2.969   5.215   3.027
 5422SOL     OW17164   0.320   5.334   4.270
 5422SOL    HW117165   0.323   5.240   4.237
 5422SOL    HW217166   0.226   5.358   4.294
 5423SOL     OW17167   5.567   4.699   0.368
 5423SOL    HW117168   5.528   4.721   0.458
 5423SOL    HW217169   5.645   4.758   0.350
 5424SOL     OW17170   5.811   4.001   4.622
 5424SOL    HW117171   5.776   4.092   4.600
 5424SOL    HW217172   5.889   4.010   4.684
 5425SOL     OW17173   5.038   2.193   4.612
 5425SOL    HW117174   4.995   2.281   4.592
 5425SOL    HW217175   5.126   2.188   4.565
 5426SOL     OW17176   5.978   5.834   3.025
 5426SOL    HW117177   5.934   5.875   2.945
 5426SOL    HW217178   5.989   5.735   3.010
 5427SOL     OW17179   5.340   4.083   0.481
 5427SOL    HW117180   5.263   4.021   0.495
 5427SOL    HW217181   5.363   4.086   0.384
 5428SOL     OW17182   6.187   6.780   2.311
 5428SOL    HW117183   6.262   6.825   2.263
 5428SOL    HW217184   6.154   6.703   2.256
 5429SOL     OW17185   2.417   0.695   6.263
 5429SOL    HW117186   2.420   0.595   6.267
 5429SOL    HW217187   2.480   0.733   6.331
 5430SOL     OW17188   2.143   2.724   6.076
 5430SOL    HW117189   2.063   2.785   6.078
 5430SOL    HW217190   2.179   2.720   5.983
 5431SOL     OW17191   3.284   4.216   6.394
 5431SOL    HW117192   3.282   4.176   6.303
 5431SOL    HW217193   3.309   4.313   6.388
 5432SOL     OW17194   3.279   5.213   6.446
 5432SOL    HW117195   3.349   5.142   6.439
 5432SOL    HW217196   3.320   5.302   6.426
 5433SOL     OW17197   0.886   0.914   2.539
 5433SOL    HW117198   0.798   0.893   2.582
 5433SOL    HW217199   0.945   0.833   2.543
 5434SOL     OW17200   3.933   0.626   4.255
 5434SOL    HW117201   3.871   0.615   4.177
 5434SOL    HW217202   3.996   0.702   4.237
 5435SOL     OW17203   6.217   2.567   0.974
 5435SOL    HW117204   6.150   2.636   0.947
 5435SOL    HW217205   6.237   2.577   1.072
 5436SOL     OW17206   5.684   4.686   4.005
 5436SOL    HW117207   5.677   4.731   4.094
 5436SOL    HW217208   5.748   4.609   4.012
 5437SOL     OW17209   2.715   5.613   5.418
 5437SOL    HW117210   2.617   5.615   5.399
 5437SOL    HW217211   2.764   5.669   5.350
 5438SOL     OW17212   6.077   3.113   2.224
 5438SOL    HW117213   6.072   3.078   2.130
 5438SOL    HW217214   6.078   3.036   2.288
 5439SOL     OW17215   0.452   2.400   0.192
 5439SOL    HW117216   0.353   2.391   0.185
 5439SOL    HW217217   0.490   2.319   0.236
 5440SOL     OW17218   6.680   6.656   3.570
 5440SOL    HW117219   6.707   6.560   3.568
 5440SOL    HW217220   6.584   6.663   3.598
 5441SOL     OW17221   4.807   2.883   3.459
 5441SOL    HW117222   4.892   2.863   3.507
 5441SOL    HW217223   4.827   2.900   3.362
 5442SOL     OW17224   4.207   6.849   2.484
 5442SOL    HW117225   4.236   6.772   2.427
 5442SOL    HW217226   4.278   6.920   2.482
 5443SOL     OW17227   3.599   5.262   3.588
 5443SOL    HW117228   3.588   5.340   3.526
 5443SOL    HW217229   3.691   5.226   3.580
 5444SOL     OW17230   0.305   0.663   3.274
 5444SOL    HW117231   0.386   0.626   3.228
 5444SOL    HW217232   0.282   0.606   3.352
 5445SOL     OW17233   6.479   3.884   4.219
 5445SOL    HW117234   6.471   3.904   4.317
 5445SOL    HW217235   6.512   3.966   4.171
 5446SOL     OW17236   5.798   5.200   4.761
 5446SOL    HW117237   5.732   5.125   4.752
 5446SOL    HW217238   5.889   5.162   4.777
 5447SOL     OW17239   1.520   1.338   0.425
 5447SOL    HW117240   1.602   1.394   0.435
 5447SOL    HW217241   1.452   1.387   0.371
 5448SOL     OW17242   5.049   4.884   4.269
 5448SOL    HW117243   5.117   4.930   4.212
 5448SOL    HW217244   5.083   4.880   4.363
 5449SOL     OW17245   2.047   1.607   1.165
 5449SOL    HW117246   2.087   1.518   1.143
 5449SOL    HW217247   1.976   1.630   1.098
 5450SOL     OW17248   3.053   0.162   0.929
 5450SOL    HW117249   2.962   0.200   0.945
 5450SOL    HW217250   3.060   0.131   0.834
 5451SOL     OW17251   2.196   6.309   3.673
 5451SOL    HW117252   2.221   6.327   3.578
 5451SOL    HW217253   2.264   6.351   3.734
 5452SOL     OW17254   2.568   4.255   0.095
 5452SOL    HW117255   2.498   4.184   0.085
 5452SOL    HW217256   2.532   4.342   0.060
 5453SOL     OW17257   5.312   4.333   2.701
 5453SOL    HW117258   5.232   4.354   2.757
 5453SOL    HW217259   5.370   4.414   2.694
 5454SOL     OW17260   4.919   5.984   0.180
 5454SOL    HW117261   4.842   5.973   0.243
 5454SOL    HW217262   4.887   5.968   0.087
 5455SOL     OW17263   0.394   2.497   3.503
 5455SOL    HW117264   0.309   2.450   3.479
 5455SOL    HW217265   0.374   2.575   3.562
 5456SOL     OW17266   3.242   0.363   0.260
 5456SOL    HW117267   3.152   0.329   0.232
 5456SOL    HW217268   3.262   0.449   0.212
 5457SOL     OW17269   6.290   2.082   1.263
 5457SOL    HW117270   6.225   2.154   1.284
 5457SOL    HW217271   6.316   2.035   1.347
 5458SOL     OW17272   0.801   5.118   0.063
 5458SOL    HW117273   0.742   5.070   7.018
 5458SOL    HW217274   0.839   5.199   0.018
 5459SOL     OW17275   3.038   4.015   5.724
 5459SOL    HW117276   2.988   3.970   5.650
 5459SOL    HW217277   2.988   4.003   5.810
 5460SOL     OW17278   3.650   6.717   2.938
 5460SOL    HW117279   3.640   6.785   2.865
 5460SOL    HW217280   3.608   6.630   2.909
 5461SOL     OW17281   0.504   0.526   4.907
 5461SOL    HW117282   0.496   0.427   4.908
 5461SOL    HW217283   0.600   0.552   4.905
 5462SOL     OW17284   5.729   6.594   6.965
 5462SOL    HW117285   5.672   6.557   6.892
 5462SOL    HW217286   5.744   6.691   6.950
 5463SOL     OW17287   0.598   1.756   0.008
 5463SOL    HW117288   0.585   1.744   6.928
 5463SOL    HW217289   0.509   1.766   0.052
 5464SOL     OW17290   6.231   0.197   5.053
 5464SOL    HW117291   6.259   0.112   5.096
 5464SOL    HW217292   6.270   0.274   5.103
 5465SOL     OW17293   5.324   0.796   4.025
 5465SOL    HW117294   5.295   0.701   4.027
 5465SOL    HW217295   5.243   0.855   4.025
 5466SOL     OW17296   5.255   3.037   5.883
 5466SOL    HW117297   5.243   3.004   5.977
 5466SOL    HW217298   5.170   3.077   5.851
 5467SOL     OW17299   5.229   3.732   3.711
 5467SOL    HW117300   5.177   3.756   3.794
 5467SOL    HW217301   5.272   3.643   3.725
 5468SOL     OW17302   6.187   1.980   4.552
 5468SOL    HW117303   6.188   1.884   4.578
 5468SOL    HW217304   6.230   1.991   4.462
 5469SOL     OW17305   3.413   6.330   5.517
 5469SOL    HW117306   3.406   6.345   5.419
 5469SOL    HW217307   3.494   6.377   5.552
 5470SOL     OW17308   3.646   5.543   3.426
 5470SOL    HW117309   3.672   5.599   3.505
 5470SOL    HW217310   3.637   5.601   3.345
 5471SOL     OW17311   6.417   0.434   3.538
 5471SOL    HW117312   6.434   0.367   3.466
 5471SOL    HW217313   6.409   0.387   3.626
 5472SOL     OW17314   2.891   3.669   6.217
 5472SOL    HW117315   2.934   3.582   6.193
 5472SOL    HW217316   2.953   3.744   6.193
 5473SOL     OW17317   1.097   3.529   1.586
 5473SOL    HW117318   1.173   3.512   1.522
 5473SOL    HW217319   1.011   3.530   1.535
 5474SOL     OW17320   1.154   4.406   4.716
 5474SOL    HW117321   1.179   4.368   4.627
 5474SOL    HW217322   1.185   4.501   4.722
 5475SOL     OW17323   1.919   2.332   1.200
 5475SOL    HW117324   1.877   2.412   1.243
 5475SOL    HW217325   1.906   2.251   1.258
 5476SOL     OW17326   2.448   4.483   4.717
 5476SOL    HW117327   2.390   4.412   4.677
 5476SOL    HW217328   2.449   4.472   4.817
 5477SOL     OW17329   2.267   4.172   2.523
 5477SOL    HW117330   2.351   4.212   2.560
 5477SOL    HW217331   2.211   4.136   2.597
 5478SOL     OW17332   3.667   6.562   5.346
 5478SOL    HW117333   3.627   6.506   5.273
 5478SOL    HW217334   3.676   6.506   5.429
 5479SOL     OW17335   5.616   1.786   5.439
 5479SOL    HW117336   5.572   1.861   5.488
 5479SOL    HW217337   5.546   1.728   5.398
 5480SOL     OW17338   6.060   5.939   4.094
 5480SOL    HW117339   5.998   6.002   4.140
 5480SOL    HW217340   6.007   5.864   4.054
 5481SOL     OW17341   4.521   0.816   4.671
 5481SOL    HW117342   4.456   0.745   4.696
 5481SOL    HW217343   4.614   0.780   4.675
 5482SOL     OW17344   3.622   4.016   1.684
 5482SOL    HW117345   3.694   3.998   1.616
 5482SOL    HW217346   3.660   4.009   1.776
 5483SOL     OW17347   7.001   2.744   5.197
 5483SOL    HW117348   0.048   2.819   5.202
 5483SOL    HW217349   6.956   2.734   5.286
 5484SOL     OW17350   4.534   0.690   3.624
 5484SOL    HW117351   4.594   0.762   3.659
 5484SOL    HW217352   4.499   0.635   3.700
 5485SOL     OW17353   3.606   0.058   4.990
 5485SOL    HW117354   3.533   0.065   4.922
 5485SOL    HW217355   3.586   7.002   5.053
 5486SOL     OW17356   1.609   5.694   5.165
 5486SOL    HW117357   1.642   5.650   5.082
 5486SOL    HW217358   1.686   5.729   5.218
 5487SOL     OW17359   5.308   3.017   6.377
 5487SOL    HW117360   5.400   3.056   6.379
 5487SOL    HW217361   5.241   3.091   6.376
 5488SOL     OW17362   6.191   0.724   1.079
 5488SOL    HW117363   6.181   0.627   1.056
 5488SOL    HW217364   6.254   0.734   1.156
 5489SOL     OW17365   1.232   4.159   1.048
 5489SOL    HW117366   1.168   4.179   1.122
 5489SOL    HW217367   1.249   4.242   0.995
 5490SOL     OW17368   2.770   0.141   1.027
 5490SOL    HW117369   2.752   0.148   1.126
 5490SOL    HW217370   2.702   0.082   0.985
 5491SOL     OW17371   1.900   4.168   0.883
 5491SOL    HW117372   1.929   4.223   0.961
 5491SOL    HW217373   1.923   4.216   0.798
 5492SOL     OW17374   0.120   2.459   5.825
 5492SOL    HW117375   0.073   2.383   5.779
 5492SOL    HW217376   0.186   2.500   5.762
 5493SOL     OW17377   3.951   3.918   4.088
 5493SOL    HW117378   3.911   3.984   4.152
 5493SOL    HW217379   3.956   3.958   3.997
 5494SOL     OW17380   6.267   2.543   6.175
 5494SOL    HW117381   6.271   2.453   6.132
 5494SOL    HW217382   6.314   2.610   6.118
 5495SOL     OW17383   3.215   1.905   0.552
 5495SOL    HW117384   3.216   1.817   0.504
 5495SOL    HW217385   3.193   1.890   0.649
 5496SOL     OW17386   3.526   0.228   3.242
 5496SOL    HW117387   3.573   0.309   3.278
 5496SOL    HW217388   3.518   0.159   3.314
 5497SOL     OW17389   0.664   1.849   4.123
 5497SOL    HW117390   0.568   1.857   4.149
 5497SOL    HW217391   0.687   1.753   4.108
 5498SOL     OW17392   5.932   6.072   1.108
 5498SOL    HW117393   5.913   6.105   1.016
 5498SOL    HW217394   5.876   6.123   1.174
 5499SOL     OW17395   0.712   0.343   4.642
 5499SOL    HW117396   0.739   0.285   4.719
 5499SOL    HW217397   0.613   0.353   4.642
 5500SOL     OW17398   0.881   0.426   0.528
 5500SOL    HW117399   0.785   0.402   0.543
 5500SOL    HW217400   0.937   0.344   0.530
 5501SOL     OW17401   3.772   6.749   0.110
 5501SOL    HW117402   3.797   6.844   0.096
 5501SOL    HW217403   3.674   6.742   0.127
 5502SOL     OW17404   5.564   3.241   0.324
 5502SOL    HW117405   5.614   3.181   0.262
 5502SOL    HW217406   5.481   3.194   0.357
 5503SOL     OW17407   0.541   4.952   2.106
 5503SOL    HW117408   0.444   4.928   2.114
 5503SOL    HW217409   0.583   4.955   2.196
 5504SOL     OW17410   3.807   1.281   4.869
 5504SOL    HW117411   3.826   1.306   4.964
 5504SOL    HW217412   3.866   1.204   4.843
 5505SOL     OW17413   1.682   5.140   4.468
 5505SOL    HW117414   1.749   5.084   4.418
 5505SOL    HW217415   1.704   5.138   4.565
 5506SOL     OW17416   1.094   2.470   6.280
 5506SOL    HW117417   1.172   2.412   6.304
 5506SOL    HW217418   1.127   2.556   6.240
 5507SOL     OW17419   3.609   0.836   4.147
 5507SOL    HW117420   3.576   0.840   4.242
 5507SOL    HW217421   3.565   0.760   4.100
 5508SOL     OW17422   1.503   0.792   6.175
 5508SOL    HW117423   1.422   0.739   6.201
 5508SOL    HW217424   1.495   0.885   6.210
 5509SOL     OW17425   0.273   6.505   6.946
 5509SOL    HW117426   0.257   6.537   0.021
 5509SOL    HW217427   0.298   6.583   6.889
 5510SOL     OW17428   5.386   5.172   0.631
 5510SOL    HW117429   5.294   5.204   0.606
 5510SOL    HW217430   5.454   5.237   0.599
 5511SOL     OW17431   1.958   1.667   4.080
 5511SOL    HW117432   1.921   1.595   4.021
 5511SOL    HW217433   2.015   1.729   4.026
 5512SOL     OW17434   5.805   2.299   1.466
 5512SOL    HW117435   5.788   2.387   1.421
 5512SOL    HW217436   5.799   2.225   1.398
 5513SOL     OW17437   4.319   4.808   6.726
 5513SOL    HW117438   4.362   4.739   6.669
 5513SOL    HW217439   4.373   4.892   6.725
 5514SOL     OW17440   4.270   6.670   4.111
 5514SOL    HW117441   4.181   6.648   4.151
 5514SOL    HW217442   4.340   6.611   4.151
 5515SOL     OW17443   0.524   5.712   1.950
 5515SOL    HW117444   0.619   5.686   1.964
 5515SOL    HW217445   0.512   5.746   1.856
 5516SOL     OW17446   2.030   4.286   6.418
 5516SOL    HW117447   2.123   4.263   6.389
 5516SOL    HW217448   2.031   4.375   6.464
 5517SOL     OW17449   2.070   3.333   2.079
 5517SOL    HW117450   2.125   3.409   2.043
 5517SOL    HW217451   2.076   3.332   2.179
 5518SOL     OW17452   5.900   6.155   6.323
 5518SOL    HW117453   5.957   6.096   6.380
 5518SOL    HW217454   5.864   6.230   6.379
 5519SOL     OW17455   5.615   3.746   3.848
 5519SOL    HW117456   5.677   3.824   3.859
 5519SOL    HW217457   5.521   3.778   3.836
 5520SOL     OW17458   5.903   5.986   2.162
 5520SOL    HW117459   5.967   6.036   2.221
 5520SOL    HW217460   5.810   5.999   2.195
 5521SOL     OW17461   5.282   6.374   1.552
 5521SOL    HW117462   5.320   6.390   1.643
 5521SOL    HW217463   5.195   6.325   1.561
 5522SOL     OW17464   0.629   5.320   0.560
 5522SOL    HW117465   0.634   5.241   0.499
 5522SOL    HW217466   0.550   5.376   0.534
 5523SOL     OW17467   4.073   0.610   2.132
 5523SOL    HW117468   4.116   0.695   2.103
 5523SOL    HW217469   4.138   0.534   2.119
 5524SOL     OW17470   5.654   6.999   5.256
 5524SOL    HW117471   5.732   6.976   5.197
 5524SOL    HW217472   5.589   6.923   5.257
 5525SOL     OW17473   0.434   1.971   1.198
 5525SOL    HW117474   0.365   2.028   1.152
 5525SOL    HW217475   0.425   1.877   1.166
 5526SOL     OW17476   4.906   5.304   3.645
 5526SOL    HW117477   4.959   5.368   3.700
 5526SOL    HW217478   4.912   5.212   3.685
 5527SOL     OW17479   5.229   3.842   4.131
 5527SOL    HW117480   5.316   3.892   4.131
 5527SOL    HW217481   5.242   3.754   4.177
 5528SOL     OW17482   1.387   1.050   6.281
 5528SOL    HW117483   1.335   1.128   6.316
 5528SOL    HW217484   1.429   1.074   6.194
 5529SOL     OW17485   3.021   0.153   3.313
 5529SOL    HW117486   3.063   0.146   3.222
 5529SOL    HW217487   3.093   0.156   3.382
 5530SOL     OW17488   5.857   2.251   1.720
 5530SOL    HW117489   5.949   2.214   1.706
 5530SOL    HW217490   5.817   2.275   1.632
 5531SOL     OW17491   3.008   3.201   2.419
 5531SOL    HW117492   2.962   3.138   2.355
 5531SOL    HW217493   3.097   3.164   2.444
 5532SOL     OW17494   1.447   2.848   0.733
 5532SOL    HW117495   1.505   2.786   0.787
 5532SOL    HW217496   1.423   2.928   0.788
 5533SOL     OW17497   3.839   1.741   3.110
 5533SOL    HW117498   3.896   1.733   3.192
 5533SOL    HW217499   3.753   1.786   3.133
 5534SOL     OW17500   0.385   1.502   6.053
 5534SOL    HW117501   0.323   1.522   5.978
 5534SOL    HW217502   0.453   1.436   6.023
 5535SOL     OW17503   6.552   2.504   3.222
 5535SOL    HW117504   6.578   2.587   3.172
 5535SOL    HW217505   6.508   2.440   3.159
 5536SOL     OW17506   3.505   1.058   4.027
 5536SOL    HW117507   3.459   1.125   4.085
 5536SOL    HW217508   3.540   0.983   4.083
 5537SOL     OW17509   3.094   0.445   2.586
 5537SOL    HW117510   3.167   0.498   2.629
 5537SOL    HW217511   3.021   0.427   2.652
 5538SOL     OW17512   2.440   6.144   5.978
 5538SOL    HW117513   2.442   6.045   5.964
 5538SOL    HW217514   2.451   6.190   5.891
 5539SOL     OW17515   1.384   3.035   1.414
 5539SOL    HW117516   1.317   3.106   1.391
 5539SOL    HW217517   1.336   2.949   1.434
 5540SOL     OW17518   5.016   4.337   3.782
 5540SOL    HW117519   5.087   4.405   3.800
 5540SOL    HW217520   5.053   4.264   3.726
 5541SOL     OW17521   6.015   0.310   6.413
 5541SOL    HW117522   6.096   0.261   6.382
 5541SOL    HW217523   6.035   0.353   6.501
 5542SOL     OW17524   5.655   4.041   5.971
 5542SOL    HW117525   5.694   4.033   5.880
 5542SOL    HW217526   5.556   4.029   5.966
 5543SOL     OW17527   3.882   5.042   5.506
 5543SOL    HW117528   3.875   5.040   5.606
 5543SOL    HW217529   3.974   5.015   5.478
 5544SOL     OW17530   5.217   6.273   6.572
 5544SOL    HW117531   5.272   6.340   6.522
 5544SOL    HW217532   5.226   6.290   6.671
 5545SOL     OW17533   3.742   1.255   1.735
 5545SOL    HW117534   3.735   1.322   1.810
 5545SOL    HW217535   3.820   1.279   1.677
 5546SOL     OW17536   0.912   5.163   4.827
 5546SOL    HW117537   0.904   5.217   4.743
 5546SOL    HW217538   0.855   5.081   4.818
 5547SOL     OW17539   2.317   7.005   4.978
 5547SOL    HW117540   2.250   7.004   5.052
 5547SOL    HW217541   2.360   0.076   4.972
 5548SOL     OW17542   5.411   3.201   5.481
 5548SOL    HW117543   5.318   3.189   5.446
 5548SOL    HW217544   5.428   3.136   5.555
 5549SOL     OW17545   4.279   3.729   6.299
 5549SOL    HW117546   4.255   3.730   6.396
 5549SOL    HW217547   4.210   3.780   6.247
 5550SOL     OW17548   2.303   4.632   1.898
 5550SOL    HW117549   2.318   4.535   1.882
 5550SOL    HW217550   2.304   4.680   1.810
 5551SOL     OW17551   2.124   0.566   3.531
 5551SOL    HW117552   2.151   0.660   3.552
 5551SOL    HW217553   2.031   0.565   3.495
 5552SOL     OW17554   6.791   0.786   0.016
 5552SOL    HW117555   6.815   0.878   0.046
 5552SOL    HW217556   6.691   0.779   0.006
 5553SOL     OW17557   4.915   6.581   0.016
 5553SOL    HW117558   4.843   6.651   0.013
 5553SOL    HW217559   4.921   6.536   6.946
 5554SOL     OW17560   3.904   1.637   5.391
 5554SOL    HW117561   3.885   1.644   5.293
 5554SOL    HW217562   3.919   1.728   5.429
 5555SOL     OW17563   1.774   4.737   4.482
 5555SOL    HW117564   1.832   4.672   4.432
 5555SOL    HW217565   1.767   4.709   4.578
 5556SOL     OW17566   6.699   1.786   3.911
 5556SOL    HW117567   6.798   1.780   3.899
 5556SOL    HW217568   6.678   1.860   3.975
 5557SOL     OW17569   3.739   6.683   2.630
 5557SOL    HW117570   3.832   6.703   2.599
 5557SOL    HW217571   3.708   6.598   2.590
 5558SOL     OW17572   4.951   3.120   6.189
 5558SOL    HW117573   4.921   3.207   6.150
 5558SOL    HW217574   4.921   3.114   6.284
 5559SOL     OW17575   3.186   6.741   2.015
 5559SOL    HW117576   3.254   6.793   2.067
 5559SOL    HW217577   3.107   6.720   2.073
 5560SOL     OW17578   1.000   6.560   3.601
 5560SOL    HW117579   0.999   6.533   3.505
 5560SOL    HW217580   0.947   6.644   3.613
 5561SOL     OW17581   2.145   2.529   3.956
 5561SOL    HW117582   2.079   2.595   3.992
 5561SOL    HW217583   2.135   2.441   4.003
 5562SOL     OW17584   2.807   2.364   0.100
 5562SOL    HW117585   2.814   2.328   0.007
 5562SOL    HW217586   2.729   2.323   0.147
 5563SOL     OW17587   4.366   5.857   2.406
 5563SOL    HW117588   4.278   5.906   2.399
 5563SOL    HW217589   4.356   5.766   2.366
 5564SOL     OW17590   4.736   1.191   2.000
 5564SOL    HW117591   4.669   1.148   1.940
 5564SOL    HW217592   4.690   1.254   2.062
 5565SOL     OW17593   4.895   1.794   6.789
 5565SOL    HW117594   4.904   1.702   6.751
 5565SOL    HW217595   4.986   1.828   6.815
 5566SOL     OW17596   1.796   5.671   0.365
 5566SOL    HW117597   1.718   5.727   0.392
 5566SOL    HW217598   1.847   5.642   0.447
 5567SOL     OW17599   0.230   4.812   1.958
 5567SOL    HW117600   0.197   4.864   2.038
 5567SOL    HW217601   0.152   4.769   1.913
 5568SOL     OW17602   4.323   2.366   3.395
 5568SOL    HW117603   4.307   2.290   3.458
 5568SOL    HW217604   4.274   2.349   3.309
 5569SOL     OW17605   2.819   1.522   2.210
 5569SOL    HW117606   2.822   1.590   2.137
 5569SOL    HW217607   2.764   1.444   2.180
 5570SOL     OW17608   5.466   5.189   4.928
 5570SOL    HW117609   5.516   5.112   4.967
 5570SOL    HW217610   5.385   5.208   4.983
 5571SOL     OW17611   0.093   6.433   0.794
 5571SOL    HW117612   0.003   6.389   0.795
 5571SOL    HW217613   0.096   6.501   0.720
 5572SOL     OW17614   1.538   2.424   4.617
 5572SOL    HW117615   1.472   2.469   4.558
 5572SOL    HW217616   1.618   2.483   4.628
 5573SOL     OW17617   1.857   3.395   6.856
 5573SOL    HW117618   1.817   3.355   6.773
 5573SOL    HW217619   1.919   3.469   6.831
 5574SOL     OW17620   6.314   1.725   4.005
 5574SOL    HW117621   6.299   1.824   3.997
 5574SOL    HW217622   6.226   1.679   4.019
 5575SOL     OW17623   0.091   1.462   2.119
 5575SOL    HW117624   0.129   1.542   2.073
 5575SOL    HW217625   0.154   1.385   2.111
 5576SOL     OW17626   0.527   6.291   2.235
 5576SOL    HW117627   0.552   6.222   2.167
 5576SOL    HW217628   0.572   6.377   2.213
 5577SOL     OW17629   2.903   2.783   5.988
 5577SOL    HW117630   2.820   2.833   6.013
 5577SOL    HW217631   2.902   2.764   5.890
 5578SOL     OW17632   4.029   3.897   0.467
 5578SOL    HW117633   4.063   3.887   0.374
 5578SOL    HW217634   3.935   3.930   0.465
 5579SOL     OW17635   6.699   3.880   6.338
 5579SOL    HW117636   6.635   3.865   6.413
 5579SOL    HW217637   6.779   3.930   6.372
 5580SOL     OW17638   4.290   2.328   5.901
 5580SOL    HW117639   4.346   2.314   5.983
 5580SOL    HW217640   4.327   2.404   5.848
 5581SOL     OW17641   2.194   6.698   1.737
 5581SOL    HW117642   2.108   6.683   1.786
 5581SOL    HW217643   2.225   6.792   1.754
 5582SOL     OW17644   3.794   3.340   3.531
 5582SOL    HW117645   3.699   3.335   3.500
 5582SOL    HW217646   3.817   3.258   3.583
 5583SOL     OW17647   4.379   0.120   2.697
 5583SOL    HW117648   4.401   0.089   2.605
 5583SOL    HW217649   4.368   0.219   2.697
 5584SOL     OW17650   5.575   3.910   4.739
 5584SOL    HW117651   5.665   3.938   4.707
 5584SOL    HW217652   5.510   3.912   4.663
 5585SOL     OW17653   4.638   6.774   4.028
 5585SOL    HW117654   4.608   6.864   4.062
 5585SOL    HW217655   4.566   6.735   3.971
 5586SOL     OW17656   0.687   2.356   6.385
 5586SOL    HW117657   0.733   2.300   6.454
 5586SOL    HW217658   0.743   2.437   6.367
 5587SOL     OW17659   4.405   6.324   2.421
 5587SOL    HW117660   4.463   6.270   2.360
 5587SOL    HW217661   4.338   6.263   2.465
 5588SOL     OW17662   1.260   6.958   3.269
 5588SOL    HW117663   1.212   0.025   3.252
 5588SOL    HW217664   1.358   6.976   3.282
 5589SOL     OW17665   5.995   2.978   6.825
 5589SOL    HW117666   5.898   2.989   6.848
 5589SOL    HW217667   6.034   3.068   6.803
 5590SOL     OW17668   0.301   5.654   3.235
 5590SOL    HW117669   0.366   5.665   3.160
 5590SOL    HW217670   0.245   5.736   3.243
 5591SOL     OW17671   5.943   1.233   6.584
 5591SOL    HW117672   5.918   1.329   6.601
 5591SOL    HW217673   6.016   1.206   6.646
 5592SOL     OW17674   1.409   4.371   2.747
 5592SOL    HW117675   1.323   4.422   2.741
 5592SOL    HW217676   1.446   4.357   2.656
 5593SOL     OW17677   6.630   2.054   6.019
 5593SOL    HW117678   6.694   2.088   5.951
 5593SOL    HW217679   6.543   2.033   5.976
 5594SOL     OW17680   2.705   1.251   6.741
 5594SOL    HW117681   2.667   1.184   6.804
 5594SOL    HW217682   2.646   1.332   6.740
 5595SOL     OW17683   6.204   0.855   5.201
 5595SOL    HW117684   6.165   0.895   5.118
 5595SOL    HW217685   6.281   0.796   5.177
 5596SOL     OW17686   4.891   0.402   2.185
 5596SOL    HW117687   4.965   0.379   2.249
 5596SOL    HW217688   4.922   0.476   2.125
 5597SOL     OW17689   5.422   2.138   4.939
 5597SOL    HW117690   5.509   2.173   4.976
 5597SOL    HW217691   5.430   2.129   4.840
 5598SOL     OW17692   4.975   2.076   3.683
 5598SOL    HW117693   4.912   2.132   3.736
 5598SOL    HW217694   5.021   2.133   3.615
 5599SOL     OW17695   6.760   3.422   2.278
 5599SOL    HW117696   6.740   3.336   2.232
 5599SOL    HW217697   6.714   3.424   2.367
 5600SOL     OW17698   2.120   0.380   2.205
 5600SOL    HW117699   2.025   0.362   2.232
 5600SOL    HW217700   2.169   0.294   2.199
 5601SOL     OW17701   4.031   1.960   6.257
 5601SOL    HW117702   4.105   1.908   6.298
 5601SOL    HW217703   4.011   2.041   6.312
 5602SOL     OW17704   0.744   0.959   2.907
 5602SOL    HW117705   0.668   0.996   2.960
 5602SOL    HW217706   0.750   0.860   2.923
 5603SOL     OW17707   5.124   2.140   5.391
 5603SOL    HW117708   5.167   2.164   5.478
 5603SOL    HW217709   5.184   2.167   5.316
 5604SOL     OW17710   0.397   2.023   4.786
 5604SOL    HW117711   0.352   1.976   4.710
 5604SOL    HW217712   0.347   2.108   4.806
 5605SOL     OW17713   1.616   6.610   4.658
 5605SOL    HW117714   1.701   6.559   4.671
 5605SOL    HW217715   1.637   6.702   4.625
 5606SOL     OW17716   4.372   0.575   0.352
 5606SOL    HW117717   4.318   0.497   0.386
 5606SOL    HW217718   4.469   0.551   0.352
 5607SOL     OW17719   5.246   1.937   3.570
 5607SOL    HW117720   5.163   1.951   3.625
 5607SOL    HW217721   5.315   2.003   3.597
 5608SOL     OW17722   5.978   1.377   3.399
 5608SOL    HW117723   5.995   1.473   3.422
 5608SOL    HW217724   6.018   1.356   3.310
 5609SOL     OW17725   4.963   5.627   0.699
 5609SOL    HW117726   4.932   5.573   0.621
 5609SOL    HW217727   5.056   5.660   0.682
 5610SOL     OW17728   5.814   3.784   1.729
 5610SOL    HW117729   5.887   3.833   1.682
 5610SOL    HW217730   5.745   3.850   1.760
 5611SOL     OW17731   0.587   5.604   2.284
 5611SOL    HW117732   0.595   5.584   2.186
 5611SOL    HW217733   0.490   5.614   2.307
 5612SOL     OW17734   3.617   2.881   0.597
 5612SOL    HW117735   3.639   2.962   0.652
 5612SOL    HW217736   3.651   2.895   0.504
 5613SOL     OW17737   6.526   4.698   5.509
 5613SOL    HW117738   6.485   4.634   5.574
 5613SOL    HW217739   6.508   4.792   5.538
 5614SOL     OW17740   5.994   3.046   5.203
 5614SOL    HW117741   6.018   3.110   5.277
 5614SOL    HW217742   6.066   3.046   5.134
 5615SOL     OW17743   6.890   1.577   3.160
 5615SOL    HW117744   6.943   1.640   3.218
 5615SOL    HW217745   6.815   1.627   3.118
 5616SOL     OW17746   2.269   2.751   4.964
 5616SOL    HW117747   2.322   2.686   5.018
 5616SOL    HW217748   2.300   2.844   4.984
 5617SOL     OW17749   1.527   3.545   4.887
 5617SOL    HW117750   1.478   3.589   4.962
 5617SOL    HW217751   1.462   3.513   4.818
 5618SOL     OW17752   6.845   4.887   3.346
 5618SOL    HW117753   6.779   4.816   3.371
 5618SOL    HW217754   6.913   4.848   3.284
 5619SOL     OW17755   3.363   3.588   3.328
 5619SOL    HW117756   3.385   3.495   3.359
 5619SOL    HW217757   3.447   3.634   3.298
 5620SOL     OW17758   4.957   3.888   6.475
 5620SOL    HW117759   4.968   3.967   6.534
 5620SOL    HW217760   5.038   3.879   6.416
 5621SOL     OW17761   1.809   3.314   5.958
 5621SOL    HW117762   1.768   3.223   5.956
 5621SOL    HW217763   1.890   3.313   6.017
 5622SOL     OW17764   4.879   6.685   5.818
 5622SOL    HW117765   4.890   6.615   5.747
 5622SOL    HW217766   4.906   6.774   5.781
 5623SOL     OW17767   4.572   6.006   5.042
 5623SOL    HW117768   4.477   6.005   5.011
 5623SOL    HW217769   4.627   5.951   4.979
 5624SOL     OW17770   0.169   5.484   3.966
 5624SOL    HW117771   0.191   5.391   3.937
 5624SOL    HW217772   0.112   5.481   4.048
 5625SOL     OW17773   6.875   5.211   5.489
 5625SOL    HW117774   6.849   5.299   5.450
 5625SOL    HW217775   6.812   5.188   5.563
 5626SOL     OW17776   2.695   5.529   4.123
 5626SOL    HW117777   2.717   5.478   4.207
 5626SOL    HW217778   2.631   5.476   4.068
 5627SOL     OW17779   7.008   5.388   6.486
 5627SOL    HW117780   6.909   5.372   6.483
 5627SOL    HW217781   0.011   5.468   6.430
 5628SOL     OW17782   2.622   2.451   0.921
 5628SOL    HW117783   2.712   2.424   0.954
 5628SOL    HW217784   2.600   2.542   0.957
 5629SOL     OW17785   5.105   2.667   1.858
 5629SOL    HW117786   5.064   2.755   1.832
 5629SOL    HW217787   5.061   2.633   1.941
 5630SOL     OW17788   2.018   4.256   6.823
 5630SOL    HW117789   1.958   4.284   6.899
 5630SOL    HW217790   1.967   4.262   6.738
 5631SOL     OW17791   5.711   1.534   1.043
 5631SOL    HW117792   5.704   1.459   1.109
 5631SOL    HW217793   5.716   1.497   0.951
 5632SOL     OW17794   4.413   1.895   5.273
 5632SOL    HW117795   4.382   1.879   5.180
 5632SOL    HW217796   4.381   1.822   5.333
 5633SOL     OW17797   6.016   4.832   4.675
 5633SOL    HW117798   6.001   4.753   4.615
 5633SOL    HW217799   6.105   4.824   4.720
 5634SOL     OW17800   2.192   4.773   3.841
 5634SOL    HW117801   2.273   4.764   3.783
 5634SOL    HW217802   2.219   4.769   3.937
 5635SOL     OW17803   2.429   6.302   6.510
 5635SOL    HW117804   2.505   6.238   6.497
 5635SOL    HW217805   2.356   6.281   6.445
 5636SOL     OW17806   6.079   0.860   5.467
 5636SOL    HW117807   6.045   0.766   5.475
 5636SOL    HW217808   6.130   0.869   5.381
 5637SOL     OW17809   3.787   6.906   3.735
 5637SOL    HW117810   3.862   6.841   3.727
 5637SOL    HW217811   3.794   6.954   3.822
 5638SOL     OW17812   6.234   5.006   1.181
 5638SOL    HW117813   6.184   4.942   1.239
 5638SOL    HW217814   6.310   4.959   1.136
 5639SOL     OW17815   2.929   0.511   1.671
 5639SOL    HW117816   2.971   0.530   1.582
 5639SOL    HW217817   2.830   0.498   1.658
 5640SOL     OW17818   2.712   0.382   2.521
 5640SOL    HW117819   2.766   0.368   2.604
 5640SOL    HW217820   2.773   0.407   2.445
 5641SOL     OW17821   0.201   4.895   6.064
 5641SOL    HW117822   0.294   4.863   6.078
 5641SOL    HW217823   0.197   4.994   6.079
 5642SOL     OW17824   1.102   5.233   5.030
 5642SOL    HW117825   1.099   5.160   5.098
 5642SOL    HW217826   1.066   5.199   4.943
 5643SOL     OW17827   3.493   0.850   4.384
 5643SOL    HW117828   3.498   0.759   4.425
 5643SOL    HW217829   3.530   0.917   4.448
 5644SOL     OW17830   3.687   0.301   3.711
 5644SOL    HW117831   3.691   0.398   3.686
 5644SOL    HW217832   3.780   0.267   3.724
 5645SOL     OW17833   6.185   4.054   3.448
 5645SOL    HW117834   6.254   4.024   3.382
 5645SOL    HW217835   6.142   4.138   3.415
 5646SOL     OW17836   1.846   6.077   3.185
 5646SOL    HW117837   1.919   6.139   3.214
 5646SOL    HW217838   1.789   6.122   3.117
 5647SOL     OW17839   6.370   6.718   0.345
 5647SOL    HW117840   6.407   6.709   0.252
 5647SOL    HW217841   6.271   6.709   0.342
 5648SOL     OW17842   2.452   1.443   2.752
 5648SOL    HW117843   2.468   1.354   2.794
 5648SOL    HW217844   2.372   1.485   2.794
 5649SOL     OW17845   0.032   6.725   5.070
 5649SOL    HW117846   6.975   6.758   5.014
 5649SOL    HW217847   7.018   6.657   5.135
 5650SOL     OW17848   0.431   6.028   1.248
 5650SOL    HW117849   0.498   5.971   1.200
 5650SOL    HW217850   0.348   6.035   1.193
 5651SOL     OW17851   0.457   1.089   1.418
 5651SOL    HW117852   0.434   1.186   1.431
 5651SOL    HW217853   0.490   1.075   1.324
 5652SOL     OW17854   6.012   6.323   2.259
 5652SOL    HW117855   5.915   6.303   2.251
 5652SOL    HW217856   6.065   6.238   2.248
 5653SOL     OW17857   0.323   6.145   6.339
 5653SOL    HW117858   0.326   6.094   6.425
 5653SOL    HW217859   0.276   6.232   6.353
 5654SOL     OW17860   6.262   6.716   5.847
 5654SOL    HW117861   6.327   6.791   5.858
 5654SOL    HW217862   6.169   6.753   5.838
 5655SOL     OW17863   1.485   3.216   4.789
 5655SOL    HW117864   1.523   3.139   4.738
 5655SOL    HW217865   1.446   3.283   4.725
 5656SOL     OW17866   0.688   2.887   0.647
 5656SOL    HW117867   0.756   2.924   0.583
 5656SOL    HW217868   0.718   2.904   0.741
 5657SOL     OW17869   5.619   0.608   0.544
 5657SOL    HW117870   5.541   0.581   0.487
 5657SOL    HW217871   5.650   0.530   0.598
 5658SOL     OW17872   3.263   5.406   5.746
 5658SOL    HW117873   3.283   5.310   5.762
 5658SOL    HW217874   3.206   5.415   5.664
 5659SOL     OW17875   4.096   3.670   3.416
 5659SOL    HW117876   4.186   3.697   3.381
 5659SOL    HW217877   4.045   3.752   3.442
 5660SOL     OW17878   5.738   0.357   5.515
 5660SOL    HW117879   5.676   0.292   5.471
 5660SOL    HW217880   5.832   0.323   5.510
 5661SOL     OW17881   0.804   4.135   5.030
 5661SOL    HW117882   0.730   4.180   5.081
 5661SOL    HW217883   0.881   4.198   5.020
 5662SOL     OW17884   2.600   5.676   3.355
 5662SOL    HW117885   2.518   5.707   3.307
 5662SOL    HW217886   2.579   5.594   3.407
 5663SOL     OW17887   2.485   2.960   6.567
 5663SOL    HW117888   2.539   2.971   6.650
 5663SOL    HW217889   2.391   2.934   6.591
 5664SOL     OW17890   6.882   4.247   5.174
 5664SOL    HW117891   6.887   4.289   5.083
 5664SOL    HW217892   6.944   4.169   5.178
 5665SOL     OW17893   1.251   2.051   6.588
 5665SOL    HW117894   1.153   2.060   6.570
 5665SOL    HW217895   1.284   2.132   6.636
 5666SOL     OW17896   6.120   5.887   1.135
 5666SOL    HW117897   6.172   5.907   1.218
 5666SOL    HW217898   6.037   5.943   1.134
 5667SOL     OW17899   1.159   4.451   3.839
 5667SOL    HW117900   1.218   4.486   3.911
 5667SOL    HW217901   1.088   4.518   3.818
 5668SOL     OW17902   4.814   2.100   5.118
 5668SOL    HW117903   4.736   2.153   5.085
 5668SOL    HW217904   4.891   2.111   5.055
 5669SOL     OW17905   0.888   2.740   6.898
 5669SOL    HW117906   0.827   2.739   6.819
 5669SOL    HW217907   0.913   2.834   6.920
 5670SOL     OW17908   6.629   3.173   3.790
 5670SOL    HW117909   6.605   3.088   3.837
 5670SOL    HW217910   6.589   3.173   3.699
 5671SOL     OW17911   0.791   5.837   6.576
 5671SOL    HW117912   0.833   5.813   6.488
 5671SOL    HW217913   0.716   5.901   6.561
 5672SOL     OW17914   4.225   4.458   6.522
 5672SOL    HW117915   4.139   4.486   6.566
 5672SOL    HW217916   4.245   4.363   6.545
 5673SOL     OW17917   0.820   6.539   1.894
 5673SOL    HW117918   0.905   6.588   1.874
 5673SOL    HW217919   0.765   6.534   1.811
 5674SOL     OW17920   6.426   4.371   4.586
 5674SOL    HW117921   6.350   4.393   4.524
 5674SOL    HW217922   6.391   4.321   4.665
 5675SOL     OW17923   4.925   2.244   5.724
 5675SOL    HW117924   4.850   2.299   5.686
 5675SOL    HW217925   4.959   2.287   5.807
 5676SOL     OW17926   2.070   2.388   2.278
 5676SOL    HW117927   2.094   2.292   2.265
 5676SOL    HW217928   2.076   2.411   2.375
 5677SOL     OW17929   0.614   1.762   3.010
 5677SOL    HW117930   0.603   1.824   2.933
 5677SOL    HW217931   0.680   1.800   3.075
 5678SOL     OW17932   3.592   6.413   2.605
 5678SOL    HW117933   3.559   6.319   2.592
 5678SOL    HW217934   3.518   6.469   2.642
 5679SOL     OW17935   1.021   1.068   4.119
 5679SOL    HW117936   0.997   1.140   4.054
 5679SOL    HW217937   0.938   1.024   4.153
 5680SOL     OW17938   1.587   5.801   0.439
 5680SOL    HW117939   1.518   5.735   0.469
 5680SOL    HW217940   1.562   5.838   0.350
 5681SOL     OW17941   0.245   3.607   6.749
 5681SOL    HW117942   0.281   3.696   6.778
 5681SOL    HW217943   0.224   3.552   6.829
 5682SOL     OW17944   2.372   4.276   6.070
 5682SOL    HW117945   2.403   4.362   6.029
 5682SOL    HW217946   2.374   4.204   6.001
 5683SOL     OW17947   3.745   0.760   0.299
 5683SOL    HW117948   3.794   0.680   0.334
 5683SOL    HW217949   3.805   0.811   0.237
 5684SOL     OW17950   3.342   2.895   4.601
 5684SOL    HW117951   3.244   2.877   4.595
 5684SOL    HW217952   3.377   2.857   4.687
 5685SOL     OW17953   1.895   3.225   2.558
 5685SOL    HW117954   1.898   3.125   2.558
 5685SOL    HW217955   1.800   3.256   2.550
 5686SOL     OW17956   2.687   6.766   6.173
 5686SOL    HW117957   2.621   6.815   6.230
 5686SOL    HW217958   2.638   6.710   6.106
 5687SOL     OW17959   0.986   4.504   5.826
 5687SOL    HW117960   1.084   4.492   5.809
 5687SOL    HW217961   0.939   4.519   5.738
 5688SOL     OW17962   6.827   1.929   0.027
 5688SOL    HW117963   6.757   1.980   6.997
 5688SOL    HW217964   6.894   1.893   6.981
 5689SOL     OW17965   4.075   0.672   0.629
 5689SOL    HW117966   4.045   0.578   0.643
 5689SOL    HW217967   4.146   0.695   0.697
 5690SOL     OW17968   2.287   6.089   0.759
 5690SOL    HW117969   2.254   6.028   0.832
 5690SOL    HW217970   2.322   6.033   0.683
 5691SOL     OW17971   2.964   6.484   1.990
 5691SOL    HW117972   3.023   6.474   1.910
 5691SOL    HW217973   3.007   6.547   2.055
 5692SOL     OW17974   6.820   3.343   6.239
 5692SOL    HW117975   6.881   3.396   6.182
 5692SOL    HW217976   6.864   3.256   6.263
 5693SOL     OW17977   5.607   2.517   2.477
 5693SOL    HW117978   5.673   2.565   2.535
 5693SOL    HW217979   5.594   2.567   2.392
 5694SOL     OW17980   1.292   2.341   3.742
 5694SOL    HW117981   1.194   2.362   3.735
 5694SOL    HW217982   1.321   2.353   3.837
 5695SOL     OW17983   1.426   2.599   3.453
 5695SOL    HW117984   1.500   2.653   3.413
 5695SOL    HW217985   1.462   2.512   3.486
 5696SOL     OW17986   1.781   0.779   3.106
 5696SOL    HW117987   1.784   0.872   3.071
 5696SOL    HW217988   1.686   0.755   3.127
 5697SOL     OW17989   6.192   2.864   1.548
 5697SOL    HW117990   6.122   2.935   1.561
 5697SOL    HW217991   6.226   2.868   1.454
 5698SOL     OW17992   0.447   3.216   3.179
 5698SOL    HW117993   0.419   3.132   3.132
 5698SOL    HW217994   0.391   3.292   3.146
 5699SOL     OW17995   6.387   2.385   2.766
 5699SOL    HW117996   6.408   2.429   2.679
 5699SOL    HW217997   6.458   2.317   2.787
 5700SOL     OW17998   6.546   6.751   4.323
 5700SOL    HW117999   6.523   6.785   4.414
 5700SOL    HW218000   6.478   6.683   4.295
 5701SOL     OW18001   1.355   6.688   2.985
 5701SOL    HW118002   1.385   6.690   3.081
 5701SOL    HW218003   1.267   6.734   2.977
 5702SOL     OW18004   2.303   6.586   5.357
 5702SOL    HW118005   2.215   6.565   5.315
 5702SOL    HW218006   2.302   6.557   5.452
 5703SOL     OW18007   5.788   4.813   1.958
 5703SOL    HW118008   5.835   4.726   1.943
 5703SOL    HW218009   5.698   4.810   1.913
 5704SOL     OW18010   4.026   5.514   2.079
 5704SOL    HW118011   4.019   5.572   2.160
 5704SOL    HW218012   3.935   5.479   2.055
 5705SOL     OW18013   4.718   1.025   1.226
 5705SOL    HW118014   4.629   0.980   1.229
 5705SOL    HW218015   4.758   1.028   1.317
 5706SOL     OW18016   0.290   2.882   0.331
 5706SOL    HW118017   0.339   2.890   0.418
 5706SOL    HW218018   0.333   2.941   0.263
 5707SOL     OW18019   6.939   6.903   0.461
 5707SOL    HW118020   6.891   6.832   0.514
 5707SOL    HW218021   0.002   6.932   0.511
 5708SOL     OW18022   4.993   6.052   1.119
 5708SOL    HW118023   4.949   6.101   1.194
 5708SOL    HW218024   5.057   6.114   1.072
 5709SOL     OW18025   1.725   0.349   3.287
 5709SOL    HW118026   1.728   0.386   3.194
 5709SOL    HW218027   1.637   0.372   3.329
 5710SOL     OW18028   2.469   3.161   6.388
 5710SOL    HW118029   2.567   3.177   6.402
 5710SOL    HW218030   2.433   3.109   6.465
 5711SOL     OW18031   5.185   1.293   2.726
 5711SOL    HW118032   5.253   1.341   2.672
 5711SOL    HW218033   5.223   1.271   2.816
 5712SOL     OW18034   0.817   5.983   6.262
 5712SOL    HW118035   0.784   6.062   6.314
 5712SOL    HW218036   0.911   6.001   6.232
 5713SOL     OW18037   2.248   2.781   1.540
 5713SOL    HW118038   2.217   2.871   1.568
 5713SOL    HW218039   2.275   2.729   1.621
 5714SOL     OW18040   0.615   5.598   6.248
 5714SOL    HW118041   0.710   5.597   6.216
 5714SOL    HW218042   0.613   5.615   6.347
 5715SOL     OW18043   0.914   6.433   2.999
 5715SOL    HW118044   0.932   6.386   2.912
 5715SOL    HW218045   0.999   6.440   3.051
 5716SOL     OW18046   1.603   4.640   0.171
 5716SOL    HW118047   1.581   4.600   0.260
 5716SOL    HW218048   1.701   4.663   0.169
 5717SOL     OW18049   1.617   6.249   1.079
 5717SOL    HW118050   1.578   6.158   1.091
 5717SOL    HW218051   1.707   6.252   1.121
 5718SOL     OW18052   1.476   3.366   5.947
 5718SOL    HW118053   1.461   3.366   5.848
 5718SOL    HW218054   1.536   3.442   5.972
 5719SOL     OW18055   2.741   1.117   6.058
 5719SOL    HW118056   2.708   1.201   6.102
 5719SOL    HW218057   2.663   1.057   6.038
 5720SOL     OW18058   0.895   5.138   4.171
 5720SOL    HW118059   0.958   5.195   4.224
 5720SOL    HW218060   0.911   5.154   4.073
 5721SOL     OW18061   0.206   4.175   0.832
 5721SOL    HW118062   0.178   4.117   0.908
 5721SOL    HW218063   0.204   4.121   0.747
 5722SOL     OW18064   5.790   1.489   5.326
 5722SOL    HW118065   5.854   1.503   5.251
 5722SOL    HW218066   5.700   1.466   5.289
 5723SOL     OW18067   4.598   3.616   6.617
 5723SOL    HW118068   4.688   3.638   6.579
 5723SOL    HW218069   4.576   3.520   6.598
 5724SOL     OW18070   4.226   2.772   5.413
 5724SOL    HW118071   4.177   2.858   5.418
 5724SOL    HW218072   4.174   2.707   5.358
 5725SOL     OW18073   5.908   6.001   3.788
 5725SOL    HW118074   5.841   6.067   3.754
 5725SOL    HW218075   5.994   6.013   3.738
 5726SOL     OW18076   6.904   4.468   4.526
 5726SOL    HW118077   6.826   4.406   4.534
 5726SOL    HW218078   6.872   4.562   4.535
 5727SOL     OW18079   0.826   2.550   3.784
 5727SOL    HW118080   0.879   2.466   3.773
 5727SOL    HW218081   0.842   2.610   3.705
 5728SOL     OW18082   4.360   1.677   6.647
 5728SOL    HW118083   4.420   1.602   6.675
 5728SOL    HW218084   4.362   1.748   6.718
 5729SOL     OW18085   0.899   1.505   0.608
 5729SOL    HW118086   0.921   1.572   0.678
 5729SOL    HW218087   0.984   1.463   0.574
 5730SOL     OW18088   4.330   5.360   5.674
 5730SOL    HW118089   4.258   5.430   5.677
 5730SOL    HW218090   4.331   5.310   5.761
 5731SOL     OW18091   1.422   6.827   3.513
 5731SOL    HW118092   1.392   6.920   3.536
 5731SOL    HW218093   1.367   6.761   3.565
 5732SOL     OW18094   6.501   4.962   5.247
 5732SOL    HW118095   6.555   4.951   5.330
 5732SOL    HW218096   6.529   5.047   5.201
 5733SOL     OW18097   3.575   0.467   5.413
 5733SOL    HW118098   3.542   0.473   5.319
 5733SOL    HW218099   3.617   0.553   5.439
 5734SOL     OW18100   1.077   6.021   6.171
 5734SOL    HW118101   1.144   6.023   6.245
 5734SOL    HW218102   1.094   5.942   6.112
 5735SOL     OW18103   3.973   1.813   2.378
 5735SOL    HW118104   4.047   1.856   2.326
 5735SOL    HW218105   3.982   1.836   2.475
 5736SOL     OW18106   6.103   4.510   0.901
 5736SOL    HW118107   6.201   4.523   0.887
 5736SOL    HW218108   6.078   4.540   0.994
 5737SOL     OW18109   4.624   5.520   6.512
 5737SOL    HW118110   4.576   5.441   6.474
 5737SOL    HW218111   4.705   5.489   6.563
 5738SOL     OW18112   2.875   2.515   6.111
 5738SOL    HW118113   2.955   2.563   6.077
 5738SOL    HW218114   2.873   2.518   6.211
 5739SOL     OW18115   1.032   6.824   5.359
 5739SOL    HW118116   1.128   6.848   5.369
 5739SOL    HW218117   0.979   6.863   5.434
 5740SOL     OW18118   4.183   3.531   0.883
 5740SOL    HW118119   4.092   3.559   0.853
 5740SOL    HW218120   4.215   3.453   0.829
 5741SOL     OW18121   6.314   4.245   4.813
 5741SOL    HW118122   6.393   4.262   4.873
 5741SOL    HW218123   6.232   4.232   4.869
 5742SOL     OW18124   4.632   6.523   2.253
 5742SOL    HW118125   4.608   6.591   2.322
 5742SOL    HW218126   4.549   6.496   2.203
 5743SOL     OW18127   2.623   5.745   5.087
 5743SOL    HW118128   2.643   5.702   4.998
 5743SOL    HW218129   2.707   5.749   5.141
 5744SOL     OW18130   4.970   1.106   0.924
 5744SOL    HW118131   5.019   1.040   0.980
 5744SOL    HW218132   5.032   1.178   0.895
 5745SOL     OW18133   1.997   1.416   3.616
 5745SOL    HW118134   2.029   1.322   3.630
 5745SOL    HW218135   1.917   1.433   3.674
 5746SOL     OW18136   5.282   6.828   1.399
 5746SOL    HW118137   5.261   6.919   1.435
 5746SOL    HW218138   5.236   6.759   1.455
 5747SOL     OW18139   0.663   4.969   2.391
 5747SOL    HW118140   0.660   5.064   2.423
 5747SOL    HW218141   0.741   4.923   2.434
 5748SOL     OW18142   1.098   6.835   0.557
 5748SOL    HW118143   1.181   6.835   0.612
 5748SOL    HW218144   1.035   6.904   0.591
 5749SOL     OW18145   1.257   6.294   4.690
 5749SOL    HW118146   1.260   6.200   4.726
 5749SOL    HW218147   1.176   6.306   4.633
 5750SOL     OW18148   6.413   6.282   4.744
 5750SOL    HW118149   6.443   6.302   4.837
 5750SOL    HW218150   6.356   6.199   4.744
 5751SOL     OW18151   2.364   2.836   4.716
 5751SOL    HW118152   2.439   2.885   4.761
 5751SOL    HW218153   2.313   2.783   4.785
 5752SOL     OW18154   6.417   0.333   0.450
 5752SOL    HW118155   6.496   0.309   0.506
 5752SOL    HW218156   6.443   0.405   0.385
 5753SOL     OW18157   3.781   3.519   4.369
 5753SOL    HW118158   3.870   3.503   4.412
 5753SOL    HW218159   3.737   3.597   4.412
 5754SOL     OW18160   0.228   5.020   1.630
 5754SOL    HW118161   0.310   5.009   1.685
 5754SOL    HW218162   0.253   5.037   1.535
 5755SOL     OW18163   2.446   2.526   6.525
 5755SOL    HW118164   2.496   2.449   6.563
 5755SOL    HW218165   2.431   2.595   6.596
 5756SOL     OW18166   6.152   0.583   3.321
 5756SOL    HW118167   6.133   0.552   3.228
 5756SOL    HW218168   6.228   0.531   3.359
 5757SOL     OW18169   6.987   6.592   3.373
 5757SOL    HW118170   6.915   6.592   3.304
 5757SOL    HW218171   0.034   6.664   3.352
 5758SOL     OW18172   2.333   0.860   4.695
 5758SOL    HW118173   2.431   0.869   4.676
 5758SOL    HW218174   2.305   0.765   4.680
 5759SOL     OW18175   4.977   1.515   6.852
 5759SOL    HW118176   4.926   1.563   6.923
 5759SOL    HW218177   4.945   1.420   6.845
 5760SOL     OW18178   6.817   3.621   1.003
 5760SOL    HW118179   6.825   3.522   1.000
 5760SOL    HW218180   6.733   3.649   0.956
 5761SOL     OW18181   6.050   5.686   6.704
 5761SOL    HW118182   6.072   5.776   6.742
 5761SOL    HW218183   6.104   5.616   6.751
 5762SOL     OW18184   4.903   4.063   0.247
 5762SOL    HW118185   4.826   4.076   0.308
 5762SOL    HW218186   4.870   4.038   0.156
 5763SOL     OW18187   6.430   6.350   0.489
 5763SOL    HW118188   6.463   6.435   0.530
 5763SOL    HW218189   6.490   6.274   0.516
 5764SOL     OW18190   5.577   5.154   5.378
 5764SOL    HW118191   5.583   5.150   5.278
 5764SOL    HW218192   5.503   5.217   5.404
 5765SOL     OW18193   6.393   2.574   0.448
 5765SOL    HW118194   6.456   2.603   0.376
 5765SOL    HW218195   6.336   2.499   0.415
 5766SOL     OW18196   1.935   1.989   6.863
 5766SOL    HW118197   1.969   2.063   6.806
 5766SOL    HW218198   1.841   2.009   6.891
 5767SOL     OW18199   1.092   1.155   0.112
 5767SOL    HW118200   1.114   1.115   0.200
 5767SOL    HW218201   1.174   1.193   0.070
 5768SOL     OW18202   1.780   6.412   3.744
 5768SOL    HW118203   1.700   6.454   3.701
 5768SOL    HW218204   1.863   6.439   3.696
 5769SOL     OW18205   2.619   6.022   4.466
 5769SOL    HW118206   2.620   6.004   4.368
 5769SOL    HW218207   2.655   6.113   4.484
 5770SOL     OW18208   6.217   5.968   0.330
 5770SOL    HW118209   6.122   5.947   0.307
 5770SOL    HW218210   6.265   5.884   0.355
 5771SOL     OW18211   1.324   6.932   3.839
 5771SOL    HW118212   1.229   6.912   3.814
 5771SOL    HW218213   1.355   6.867   3.908
 5772SOL     OW18214   5.772   2.001   1.449
 5772SOL    HW118215   5.859   1.994   1.400
 5772SOL    HW218216   5.698   2.015   1.383
 5773SOL     OW18217   4.034   0.387   2.992
 5773SOL    HW118218   4.074   0.305   3.032
 5773SOL    HW218219   4.108   0.452   2.972
 5774SOL     OW18220   2.566   6.170   3.573
 5774SOL    HW118221   2.649   6.212   3.611
 5774SOL    HW218222   2.507   6.242   3.536
 5775SOL     OW18223   1.772   0.897   2.300
 5775SOL    HW118224   1.719   0.936   2.376
 5775SOL    HW218225   1.754   0.799   2.295
 5776SOL     OW18226   6.997   0.772   4.504
 5776SOL    HW118227   0.032   0.820   4.573
 5776SOL    HW218228   6.946   0.698   4.548
 5777SOL     OW18229   6.721   6.969   5.203
 5777SOL    HW118230   6.714   6.880   5.157
 5777SOL    HW218231   6.812   6.977   5.245
 5778SOL     OW18232   1.800   0.756   1.268
 5778SOL    HW118233   1.725   0.735   1.206
 5778SOL    HW218234   1.763   0.787   1.356
 5779SOL     OW18235   4.401   3.132   0.830
 5779SOL    HW118236   4.473   3.184   0.876
 5779SOL    HW218237   4.424   3.035   0.831
 5780SOL     OW18238   6.227   5.784   3.533
 5780SOL    HW118239   6.275   5.861   3.575
 5780SOL    HW218240   6.294   5.719   3.497
 5781SOL     OW18241   0.153   4.459   4.537
 5781SOL    HW118242   0.057   4.442   4.556
 5781SOL    HW218243   0.168   4.457   4.438
 5782SOL     OW18244   1.186   1.528   0.474
 5782SOL    HW118245   1.233   1.511   0.388
 5782SOL    HW218246   1.178   1.627   0.489
 5783SOL     OW18247   2.181   0.376   1.490
 5783SOL    HW118248   2.091   0.359   1.530
 5783SOL    HW218249   2.218   0.462   1.525
 5784SOL     OW18250   6.890   5.849   0.162
 5784SOL    HW118251   6.868   5.755   0.188
 5784SOL    HW218252   6.877   5.910   0.240
 5785SOL     OW18253   1.771   1.622   0.600
 5785SOL    HW118254   1.858   1.662   0.627
 5785SOL    HW218255   1.706   1.696   0.580
 5786SOL     OW18256   0.282   4.217   0.377
 5786SOL    HW118257   0.297   4.309   0.340
 5786SOL    HW218258   0.370   4.174   0.395
 5787SOL     OW18259   3.897   1.423   5.136
 5787SOL    HW118260   3.864   1.516   5.119
 5787SOL    HW218261   3.904   1.408   5.235
 5788SOL     OW18262   3.276   1.747   1.509
 5788SOL    HW118263   3.194   1.754   1.453
 5788SOL    HW218264   3.318   1.838   1.518
 5789SOL     OW18265   2.925   4.375   0.463
 5789SOL    HW118266   2.954   4.301   0.525
 5789SOL    HW218267   2.931   4.343   0.368
 5790SOL     OW18268   0.683   4.640   4.958
 5790SOL    HW118269   0.714   4.665   5.049
 5790SOL    HW218270   0.752   4.667   4.890
 5791SOL     OW18271   3.294   1.664   2.586
 5791SOL    HW118272   3.298   1.584   2.525
 5791SOL    HW218273   3.293   1.633   2.681
 5792SOL     OW18274   5.870   3.129   2.476
 5792SOL    HW118275   5.892   3.192   2.401
 5792SOL    HW218276   5.855   3.037   2.439
 5793SOL     OW18277   5.025   0.869   3.721
 5793SOL    HW118278   4.969   0.797   3.763
 5793SOL    HW218279   5.063   0.927   3.793
 5794SOL     OW18280   2.127   0.803   0.044
 5794SOL    HW118281   2.080   0.875   0.094
 5794SOL    HW218282   2.103   0.714   0.082
 5795SOL     OW18283   6.549   6.990   6.812
 5795SOL    HW118284   6.559   0.068   6.791
 5795SOL    HW218285   6.557   6.976   6.910
 5796SOL     OW18286   4.613   1.024   5.883
 5796SOL    HW118287   4.610   1.091   5.957
 5796SOL    HW218288   4.528   1.029   5.830
 5797SOL     OW18289   4.491   2.442   0.353
 5797SOL    HW118290   4.418   2.506   0.374
 5797SOL    HW218291   4.504   2.437   0.254
 5798SOL     OW18292   0.292   5.414   4.597
 5798SOL    HW118293   0.348   5.480   4.647
 5798SOL    HW218294   0.328   5.403   4.505
 5799SOL     OW18295   0.458   0.922   3.311
 5799SOL    HW118296   0.464   0.940   3.409
 5799SOL    HW218297   0.407   0.838   3.296
 5800SOL     OW18298   5.854   6.506   1.574
 5800SOL    HW118299   5.848   6.429   1.510
 5800SOL    HW218300   5.932   6.492   1.636
 5801SOL     OW18301   1.668   2.852   3.275
 5801SOL    HW118302   1.672   2.837   3.374
 5801SOL    HW218303   1.745   2.807   3.231
 5802SOL     OW18304   0.131   3.445   2.761
 5802SOL    HW118305   0.090   3.410   2.846
 5802SOL    HW218306   0.204   3.510   2.783
 5803SOL     OW18307   1.978   5.701   2.081
 5803SOL    HW118308   2.026   5.763   2.143
 5803SOL    HW218309   2.027   5.614   2.076
 5804SOL     OW18310   0.205   4.971   3.508
 5804SOL    HW118311   0.255   4.949   3.425
 5804SOL    HW218312   0.151   4.892   3.537
 5805SOL     OW18313   2.105   3.587   0.422
 5805SOL    HW118314   2.064   3.534   0.348
 5805SOL    HW218315   2.035   3.607   0.491
 5806SOL     OW18316   6.286   4.859   4.781
 5806SOL    HW118317   6.310   4.807   4.863
 5806SOL    HW218318   6.359   4.850   4.713
 5807SOL     OW18319   0.922   4.256   0.939
 5807SOL    HW118320   0.943   4.158   0.932
 5807SOL    HW218321   0.896   4.277   1.033
 5808SOL     OW18322   6.356   5.284   4.075
 5808SOL    HW118323   6.366   5.209   4.009
 5808SOL    HW218324   6.422   5.356   4.054
 5809SOL     OW18325   6.282   2.052   5.048
 5809SOL    HW118326   6.234   1.989   4.987
 5809SOL    HW218327   6.251   2.037   5.142
 5810SOL     OW18328   4.488   1.495   5.228
 5810SOL    HW118329   4.551   1.573   5.225
 5810SOL    HW218330   4.533   1.415   5.188
 5811SOL     OW18331   3.085   0.560   5.037
 5811SOL    HW118332   3.011   0.571   4.971
 5811SOL    HW218333   3.169   0.599   4.999
 5812SOL     OW18334   5.516   3.330   5.002
 5812SOL    HW118335   5.605   3.296   4.973
 5812SOL    HW218336   5.504   3.424   4.970
 5813SOL     OW18337   1.745   1.832   1.477
 5813SOL    HW118338   1.733   1.856   1.574
 5813SOL    HW218339   1.829   1.780   1.466
 5814SOL     OW18340   6.366   3.970   2.138
 5814SOL    HW118341   6.362   3.871   2.153
 5814SOL    HW218342   6.446   3.992   2.081
 5815SOL     OW18343   4.145   1.574   4.145
 5815SOL    HW118344   4.115   1.484   4.178
 5815SOL    HW218345   4.235   1.566   4.102
 5816SOL     OW18346   5.062   4.445   0.445
 5816SOL    HW118347   5.148   4.393   0.447
 5816SOL    HW218348   5.083   4.543   0.448
 5817SOL     OW18349   6.078   4.261   5.733
 5817SOL    HW118350   6.071   4.353   5.693
 5817SOL    HW218351   6.116   4.268   5.825
 5818SOL     OW18352   6.528   5.242   5.426
 5818SOL    HW118353   6.596   5.302   5.468
 5818SOL    HW218354   6.437   5.277   5.444
 5819SOL     OW18355   3.563   0.430   6.919
 5819SOL    HW118356   3.493   0.463   6.982
 5819SOL    HW218357   3.654   0.443   6.960
 5820SOL     OW18358   4.683   4.695   3.378
 5820SOL    HW118359   4.602   4.673   3.434
 5820SOL    HW218360   4.765   4.688   3.435
 5821SOL     OW18361   0.126   0.583   2.183
 5821SOL    HW118362   0.049   0.647   2.176
 5821SOL    HW218363   0.202   0.626   2.230
 5822SOL     OW18364   1.270   2.784   1.497
 5822SOL    HW118365   1.234   2.702   1.452
 5822SOL    HW218366   1.290   2.764   1.593
 5823SOL     OW18367   2.785   0.362   4.712
 5823SOL    HW118368   2.701   0.414   4.726
 5823SOL    HW218369   2.783   0.280   4.768
 5824SOL     OW18370   6.763   5.599   2.639
 5824SOL    HW118371   6.801   5.535   2.573
 5824SOL    HW218372   6.835   5.661   2.670
 5825SOL     OW18373   6.888   0.694   4.915
 5825SOL    HW118374   6.789   0.687   4.901
 5825SOL    HW218375   6.936   0.643   4.844
 5826SOL     OW18376   0.688   5.128   5.903
 5826SOL    HW118377   0.671   5.183   5.821
 5826SOL    HW218378   0.611   5.066   5.919
 5827SOL     OW18379   1.691   3.950   5.285
 5827SOL    HW118380   1.680   3.893   5.367
 5827SOL    HW218381   1.787   3.949   5.257
 5828SOL     OW18382   6.130   2.154   1.739
 5828SOL    HW118383   6.159   2.060   1.720
 5828SOL    HW218384   6.206   2.205   1.781
 5829SOL     OW18385   1.322   0.531   3.910
 5829SOL    HW118386   1.378   0.449   3.920
 5829SOL    HW218387   1.225   0.506   3.914
 5830SOL     OW18388   5.210   6.700   5.796
 5830SOL    HW118389   5.162   6.729   5.879
 5830SOL    HW218390   5.232   6.602   5.802
 5831SOL     OW18391   0.990   1.173   5.474
 5831SOL    HW118392   1.026   1.266   5.477
 5831SOL    HW218393   0.915   1.169   5.408
 5832SOL     OW18394   3.271   5.081   6.893
 5832SOL    HW118395   3.193   5.120   6.844
 5832SOL    HW218396   3.307   5.004   6.841
 5833SOL     OW18397   3.643   4.262   5.290
 5833SOL    HW118398   3.574   4.331   5.312
 5833SOL    HW218399   3.632   4.234   5.194
 5834SOL     OW18400   0.133   2.643   0.243
 5834SOL    HW118401   0.156   2.654   0.146
 5834SOL    HW218402   0.193   2.701   0.298
 5835SOL     OW18403   5.493   2.980   3.282
 5835SOL    HW118404   5.474   2.931   3.197
 5835SOL    HW218405   5.590   3.007   3.284
 5836SOL     OW18406   2.771   0.106   2.075
 5836SOL    HW118407   2.712   0.109   1.993
 5836SOL    HW218408   2.811   0.015   2.083
 5837SOL     OW18409   3.167   3.851   0.104
 5837SOL    HW118410   3.165   3.949   0.126
 5837SOL    HW218411   3.234   3.835   0.031
 5838SOL     OW18412   2.970   1.729   0.729
 5838SOL    HW118413   3.043   1.691   0.786
 5838SOL    HW218414   2.948   1.821   0.761
 5839SOL     OW18415   1.097   2.152   2.299
 5839SOL    HW118416   1.131   2.105   2.218
 5839SOL    HW218417   1.025   2.097   2.342
 5840SOL     OW18418   1.125   4.843   6.414
 5840SOL    HW118419   1.126   4.762   6.472
 5840SOL    HW218420   1.194   4.834   6.342
 5841SOL     OW18421   5.113   1.839   2.296
 5841SOL    HW118422   5.084   1.802   2.384
 5841SOL    HW218423   5.048   1.908   2.265
 5842SOL     OW18424   5.325   3.213   1.397
 5842SOL    HW118425   5.281   3.152   1.463
 5842SOL    HW218426   5.270   3.295   1.386
 5843SOL     OW18427   1.507   4.293   2.509
 5843SOL    HW118428   1.585   4.298   2.447
 5843SOL    HW218429   1.508   4.206   2.558
 5844SOL     OW18430   1.852   5.899   5.959
 5844SOL    HW118431   1.910   5.927   5.882
 5844SOL    HW218432   1.886   5.813   5.998
 5845SOL     OW18433   0.265   0.299   2.514
 5845SOL    HW118434   0.243   0.214   2.561
 5845SOL    HW218435   0.268   0.283   2.415
 5846SOL     OW18436   6.039   3.319   5.846
 5846SOL    HW118437   6.083   3.352   5.930
 5846SOL    HW218438   6.076   3.368   5.768
 5847SOL     OW18439   2.795   2.073   1.977
 5847SOL    HW118440   2.823   2.165   2.002
 5847SOL    HW218441   2.875   2.019   1.951
 5848SOL     OW18442   1.307   5.619   2.922
 5848SOL    HW118443   1.300   5.712   2.958
 5848SOL    HW218444   1.342   5.623   2.828
 5849SOL     OW18445   1.108   0.559   5.410
 5849SOL    HW118446   1.047   0.508   5.349
 5849SOL    HW218447   1.121   0.508   5.494
 5850SOL     OW18448   6.683   3.585   1.809
 5850SOL    HW118449   6.709   3.552   1.900
 5850SOL    HW218450   6.585   3.607   1.808
 5851SOL     OW18451   5.296   3.098   2.810
 5851SOL    HW118452   5.257   3.138   2.893
 5851SOL    HW218453   5.275   3.000   2.807
 5852SOL     OW18454   5.542   6.144   3.361
 5852SOL    HW118455   5.641   6.133   3.370
 5852SOL    HW218456   5.498   6.055   3.360
 5853SOL     OW18457   3.342   5.725   4.399
 5853SOL    HW118458   3.245   5.745   4.412
 5853SOL    HW218459   3.352   5.641   4.344
 5854SOL     OW18460   4.331   4.192   6.246
 5854SOL    HW118461   4.231   4.183   6.240
 5854SOL    HW218462   4.356   4.288   6.232
 5855SOL     OW18463   0.662   1.171   4.667
 5855SOL    HW118464   0.605   1.248   4.697
 5855SOL    HW218465   0.753   1.178   4.709
 5856SOL     OW18466   2.034   6.247   3.884
 5856SOL    HW118467   1.963   6.182   3.858
 5856SOL    HW218468   2.095   6.263   3.805
 5857SOL     OW18469   6.001   2.248   6.077
 5857SOL    HW118470   5.935   2.293   6.017
 5857SOL    HW218471   5.953   2.201   6.151
 5858SOL     OW18472   2.757   2.244   2.953
 5858SOL    HW118473   2.723   2.337   2.941
 5858SOL    HW218474   2.718   2.205   3.036
 5859SOL     OW18475   6.014   6.413   1.783
 5859SOL    HW118476   6.082   6.365   1.838
 5859SOL    HW218477   5.955   6.468   1.842
 5860SOL     OW18478   0.404   3.508   2.598
 5860SOL    HW118479   0.452   3.532   2.513
 5860SOL    HW218480   0.324   3.452   2.576
 5861SOL     OW18481   4.592   1.449   4.411
 5861SOL    HW118482   4.632   1.540   4.425
 5861SOL    HW218483   4.657   1.391   4.363
 5862SOL     OW18484   5.762   5.686   1.094
 5862SOL    HW118485   5.773   5.765   1.033
 5862SOL    HW218486   5.761   5.717   1.189
 5863SOL     OW18487   3.291   2.027   5.115
 5863SOL    HW118488   3.361   2.060   5.178
 5863SOL    HW218489   3.245   2.104   5.072
 5864SOL     OW18490   4.106   3.640   2.403
 5864SOL    HW118491   4.057   3.714   2.449
 5864SOL    HW218492   4.202   3.642   2.430
 5865SOL     OW18493   5.934   0.174   5.091
 5865SOL    HW118494   5.847   0.134   5.063
 5865SOL    HW218495   6.009   0.114   5.064
 5866SOL     OW18496   3.922   4.237   0.436
 5866SOL    HW118497   3.866   4.233   0.519
 5866SOL    HW218498   3.921   4.331   0.400
 5867SOL     OW18499   1.960   3.489   1.085
 5867SOL    HW118500   2.048   3.534   1.103
 5867SOL    HW218501   1.885   3.553   1.100
 5868SOL     OW18502   0.705   1.383   5.491
 5868SOL    HW118503   0.733   1.313   5.425
 5868SOL    HW218504   0.749   1.470   5.469
 5869SOL     OW18505   1.968   6.698   3.162
 5869SOL    HW118506   1.872   6.724   3.156
 5869SOL    HW218507   2.024   6.764   3.112
 5870SOL     OW18508   4.364   6.331   4.694
 5870SOL    HW118509   4.369   6.232   4.701
 5870SOL    HW218510   4.410   6.372   4.773
 5871SOL     OW18511   3.141   3.233   1.301
 5871SOL    HW118512   3.076   3.191   1.364
 5871SOL    HW218513   3.181   3.162   1.242
 5872SOL     OW18514   4.707   6.165   1.068
 5872SOL    HW118515   4.744   6.098   1.132
 5872SOL    HW218516   4.758   6.251   1.077
 5873SOL     OW18517   3.507   1.765   1.964
 5873SOL    HW118518   3.542   1.854   1.991
 5873SOL    HW218519   3.416   1.752   2.003
 5874SOL     OW18520   3.261   4.800   6.459
 5874SOL    HW118521   3.178   4.767   6.414
 5874SOL    HW218522   3.239   4.836   6.549
 5875SOL     OW18523   4.534   1.091   6.835
 5875SOL    HW118524   4.615   1.139   6.802
 5875SOL    HW218525   4.452   1.134   6.797
 5876SOL     OW18526   4.123   2.833   0.296
 5876SOL    HW118527   4.179   2.782   0.231
 5876SOL    HW218528   4.139   2.931   0.284
 5877SOL     OW18529   0.809   0.682   1.728
 5877SOL    HW118530   0.769   0.762   1.773
 5877SOL    HW218531   0.765   0.669   1.639
 5878SOL     OW18532   5.974   5.500   3.779
 5878SOL    HW118533   5.940   5.567   3.845
 5878SOL    HW218534   6.072   5.512   3.768
 5879SOL     OW18535   1.748   4.430   6.847
 5879SOL    HW118536   1.725   4.363   6.775
 5879SOL    HW218537   1.666   4.480   6.873
 5880SOL     OW18538   4.767   4.358   6.054
 5880SOL    HW118539   4.740   4.309   6.137
 5880SOL    HW218540   4.860   4.332   6.028
 5881SOL     OW18541   0.580   0.135   2.294
 5881SOL    HW118542   0.549   0.074   2.366
 5881SOL    HW218543   0.596   0.227   2.332
 5882SOL     OW18544   0.108   5.697   0.659
 5882SOL    HW118545   0.109   5.677   0.757
 5882SOL    HW218546   0.109   5.796   0.645
 5883SOL     OW18547   1.201   1.589   6.323
 5883SOL    HW118548   1.287   1.548   6.354
 5883SOL    HW218549   1.136   1.516   6.301
 5884SOL     OW18550   4.386   1.232   4.012
 5884SOL    HW118551   4.426   1.214   4.102
 5884SOL    HW218552   4.289   1.205   4.014
 5885SOL     OW18553   0.499   6.589   2.362
 5885SOL    HW118554   0.566   6.573   2.289
 5885SOL    HW218555   0.544   6.576   2.450
 5886SOL     OW18556   0.106   2.010   3.879
 5886SOL    HW118557   0.114   2.039   3.784
 5886SOL    HW218558   0.192   2.031   3.927
 5887SOL     OW18559   2.611   1.856   1.975
 5887SOL    HW118560   2.655   1.946   1.975
 5887SOL    HW218561   2.534   1.857   1.911
 5888SOL     OW18562   2.487   0.646   1.020
 5888SOL    HW118563   2.568   0.662   1.076
 5888SOL    HW218564   2.475   0.721   0.956
 5889SOL     OW18565   0.331   0.478   0.543
 5889SOL    HW118566   0.301   0.410   0.476
 5889SOL    HW218567   0.319   0.569   0.505
 5890SOL     OW18568   2.297   1.058   3.238
 5890SOL    HW118569   2.388   1.093   3.260
 5890SOL    HW218570   2.293   1.033   3.142
 5891SOL     OW18571   2.945   3.132   6.980
 5891SOL    HW118572   3.011   3.207   6.980
 5891SOL    HW218573   2.925   3.105   0.055
 5892SOL     OW18574   0.947   5.431   2.338
 5892SOL    HW118575   1.025   5.493   2.330
 5892SOL    HW218576   0.910   5.412   2.248
 5893SOL     OW18577   2.296   4.098   3.702
 5893SOL    HW118578   2.331   4.009   3.732
 5893SOL    HW218579   2.246   4.141   3.777
 5894SOL     OW18580   0.261   5.953   4.573
 5894SOL    HW118581   0.254   5.874   4.512
 5894SOL    HW218582   0.291   6.033   4.522
 5895SOL     OW18583   5.114   3.557   3.970
 5895SOL    HW118584   5.183   3.509   3.916
 5895SOL    HW218585   5.147   3.570   4.063
 5896SOL     OW18586   3.497   0.689   0.643
 5896SOL    HW118587   3.551   0.685   0.727
 5896SOL    HW218588   3.529   0.765   0.586
 5897SOL     OW18589   4.315   0.024   1.309
 5897SOL    HW118590   4.400   0.063   1.275
 5897SOL    HW218591   4.251   0.011   1.233
 5898SOL     OW18592   2.472   0.303   3.990
 5898SOL    HW118593   2.502   0.208   3.998
 5898SOL    HW218594   2.544   0.356   3.944
 5899SOL     OW18595   6.424   5.458   0.400
 5899SOL    HW118596   6.453   5.420   0.312
 5899SOL    HW218597   6.345   5.407   0.435
 5900SOL     OW18598   6.246   4.976   3.730
 5900SOL    HW118599   6.242   5.068   3.692
 5900SOL    HW218600   6.308   4.919   3.676
 5901SOL     OW18601   2.168   1.420   0.144
 5901SOL    HW118602   2.259   1.448   0.173
 5901SOL    HW218603   2.162   1.320   0.142
 5902SOL     OW18604   5.845   2.496   4.773
 5902SOL    HW118605   5.818   2.459   4.684
 5902SOL    HW218606   5.861   2.421   4.837
 5903SOL     OW18607   5.104   3.440   6.697
 5903SOL    HW118608   5.144   3.489   6.775
 5903SOL    HW218609   5.134   3.345   6.698
 5904SOL     OW18610   0.977   4.360   1.298
 5904SOL    HW118611   1.063   4.317   1.271
 5904SOL    HW218612   0.919   4.293   1.343
 5905SOL     OW18613   6.057   6.709   3.840
 5905SOL    HW118614   6.130   6.641   3.850
 5905SOL    HW218615   6.022   6.734   3.930
 5906SOL     OW18616   3.714   2.112   3.465
 5906SOL    HW118617   3.630   2.105   3.517
 5906SOL    HW218618   3.787   2.151   3.522
 5907SOL     OW18619   1.167   5.350   0.177
 5907SOL    HW118620   1.223   5.423   0.138
 5907SOL    HW218621   1.203   5.323   0.266
 5908SOL     OW18622   0.239   3.285   0.281
 5908SOL    HW118623   0.204   3.376   0.259
 5908SOL    HW218624   0.179   3.216   0.241
 5909SOL     OW18625   0.251   5.295   0.652
 5909SOL    HW118626   0.298   5.370   0.605
 5909SOL    HW218627   0.291   5.208   0.623
 5910SOL     OW18628   0.796   4.100   3.791
 5910SOL    HW118629   0.858   4.037   3.839
 5910SOL    HW218630   0.809   4.192   3.826
 5911SOL     OW18631   0.085   5.151   6.370
 5911SOL    HW118632   0.064   5.238   6.414
 5911SOL    HW218633   0.020   5.135   6.296
 5912SOL     OW18634   5.867   2.240   6.842
 5912SOL    HW118635   5.937   2.302   6.807
 5912SOL    HW218636   5.824   2.192   6.766
 5913SOL     OW18637   5.262   2.723   6.087
 5913SOL    HW118638   5.356   2.690   6.081
 5913SOL    HW218639   5.262   2.819   6.116
 5914SOL     OW18640   1.623   5.392   6.404
 5914SOL    HW118641   1.659   5.376   6.312
 5914SOL    HW218642   1.525   5.373   6.405
 5915SOL     OW18643   4.560   5.413   1.404
 5915SOL    HW118644   4.645   5.453   1.369
 5915SOL    HW218645   4.548   5.441   1.499
 5916SOL     OW18646   4.870   6.194   4.272
 5916SOL    HW118647   4.857   6.099   4.244
 5916SOL    HW218648   4.790   6.248   4.244
 5917SOL     OW18649   3.228   3.685   4.181
 5917SOL    HW118650   3.232   3.601   4.235
 5917SOL    HW218651   3.229   3.662   4.084
 5918SOL     OW18652   2.001   3.627   6.137
 5918SOL    HW118653   2.007   3.590   6.045
 5918SOL    HW218654   2.047   3.565   6.201
 5919SOL     OW18655   3.507   3.035   2.085
 5919SOL    HW118656   3.522   2.937   2.095
 5919SOL    HW218657   3.413   3.056   2.110
 5920SOL     OW18658   4.375   0.803   6.786
 5920SOL    HW118659   4.324   0.727   6.826
 5920SOL    HW218660   4.364   0.884   6.843
 5921SOL     OW18661   3.708   5.264   6.539
 5921SOL    HW118662   3.781   5.217   6.488
 5921SOL    HW218663   3.745   5.296   6.626
 5922SOL     OW18664   6.107   5.181   2.789
 5922SOL    HW118665   6.166   5.232   2.725
 5922SOL    HW218666   6.164   5.132   2.854
 5923SOL     OW18667   6.114   1.019   1.304
 5923SOL    HW118668   6.190   1.028   1.369
 5923SOL    HW218669   6.081   0.924   1.305
 5924SOL     OW18670   6.931   0.940   3.413
 5924SOL    HW118671   6.855   0.876   3.406
 5924SOL    HW218672   7.012   0.901   3.370
 5925SOL     OW18673   3.890   6.157   1.706
 5925SOL    HW118674   3.946   6.195   1.780
 5925SOL    HW218675   3.793   6.166   1.730
 5926SOL     OW18676   4.177   5.438   1.383
 5926SOL    HW118677   4.110   5.511   1.370
 5926SOL    HW218678   4.261   5.461   1.335
 5927SOL     OW18679   1.545   4.599   2.357
 5927SOL    HW118680   1.640   4.575   2.375
 5927SOL    HW218681   1.488   4.568   2.433
 5928SOL     OW18682   3.579   0.268   1.226
 5928SOL    HW118683   3.545   0.298   1.136
 5928SOL    HW218684   3.621   0.178   1.217
 5929SOL     OW18685   0.626   6.862   6.469
 5929SOL    HW118686   0.692   6.788   6.470
 5929SOL    HW218687   0.600   6.883   6.375
 5930SOL     OW18688   6.274   3.425   3.487
 5930SOL    HW118689   6.248   3.372   3.406
 5930SOL    HW218690   6.367   3.400   3.515
 5931SOL     OW18691   6.768   5.608   3.125
 5931SOL    HW118692   6.730   5.602   3.033
 5931SOL    HW218693   6.729   5.535   3.181
 5932SOL     OW18694   2.595   0.160   0.474
 5932SOL    HW118695   2.618   0.241   0.528
 5932SOL    HW218696   2.520   0.112   0.519
 5933SOL     OW18697   6.780   6.144   3.312
 5933SOL    HW118698   6.835   6.157   3.395
 5933SOL    HW218699   6.835   6.166   3.232
 5934SOL     OW18700   3.608   2.857   4.213
 5934SOL    HW118701   3.599   2.870   4.114
 5934SOL    HW218702   3.683   2.914   4.247
 5935SOL     OW18703   5.137   5.130   6.352
 5935SOL    HW118704   5.199   5.059   6.387
 5935SOL    HW218705   5.190   5.209   6.322
 5936SOL     OW18706   3.781   3.037   1.156
 5936SOL    HW118707   3.795   3.118   1.213
 5936SOL    HW218708   3.684   3.024   1.138
 5937SOL     OW18709   0.767   4.480   2.886
 5937SOL    HW118710   0.733   4.477   2.793
 5937SOL    HW218711   0.721   4.411   2.941
 5938SOL     OW18712   0.811   5.201   3.564
 5938SOL    HW118713   0.909   5.182   3.563
 5938SOL    HW218714   0.795   5.299   3.555
 5939SOL     OW18715   2.546   6.738   3.046
 5939SOL    HW118716   2.561   6.654   2.993
 5939SOL    HW218717   2.507   6.808   2.987
 5940SOL     OW18718   5.111   5.311   0.689
 5940SOL    HW118719   5.085   5.300   0.785
 5940SOL    HW218720   5.163   5.396   0.678
 5941SOL     OW18721   5.927   3.329   2.316
 5941SOL    HW118722   6.006   3.283   2.278
 5941SOL    HW218723   5.905   3.409   2.260
 5942SOL     OW18724   4.833   3.467   0.242
 5942SOL    HW118725   4.908   3.422   0.195
 5942SOL    HW218726   4.836   3.566   0.223
 5943SOL     OW18727   3.499   4.936   0.133
 5943SOL    HW118728   3.424   4.919   0.197
 5943SOL    HW218729   3.501   5.033   0.109
 5944SOL     OW18730   6.457   3.142   1.231
 5944SOL    HW118731   6.526   3.168   1.299
 5944SOL    HW218732   6.392   3.078   1.273
 5945SOL     OW18733   5.958   5.449   4.953
 5945SOL    HW118734   6.018   5.441   4.873
 5945SOL    HW218735   5.864   5.467   4.922
 5946SOL     OW18736   3.831   3.109   6.468
 5946SOL    HW118737   3.876   3.138   6.383
 5946SOL    HW218738   3.790   3.019   6.455
 5947SOL     OW18739   3.821   3.465   2.034
 5947SOL    HW118740   3.761   3.394   2.069
 5947SOL    HW218741   3.774   3.518   1.963
 5948SOL     OW18742   4.407   5.096   3.388
 5948SOL    HW118743   4.441   5.188   3.368
 5948SOL    HW218744   4.477   5.044   3.436
 5949SOL     OW18745   5.209   3.916   1.402
 5949SOL    HW118746   5.259   3.983   1.348
 5949SOL    HW218747   5.214   3.941   1.499
 5950SOL     OW18748   4.284   1.978   5.983
 5950SOL    HW118749   4.301   1.996   6.080
 5950SOL    HW218750   4.185   1.972   5.967
 5951SOL     OW18751   1.303   5.975   4.139
 5951SOL    HW118752   1.217   5.925   4.153
 5951SOL    HW218753   1.322   5.980   4.041
 5952SOL     OW18754   5.873   4.755   3.503
 5952SOL    HW118755   5.857   4.735   3.406
 5952SOL    HW218756   5.935   4.833   3.512
 5953SOL     OW18757   6.293   2.648   5.577
 5953SOL    HW118758   6.247   2.734   5.597
 5953SOL    HW218759   6.391   2.658   5.591
 5954SOL     OW18760   6.994   4.556   6.284
 5954SOL    HW118761   6.930   4.481   6.265
 5954SOL    HW218762   0.023   4.581   6.200
 5955SOL     OW18763   5.094   6.315   2.771
 5955SOL    HW118764   5.172   6.375   2.757
 5955SOL    HW218765   5.009   6.365   2.754
 5956SOL     OW18766   4.489   1.367   6.039
 5956SOL    HW118767   4.498   1.352   5.941
 5956SOL    HW218768   4.533   1.292   6.089
 5957SOL     OW18769   4.041   0.671   5.127
 5957SOL    HW118770   4.109   0.624   5.071
 5957SOL    HW218771   3.986   0.733   5.070
 5958SOL     OW18772   5.799   0.299   3.251
 5958SOL    HW118773   5.828   0.204   3.259
 5958SOL    HW218774   5.859   0.357   3.306
 5959SOL     OW18775   3.917   2.780   5.257
 5959SOL    HW118776   3.853   2.784   5.180
 5959SOL    HW218777   3.963   2.691   5.257
 5960SOL     OW18778   3.278   5.255   4.674
 5960SOL    HW118779   3.296   5.194   4.597
 5960SOL    HW218780   3.197   5.223   4.724
 5961SOL     OW18781   5.480   1.459   3.025
 5961SOL    HW118782   5.426   1.498   2.951
 5961SOL    HW218783   5.536   1.531   3.067
 5962SOL     OW18784   5.763   6.540   0.410
 5962SOL    HW118785   5.828   6.481   0.363
 5962SOL    HW218786   5.713   6.595   0.343
 5963SOL     OW18787   3.873   3.601   5.525
 5963SOL    HW118788   3.832   3.651   5.602
 5963SOL    HW218789   3.806   3.537   5.488
 5964SOL     OW18790   0.215   5.300   5.195
 5964SOL    HW118791   0.157   5.313   5.275
 5964SOL    HW218792   0.309   5.328   5.217
 5965SOL     OW18793   1.417   2.271   6.619
 5965SOL    HW118794   1.422   2.368   6.643
 5965SOL    HW218795   1.501   2.225   6.650
 5966SOL     OW18796   3.159   5.893   5.565
 5966SOL    HW118797   3.152   5.795   5.547
 5966SOL    HW218798   3.084   5.920   5.627
 5967SOL     OW18799   4.046   6.617   6.261
 5967SOL    HW118800   4.080   6.604   6.354
 5967SOL    HW218801   3.955   6.656   6.264
 5968SOL     OW18802   4.970   1.486   0.991
 5968SOL    HW118803   4.981   1.563   1.053
 5968SOL    HW218804   4.872   1.465   0.981
 5969SOL     OW18805   0.199   6.901   5.931
 5969SOL    HW118806   0.113   6.860   5.963
 5969SOL    HW218807   0.206   6.995   5.965
 5970SOL     OW18808   0.268   4.377   2.272
 5970SOL    HW118809   0.268   4.449   2.203
 5970SOL    HW218810   0.340   4.395   2.340
 5971SOL     OW18811   1.343   1.279   2.305
 5971SOL    HW118812   1.384   1.256   2.394
 5971SOL    HW218813   1.328   1.196   2.252
 5972SOL     OW18814   5.287   5.451   6.556
 5972SOL    HW118815   5.240   5.464   6.469
 5972SOL    HW218816   5.232   5.490   6.630
 5973SOL     OW18817   1.708   3.547   2.750
 5973SOL    HW118818   1.630   3.570   2.693
 5973SOL    HW218819   1.744   3.631   2.792
 5974SOL     OW18820   5.311   5.338   6.209
 5974SOL    HW118821   5.385   5.282   6.170
 5974SOL    HW218822   5.351   5.418   6.254
 5975SOL     OW18823   3.669   0.865   0.535
 5975SOL    HW118824   3.670   0.832   0.440
 5975SOL    HW218825   3.763   0.887   0.563
 5976SOL     OW18826   3.244   3.269   5.801
 5976SOL    HW118827   3.225   3.263   5.899
 5976SOL    HW218828   3.161   3.299   5.753
 5977SOL     OW18829   2.414   5.208   6.833
 5977SOL    HW118830   2.370   5.162   6.756
 5977SOL    HW218831   2.512   5.188   6.833
 5978SOL     OW18832   5.161   5.392   2.828
 5978SOL    HW118833   5.095   5.320   2.806
 5978SOL    HW218834   5.154   5.415   2.925
 5979SOL     OW18835   5.767   0.614   2.836
 5979SOL    HW118836   5.780   0.537   2.897
 5979SOL    HW218837   5.771   0.582   2.741
 5980SOL     OW18838   3.754   4.200   1.276
 5980SOL    HW118839   3.767   4.101   1.277
 5980SOL    HW218840   3.838   4.245   1.307
 5981SOL     OW18841   5.631   2.518   1.360
 5981SOL    HW118842   5.717   2.555   1.326
 5981SOL    HW218843   5.555   2.574   1.328
 5982SOL     OW18844   6.908   3.578   2.605
 5982SOL    HW118845   6.995   3.581   2.653
 5982SOL    HW218846   6.889   3.484   2.575
 5983SOL     OW18847   1.052   1.909   4.335
 5983SOL    HW118848   1.035   1.858   4.250
 5983SOL    HW218849   1.090   1.847   4.403
 5984SOL     OW18850   6.699   5.436   3.510
 5984SOL    HW118851   6.731   5.380   3.587
 5984SOL    HW218852   6.616   5.396   3.472
 5985SOL     OW18853   6.918   2.842   4.436
 5985SOL    HW118854   6.970   2.767   4.477
 5985SOL    HW218855   6.980   2.918   4.416
 5986SOL     OW18856   2.952   3.408   4.631
 5986SOL    HW118857   2.902   3.404   4.717
 5986SOL    HW218858   2.945   3.320   4.583
 5987SOL     OW18859   4.703   0.249   4.106
 5987SOL    HW118860   4.637   0.316   4.140
 5987SOL    HW218861   4.780   0.297   4.063
 5988SOL     OW18862   4.841   6.960   5.411
 5988SOL    HW118863   4.780   0.010   5.371
 5988SOL    HW218864   4.933   6.973   5.375
 5989SOL     OW18865   2.560   6.533   6.437
 5989SOL    HW118866   2.609   6.586   6.507
 5989SOL    HW218867   2.558   6.436   6.463
 5990SOL     OW18868   3.719   4.470   0.102
 5990SOL    HW118869   3.644   4.534   0.120
 5990SOL    HW218870   3.684   4.377   0.103
 5991SOL     OW18871   3.225   5.105   0.160
 5991SOL    HW118872   3.163   5.040   0.203
 5991SOL    HW218873   3.244   5.077   0.066
 5992SOL     OW18874   3.889   0.056   2.536
 5992SOL    HW118875   3.941   0.118   2.594
 5992SOL    HW218876   3.805   0.101   2.504
 5993SOL     OW18877   3.325   5.938   6.943
 5993SOL    HW118878   3.262   5.925   0.001
 5993SOL    HW218879   3.272   5.943   6.858
 5994SOL     OW18880   5.489   2.629   2.257
 5994SOL    HW118881   5.440   2.716   2.261
 5994SOL    HW218882   5.434   2.563   2.206
 5995SOL     OW18883   4.712   4.260   3.127
 5995SOL    HW118884   4.737   4.357   3.132
 5995SOL    HW218885   4.693   4.236   3.032
 5996SOL     OW18886   1.007   6.455   0.699
 5996SOL    HW118887   0.962   6.367   0.690
 5996SOL    HW218888   0.942   6.522   0.735
 5997SOL     OW18889   0.302   5.435   2.811
 5997SOL    HW118890   0.319   5.382   2.894
 5997SOL    HW218891   0.389   5.466   2.773
 5998SOL     OW18892   5.802   1.158   3.363
 5998SOL    HW118893   5.848   1.238   3.400
 5998SOL    HW218894   5.725   1.187   3.306
 5999SOL     OW18895   1.633   1.670   2.573
 5999SOL    HW118896   1.714   1.650   2.519
 5999SOL    HW218897   1.579   1.741   2.528
 6000SOL     OW18898   4.469   6.770   0.895
 6000SOL    HW118899   4.443   6.711   0.972
 6000SOL    HW218900   4.386   6.799   0.846
 6001SOL     OW18901   1.259   3.820   6.896
 6001SOL    HW118902   1.350   3.859   6.879
 6001SOL    HW218903   1.203   3.830   6.814
 6002SOL     OW18904   5.966   0.593   0.823
 6002SOL    HW118905   6.011   0.525   0.765
 6002SOL    HW218906   5.972   0.683   0.779
 6003SOL     OW18907   6.157   2.265   4.636
 6003SOL    HW118908   6.159   2.167   4.613
 6003SOL    HW218909   6.082   2.309   4.586
 6004SOL     OW18910   0.423   3.814   2.916
 6004SOL    HW118911   0.367   3.897   2.922
 6004SOL    HW218912   0.474   3.803   3.002
 6005SOL     OW18913   4.637   5.719   4.179
 6005SOL    HW118914   4.609   5.624   4.177
 6005SOL    HW218915   4.564   5.777   4.142
 6006SOL     OW18916   2.368   0.776   5.863
 6006SOL    HW118917   2.370   0.682   5.898
 6006SOL    HW218918   2.307   0.781   5.784
 6007SOL     OW18919   4.936   3.411   5.581
 6007SOL    HW118920   4.992   3.463   5.516
 6007SOL    HW218921   4.898   3.472   5.649
 6008SOL     OW18922   2.325   4.546   5.539
 6008SOL    HW118923   2.266   4.621   5.568
 6008SOL    HW218924   2.291   4.460   5.579
 6009SOL     OW18925   3.237   0.158   3.477
 6009SOL    HW118926   3.317   0.099   3.463
 6009SOL    HW218927   3.268   0.253   3.488
 6010SOL     OW18928   1.700   4.292   4.348
 6010SOL    HW118929   1.767   4.365   4.358
 6010SOL    HW218930   1.655   4.300   4.259
 6011SOL     OW18931   4.908   3.196   2.496
 6011SOL    HW118932   4.914   3.170   2.400
 6011SOL    HW218933   4.920   3.295   2.504
 6012SOL     OW18934   4.772   1.467   0.254
 6012SOL    HW118935   4.760   1.526   0.174
 6012SOL    HW218936   4.858   1.489   0.300
 6013SOL     OW18937   4.783   1.839   2.577
 6013SOL    HW118938   4.801   1.870   2.670
 6013SOL    HW218939   4.738   1.750   2.579
 6014SOL     OW18940   3.701   3.539   1.800
 6014SOL    HW118941   3.745   3.592   1.728
 6014SOL    HW218942   3.696   3.443   1.773
 6015SOL     OW18943   5.600   3.232   4.537
 6015SOL    HW118944   5.534   3.285   4.485
 6015SOL    HW218945   5.556   3.196   4.620
 6016SOL     OW18946   6.379   1.926   5.960
 6016SOL    HW118947   6.334   1.949   6.046
 6016SOL    HW218948   6.415   1.833   5.965
 6017SOL     OW18949   6.618   4.329   3.371
 6017SOL    HW118950   6.557   4.401   3.405
 6017SOL    HW218951   6.702   4.328   3.425
 6018SOL     OW18952   3.287   0.576   0.044
 6018SOL    HW118953   3.188   0.575   0.034
 6018SOL    HW218954   3.324   0.658   7.019
 6019SOL     OW18955   6.997   1.712   4.239
 6019SOL    HW118956   6.964   1.729   4.146
 6019SOL    HW218957   0.076   1.693   4.237
 6020SOL     OW18958   0.976   4.729   0.628
 6020SOL    HW118959   0.918   4.722   0.710
 6020SOL    HW218960   1.066   4.764   0.654
 6021SOL     OW18961   4.713   0.511   2.400
 6021SOL    HW118962   4.619   0.482   2.416
 6021SOL    HW218963   4.753   0.459   2.325
 6022SOL     OW18964   4.320   2.101   4.100
 6022SOL    HW118965   4.342   2.100   4.198
 6022SOL    HW218966   4.352   2.186   4.059
 6023SOL     OW18967   6.039   0.205   2.204
 6023SOL    HW118968   5.970   0.278   2.203
 6023SOL    HW218969   6.060   0.180   2.298
 6024SOL     OW18970   1.287   4.727   3.231
 6024SOL    HW118971   1.325   4.710   3.322
 6024SOL    HW218972   1.355   4.707   3.161
 6025SOL     OW18973   3.778   1.437   2.895
 6025SOL    HW118974   3.819   1.482   2.975
 6025SOL    HW218975   3.732   1.505   2.838
 6026SOL     OW18976   0.091   4.457   5.291
 6026SOL    HW118977   0.019   4.451   5.222
 6026SOL    HW218978   0.175   4.492   5.249
 6027SOL     OW18979   1.487   4.250   6.564
 6027SOL    HW118980   1.448   4.295   6.644
 6027SOL    HW218981   1.428   4.175   6.536
 6028SOL     OW18982   0.359   4.478   6.766
 6028SOL    HW118983   0.433   4.412   6.762
 6028SOL    HW218984   0.391   4.562   6.811
 6029SOL     OW18985   2.358   6.218   5.025
 6029SOL    HW118986   2.451   6.244   4.997
 6029SOL    HW218987   2.346   6.120   5.013
 6030SOL     OW18988   3.871   5.861   2.968
 6030SOL    HW118989   3.905   5.951   2.942
 6030SOL    HW218990   3.773   5.866   2.987
 6031SOL     OW18991   2.923   5.472   3.427
 6031SOL    HW118992   2.987   5.547   3.441
 6031SOL    HW218993   2.876   5.485   3.339
 6032SOL     OW18994   2.395   4.304   2.739
 6032SOL    HW118995   2.374   4.222   2.792
 6032SOL    HW218996   2.443   4.370   2.797
 6033SOL     OW18997   3.079   1.865   3.065
 6033SOL    HW118998   3.030   1.829   2.985
 6033SOL    HW218999   3.150   1.929   3.035
 6034SOL     OW19000   1.542   5.465   4.664
 6034SOL    HW119001   1.596   5.448   4.747
 6034SOL    HW219002   1.448   5.437   4.680
 6035SOL     OW19003   0.069   0.865   2.617
 6035SOL    HW119004   0.101   0.787   2.670
 6035SOL    HW219005   7.003   0.900   2.656
 6036SOL     OW19006   5.441   5.550   3.501
 6036SOL    HW119007   5.413   5.643   3.525
 6036SOL    HW219008   5.364   5.487   3.515
 6037SOL     OW19009   4.401   5.115   6.579
 6037SOL    HW119010   4.383   5.035   6.521
 6037SOL    HW219011   4.399   5.198   6.523
 6038SOL     OW19012   1.352   2.042   5.868
 6038SOL    HW119013   1.440   2.074   5.901
 6038SOL    HW219014   1.285   2.116   5.874
 6039SOL     OW19015   3.001   3.632   2.342
 6039SOL    HW119016   3.030   3.712   2.395
 6039SOL    HW219017   2.974   3.558   2.404
 6040SOL     OW19018   0.834   1.839   6.726
 6040SOL    HW119019   0.842   1.829   6.627
 6040SOL    HW219020   0.753   1.789   6.758
 6041SOL     OW19021   2.716   0.757   5.030
 6041SOL    HW119022   2.722   0.687   5.101
 6041SOL    HW219023   2.793   0.747   4.966
 6042SOL     OW19024   5.190   5.823   1.872
 6042SOL    HW119025   5.093   5.848   1.875
 6042SOL    HW219026   5.204   5.751   1.805
 6043SOL     OW19027   0.881   4.513   5.568
 6043SOL    HW119028   0.789   4.553   5.574
 6043SOL    HW219029   0.934   4.562   5.499
 6044SOL     OW19030   1.148   2.102   1.743
 6044SOL    HW119031   1.072   2.062   1.692
 6044SOL    HW219032   1.117   2.184   1.790
 6045SOL     OW19033   6.143   5.022   2.418
 6045SOL    HW119034   6.171   4.968   2.498
 6045SOL    HW219035   6.045   5.038   2.423
 6046SOL     OW19036   3.808   1.763   0.163
 6046SOL    HW119037   3.850   1.684   0.118
 6046SOL    HW219038   3.806   1.840   0.100
 6047SOL     OW19039   5.223   2.320   1.535
 6047SOL    HW119040   5.295   2.267   1.580
 6047SOL    HW219041   5.134   2.295   1.574
 6048SOL     OW19042   4.447   5.407   5.031
 6048SOL    HW119043   4.528   5.465   5.024
 6048SOL    HW219044   4.380   5.451   5.092
 6049SOL     OW19045   5.890   3.632   6.409
 6049SOL    HW119046   5.973   3.688   6.403
 6049SOL    HW219047   5.862   3.603   6.318
 6050SOL     OW19048   3.715   6.258   4.484
 6050SOL    HW119049   3.759   6.176   4.449
 6050SOL    HW219050   3.652   6.234   4.558
 6051SOL     OW19051   2.492   0.578   4.329
 6051SOL    HW119052   2.510   0.481   4.346
 6051SOL    HW219053   2.515   0.600   4.235
 6052SOL     OW19054   6.207   0.704   0.631
 6052SOL    HW119055   6.301   0.691   0.600
 6052SOL    HW219056   6.207   0.752   0.719
 6053SOL     OW19057   4.319   1.480   6.436
 6053SOL    HW119058   4.224   1.471   6.409
 6053SOL    HW219059   4.338   1.575   6.463
 6054SOL     OW19060   2.662   3.686   0.825
 6054SOL    HW119061   2.724   3.697   0.748
 6054SOL    HW219062   2.568   3.676   0.791
 6055SOL     OW19063   4.510   0.706   4.963
 6055SOL    HW119064   4.446   0.682   5.036
 6055SOL    HW219065   4.520   0.628   4.901
 6056SOL     OW19066   4.711   2.844   4.525
 6056SOL    HW119067   4.743   2.933   4.494
 6056SOL    HW219068   4.707   2.842   4.625
 6057SOL     OW19069   5.347   2.996   3.960
 6057SOL    HW119070   5.337   3.045   4.047
 6057SOL    HW219071   5.429   2.940   3.963
 6058SOL     OW19072   4.942   2.903   1.318
 6058SOL    HW119073   4.897   2.992   1.311
 6058SOL    HW219074   5.037   2.911   1.288
 6059SOL     OW19075   5.082   5.063   5.237
 6059SOL    HW119076   5.006   5.013   5.195
 6059SOL    HW219077   5.060   5.081   5.333
 6060SOL     OW19078   2.854   4.265   0.195
 6060SOL    HW119079   2.765   4.282   0.153
 6060SOL    HW219080   2.900   4.190   0.148
 6061SOL     OW19081   3.564   2.141   1.303
 6061SOL    HW119082   3.615   2.148   1.217
 6061SOL    HW219083   3.469   2.169   1.287
 6062SOL     OW19084   2.495   1.767   4.716
 6062SOL    HW119085   2.576   1.729   4.673
 6062SOL    HW219086   2.416   1.710   4.694
 6063SOL     OW19087   3.202   2.018   6.376
 6063SOL    HW119088   3.240   1.929   6.400
 6063SOL    HW219089   3.137   2.007   6.300
 6064SOL     OW19090   1.899   5.943   0.859
 6064SOL    HW119091   1.804   5.928   0.887
 6064SOL    HW219092   1.912   6.038   0.833
 6065SOL     OW19093   6.805   6.896   2.053
 6065SOL    HW119094   6.877   6.949   2.007
 6065SOL    HW219095   6.754   6.843   1.985
 6066SOL     OW19096   4.796   1.747   6.147
 6066SOL    HW119097   4.807   1.648   6.139
 6066SOL    HW219098   4.787   1.772   6.243
 6067SOL     OW19099   5.444   1.686   5.711
 6067SOL    HW119100   5.359   1.675   5.762
 6067SOL    HW219101   5.499   1.758   5.753
 6068SOL     OW19102   5.374   2.888   4.389
 6068SOL    HW119103   5.315   2.962   4.355
 6068SOL    HW219104   5.403   2.910   4.482
 6069SOL     OW19105   6.721   2.990   4.812
 6069SOL    HW119106   6.772   2.984   4.726
 6069SOL    HW219107   6.767   3.055   4.873
 6070SOL     OW19108   2.257   3.096   0.617
 6070SOL    HW119109   2.280   3.162   0.547
 6070SOL    HW219110   2.237   3.143   0.703
 6071SOL     OW19111   5.785   5.431   4.112
 6071SOL    HW119112   5.691   5.397   4.122
 6071SOL    HW219113   5.843   5.359   4.076
 6072SOL     OW19114   0.379   0.287   1.763
 6072SOL    HW119115   0.376   0.369   1.820
 6072SOL    HW219116   0.413   0.311   1.672
 6073SOL     OW19117   6.061   3.589   0.247
 6073SOL    HW119118   6.158   3.562   0.245
 6073SOL    HW219119   6.014   3.548   0.169
 6074SOL     OW19120   1.217   6.726   4.469
 6074SOL    HW119121   1.244   6.803   4.410
 6074SOL    HW219122   1.125   6.696   4.444
 6075SOL     OW19123   6.805   1.502   6.501
 6075SOL    HW119124   6.846   1.484   6.590
 6075SOL    HW219125   6.710   1.472   6.501
 6076SOL     OW19126   2.426   5.509   4.266
 6076SOL    HW119127   2.497   5.566   4.306
 6076SOL    HW219128   2.457   5.414   4.263
 6077SOL     OW19129   5.718   6.002   1.428
 6077SOL    HW119130   5.677   6.061   1.359
 6077SOL    HW219131   5.687   6.030   1.519
 6078SOL     OW19132   3.881   4.517   0.790
 6078SOL    HW119133   3.859   4.510   0.887
 6078SOL    HW219134   3.940   4.596   0.775
 6079SOL     OW19135   3.942   3.211   6.228
 6079SOL    HW119136   4.015   3.212   6.160
 6079SOL    HW219137   3.855   3.233   6.183
 6080SOL     OW19138   6.807   1.386   1.587
 6080SOL    HW119139   6.828   1.289   1.575
 6080SOL    HW219140   6.884   1.431   1.632
 6081SOL     OW19141   6.543   3.331   5.883
 6081SOL    HW119142   6.530   3.309   5.786
 6081SOL    HW219143   6.573   3.249   5.932
 6082SOL     OW19144   2.072   2.069   3.681
 6082SOL    HW119145   2.132   2.145   3.706
 6082SOL    HW219146   2.124   2.003   3.626
 6083SOL     OW19147   0.167   5.054   6.754
 6083SOL    HW119148   0.141   5.006   6.837
 6083SOL    HW219149   0.172   5.152   6.771
 6084SOL     OW19150   0.710   6.731   3.557
 6084SOL    HW119151   0.656   6.782   3.490
 6084SOL    HW219152   0.656   6.652   3.589
 6085SOL     OW19153   0.900   4.392   0.475
 6085SOL    HW119154   0.842   4.441   0.540
 6085SOL    HW219155   0.996   4.401   0.502
 6086SOL     OW19156   3.563   1.182   5.962
 6086SOL    HW119157   3.642   1.233   5.994
 6086SOL    HW219158   3.490   1.188   6.030
 6087SOL     OW19159   4.044   5.365   1.062
 6087SOL    HW119160   4.129   5.312   1.069
 6087SOL    HW219161   4.040   5.410   0.973
 6088SOL     OW19162   5.851   5.765   3.863
 6088SOL    HW119163   5.768   5.734   3.816
 6088SOL    HW219164   5.864   5.862   3.846
 6089SOL     OW19165   6.269   3.450   0.709
 6089SOL    HW119166   6.179   3.430   0.747
 6089SOL    HW219167   6.322   3.366   0.701
 6090SOL     OW19168   2.116   5.720   6.249
 6090SOL    HW119169   2.134   5.634   6.296
 6090SOL    HW219170   2.103   5.703   6.152
 6091SOL     OW19171   1.752   1.498   1.059
 6091SOL    HW119172   1.689   1.422   1.078
 6091SOL    HW219173   1.705   1.585   1.076
 6092SOL     OW19174   3.812   6.906   3.064
 6092SOL    HW119175   3.890   6.936   3.010
 6092SOL    HW219176   3.740   6.873   3.002
 6093SOL     OW19177   1.985   3.431   2.808
 6093SOL    HW119178   1.999   3.332   2.804
 6093SOL    HW219179   1.889   3.451   2.788
 6094SOL     OW19180   3.832   0.557   2.006
 6094SOL    HW119181   3.754   0.538   2.065
 6094SOL    HW219182   3.917   0.538   2.056
 6095SOL     OW19183   4.601   3.426   0.403
 6095SOL    HW119184   4.594   3.411   0.501
 6095SOL    HW219185   4.692   3.399   0.371
 6096SOL     OW19186   0.014   0.358   3.501
 6096SOL    HW119187   6.971   0.421   3.454
 6096SOL    HW219188   6.991   0.267   3.505
 6097SOL     OW19189   2.473   6.882   1.965
 6097SOL    HW119190   2.458   6.964   2.021
 6097SOL    HW219191   2.498   6.910   1.872
 6098SOL     OW19192   1.744   2.631   5.857
 6098SOL    HW119193   1.810   2.633   5.782
 6098SOL    HW219194   1.655   2.662   5.824
 6099SOL     OW19195   6.626   6.114   0.828
 6099SOL    HW119196   6.698   6.176   0.797
 6099SOL    HW219197   6.558   6.102   0.756
 6100SOL     OW19198   3.969   3.904   6.795
 6100SOL    HW119199   3.886   3.942   6.755
 6100SOL    HW219200   4.038   3.892   6.724
 6101SOL     OW19201   6.360   2.463   4.604
 6101SOL    HW119202   6.419   2.476   4.683
 6101SOL    HW219203   6.318   2.372   4.609
 6102SOL     OW19204   3.265   6.452   3.219
 6102SOL    HW119205   3.335   6.386   3.246
 6102SOL    HW219206   3.295   6.501   3.137
 6103SOL     OW19207   6.614   2.880   2.355
 6103SOL    HW119208   6.706   2.884   2.316
 6103SOL    HW219209   6.620   2.890   2.455
 6104SOL     OW19210   5.636   1.277   5.599
 6104SOL    HW119211   5.674   1.256   5.509
 6104SOL    HW219212   5.567   1.349   5.590
 6105SOL     OW19213   2.584   6.981   5.775
 6105SOL    HW119214   2.612   6.966   5.681
 6105SOL    HW219215   2.539   6.899   5.810
 6106SOL     OW19216   2.678   4.336   5.862
 6106SOL    HW119217   2.645   4.244   5.842
 6106SOL    HW219218   2.684   4.388   5.777
 6107SOL     OW19219   2.637   4.638   4.644
 6107SOL    HW119220   2.682   4.563   4.595
 6107SOL    HW219221   2.549   4.607   4.678
 6108SOL     OW19222   0.504   2.172   2.116
 6108SOL    HW119223   0.517   2.076   2.142
 6108SOL    HW219224   0.408   2.187   2.094
 6109SOL     OW19225   5.328   2.562   5.609
 6109SOL    HW119226   5.378   2.582   5.524
 6109SOL    HW219227   5.229   2.565   5.591
 6110SOL     OW19228   4.416   3.596   0.342
 6110SOL    HW119229   4.482   3.521   0.338
 6110SOL    HW219230   4.395   3.627   0.250
 6111SOL     OW19231   2.210   4.348   2.307
 6111SOL    HW119232   2.224   4.264   2.359
 6111SOL    HW219233   2.145   4.331   2.233
 6112SOL     OW19234   4.053   0.246   2.676
 6112SOL    HW119235   4.117   0.195   2.734
 6112SOL    HW219236   4.063   0.344   2.693
 6113SOL     OW19237   1.790   0.850   6.489
 6113SOL    HW119238   1.869   0.819   6.542
 6113SOL    HW219239   1.787   0.950   6.490
 6114SOL     OW19240   4.782   5.525   1.245
 6114SOL    HW119241   4.821   5.605   1.199
 6114SOL    HW219242   4.749   5.460   1.177
 6115SOL     OW19243   5.013   0.120   3.889
 6115SOL    HW119244   4.997   0.049   3.958
 6115SOL    HW219245   5.108   0.152   3.896
 6116SOL     OW19246   3.092   0.142   6.670
 6116SOL    HW119247   3.116   0.154   6.574
 6116SOL    HW219248   3.033   0.061   6.681
 6117SOL     OW19249   0.811   0.958   5.116
 6117SOL    HW119250   0.735   0.950   5.052
 6117SOL    HW219251   0.810   0.881   5.179
 6118SOL     OW19252   6.655   0.610   2.378
 6118SOL    HW119253   6.556   0.593   2.375
 6118SOL    HW219254   6.704   0.526   2.359
 6119SOL     OW19255   1.755   3.477   5.736
 6119SOL    HW119256   1.750   3.411   5.812
 6119SOL    HW219257   1.790   3.564   5.771
 6120SOL     OW19258   3.617   6.754   4.835
 6120SOL    HW119259   3.593   6.773   4.930
 6120SOL    HW219260   3.647   6.658   4.827
 6121SOL     OW19261   1.039   2.583   5.624
 6121SOL    HW119262   1.136   2.562   5.636
 6121SOL    HW219263   0.996   2.509   5.571
 6122SOL     OW19264   4.125   6.443   0.682
 6122SOL    HW119265   4.188   6.451   0.605
 6122SOL    HW219266   4.154   6.367   0.742
 6123SOL     OW19267   6.308   0.364   6.622
 6123SOL    HW119268   6.321   0.460   6.600
 6123SOL    HW219269   6.241   0.356   6.696
 6124SOL     OW19270   2.145   1.101   5.858
 6124SOL    HW119271   2.243   1.083   5.867
 6124SOL    HW219272   2.113   1.150   5.940
 6125SOL     OW19273   1.203   6.078   0.187
 6125SOL    HW119274   1.196   6.067   0.286
 6125SOL    HW219275   1.300   6.074   0.160
 6126SOL     OW19276   0.690   0.816   3.630
 6126SOL    HW119277   0.626   0.887   3.601
 6126SOL    HW219278   0.673   0.733   3.578
 6127SOL     OW19279   3.749   0.285   1.784
 6127SOL    HW119280   3.821   0.354   1.786
 6127SOL    HW219281   3.722   0.267   1.689
 6128SOL     OW19282   6.547   3.267   6.798
 6128SOL    HW119283   6.641   3.235   6.782
 6128SOL    HW219284   6.505   3.211   6.870
 6129SOL     OW19285   6.037   3.876   3.577
 6129SOL    HW119286   6.068   3.959   3.530
 6129SOL    HW219287   6.117   3.823   3.606
 6130SOL     OW19288   5.936   1.984   3.951
 6130SOL    HW119289   6.028   2.011   3.922
 6130SOL    HW219290   5.882   1.955   3.872
 6131SOL     OW19291   6.655   0.921   5.305
 6131SOL    HW119292   6.641   0.973   5.389
 6131SOL    HW219293   6.753   0.903   5.293
 6132SOL     OW19294   4.505   1.776   0.578
 6132SOL    HW119295   4.549   1.788   0.488
 6132SOL    HW219296   4.542   1.843   0.642
 6133SOL     OW19297   1.221   2.389   2.476
 6133SOL    HW119298   1.161   2.343   2.542
 6133SOL    HW219299   1.232   2.332   2.395
 6134SOL     OW19300   3.667   4.470   6.438
 6134SOL    HW119301   3.644   4.399   6.371
 6134SOL    HW219302   3.643   4.560   6.402
 6135SOL     OW19303   0.772   0.520   2.172
 6135SOL    HW119304   0.848   0.551   2.229
 6135SOL    HW219305   0.792   0.540   2.076
 6136SOL     OW19306   0.912   2.597   2.681
 6136SOL    HW119307   0.939   2.609   2.585
 6136SOL    HW219308   0.949   2.510   2.715
 6137SOL     OW19309   6.313   2.473   3.826
 6137SOL    HW119310   6.376   2.530   3.772
 6137SOL    HW219311   6.252   2.531   3.879
 6138SOL     OW19312   4.937   6.538   2.997
 6138SOL    HW119313   4.862   6.538   2.931
 6138SOL    HW219314   4.902   6.510   3.086
 6139SOL     OW19315   1.333   1.556   5.851
 6139SOL    HW119316   1.267   1.585   5.920
 6139SOL    HW219317   1.392   1.633   5.827
 6140SOL     OW19318   0.281   6.665   1.654
 6140SOL    HW119319   0.339   6.661   1.573
 6140SOL    HW219320   0.337   6.650   1.736
 6141SOL     OW19321   6.324   5.656   6.052
 6141SOL    HW119322   6.363   5.581   6.105
 6141SOL    HW219323   6.241   5.689   6.097
 6142SOL     OW19324   1.070   5.876   0.935
 6142SOL    HW119325   1.093   5.787   0.895
 6142SOL    HW219326   1.105   5.880   1.029
 6143SOL     OW19327   6.802   4.037   0.932
 6143SOL    HW119328   6.724   3.997   0.981
 6143SOL    HW219329   6.805   4.003   0.839
 6144SOL     OW19330   6.044   4.239   3.274
 6144SOL    HW119331   5.959   4.292   3.277
 6144SOL    HW219332   6.025   4.146   3.245
 6145SOL     OW19333   4.827   5.486   3.414
 6145SOL    HW119334   4.848   5.400   3.461
 6145SOL    HW219335   4.843   5.563   3.476
 6146SOL     OW19336   2.686   6.362   3.832
 6146SOL    HW119337   2.756   6.319   3.776
 6146SOL    HW219338   2.633   6.292   3.880
 6147SOL     OW19339   1.569   3.258   4.243
 6147SOL    HW119340   1.564   3.221   4.336
 6147SOL    HW219341   1.665   3.272   4.218
 6148SOL     OW19342   6.876   0.090   4.222
 6148SOL    HW119343   6.954   0.034   4.248
 6148SOL    HW219344   6.889   0.126   4.129
 6149SOL     OW19345   3.168   5.558   1.434
 6149SOL    HW119346   3.157   5.585   1.530
 6149SOL    HW219347   3.199   5.463   1.430
 6150SOL     OW19348   4.660   4.804   6.918
 6150SOL    HW119349   4.660   4.743   6.839
 6150SOL    HW219350   4.617   4.891   6.894
 6151SOL     OW19351   5.769   4.693   5.598
 6151SOL    HW119352   5.786   4.743   5.683
 6151SOL    HW219353   5.689   4.732   5.552
 6152SOL     OW19354   6.821   5.585   5.000
 6152SOL    HW119355   6.861   5.493   4.994
 6152SOL    HW219356   6.735   5.587   4.948
 6153SOL     OW19357   5.695   3.768   1.342
 6153SOL    HW119358   5.605   3.752   1.381
 6153SOL    HW219359   5.749   3.826   1.403
 6154SOL     OW19360   6.150   2.063   2.364
 6154SOL    HW119361   6.085   2.014   2.421
 6154SOL    HW219362   6.217   1.998   2.326
 6155SOL     OW19363   2.186   2.023   4.584
 6155SOL    HW119364   2.281   2.016   4.553
 6155SOL    HW219365   2.170   2.113   4.623
 6156SOL     OW19366   3.968   4.628   1.708
 6156SOL    HW119367   3.932   4.711   1.664
 6156SOL    HW219368   4.009   4.653   1.796
 6157SOL     OW19369   1.428   0.989   4.209
 6157SOL    HW119370   1.333   0.964   4.193
 6157SOL    HW219371   1.477   0.993   4.122
 6158SOL     OW19372   4.231   1.282   6.123
 6158SOL    HW119373   4.317   1.311   6.081
 6158SOL    HW219374   4.249   1.206   6.186
 6159SOL     OW19375   4.906   2.514   1.435
 6159SOL    HW119376   4.910   2.518   1.535
 6159SOL    HW219377   4.997   2.533   1.397
 6160SOL     OW19378   5.054   0.751   6.496
 6160SOL    HW119379   5.020   0.691   6.424
 6160SOL    HW219380   5.051   0.703   6.583
 6161SOL     OW19381   4.792   1.374   4.832
 6161SOL    HW119382   4.842   1.428   4.900
 6161SOL    HW219383   4.715   1.328   4.875
 6162SOL     OW19384   1.507   6.730   3.280
 6162SOL    HW119385   1.519   6.631   3.294
 6162SOL    HW219386   1.462   6.770   3.359
 6163SOL     OW19387   6.403   6.383   0.987
 6163SOL    HW119388   6.413   6.471   1.032
 6163SOL    HW219389   6.472   6.320   1.022
 6164SOL     OW19390   3.347   2.656   1.713
 6164SOL    HW119391   3.262   2.606   1.727
 6164SOL    HW219392   3.347   2.738   1.770
 6165SOL     OW19393   4.450   0.477   6.326
 6165SOL    HW119394   4.385   0.475   6.250
 6165SOL    HW219395   4.538   0.511   6.293
 6166SOL     OW19396   4.226   0.770   6.491
 6166SOL    HW119397   4.194   0.716   6.413
 6166SOL    HW219398   4.220   0.867   6.469
 6167SOL     OW19399   0.964   4.681   3.683
 6167SOL    HW119400   0.995   4.776   3.675
 6167SOL    HW219401   0.981   4.634   3.596
 6168SOL     OW19402   0.542   3.666   1.151
 6168SOL    HW119403   0.503   3.740   1.206
 6168SOL    HW219404   0.569   3.702   1.062
 6169SOL     OW19405   1.505   2.577   1.027
 6169SOL    HW119406   1.513   2.637   1.107
 6169SOL    HW219407   1.561   2.612   0.953
 6170SOL     OW19408   1.196   3.968   5.397
 6170SOL    HW119409   1.100   3.946   5.414
 6170SOL    HW219410   1.203   4.061   5.360
 6171SOL     OW19411   0.809   3.216   0.899
 6171SOL    HW119412   0.849   3.128   0.873
 6171SOL    HW219413   0.759   3.206   0.985
 6172SOL     OW19414   2.199   2.847   2.177
 6172SOL    HW119415   2.181   2.915   2.106
 6172SOL    HW219416   2.267   2.781   2.144
 6173SOL     OW19417   6.863   5.573   1.944
 6173SOL    HW119418   6.789   5.591   2.009
 6173SOL    HW219419   6.834   5.598   1.852
 6174SOL     OW19420   4.489   5.749   3.608
 6174SOL    HW119421   4.455   5.747   3.514
 6174SOL    HW219422   4.538   5.834   3.625
 6175SOL     OW19423   4.429   0.109   3.509
 6175SOL    HW119424   4.435   0.130   3.606
 6175SOL    HW219425   4.333   0.093   3.484
 6176SOL     OW19426   4.903   4.665   5.261
 6176SOL    HW119427   4.845   4.747   5.260
 6176SOL    HW219428   4.896   4.618   5.173
 6177SOL     OW19429   5.635   1.381   1.276
 6177SOL    HW119430   5.685   1.424   1.351
 6177SOL    HW219431   5.578   1.307   1.311
 6178SOL     OW19432   5.015   4.177   2.296
 6178SOL    HW119433   4.989   4.100   2.356
 6178SOL    HW219434   4.970   4.260   2.328
 6179SOL     OW19435   6.533   4.631   4.126
 6179SOL    HW119436   6.503   4.633   4.031
 6179SOL    HW219437   6.589   4.711   4.146
 6180SOL     OW19438   2.770   4.109   0.444
 6180SOL    HW119439   2.758   4.159   0.358
 6180SOL    HW219440   2.683   4.068   0.471
 6181SOL     OW19441   4.873   6.602   6.085
 6181SOL    HW119442   4.854   6.674   6.152
 6181SOL    HW219443   4.906   6.644   6.000
 6182SOL     OW19444   4.939   3.150   4.926
 6182SOL    HW119445   4.995   3.093   4.986
 6182SOL    HW219446   4.926   3.240   4.968
 6183SOL     OW19447   1.451   2.319   3.478
 6183SOL    HW119448   1.390   2.330   3.556
 6183SOL    HW219449   1.542   2.295   3.510
 6184SOL     OW19450   2.734   6.259   6.889
 6184SOL    HW119451   2.753   6.252   6.791
 6184SOL    HW219452   2.696   6.350   6.909
 6185SOL     OW19453   0.404   3.804   6.567
 6185SOL    HW119454   0.314   3.847   6.561
 6185SOL    HW219455   0.463   3.840   6.495
 6186SOL     OW19456   0.057   0.878   0.387
 6186SOL    HW119457   0.133   0.942   0.392
 6186SOL    HW219458   0.060   0.829   0.300
 6187SOL     OW19459   5.210   4.512   3.860
 6187SOL    HW119460   5.304   4.486   3.838
 6187SOL    HW219461   5.210   4.604   3.900
 6188SOL     OW19462   1.892   1.678   6.866
 6188SOL    HW119463   1.945   1.762   6.865
 6188SOL    HW219464   1.797   1.697   6.840
 6189SOL     OW19465   4.716   4.606   2.617
 6189SOL    HW119466   4.620   4.634   2.621
 6189SOL    HW219467   4.730   4.543   2.541
 6190SOL     OW19468   0.611   4.032   5.367
 6190SOL    HW119469   0.630   3.978   5.285
 6190SOL    HW219470   0.698   4.058   5.411
 6191SOL     OW19471   2.896   2.551   6.625
 6191SOL    HW119472   2.860   2.634   6.670
 6191SOL    HW219473   2.903   2.478   6.693
 6192SOL     OW19474   2.908   2.161   5.726
 6192SOL    HW119475   2.893   2.217   5.807
 6192SOL    HW219476   2.885   2.066   5.747
 6193SOL     OW19477   4.590   6.266   1.563
 6193SOL    HW119478   4.566   6.228   1.473
 6193SOL    HW219479   4.628   6.193   1.620
 6194SOL     OW19480   0.318   0.738   7.002
 6194SOL    HW119481   0.387   0.739   0.056
 6194SOL    HW219482   0.354   0.691   6.922
 6195SOL     OW19483   4.217   6.100   4.501
 6195SOL    HW119484   4.269   6.039   4.442
 6195SOL    HW219485   4.239   6.195   4.479
 6196SOL     OW19486   5.691   3.694   1.958
 6196SOL    HW119487   5.751   3.705   1.879
 6196SOL    HW219488   5.686   3.781   2.008
 6197SOL     OW19489   3.696   5.110   0.936
 6197SOL    HW119490   3.732   5.059   0.858
 6197SOL    HW219491   3.765   5.115   1.007
 6198SOL     OW19492   4.091   6.776   1.400
 6198SOL    HW119493   4.070   6.757   1.496
 6198SOL    HW219494   4.188   6.799   1.391
 6199SOL     OW19495   0.819   1.096   0.485
 6199SOL    HW119496   0.779   1.009   0.516
 6199SOL    HW219497   0.917   1.083   0.467
 6200SOL     OW19498   1.127   1.390   5.492
 6200SOL    HW119499   1.083   1.476   5.518
 6200SOL    HW219500   1.226   1.399   5.502
 6201SOL     OW19501   0.705   3.927   6.040
 6201SOL    HW119502   0.621   3.948   5.989
 6201SOL    HW219503   0.767   3.874   5.982
 6202SOL     OW19504   4.977   1.411   1.368
 6202SOL    HW119505   4.884   1.377   1.383
 6202SOL    HW219506   4.973   1.498   1.318
 6203SOL     OW19507   6.278   5.567   2.414
 6203SOL    HW119508   6.353   5.579   2.479
 6203SOL    HW219509   6.246   5.472   2.417
 6204SOL     OW19510   0.224   5.690   4.478
 6204SOL    HW119511   0.314   5.646   4.481
 6204SOL    HW219512   0.156   5.627   4.515
 6205SOL     OW19513   6.768   5.619   1.706
 6205SOL    HW119514   6.683   5.605   1.655
 6205SOL    HW219515   6.819   5.695   1.665
 6206SOL     OW19516   6.058   1.906   2.735
 6206SOL    HW119517   5.993   1.873   2.666
 6206SOL    HW219518   6.138   1.944   2.689
 6207SOL     OW19519   1.534   5.631   5.553
 6207SOL    HW119520   1.514   5.679   5.467
 6207SOL    HW219521   1.586   5.692   5.613
 6208SOL     OW19522   4.252   2.811   5.660
 6208SOL    HW119523   4.254   2.784   5.563
 6208SOL    HW219524   4.179   2.878   5.674
 6209SOL     OW19525   3.152   5.927   0.180
 6209SOL    HW119526   3.054   5.933   0.161
 6209SOL    HW219527   3.185   6.015   0.215
 6210SOL     OW19528   4.866   3.389   3.742
 6210SOL    HW119529   4.841   3.409   3.837
 6210SOL    HW219530   4.877   3.290   3.732
 6211SOL     OW19531   2.884   6.162   6.086
 6211SOL    HW119532   2.867   6.072   6.045
 6211SOL    HW219533   2.796   6.210   6.096
 6212SOL     OW19534   2.802   4.714   4.841
 6212SOL    HW119535   2.817   4.659   4.923
 6212SOL    HW219536   2.733   4.669   4.784
 6213SOL     OW19537   5.717   0.522   0.170
 6213SOL    HW119538   5.762   0.589   0.229
 6213SOL    HW219539   5.698   0.439   0.223
 6214SOL     OW19540   5.448   5.526   4.838
 6214SOL    HW119541   5.432   5.608   4.893
 6214SOL    HW219542   5.407   5.537   4.748
 6215SOL     OW19543   3.489   1.989   6.709
 6215SOL    HW119544   3.392   1.978   6.733
 6215SOL    HW219545   3.500   2.072   6.656
 6216SOL     OW19546   6.214   2.187   2.893
 6216SOL    HW119547   6.275   2.248   2.843
 6216SOL    HW219548   6.120   2.201   2.863
 6217SOL     OW19549   0.910   3.191   1.907
 6217SOL    HW119550   0.988   3.207   1.847
 6217SOL    HW219551   0.934   3.122   1.975
 6218SOL     OW19552   3.709   6.449   6.514
 6218SOL    HW119553   3.647   6.452   6.593
 6218SOL    HW219554   3.728   6.355   6.489
 6219SOL     OW19555   0.923   1.815   4.950
 6219SOL    HW119556   0.979   1.743   4.991
 6219SOL    HW219557   0.917   1.892   5.013
 6220SOL     OW19558   2.400   1.450   5.276
 6220SOL    HW119559   2.309   1.414   5.255
 6220SOL    HW219560   2.411   1.541   5.236
 6221SOL     OW19561   5.593   6.630   0.226
 6221SOL    HW119562   5.612   6.653   0.131
 6221SOL    HW219563   5.514   6.682   0.259
 6222SOL     OW19564   1.274   6.743   1.564
 6222SOL    HW119565   1.244   6.650   1.540
 6222SOL    HW219566   1.253   6.805   1.489
 6223SOL     OW19567   1.641   5.435   3.274
 6223SOL    HW119568   1.609   5.519   3.231
 6223SOL    HW219569   1.563   5.373   3.289
 6224SOL     OW19570   3.803   1.379   5.994
 6224SOL    HW119571   3.820   1.423   6.082
 6224SOL    HW219572   3.851   1.429   5.922
 6225SOL     OW19573   3.871   2.784   6.352
 6225SOL    HW119574   3.785   2.821   6.316
 6225SOL    HW219575   3.858   2.689   6.379
 6226SOL     OW19576   0.948   1.197   4.735
 6226SOL    HW119577   1.006   1.137   4.679
 6226SOL    HW219578   1.003   1.271   4.772
 6227SOL     OW19579   3.339   5.020   5.355
 6227SOL    HW119580   3.391   4.974   5.283
 6227SOL    HW219581   3.280   4.953   5.400
 6228SOL     OW19582   0.443   2.913   2.460
 6228SOL    HW119583   0.540   2.888   2.456
 6228SOL    HW219584   0.390   2.836   2.494
 6229SOL     OW19585   0.145   2.224   5.226
 6229SOL    HW119586   0.142   2.323   5.239
 6229SOL    HW219587   0.052   2.188   5.225
 6230SOL     OW19588   0.765   1.929   4.345
 6230SOL    HW119589   0.862   1.937   4.323
 6230SOL    HW219590   0.715   1.900   4.263
 6231SOL     OW19591   6.316   5.724   0.439
 6231SOL    HW119592   6.353   5.639   0.402
 6231SOL    HW219593   6.298   5.713   0.537
 6232SOL     OW19594   6.620   1.201   1.056
 6232SOL    HW119595   6.558   1.215   1.133
 6232SOL    HW219596   6.694   1.139   1.083
 6233SOL     OW19597   6.641   3.163   1.439
 6233SOL    HW119598   6.637   3.064   1.452
 6233SOL    HW219599   6.699   3.203   1.510
 6234SOL     OW19600   0.225   6.978   5.309
 6234SOL    HW119601   0.313   6.988   5.356
 6234SOL    HW219602   0.221   0.020   5.230
 6235SOL     OW19603   6.800   0.357   1.560
 6235SOL    HW119604   6.720   0.363   1.500
 6235SOL    HW219605   6.882   0.384   1.509
 6236SOL     OW19606   0.552   4.409   0.647
 6236SOL    HW119607   0.511   4.344   0.711
 6236SOL    HW219608   0.646   4.426   0.674
 6237SOL     OW19609   3.732   0.002   6.404
 6237SOL    HW119610   3.684   0.003   6.316
 6237SOL    HW219611   3.718   6.933   6.448
 6238SOL     OW19612   5.177   5.813   2.832
 6238SOL    HW119613   5.162   5.896   2.884
 6238SOL    HW219614   5.100   5.750   2.845
 6239SOL     OW19615   4.094   1.852   1.494
 6239SOL    HW119616   4.076   1.759   1.464
 6239SOL    HW219617   4.011   1.907   1.483
 6240SOL     OW19618   2.781   3.657   5.349
 6240SOL    HW119619   2.835   3.589   5.399
 6240SOL    HW219620   2.842   3.719   5.299
 6241SOL     OW19621   3.826   0.728   2.242
 6241SOL    HW119622   3.882   0.659   2.197
 6241SOL    HW219623   3.881   0.777   2.310
 6242SOL     OW19624   4.274   0.052   2.935
 6242SOL    HW119625   4.324   0.069   2.851
 6242SOL    HW219626   4.320   7.000   2.988
 6243SOL     OW19627   0.374   6.459   5.373
 6243SOL    HW119628   0.311   6.532   5.344
 6243SOL    HW219629   0.467   6.497   5.381
 6244SOL     OW19630   5.446   3.145   3.524
 6244SOL    HW119631   5.529   3.156   3.578
 6244SOL    HW219632   5.470   3.111   3.433
 6245SOL     OW19633   1.299   3.473   1.381
 6245SOL    HW119634   1.369   3.541   1.359
 6245SOL    HW219635   1.227   3.475   1.312
 6246SOL     OW19636   0.896   1.839   5.372
 6246SOL    HW119637   0.824   1.771   5.372
 6246SOL    HW219638   0.914   1.870   5.278
 6247SOL     OW19639   1.155   5.769   3.862
 6247SOL    HW119640   1.077   5.772   3.924
 6247SOL    HW219641   1.129   5.719   3.779
 6248SOL     OW19642   3.800   3.679   0.238
 6248SOL    HW119643   3.803   3.777   0.257
 6248SOL    HW219644   3.857   3.658   0.158
 6249SOL     OW19645   6.857   3.366   0.642
 6249SOL    HW119646   6.888   3.413   0.560
 6249SOL    HW219647   6.761   3.389   0.660
 6250SOL     OW19648   6.566   6.472   1.424
 6250SOL    HW119649   6.637   6.543   1.425
 6250SOL    HW219650   6.479   6.514   1.399
 6251SOL     OW19651   4.181   5.711   5.320
 6251SOL    HW119652   4.164   5.681   5.414
 6251SOL    HW219653   4.226   5.801   5.322
 6252SOL     OW19654   2.895   5.502   6.682
 6252SOL    HW119655   2.929   5.592   6.712
 6252SOL    HW219656   2.906   5.494   6.583
 6253SOL     OW19657   2.907   5.174   4.287
 6253SOL    HW119658   3.002   5.153   4.310
 6253SOL    HW219659   2.882   5.127   4.203
 6254SOL     OW19660   6.412   1.022   1.352
 6254SOL    HW119661   6.420   1.102   1.293
 6254SOL    HW219662   6.350   1.043   1.428
 6255SOL     OW19663   2.319   1.216   0.894
 6255SOL    HW119664   2.352   1.176   0.808
 6255SOL    HW219665   2.355   1.162   0.970
 6256SOL     OW19666   3.814   5.164   2.199
 6256SOL    HW119667   3.734   5.175   2.257
 6256SOL    HW219668   3.832   5.066   2.185
 6257SOL     OW19669   4.502   3.018   0.116
 6257SOL    HW119670   4.419   3.053   0.160
 6257SOL    HW219671   4.539   2.942   0.170
 6258SOL     OW19672   3.008   6.987   3.891
 6258SOL    HW119673   3.040   0.044   3.835
 6258SOL    HW219674   2.952   6.925   3.834
 6259SOL     OW19675   2.134   0.908   6.510
 6259SOL    HW119676   2.116   0.847   6.432
 6259SOL    HW219677   2.072   0.886   6.585
 6260SOL     OW19678   3.576   6.403   0.028
 6260SOL    HW119679   3.514   6.354   0.089
 6260SOL    HW219680   3.668   6.405   0.068
 6261SOL     OW19681   5.603   0.634   6.667
 6261SOL    HW119682   5.567   0.727   6.678
 6261SOL    HW219683   5.650   0.606   6.750
 6262SOL     OW19684   2.178   6.186   1.587
 6262SOL    HW119685   2.179   6.092   1.553
 6262SOL    HW219686   2.271   6.217   1.605
 6263SOL     OW19687   0.992   6.816   4.693
 6263SOL    HW119688   1.028   6.727   4.723
 6263SOL    HW219689   0.974   6.873   4.773
 6264SOL     OW19690   1.977   0.420   1.782
 6264SOL    HW119691   2.073   0.406   1.807
 6264SOL    HW219692   1.923   0.430   1.866
 6265SOL     OW19693   4.135   3.301   0.147
 6265SOL    HW119694   4.120   3.396   0.174
 6265SOL    HW219695   4.165   3.297   0.052
 6266SOL     OW19696   4.897   0.181   3.633
 6266SOL    HW119697   4.938   0.177   3.724
 6266SOL    HW219698   4.835   0.104   3.620
 6267SOL     OW19699   2.581   6.879   5.051
 6267SOL    HW119700   2.512   6.922   4.993
 6267SOL    HW219701   2.600   6.938   5.129
 6268SOL     OW19702   3.194   0.806   2.223
 6268SOL    HW119703   3.228   0.800   2.317
 6268SOL    HW219704   3.132   0.884   2.215
 6269SOL     OW19705   6.758   0.214   2.538
 6269SOL    HW119706   6.836   0.254   2.490
 6269SOL    HW219707   6.780   0.120   2.565
 6270SOL     OW19708   0.242   0.142   5.992
 6270SOL    HW119709   0.197   0.178   5.910
 6270SOL    HW219710   0.253   0.216   6.058
 6271SOL     OW19711   5.801   2.317   5.911
 6271SOL    HW119712   5.701   2.313   5.916
 6271SOL    HW219713   5.828   2.370   5.830
 6272SOL     OW19714   0.562   2.398   0.640
 6272SOL    HW119715   0.467   2.424   0.624
 6272SOL    HW219716   0.610   2.391   0.553
 6273SOL     OW19717   0.545   6.311   2.738
 6273SOL    HW119718   0.466   6.352   2.783
 6273SOL    HW219719   0.517   6.270   2.651
 6274SOL     OW19720   3.558   6.877   4.295
 6274SOL    HW119721   3.498   6.844   4.368
 6274SOL    HW219722   3.633   6.812   4.281
 6275SOL     OW19723   2.367   6.280   6.999
 6275SOL    HW119724   2.273   6.250   6.983
 6275SOL    HW219725   2.427   6.200   7.004
 6276SOL     OW19726   1.888   5.613   3.133
 6276SOL    HW119727   1.880   5.697   3.187
 6276SOL    HW219728   1.798   5.589   3.096
 6277SOL     OW19729   4.408   3.088   1.144
 6277SOL    HW119730   4.484   3.153   1.141
 6277SOL    HW219731   4.326   3.130   1.106
 6278SOL     OW19732   4.359   6.958   4.986
 6278SOL    HW119733   4.378   6.921   4.895
 6278SOL    HW219734   4.311   6.890   5.041
 6279SOL     OW19735   3.216   6.124   0.393
 6279SOL    HW119736   3.276   6.154   0.468
 6279SOL    HW219737   3.189   6.029   0.409
 6280SOL     OW19738   0.449   0.779   6.403
 6280SOL    HW119739   0.435   0.760   6.501
 6280SOL    HW219740   0.546   0.779   6.383
 6281SOL     OW19741   6.888   4.860   4.348
 6281SOL    HW119742   6.980   4.823   4.343
 6281SOL    HW219743   6.891   4.955   4.378
 6282SOL     OW19744   6.528   4.962   5.829
 6282SOL    HW119745   6.480   4.963   5.742
 6282SOL    HW219746   6.485   4.896   5.891
 6283SOL     OW19747   0.044   3.964   4.215
 6283SOL    HW119748   6.993   3.951   4.285
 6283SOL    HW219749   0.131   3.929   4.249
 6284SOL     OW19750   2.220   4.895   5.166
 6284SOL    HW119751   2.220   4.978   5.109
 6284SOL    HW219752   2.166   4.824   5.121
 6285SOL     OW19753   0.999   3.355   3.459
 6285SOL    HW119754   1.042   3.311   3.380
 6285SOL    HW219755   0.911   3.394   3.432
 6286SOL     OW19756   6.952   2.013   4.127
 6286SOL    HW119757   6.964   1.938   4.192
 6286SOL    HW219758   6.994   1.989   4.039
 6287SOL     OW19759   3.185   4.933   4.980
 6287SOL    HW119760   3.112   4.895   5.036
 6287SOL    HW219761   3.150   5.010   4.926
 6288SOL     OW19762   5.330   4.643   2.128
 6288SOL    HW119763   5.311   4.641   2.226
 6288SOL    HW219764   5.390   4.567   2.104
 6289SOL     OW19765   1.742   5.207   6.843
 6289SOL    HW119766   1.727   5.112   6.868
 6289SOL    HW219767   1.833   5.236   6.871
 6290SOL     OW19768   5.892   4.940   6.239
 6290SOL    HW119769   5.807   4.972   6.280
 6290SOL    HW219770   5.879   4.846   6.206
 6291SOL     OW19771   3.985   3.871   3.608
 6291SOL    HW119772   3.997   3.953   3.665
 6291SOL    HW219773   3.993   3.790   3.665
 6292SOL     OW19774   2.273   2.447   5.395
 6292SOL    HW119775   2.359   2.468   5.441
 6292SOL    HW219776   2.216   2.528   5.392
 6293SOL     OW19777   4.299   1.995   0.836
 6293SOL    HW119778   4.252   2.083   0.831
 6293SOL    HW219779   4.388   2.002   0.790
 6294SOL     OW19780   4.199   0.442   3.353
 6294SOL    HW119781   4.283   0.495   3.341
 6294SOL    HW219782   4.173   0.442   3.449
 6295SOL     OW19783   5.455   4.709   4.488
 6295SOL    HW119784   5.370   4.751   4.456
 6295SOL    HW219785   5.464   4.724   4.587
 6296SOL     OW19786   6.827   4.700   6.052
 6296SOL    HW119787   6.786   4.783   6.014
 6296SOL    HW219788   6.759   4.651   6.106
 6297SOL     OW19789   5.771   0.600   5.384
 6297SOL    HW119790   5.685   0.651   5.385
 6297SOL    HW219791   5.758   0.510   5.425
 6298SOL     OW19792   1.208   3.311   6.500
 6298SOL    HW119793   1.251   3.357   6.422
 6298SOL    HW219794   1.254   3.223   6.517
 6299SOL     OW19795   5.931   2.708   2.011
 6299SOL    HW119796   5.913   2.696   2.108
 6299SOL    HW219797   5.881   2.639   1.959
 6300SOL     OW19798   6.156   0.996   0.032
 6300SOL    HW119799   6.227   0.958   0.091
 6300SOL    HW219800   6.085   1.039   0.088
 6301SOL     OW19801   3.023   6.611   6.943
 6301SOL    HW119802   3.054   6.523   6.980
 6301SOL    HW219803   2.939   6.639   6.990
 6302SOL     OW19804   1.902   2.369   5.078
 6302SOL    HW119805   1.855   2.286   5.048
 6302SOL    HW219806   1.915   2.366   5.177
 6303SOL     OW19807   0.427   0.673   5.565
 6303SOL    HW119808   0.516   0.629   5.578
 6303SOL    HW219809   0.358   0.604   5.543
 6304SOL     OW19810   3.914   0.840   1.948
 6304SOL    HW119811   3.882   0.751   1.979
 6304SOL    HW219812   3.840   0.887   1.899
 6305SOL     OW19813   5.837   6.484   0.705
 6305SOL    HW119814   5.834   6.549   0.630
 6305SOL    HW219815   5.920   6.429   0.699
 6306SOL     OW19816   6.885   3.884   4.388
 6306SOL    HW119817   6.794   3.867   4.351
 6306SOL    HW219818   6.941   3.801   4.382
 6307SOL     OW19819   3.587   3.575   3.668
 6307SOL    HW119820   3.587   3.527   3.580
 6307SOL    HW219821   3.536   3.522   3.735
 6308SOL     OW19822   1.825   2.424   4.405
 6308SOL    HW119823   1.831   2.467   4.495
 6308SOL    HW219824   1.842   2.326   4.414
 6309SOL     OW19825   0.005   6.556   4.466
 6309SOL    HW119826   6.996   6.561   4.370
 6309SOL    HW219827   0.018   6.649   4.502
 6310SOL     OW19828   1.391   6.534   2.724
 6310SOL    HW119829   1.489   6.535   2.703
 6310SOL    HW219830   1.371   6.602   2.795
 6311SOL     OW19831   4.553   1.771   5.601
 6311SOL    HW119832   4.645   1.794   5.567
 6311SOL    HW219833   4.526   1.838   5.670
 6312SOL     OW19834   0.486   0.196   5.172
 6312SOL    HW119835   0.396   0.177   5.133
 6312SOL    HW219836   0.481   0.278   5.229
 6313SOL     OW19837   6.404   5.938   3.670
 6313SOL    HW119838   6.419   5.853   3.722
 6313SOL    HW219839   6.488   5.992   3.670
 6314SOL     OW19840   3.725   6.571   1.865
 6314SOL    HW119841   3.667   6.648   1.894
 6314SOL    HW219842   3.714   6.557   1.767
 6315SOL     OW19843   3.023   2.023   6.155
 6315SOL    HW119844   2.979   2.082   6.088
 6315SOL    HW219845   3.057   1.940   6.111
 6316SOL     OW19846   5.185   2.158   5.664
 6316SOL    HW119847   5.200   2.061   5.683
 6316SOL    HW219848   5.090   2.183   5.686
 6317SOL     OW19849   4.867   4.598   1.792
 6317SOL    HW119850   4.890   4.695   1.782
 6317SOL    HW219851   4.905   4.546   1.716
 6318SOL     OW19852   4.382   6.980   6.393
 6318SOL    HW119853   4.298   6.961   6.444
 6318SOL    HW219854   4.392   0.060   6.381
 6319SOL     OW19855   6.110   2.454   5.487
 6319SOL    HW119856   6.180   2.523   5.507
 6319SOL    HW219857   6.112   2.432   5.389
 6320SOL     OW19858   0.018   6.823   4.604
 6320SOL    HW119859   6.985   6.854   4.684
 6320SOL    HW219860   0.111   6.802   4.631
 6321SOL     OW19861   4.392   3.164   0.458
 6321SOL    HW119862   4.485   3.171   0.423
 6321SOL    HW219863   4.378   3.232   0.530
 6322SOL     OW19864   2.286   2.436   0.763
 6322SOL    HW119865   2.306   2.449   0.860
 6322SOL    HW219866   2.195   2.474   0.742
 6323SOL     OW19867   0.983   2.345   2.131
 6323SOL    HW119868   1.004   2.282   2.206
 6323SOL    HW219869   0.884   2.360   2.126
 6324SOL     OW19870   4.135   1.081   0.841
 6324SOL    HW119871   4.085   1.152   0.891
 6324SOL    HW219872   4.200   1.125   0.778
 6325SOL     OW19873   2.187   3.208   2.562
 6325SOL    HW119874   2.091   3.236   2.554
 6325SOL    HW219875   2.246   3.286   2.540
 6326SOL     OW19876   5.444   5.498   0.307
 6326SOL    HW119877   5.384   5.430   0.350
 6326SOL    HW219878   5.479   5.461   0.221
 6327SOL     OW19879   0.181   1.606   4.529
 6327SOL    HW119880   0.099   1.571   4.483
 6327SOL    HW219881   0.157   1.638   4.620
 6328SOL     OW19882   4.424   3.687   0.087
 6328SOL    HW119883   4.345   3.688   0.026
 6328SOL    HW219884   4.508   3.672   0.034
 6329SOL     OW19885   1.448   2.780   4.451
 6329SOL    HW119886   1.542   2.805   4.473
 6329SOL    HW219887   1.440   2.680   4.448
 6330SOL     OW19888   5.833   6.497   1.982
 6330SOL    HW119889   5.799   6.584   1.946
 6330SOL    HW219890   5.887   6.515   2.064
 6331SOL     OW19891   0.052   3.428   4.958
 6331SOL    HW119892   0.122   3.462   4.896
 6331SOL    HW219893   6.985   3.418   4.909
 6332SOL     OW19894   0.492   2.310   1.648
 6332SOL    HW119895   0.462   2.403   1.625
 6332SOL    HW219896   0.587   2.312   1.677
 6333SOL     OW19897   4.834   0.199   5.723
 6333SOL    HW119898   4.890   0.117   5.718
 6333SOL    HW219899   4.738   0.173   5.736
 6334SOL     OW19900   3.477   1.032   2.341
 6334SOL    HW119901   3.539   1.100   2.379
 6334SOL    HW219902   3.514   0.996   2.255
 6335SOL     OW19903   3.545   0.057   0.401
 6335SOL    HW119904   3.645   0.065   0.403
 6335SOL    HW219905   3.505   0.146   0.381
 6336SOL     OW19906   0.668   1.981   6.409
 6336SOL    HW119907   0.729   2.054   6.441
 6336SOL    HW219908   0.723   1.907   6.369
 6337SOL     OW19909   3.909   5.156   5.138
 6337SOL    HW119910   3.844   5.229   5.157
 6337SOL    HW219911   3.992   5.171   5.192
 6338SOL     OW19912   2.870   2.142   4.259
 6338SOL    HW119913   2.791   2.201   4.246
 6338SOL    HW219914   2.907   2.155   4.352
 6339SOL     OW19915   0.924   3.213   4.132
 6339SOL    HW119916   0.836   3.187   4.092
 6339SOL    HW219917   0.980   3.259   4.063
 6340SOL     OW19918   2.138   4.850   1.072
 6340SOL    HW119919   2.151   4.949   1.067
 6340SOL    HW219920   2.129   4.812   0.979
 6341SOL     OW19921   6.736   3.370   4.610
 6341SOL    HW119922   6.654   3.353   4.555
 6341SOL    HW219923   6.714   3.360   4.707
 6342SOL     OW19924   2.774   1.669   1.120
 6342SOL    HW119925   2.797   1.597   1.056
 6342SOL    HW219926   2.676   1.664   1.142
 6343SOL     OW19927   4.052   0.637   6.331
 6343SOL    HW119928   4.032   0.549   6.374
 6343SOL    HW219929   3.989   0.706   6.365
 6344SOL     OW19930   4.946   2.699   4.228
 6344SOL    HW119931   5.017   2.639   4.191
 6344SOL    HW219932   4.949   2.696   4.328
 6345SOL     OW19933   5.238   2.895   1.933
 6345SOL    HW119934   5.216   2.798   1.925
 6345SOL    HW219935   5.166   2.942   1.984
 6346SOL     OW19936   6.489   5.381   4.392
 6346SOL    HW119937   6.391   5.388   4.410
 6346SOL    HW219938   6.508   5.292   4.351
 6347SOL     OW19939   1.861   1.203   0.334
 6347SOL    HW119940   1.785   1.151   0.375
 6347SOL    HW219941   1.831   1.296   0.315
 6348SOL     OW19942   1.667   2.429   6.936
 6348SOL    HW119943   1.631   2.410   6.845
 6348SOL    HW219944   1.593   2.428   7.003
 6349SOL     OW19945   1.676   0.842   0.653
 6349SOL    HW119946   1.699   0.936   0.628
 6349SOL    HW219947   1.693   0.828   0.751
 6350SOL     OW19948   0.372   5.057   4.225
 6350SOL    HW119949   0.468   5.080   4.206
 6350SOL    HW219950   0.365   5.014   4.315
 6351SOL     OW19951   5.925   3.586   3.849
 6351SOL    HW119952   6.013   3.610   3.891
 6351SOL    HW219953   5.922   3.623   3.756
 6352SOL     OW19954   2.989   0.043   5.000
 6352SOL    HW119955   3.006   0.122   5.058
 6352SOL    HW219956   2.956   6.986   5.055
 6353SOL     OW19957   0.825   5.956   5.833
 6353SOL    HW119958   0.777   5.900   5.765
 6353SOL    HW219959   0.818   5.912   5.923
 6354SOL     OW19960   3.653   5.430   3.031
 6354SOL    HW119961   3.739   5.481   3.026
 6354SOL    HW219962   3.672   5.336   3.057
 6355SOL     OW19963   2.446   5.521   6.613
 6355SOL    HW119964   2.406   5.432   6.588
 6355SOL    HW219965   2.499   5.510   6.697
 6356SOL     OW19966   4.892   4.944   1.011
 6356SOL    HW119967   4.829   4.867   1.021
 6356SOL    HW219968   4.888   5.001   1.093
 6357SOL     OW19969   6.106   3.474   3.181
 6357SOL    HW119970   6.032   3.494   3.117
 6357SOL    HW219971   6.100   3.535   3.260
 6358SOL     OW19972   0.556   1.844   6.069
 6358SOL    HW119973   0.651   1.868   6.048
 6358SOL    HW219974   0.539   1.749   6.043
 6359SOL     OW19975   6.107   6.848   0.249
 6359SOL    HW119976   6.101   6.925   0.312
 6359SOL    HW219977   6.134   6.880   0.159
 6360SOL     OW19978   1.345   3.655   5.087
 6360SOL    HW119979   1.251   3.688   5.073
 6360SOL    HW219980   1.404   3.733   5.109
 6361SOL     OW19981   0.756   0.543   0.923
 6361SOL    HW119982   0.755   0.629   0.974
 6361SOL    HW219983   0.839   0.492   0.944
 6362SOL     OW19984   0.263   5.579   5.736
 6362SOL    HW119985   0.287   5.667   5.777
 6362SOL    HW219986   0.164   5.572   5.727
 6363SOL     OW19987   2.298   5.779   3.643
 6363SOL    HW119988   2.301   5.878   3.627
 6363SOL    HW219989   2.290   5.731   3.556
 6364SOL     OW19990   2.870   2.005   5.461
 6364SOL    HW119991   2.793   1.941   5.463
 6364SOL    HW219992   2.837   2.098   5.472
 6365SOL     OW19993   4.893   6.646   4.038
 6365SOL    HW119994   4.886   6.552   4.073
 6365SOL    HW219995   4.806   6.674   3.999
 6366SOL     OW19996   0.968   5.659   5.233
 6366SOL    HW119997   1.057   5.694   5.203
 6366SOL    HW219998   0.981   5.592   5.306
 6367SOL     OW19999   3.949   1.424   3.546
 6367SOL    HW120000   4.005   1.464   3.619
 6367SOL    HW220001   3.860   1.470   3.544
 6368SOL     OW20002   3.735   4.948   4.162
 6368SOL    HW120003   3.681   4.942   4.078
 6368SOL    HW220004   3.777   5.038   4.168
 6369SOL     OW20005   1.881   0.691   5.022
 6369SOL    HW120006   1.877   0.595   4.996
 6369SOL    HW220007   1.900   0.747   4.941
 6370SOL     OW20008   5.299   3.473   3.770
 6370SOL    HW120009   5.351   3.409   3.826
 6370SOL    HW220010   5.253   3.424   3.696
 6371SOL     OW20011   5.638   4.602   3.358
 6371SOL    HW120012   5.669   4.691   3.324
 6371SOL    HW220013   5.615   4.609   3.455
 6372SOL     OW20014   1.320   1.506   1.837
 6372SOL    HW120015   1.355   1.429   1.784
 6372SOL    HW220016   1.316   1.587   1.778
 6373SOL     OW20017   5.108   4.427   2.872
 6373SOL    HW120018   5.015   4.465   2.877
 6373SOL    HW220019   5.151   4.433   2.962
 6374SOL     OW20020   4.158   3.107   1.473
 6374SOL    HW120021   4.134   3.087   1.568
 6374SOL    HW220022   4.254   3.136   1.469
 6375SOL     OW20023   0.069   2.111   2.503
 6375SOL    HW120024   6.997   2.069   2.502
 6375SOL    HW220025   0.098   2.125   2.597
 6376SOL     OW20026   4.818   2.252   6.432
 6376SOL    HW120027   4.807   2.214   6.340
 6376SOL    HW220028   4.746   2.217   6.492
 6377SOL     OW20029   6.505   1.262   5.358
 6377SOL    HW120030   6.418   1.247   5.311
 6377SOL    HW220031   6.555   1.176   5.365
 6378SOL     OW20032   4.901   4.665   3.821
 6378SOL    HW120033   4.826   4.724   3.852
 6378SOL    HW220034   4.979   4.676   3.882
 6379SOL     OW20035   0.315   4.209   5.041
 6379SOL    HW120036   0.367   4.127   5.066
 6379SOL    HW220037   0.373   4.289   5.048
 6380SOL     OW20038   6.896   1.671   4.862
 6380SOL    HW120039   6.938   1.642   4.948
 6380SOL    HW220040   6.879   1.591   4.804
 6381SOL     OW20041   4.372   2.834   1.236
 6381SOL    HW120042   4.418   2.772   1.173
 6381SOL    HW220043   4.385   2.928   1.207
 6382SOL     OW20044   3.568   1.532   0.533
 6382SOL    HW120045   3.581   1.622   0.574
 6382SOL    HW220046   3.495   1.483   0.582
 6383SOL     OW20047   2.489   2.377   2.922
 6383SOL    HW120048   2.444   2.464   2.944
 6383SOL    HW220049   2.500   2.369   2.823
 6384SOL     OW20050   5.748   3.892   3.141
 6384SOL    HW120051   5.785   3.855   3.226
 6384SOL    HW220052   5.648   3.885   3.143
 6385SOL     OW20053   6.854   3.572   3.701
 6385SOL    HW120054   6.837   3.508   3.776
 6385SOL    HW220055   6.918   3.643   3.731
 6386SOL     OW20056   3.210   3.345   6.683
 6386SOL    HW120057   3.170   3.332   6.774
 6386SOL    HW220058   3.164   3.421   6.637
 6387SOL     OW20059   6.881   1.591   6.823
 6387SOL    HW120060   6.782   1.601   6.812
 6387SOL    HW220061   6.899   1.516   6.887
 6388SOL     OW20062   4.839   6.176   1.377
 6388SOL    HW120063   4.895   6.203   1.455
 6388SOL    HW220064   4.797   6.258   1.336
 6389SOL     OW20065   0.415   6.537   0.565
 6389SOL    HW120066   0.411   6.510   0.469
 6389SOL    HW220067   0.322   6.550   0.600
 6390SOL     OW20068   6.871   0.487   5.412
 6390SOL    HW120069   6.919   0.403   5.436
 6390SOL    HW220070   6.819   0.519   5.491
 6391SOL     OW20071   1.744   0.655   6.273
 6391SOL    HW120072   1.666   0.705   6.236
 6391SOL    HW220073   1.786   0.708   6.347
 6392SOL     OW20074   2.765   5.024   2.984
 6392SOL    HW120075   2.830   4.955   3.017
 6392SOL    HW220076   2.705   5.052   3.059
 6393SOL     OW20077   0.233   6.312   2.213
 6393SOL    HW120078   0.330   6.324   2.190
 6393SOL    HW220079   0.223   6.232   2.271
 6394SOL     OW20080   1.609   6.058   0.602
 6394SOL    HW120081   1.605   5.994   0.679
 6394SOL    HW220082   1.618   6.008   0.517
 6395SOL     OW20083   0.224   3.151   1.984
 6395SOL    HW120084   0.168   3.073   2.011
 6395SOL    HW220085   0.314   3.119   1.955
 6396SOL     OW20086   6.409   3.235   6.508
 6396SOL    HW120087   6.466   3.210   6.586
 6396SOL    HW220088   6.411   3.334   6.496
 6397SOL     OW20089   5.597   0.880   1.463
 6397SOL    HW120090   5.531   0.933   1.516
 6397SOL    HW220091   5.585   0.900   1.366
 6398SOL     OW20092   2.988   6.696   2.209
 6398SOL    HW120093   2.952   6.784   2.240
 6398SOL    HW220094   3.058   6.665   2.272
 6399SOL     OW20095   1.754   0.293   6.830
 6399SOL    HW120096   1.684   0.346   6.783
 6399SOL    HW220097   1.761   0.203   6.788
 6400SOL     OW20098   2.161   4.989   2.753
 6400SOL    HW120099   2.221   5.063   2.785
 6400SOL    HW220100   2.079   4.986   2.810
 6401SOL     OW20101   5.616   5.722   3.027
 6401SOL    HW120102   5.559   5.738   3.107
 6401SOL    HW220103   5.568   5.661   2.964
 6402SOL     OW20104   2.125   3.140   3.798
 6402SOL    HW120105   2.050   3.134   3.864
 6402SOL    HW220106   2.102   3.209   3.729
 6403SOL     OW20107   5.868   5.881   6.049
 6403SOL    HW120108   5.918   5.966   6.035
 6403SOL    HW220109   5.783   5.899   6.097
 6404SOL     OW20110   4.294   1.460   2.595
 6404SOL    HW120111   4.236   1.442   2.674
 6404SOL    HW220112   4.343   1.377   2.570
 6405SOL     OW20113   4.009   0.795   3.937
 6405SOL    HW120114   4.020   0.867   3.869
 6405SOL    HW220115   3.913   0.768   3.942
 6406SOL     OW20116   0.393   2.382   2.826
 6406SOL    HW120117   0.467   2.447   2.843
 6406SOL    HW220118   0.313   2.408   2.880
 6407SOL     OW20119   2.459   0.167   4.797
 6407SOL    HW120120   2.538   0.116   4.763
 6407SOL    HW220121   2.416   0.216   4.721
 6408SOL     OW20122   5.326   1.103   1.004
 6408SOL    HW120123   5.398   1.087   0.936
 6408SOL    HW220124   5.280   1.189   0.983
 6409SOL     OW20125   6.758   4.153   4.047
 6409SOL    HW120126   6.711   4.205   3.976
 6409SOL    HW220127   6.756   4.055   4.024
 6410SOL     OW20128   1.914   1.617   5.906
 6410SOL    HW120129   1.899   1.701   5.852
 6410SOL    HW220130   1.865   1.541   5.863
 6411SOL     OW20131   0.403   2.781   3.225
 6411SOL    HW120132   0.466   2.706   3.208
 6411SOL    HW220133   0.312   2.745   3.247
 6412SOL     OW20134   1.759   1.196   5.303
 6412SOL    HW120135   1.769   1.228   5.209
 6412SOL    HW220136   1.832   1.234   5.359
 6413SOL     OW20137   3.715   4.913   3.824
 6413SOL    HW120138   3.751   4.865   3.744
 6413SOL    HW220139   3.787   4.970   3.863
 6414SOL     OW20140   5.381   1.076   0.181
 6414SOL    HW120141   5.371   1.076   0.081
 6414SOL    HW220142   5.363   0.984   0.216
 6415SOL     OW20143   1.368   3.164   3.796
 6415SOL    HW120144   1.302   3.156   3.721
 6415SOL    HW220145   1.352   3.091   3.862
 6416SOL     OW20146   2.208   6.858   6.320
 6416SOL    HW120147   2.199   6.957   6.333
 6416SOL    HW220148   2.197   6.812   6.408
 6417SOL     OW20149   5.695   4.478   0.222
 6417SOL    HW120150   5.703   4.383   0.254
 6417SOL    HW220151   5.628   4.526   0.278
 6418SOL     OW20152   4.848   4.022   3.152
 6418SOL    HW120153   4.913   4.061   3.217
 6418SOL    HW220154   4.784   4.094   3.122
 6419SOL     OW20155   1.127   5.067   3.132
 6419SOL    HW120156   1.048   5.119   3.099
 6419SOL    HW220157   1.096   4.976   3.161
 6420SOL     OW20158   2.465   0.313   4.365
 6420SOL    HW120159   2.537   0.255   4.326
 6420SOL    HW220160   2.383   0.305   4.309
 6421SOL     OW20161   4.764   0.716   1.832
 6421SOL    HW120162   4.812   0.685   1.751
 6421SOL    HW220163   4.826   0.771   1.889
 6422SOL     OW20164   6.604   0.513   5.315
 6422SOL    HW120165   6.680   0.514   5.380
 6422SOL    HW220166   6.638   0.540   5.225
 6423SOL     OW20167   4.640   5.455   4.086
 6423SOL    HW120168   4.739   5.466   4.094
 6423SOL    HW220169   4.611   5.483   3.995
 6424SOL     OW20170   0.345   4.056   4.772
 6424SOL    HW120171   0.383   4.144   4.743
 6424SOL    HW220172   0.273   4.027   4.709
 6425SOL     OW20173   6.622   6.541   2.900
 6425SOL    HW120174   6.701   6.521   2.842
 6425SOL    HW220175   6.617   6.639   2.918
 6426SOL     OW20176   0.407   5.287   3.008
 6426SOL    HW120177   0.385   5.287   3.106
 6426SOL    HW220178   0.485   5.348   2.992
 6427SOL     OW20179   3.871   4.017   3.828
 6427SOL    HW120180   3.802   4.074   3.784
 6427SOL    HW220181   3.833   3.926   3.845
 6428SOL     OW20182   5.869   3.258   6.924
 6428SOL    HW120183   5.956   3.215   6.903
 6428SOL    HW220184   5.818   3.275   6.839
 6429SOL     OW20185   0.094   1.092   6.137
 6429SOL    HW120186   0.121   1.188   6.152
 6429SOL    HW220187   0.155   1.050   6.071
 6430SOL     OW20188   6.229   1.277   4.095
 6430SOL    HW120189   6.209   1.186   4.061
 6430SOL    HW220190   6.149   1.335   4.084
 6431SOL     OW20191   4.174   5.997   3.679
 6431SOL    HW120192   4.204   5.917   3.629
 6431SOL    HW220193   4.075   6.006   3.672
 6432SOL     OW20194   4.847   4.629   5.903
 6432SOL    HW120195   4.933   4.627   5.953
 6432SOL    HW220196   4.771   4.620   5.968
 6433SOL     OW20197   2.221   5.192   5.983
 6433SOL    HW120198   2.313   5.164   5.955
 6433SOL    HW220199   2.186   5.129   6.052
 6434SOL     OW20200   2.960   6.558   6.108
 6434SOL    HW120201   2.872   6.541   6.062
 6434SOL    HW220202   2.951   6.536   6.205
 6435SOL     OW20203   5.891   6.673   0.190
 6435SOL    HW120204   5.868   6.624   0.274
 6435SOL    HW220205   5.971   6.731   0.207
 6436SOL     OW20206   1.319   3.205   2.364
 6436SOL    HW120207   1.357   3.183   2.274
 6436SOL    HW220208   1.371   3.157   2.435
 6437SOL     OW20209   1.513   2.453   0.146
 6437SOL    HW120210   1.589   2.514   0.168
 6437SOL    HW220211   1.475   2.415   0.230
 6438SOL     OW20212   0.457   4.277   5.378
 6438SOL    HW120213   0.358   4.278   5.364
 6438SOL    HW220214   0.489   4.182   5.387
 6439SOL     OW20215   5.302   0.902   2.370
 6439SOL    HW120216   5.373   0.913   2.300
 6439SOL    HW220217   5.282   0.990   2.412
 6440SOL     OW20218   2.471   1.353   5.848
 6440SOL    HW120219   2.556   1.332   5.898
 6440SOL    HW220220   2.400   1.378   5.913
 6441SOL     OW20221   0.465   0.529   1.337
 6441SOL    HW120222   0.514   0.458   1.287
 6441SOL    HW220223   0.435   0.493   1.425
 6442SOL     OW20224   2.671   1.859   5.137
 6442SOL    HW120225   2.664   1.943   5.082
 6442SOL    HW220226   2.729   1.793   5.090
 6443SOL     OW20227   3.372   2.691   5.610
 6443SOL    HW120228   3.447   2.658   5.553
 6443SOL    HW220229   3.309   2.746   5.554
 6444SOL     OW20230   5.529   3.119   5.172
 6444SOL    HW120231   5.496   3.116   5.266
 6444SOL    HW220232   5.500   3.205   5.129
 6445SOL     OW20233   4.042   3.667   4.098
 6445SOL    HW120234   4.109   3.689   4.169
 6445SOL    HW220235   3.979   3.745   4.087
 6446SOL     OW20236   0.900   1.487   6.885
 6446SOL    HW120237   0.894   1.408   6.946
 6446SOL    HW220238   0.904   1.571   6.940
 6447SOL     OW20239   6.655   4.658   2.886
 6447SOL    HW120240   6.743   4.687   2.924
 6447SOL    HW220241   6.641   4.704   2.798
 6448SOL     OW20242   5.062   5.381   1.432
 6448SOL    HW120243   4.998   5.455   1.455
 6448SOL    HW220244   5.015   5.293   1.438
 6449SOL     OW20245   3.600   5.784   1.283
 6449SOL    HW120246   3.618   5.882   1.286
 6449SOL    HW220247   3.504   5.767   1.303
 6450SOL     OW20248   1.658   2.696   0.844
 6450SOL    HW120249   1.671   2.678   0.746
 6450SOL    HW220250   1.745   2.724   0.884
 6451SOL     OW20251   2.335   0.462   5.927
 6451SOL    HW120252   2.355   0.372   5.966
 6451SOL    HW220253   2.391   0.476   5.845
 6452SOL     OW20254   4.711   4.265   2.833
 6452SOL    HW120255   4.708   4.365   2.828
 6452SOL    HW220256   4.800   4.232   2.800
 6453SOL     OW20257   2.116   0.043   1.458
 6453SOL    HW120258   2.062   0.126   1.456
 6453SOL    HW220259   2.212   0.065   1.477
 6454SOL     OW20260   0.846   1.390   2.959
 6454SOL    HW120261   0.873   1.333   2.880
 6454SOL    HW220262   0.782   1.461   2.928
 6455SOL     OW20263   0.033   3.079   4.364
 6455SOL    HW120264   0.107   3.108   4.303
 6455SOL    HW220265   6.966   3.077   4.313
 6456SOL     OW20266   1.478   1.308   3.518
 6456SOL    HW120267   1.548   1.323   3.448
 6456SOL    HW220268   1.387   1.315   3.477
 6457SOL     OW20269   5.004   0.722   1.667
 6457SOL    HW120270   5.039   0.816   1.666
 6457SOL    HW220271   4.938   0.710   1.593
 6458SOL     OW20272   0.936   5.591   4.290
 6458SOL    HW120273   0.863   5.544   4.242
 6458SOL    HW220274   0.906   5.615   4.382
 6459SOL     OW20275   6.305   3.307   1.941
 6459SOL    HW120276   6.224   3.271   1.896
 6459SOL    HW220277   6.359   3.360   1.876
 6460SOL     OW20278   6.015   5.983   6.480
 6460SOL    HW120279   6.093   5.943   6.529
 6460SOL    HW220280   5.935   5.983   6.539
 6461SOL     OW20281   2.496   4.423   6.921
 6461SOL    HW120282   2.467   4.519   6.932
 6461SOL    HW220283   2.427   4.374   6.867
 6462SOL     OW20284   1.897   3.100   4.780
 6462SOL    HW120285   1.991   3.103   4.813
 6462SOL    HW220286   1.892   3.135   4.687
 6463SOL     OW20287   5.821   1.269   0.460
 6463SOL    HW120288   5.735   1.315   0.484
 6463SOL    HW220289   5.865   1.317   0.385
 6464SOL     OW20290   1.608   5.343   5.246
 6464SOL    HW120291   1.611   5.409   5.171
 6464SOL    HW220292   1.513   5.327   5.273
 6465SOL     OW20293   6.649   3.097   2.586
 6465SOL    HW120294   6.615   3.113   2.493
 6465SOL    HW220295   6.677   3.184   2.626
 6466SOL     OW20296   6.178   1.519   6.032
 6466SOL    HW120297   6.106   1.540   5.966
 6466SOL    HW220298   6.230   1.441   6.000
 6467SOL     OW20299   3.849   0.109   0.429
 6467SOL    HW120300   3.903   0.049   0.371
 6467SOL    HW220301   3.830   0.195   0.380
 6468SOL     OW20302   3.119   5.844   1.174
 6468SOL    HW120303   3.174   5.861   1.092
 6468SOL    HW220304   3.075   5.929   1.203
 6469SOL     OW20305   4.387   2.395   3.664
 6469SOL    HW120306   4.485   2.388   3.646
 6469SOL    HW220307   4.345   2.453   3.594
 6470SOL     OW20308   5.536   3.035   0.720
 6470SOL    HW120309   5.459   3.015   0.660
 6470SOL    HW220310   5.610   3.076   0.667
 6471SOL     OW20311   0.311   6.201   5.711
 6471SOL    HW120312   0.364   6.133   5.762
 6471SOL    HW220313   0.225   6.217   5.759
 6472SOL     OW20314   0.058   5.752   1.900
 6472SOL    HW120315   0.001   5.834   1.906
 6472SOL    HW220316   0.001   5.671   1.913
 6473SOL     OW20317   3.068   1.944   4.895
 6473SOL    HW120318   3.062   1.976   4.990
 6473SOL    HW220319   3.096   1.848   4.894
 6474SOL     OW20320   3.923   5.563   6.222
 6474SOL    HW120321   3.971   5.564   6.309
 6474SOL    HW220322   3.847   5.627   6.224
 6475SOL     OW20323   6.026   4.648   3.897
 6475SOL    HW120324   6.038   4.655   3.996
 6475SOL    HW220325   5.979   4.730   3.864
 6476SOL     OW20326   4.960   3.271   0.682
 6476SOL    HW120327   5.045   3.320   0.700
 6476SOL    HW220328   4.962   3.233   0.590
 6477SOL     OW20329   6.629   5.148   0.484
 6477SOL    HW120330   6.569   5.098   0.422
 6477SOL    HW220331   6.659   5.087   0.558
 6478SOL     OW20332   4.062   6.750   2.100
 6478SOL    HW120333   4.006   6.678   2.142
 6478SOL    HW220334   4.023   6.839   2.121
 6479SOL     OW20335   4.007   5.748   3.819
 6479SOL    HW120336   4.052   5.702   3.743
 6479SOL    HW220337   4.063   5.741   3.901
 6480SOL     OW20338   2.487   1.344   7.006
 6480SOL    HW120339   2.495   1.249   0.016
 6480SOL    HW220340   2.464   1.402   0.065
 6481SOL     OW20341   3.265   2.042   2.077
 6481SOL    HW120342   3.264   1.950   2.115
 6481SOL    HW220343   3.191   2.096   2.118
 6482SOL     OW20344   6.186   1.992   5.809
 6482SOL    HW120345   6.187   2.090   5.826
 6482SOL    HW220346   6.264   1.950   5.856
 6483SOL     OW20347   0.328   0.113   3.116
 6483SOL    HW120348   0.422   0.134   3.090
 6483SOL    HW220349   0.328   0.061   3.202
 6484SOL     OW20350   3.384   0.184   1.955
 6484SOL    HW120351   3.364   0.190   1.857
 6484SOL    HW220352   3.308   0.223   2.007
 6485SOL     OW20353   1.735   5.270   3.738
 6485SOL    HW120354   1.740   5.197   3.669
 6485SOL    HW220355   1.827   5.289   3.772
 6486SOL     OW20356   0.468   4.745   2.342
 6486SOL    HW120357   0.408   4.737   2.422
 6486SOL    HW220358   0.557   4.780   2.370
 6487SOL     OW20359   0.982   6.539   5.356
 6487SOL    HW120360   0.994   6.638   5.351
 6487SOL    HW220361   1.022   6.505   5.441
 6488SOL     OW20362   4.025   6.336   4.640
 6488SOL    HW120363   4.101   6.281   4.674
 6488SOL    HW220364   3.939   6.289   4.659
 6489SOL     OW20365   3.303   3.625   6.078
 6489SOL    HW120366   3.256   3.570   6.009
 6489SOL    HW220367   3.285   3.586   6.169
 6490SOL     OW20368   4.046   1.264   6.425
 6490SOL    HW120369   4.045   1.362   6.403
 6490SOL    HW220370   4.006   1.213   6.349
 6491SOL     OW20371   2.973   0.709   1.036
 6491SOL    HW120372   3.042   0.773   1.002
 6491SOL    HW220373   3.017   0.637   1.090
 6492SOL     OW20374   3.925   4.374   5.781
 6492SOL    HW120375   3.924   4.275   5.764
 6492SOL    HW220376   3.852   4.417   5.728
 6493SOL     OW20377   1.794   4.374   6.295
 6493SOL    HW120378   1.874   4.346   6.348
 6493SOL    HW220379   1.728   4.300   6.292
 6494SOL     OW20380   6.502   0.656   3.386
 6494SOL    HW120381   6.454   0.738   3.357
 6494SOL    HW220382   6.443   0.603   3.447
 6495SOL     OW20383   6.624   0.540   5.027
 6495SOL    HW120384   6.656   0.520   4.935
 6495SOL    HW220385   6.570   0.624   5.026
 6496SOL     OW20386   5.923   0.879   2.872
 6496SOL    HW120387   5.894   0.802   2.816
 6496SOL    HW220388   5.914   0.964   2.819
 6497SOL     OW20389   1.069   0.797   1.546
 6497SOL    HW120390   0.986   0.847   1.522
 6497SOL    HW220391   1.071   0.710   1.497
 6498SOL     OW20392   1.694   2.905   4.508
 6498SOL    HW120393   1.735   2.904   4.599
 6498SOL    HW220394   1.764   2.926   4.440
 6499SOL     OW20395   5.329   4.159   5.384
 6499SOL    HW120396   5.246   4.156   5.330
 6499SOL    HW220397   5.324   4.091   5.458
 6500SOL     OW20398   6.743   3.715   4.597
 6500SOL    HW120399   6.818   3.648   4.603
 6500SOL    HW220400   6.702   3.709   4.506
 6501SOL     OW20401   6.456   1.039   6.869
 6501SOL    HW120402   6.396   1.118   6.856
 6501SOL    HW220403   6.549   1.063   6.841
 6502SOL     OW20404   6.819   3.795   2.763
 6502SOL    HW120405   6.898   3.856   2.758
 6502SOL    HW220406   6.830   3.720   2.699
 6503SOL     OW20407   5.373   1.056   3.462
 6503SOL    HW120408   5.316   1.058   3.381
 6503SOL    HW220409   5.412   1.147   3.478
 6504SOL     OW20410   4.171   6.550   5.505
 6504SOL    HW120411   4.089   6.602   5.485
 6504SOL    HW220412   4.238   6.609   5.550
 6505SOL     OW20413   5.324   5.884   6.380
 6505SOL    HW120414   5.295   5.910   6.472
 6505SOL    HW220415   5.375   5.959   6.338
 6506SOL     OW20416   0.011   3.056   3.157
 6506SOL    HW120417   0.051   3.014   3.238
 6506SOL    HW220418   0.069   3.132   3.128
 6507SOL     OW20419   2.149   5.506   6.436
 6507SOL    HW120420   2.222   5.446   6.470
 6507SOL    HW220421   2.119   5.566   6.510
 6508SOL     OW20422   1.691   0.984   2.560
 6508SOL    HW120423   1.788   0.975   2.583
 6508SOL    HW220424   1.664   1.080   2.567
 6509SOL     OW20425   4.497   1.978   4.920
 6509SOL    HW120426   4.405   1.992   4.959
 6509SOL    HW220427   4.559   2.049   4.954
 6510SOL     OW20428   6.410   5.242   0.184
 6510SOL    HW120429   6.438   5.147   0.192
 6510SOL    HW220430   6.314   5.251   0.207
 6511SOL     OW20431   3.772   0.833   4.721
 6511SOL    HW120432   3.712   0.905   4.685
 6511SOL    HW220433   3.784   0.762   4.652
 6512SOL     OW20434   3.695   6.174   2.244
 6512SOL    HW120435   3.624   6.107   2.266
 6512SOL    HW220436   3.652   6.259   2.216
 6513SOL     OW20437   2.548   5.158   3.140
 6513SOL    HW120438   2.448   5.165   3.135
 6513SOL    HW220439   2.588   5.195   3.056
 6514SOL     OW20440   5.995   1.418   3.948
 6514SOL    HW120441   5.987   1.496   4.009
 6514SOL    HW220442   5.938   1.343   3.981
 6515SOL     OW20443   0.857   4.116   3.523
 6515SOL    HW120444   0.828   4.139   3.616
 6515SOL    HW220445   0.956   4.106   3.521
 6516SOL     OW20446   0.551   3.498   2.109
 6516SOL    HW120447   0.504   3.412   2.129
 6516SOL    HW220448   0.649   3.480   2.096
 6517SOL     OW20449   0.065   1.185   1.928
 6517SOL    HW120450   0.117   1.102   1.909
 6517SOL    HW220451   6.990   1.161   1.950
 6518SOL     OW20452   6.932   0.224   0.870
 6518SOL    HW120453   6.972   0.285   0.938
 6518SOL    HW220454   6.944   0.129   0.898
 6519SOL     OW20455   0.876   2.069   2.737
 6519SOL    HW120456   0.965   2.024   2.733
 6519SOL    HW220457   0.870   2.138   2.664
 6520SOL     OW20458   6.879   5.459   0.909
 6520SOL    HW120459   6.953   5.487   0.971
 6520SOL    HW220460   6.918   5.412   0.830
 6521SOL     OW20461   1.990   2.851   3.842
 6521SOL    HW120462   2.088   2.854   3.859
 6521SOL    HW220463   1.973   2.834   3.745
 6522SOL     OW20464   2.757   4.815   5.755
 6522SOL    HW120465   2.694   4.754   5.706
 6522SOL    HW220466   2.850   4.800   5.721
 6523SOL     OW20467   3.328   0.957   6.790
 6523SOL    HW120468   3.282   1.044   6.811
 6523SOL    HW220469   3.307   0.931   6.696
 6524SOL     OW20470   2.585   3.510   1.489
 6524SOL    HW120471   2.486   3.515   1.473
 6524SOL    HW220472   2.625   3.441   1.429
 6525SOL     OW20473   1.902   5.425   3.381
 6525SOL    HW120474   1.948   5.477   3.454
 6525SOL    HW220475   1.809   5.459   3.370
 6526SOL     OW20476   2.044   0.772   1.387
 6526SOL    HW120477   1.954   0.744   1.353
 6526SOL    HW220478   2.106   0.783   1.309
 6527SOL     OW20479   6.886   1.693   5.773
 6527SOL    HW120480   6.895   1.721   5.678
 6527SOL    HW220481   6.930   1.604   5.786
 6528SOL     OW20482   5.396   1.231   5.164
 6528SOL    HW120483   5.391   1.194   5.257
 6528SOL    HW220484   5.310   1.278   5.142
 6529SOL     OW20485   1.950   0.395   2.560
 6529SOL    HW120486   1.970   0.490   2.534
 6529SOL    HW220487   2.022   0.335   2.525
 6530SOL     OW20488   6.678   1.943   0.883
 6530SOL    HW120489   6.677   2.028   0.935
 6530SOL    HW220490   6.752   1.884   0.917
 6531SOL     OW20491   5.152   3.522   5.148
 6531SOL    HW120492   5.166   3.588   5.074
 6531SOL    HW220493   5.073   3.465   5.127
 6532SOL     OW20494   0.203   1.022   1.244
 6532SOL    HW120495   0.140   1.020   1.321
 6532SOL    HW220496   0.154   1.049   1.161
 6533SOL     OW20497   4.634   6.951   0.275
 6533SOL    HW120498   4.576   6.914   0.202
 6533SOL    HW220499   4.725   6.970   0.238
 6534SOL     OW20500   4.975   4.495   1.555
 6534SOL    HW120501   4.901   4.512   1.490
 6534SOL    HW220502   5.045   4.566   1.546
 6535SOL     OW20503   6.586   4.347   4.166
 6535SOL    HW120504   6.587   4.441   4.134
 6535SOL    HW220505   6.659   4.296   4.122
 6536SOL     OW20506   0.365   1.629   5.579
 6536SOL    HW120507   0.424   1.630   5.660
 6536SOL    HW220508   0.276   1.592   5.603
 6537SOL     OW20509   0.055   4.702   0.148
 6537SOL    HW120510   0.108   4.673   0.227
 6537SOL    HW220511   0.072   4.799   0.131
 6538SOL     OW20512   2.158   3.499   6.310
 6538SOL    HW120513   2.075   3.484   6.364
 6538SOL    HW220514   2.183   3.414   6.263
 6539SOL     OW20515   5.279   1.097   6.925
 6539SOL    HW120516   5.224   1.059   6.851
 6539SOL    HW220517   5.224   1.161   6.978
 6540SOL     OW20518   4.335   1.956   6.757
 6540SOL    HW120519   4.320   1.999   6.668
 6540SOL    HW220520   4.248   1.918   6.791
 6541SOL     OW20521   4.889   1.555   5.261
 6541SOL    HW120522   4.814   1.594   5.315
 6541SOL    HW220523   4.958   1.517   5.322
 6542SOL     OW20524   6.919   2.676   3.983
 6542SOL    HW120525   7.001   2.729   4.005
 6542SOL    HW220526   6.845   2.703   4.045
 6543SOL     OW20527   4.259   3.169   5.522
 6543SOL    HW120528   4.191   3.242   5.525
 6543SOL    HW220529   4.213   3.081   5.506
 6544SOL     OW20530   1.122   6.548   3.134
 6544SOL    HW120531   1.106   6.573   3.230
 6544SOL    HW220532   1.122   6.631   3.078
 6545SOL     OW20533   4.248   0.421   0.844
 6545SOL    HW120534   4.344   0.395   0.851
 6545SOL    HW220535   4.239   0.520   0.855
 6546SOL     OW20536   2.735   4.421   6.811
 6546SOL    HW120537   2.660   4.442   6.873
 6546SOL    HW220538   2.716   4.335   6.764
 6547SOL     OW20539   4.556   0.862   6.586
 6547SOL    HW120540   4.479   0.833   6.643
 6547SOL    HW220541   4.642   0.843   6.633
 6548SOL     OW20542   0.773   4.013   0.777
 6548SOL    HW120543   0.850   3.958   0.808
 6548SOL    HW220544   0.738   4.068   0.853
 6549SOL     OW20545   4.408   0.858   1.962
 6549SOL    HW120546   4.361   0.937   2.001
 6549SOL    HW220547   4.479   0.827   2.026
 6550SOL     OW20548   6.941   6.906   3.688
 6550SOL    HW120549   6.967   6.979   3.625
 6550SOL    HW220550   6.990   6.822   3.663
 6551SOL     OW20551   1.645   4.237   1.700
 6551SOL    HW120552   1.731   4.196   1.729
 6551SOL    HW220553   1.660   4.332   1.672
 6552SOL     OW20554   1.573   0.321   0.199
 6552SOL    HW120555   1.660   0.280   0.225
 6552SOL    HW220556   1.503   0.297   0.266
 6553SOL     OW20557   0.181   2.106   3.586
 6553SOL    HW120558   0.097   2.093   3.535
 6553SOL    HW220559   0.239   2.173   3.540
 6554SOL     OW20560   1.038   0.806   4.422
 6554SOL    HW120561   1.020   0.843   4.331
 6554SOL    HW220562   1.121   0.752   4.420
 6555SOL     OW20563   5.372   1.806   3.261
 6555SOL    HW120564   5.351   1.902   3.242
 6555SOL    HW220565   5.371   1.790   3.359
 6556SOL     OW20566   5.540   4.373   3.997
 6556SOL    HW120567   5.633   4.408   3.984
 6556SOL    HW220568   5.508   4.393   4.089
 6557SOL     OW20569   3.501   7.005   2.541
 6557SOL    HW120570   3.529   6.938   2.472
 6557SOL    HW220571   3.402   7.000   2.554
 6558SOL     OW20572   0.392   5.070   0.574
 6558SOL    HW120573   0.381   5.082   0.475
 6558SOL    HW220574   0.477   5.021   0.592
 6559SOL     OW20575   1.235   4.468   0.198
 6559SOL    HW120576   1.277   4.505   0.281
 6559SOL    HW220577   1.226   4.369   0.207
 6560SOL     OW20578   4.712   4.608   1.500
 6560SOL    HW120579   4.702   4.706   1.515
 6560SOL    HW220580   4.668   4.559   1.575
 6561SOL     OW20581   3.283   4.172   1.780
 6561SOL    HW120582   3.224   4.092   1.784
 6561SOL    HW220583   3.227   4.255   1.778
 6562SOL     OW20584   6.651   2.761   0.696
 6562SOL    HW120585   6.746   2.761   0.727
 6562SOL    HW220586   6.642   2.703   0.615
 6563SOL     OW20587   5.048   5.896   6.338
 6563SOL    HW120588   5.000   5.908   6.251
 6563SOL    HW220589   5.141   5.865   6.321
 6564SOL     OW20590   6.871   3.624   2.982
 6564SOL    HW120591   6.878   3.680   3.065
 6564SOL    HW220592   6.844   3.683   2.905
 6565SOL     OW20593   5.536   1.808   2.608
 6565SOL    HW120594   5.565   1.793   2.703
 6565SOL    HW220595   5.583   1.888   2.571
 6566SOL     OW20596   4.259   6.149   1.741
 6566SOL    HW120597   4.165   6.182   1.752
 6566SOL    HW220598   4.274   6.070   1.801
 6567SOL     OW20599   4.858   0.718   2.561
 6567SOL    HW120600   4.924   0.765   2.501
 6567SOL    HW220601   4.815   0.644   2.510
 6568SOL     OW20602   3.303   1.458   4.094
 6568SOL    HW120603   3.329   1.543   4.048
 6568SOL    HW220604   3.203   1.456   4.105
 6569SOL     OW20605   2.502   3.384   0.263
 6569SOL    HW120606   2.546   3.305   0.221
 6569SOL    HW220607   2.571   3.450   0.293
 6570SOL     OW20608   3.564   0.786   2.571
 6570SOL    HW120609   3.485   0.756   2.625
 6570SOL    HW220610   3.587   0.880   2.595
 6571SOL     OW20611   3.042   4.862   1.824
 6571SOL    HW120612   3.082   4.819   1.744
 6571SOL    HW220613   2.943   4.844   1.825
 6572SOL     OW20614   0.202   4.619   4.746
 6572SOL    HW120615   0.196   4.539   4.685
 6572SOL    HW220616   0.110   4.657   4.759
 6573SOL     OW20617   1.175   1.930   2.131
 6573SOL    HW120618   1.224   1.843   2.144
 6573SOL    HW220619   1.081   1.911   2.101
 6574SOL     OW20620   2.444   5.973   2.336
 6574SOL    HW120621   2.542   5.959   2.318
 6574SOL    HW220622   2.400   6.004   2.252
 6575SOL     OW20623   0.644   6.950   3.386
 6575SOL    HW120624   0.694   6.912   3.308
 6575SOL    HW220625   0.546   6.951   3.365
 6576SOL     OW20626   2.118   6.176   6.984
 6576SOL    HW120627   2.061   6.174   6.901
 6576SOL    HW220628   2.085   6.248   0.026
 6577SOL     OW20629   0.981   1.799   4.072
 6577SOL    HW120630   0.979   1.699   4.078
 6577SOL    HW220631   0.988   1.826   3.975
 6578SOL     OW20632   0.934   6.071   3.014
 6578SOL    HW120633   0.895   5.981   3.034
 6578SOL    HW220634   0.877   6.118   2.947
 6579SOL     OW20635   0.145   3.240   4.157
 6579SOL    HW120636   0.237   3.274   4.177
 6579SOL    HW220637   0.145   3.196   4.067
 6580SOL     OW20638   1.020   1.476   0.946
 6580SOL    HW120639   0.932   1.433   0.927
 6580SOL    HW220640   1.089   1.404   0.961
 6581SOL     OW20641   2.661   0.481   0.345
 6581SOL    HW120642   2.605   0.412   0.299
 6581SOL    HW220643   2.660   0.465   0.444
 6582SOL     OW20644   0.357   1.402   2.998
 6582SOL    HW120645   0.337   1.349   3.081
 6582SOL    HW220646   0.345   1.343   2.918
 6583SOL     OW20647   4.477   0.378   5.703
 6583SOL    HW120648   4.492   0.470   5.665
 6583SOL    HW220649   4.481   0.311   5.629
 6584SOL     OW20650   4.422   2.649   0.964
 6584SOL    HW120651   4.495   2.613   1.023
 6584SOL    HW220652   4.333   2.628   1.005
 6585SOL     OW20653   6.201   6.204   0.185
 6585SOL    HW120654   6.274   6.271   0.199
 6585SOL    HW220655   6.224   6.120   0.232
 6586SOL     OW20656   5.395   0.873   5.738
 6586SOL    HW120657   5.348   0.937   5.799
 6586SOL    HW220658   5.343   0.788   5.731
 6587SOL     OW20659   2.010   5.170   5.402
 6587SOL    HW120660   1.973   5.213   5.320
 6587SOL    HW220661   1.987   5.226   5.482
 6588SOL     OW20662   0.344   2.937   2.189
 6588SOL    HW120663   0.372   2.897   2.276
 6588SOL    HW220664   0.245   2.946   2.186
 6589SOL     OW20665   4.831   0.396   1.133
 6589SOL    HW120666   4.761   0.403   1.205
 6589SOL    HW220667   4.806   0.455   1.056
 6590SOL     OW20668   0.418   1.082   6.381
 6590SOL    HW120669   0.406   0.989   6.348
 6590SOL    HW220670   0.355   1.101   6.456
 6591SOL     OW20671   6.233   5.806   2.717
 6591SOL    HW120672   6.274   5.819   2.808
 6591SOL    HW220673   6.196   5.713   2.711
 6592SOL     OW20674   4.884   0.205   3.238
 6592SOL    HW120675   4.974   0.192   3.281
 6592SOL    HW220676   4.826   0.260   3.299
 6593SOL     OW20677   1.835   2.344   2.481
 6593SOL    HW120678   1.840   2.246   2.461
 6593SOL    HW220679   1.770   2.387   2.419
 6594SOL     OW20680   3.809   1.329   6.555
 6594SOL    HW120681   3.769   1.420   6.549
 6594SOL    HW220682   3.909   1.337   6.562
 6595SOL     OW20683   1.296   4.543   6.976
 6595SOL    HW120684   1.288   4.641   6.995
 6595SOL    HW220685   1.273   4.491   0.039
 6596SOL     OW20686   3.084   0.026   4.148
 6596SOL    HW120687   3.049   7.017   4.059
 6596SOL    HW220688   3.181   0.002   4.155
 6597SOL     OW20689   1.227   5.244   1.304
 6597SOL    HW120690   1.196   5.151   1.281
 6597SOL    HW220691   1.216   5.259   1.402
 6598SOL     OW20692   1.719   5.407   4.478
 6598SOL    HW120693   1.635   5.415   4.532
 6598SOL    HW220694   1.726   5.314   4.442
 6599SOL     OW20695   4.104   6.304   6.622
 6599SOL    HW120696   4.132   6.296   6.717
 6599SOL    HW220697   4.179   6.277   6.562
 6600SOL     OW20698   4.088   5.807   5.650
 6600SOL    HW120699   4.056   5.886   5.597
 6600SOL    HW220700   4.178   5.827   5.689
 6601SOL     OW20701   1.746   2.110   4.519
 6601SOL    HW120702   1.649   2.087   4.532
 6601SOL    HW220703   1.802   2.037   4.558
 6602SOL     OW20704   1.997   1.298   2.365
 6602SOL    HW120705   1.935   1.237   2.316
 6602SOL    HW220706   2.091   1.274   2.344
 6603SOL     OW20707   6.844   2.583   3.576
 6603SOL    HW120708   6.915   2.517   3.601
 6603SOL    HW220709   6.773   2.537   3.523
 6604SOL     OW20710   0.963   0.399   1.058
 6604SOL    HW120711   0.953   0.464   1.133
 6604SOL    HW220712   0.954   0.306   1.093
 6605SOL     OW20713   5.580   5.279   1.621
 6605SOL    HW120714   5.658   5.310   1.674
 6605SOL    HW220715   5.611   5.241   1.534
 6606SOL     OW20716   1.039   5.741   2.098
 6606SOL    HW120717   1.111   5.671   2.095
 6606SOL    HW220718   0.950   5.696   2.101
 6607SOL     OW20719   1.985   3.873   2.041
 6607SOL    HW120720   2.050   3.924   1.984
 6607SOL    HW220721   1.949   3.796   1.988
 6608SOL     OW20722   6.609   5.868   0.975
 6608SOL    HW120723   6.580   5.954   0.933
 6608SOL    HW220724   6.529   5.819   1.009
 6609SOL     OW20725   4.984   0.900   6.914
 6609SOL    HW120726   5.031   0.892   7.003
 6609SOL    HW220727   4.957   0.995   6.898
 6610SOL     OW20728   2.491   6.060   0.279
 6610SOL    HW120729   2.511   6.152   0.314
 6610SOL    HW220730   2.508   6.057   0.180
 6611SOL     OW20731   4.860   2.630   3.129
 6611SOL    HW120732   4.857   2.722   3.170
 6611SOL    HW220733   4.836   2.636   3.032
 6612SOL     OW20734   6.372   2.026   6.475
 6612SOL    HW120735   6.420   1.944   6.507
 6612SOL    HW220736   6.358   2.020   6.376
 6613SOL     OW20737   6.961   6.506   5.257
 6613SOL    HW120738   0.027   6.546   5.292
 6613SOL    HW220739   6.959   6.408   5.277
 6614SOL     OW20740   4.367   5.353   6.965
 6614SOL    HW120741   4.442   5.394   6.912
 6614SOL    HW220742   4.393   5.261   6.994
 6615SOL     OW20743   1.593   5.918   0.847
 6615SOL    HW120744   1.577   5.819   0.854
 6615SOL    HW220745   1.574   5.961   0.935
 6616SOL     OW20746   4.597   0.769   6.318
 6616SOL    HW120747   4.586   0.822   6.402
 6616SOL    HW220748   4.507   0.750   6.279
 6617SOL     OW20749   4.594   5.298   3.296
 6617SOL    HW120750   4.662   5.226   3.309
 6617SOL    HW220751   4.633   5.386   3.324
 6618SOL     OW20752   1.594   2.078   2.422
 6618SOL    HW120753   1.608   2.032   2.510
 6618SOL    HW220754   1.544   2.164   2.437
 6619SOL     OW20755   5.425   0.529   4.033
 6619SOL    HW120756   5.508   0.585   4.039
 6619SOL    HW220757   5.380   0.548   3.946
 6620SOL     OW20758   1.303   2.864   5.558
 6620SOL    HW120759   1.321   2.865   5.459
 6620SOL    HW220760   1.255   2.780   5.582
 6621SOL     OW20761   3.273   3.281   6.094
 6621SOL    HW120762   3.367   3.291   6.060
 6621SOL    HW220763   3.275   3.274   6.194
 6622SOL     OW20764   5.735   6.283   2.243
 6622SOL    HW120765   5.646   6.248   2.213
 6622SOL    HW220766   5.729   6.381   2.257
 6623SOL     OW20767   3.612   3.116   5.033
 6623SOL    HW120768   3.518   3.131   5.001
 6623SOL    HW220769   3.675   3.165   4.972
 6624SOL     OW20770   0.460   4.555   6.060
 6624SOL    HW120771   0.467   4.645   6.103
 6624SOL    HW220772   0.521   4.491   6.107
 6625SOL     OW20773   5.244   2.021   5.142
 6625SOL    HW120774   5.247   2.047   5.045
 6625SOL    HW220775   5.197   1.933   5.151
 6626SOL     OW20776   3.691   5.495   5.315
 6626SOL    HW120777   3.746   5.574   5.341
 6626SOL    HW220778   3.721   5.415   5.367
 6627SOL     OW20779   2.214   6.647   5.701
 6627SOL    HW120780   2.217   6.699   5.786
 6627SOL    HW220781   2.134   6.675   5.648
 6628SOL     OW20782   5.524   5.397   4.415
 6628SOL    HW120783   5.568   5.477   4.454
 6628SOL    HW220784   5.427   5.396   4.440
 6629SOL     OW20785   4.653   6.458   6.594
 6629SOL    HW120786   4.599   6.441   6.676
 6629SOL    HW220787   4.647   6.554   6.569
 6630SOL     OW20788   3.572   1.207   1.218
 6630SOL    HW120789   3.641   1.263   1.263
 6630SOL    HW220790   3.504   1.266   1.174
 6631SOL     OW20791   2.415   5.419   3.909
 6631SOL    HW120792   2.475   5.391   3.835
 6631SOL    HW220793   2.367   5.503   3.884
 6632SOL     OW20794   0.587   0.322   1.219
 6632SOL    HW120795   0.666   0.321   1.280
 6632SOL    HW220796   0.603   0.259   1.143
 6633SOL     OW20797   1.539   4.788   6.680
 6633SOL    HW120798   1.559   4.733   6.599
 6633SOL    HW220799   1.549   4.732   6.762
 6634SOL     OW20800   4.842   1.840   5.098
 6634SOL    HW120801   4.830   1.940   5.096
 6634SOL    HW220802   4.829   1.803   5.006
 6635SOL     OW20803   4.584   4.519   2.925
 6635SOL    HW120804   4.571   4.524   3.024
 6635SOL    HW220805   4.507   4.563   2.880
 6636SOL     OW20806   4.701   1.936   6.579
 6636SOL    HW120807   4.733   1.911   6.670
 6636SOL    HW220808   4.628   2.003   6.586
 6637SOL     OW20809   0.501   0.054   0.025
 6637SOL    HW120810   0.422   0.110   0.001
 6637SOL    HW220811   0.484   0.007   0.111
 6638SOL     OW20812   2.948   3.819   2.795
 6638SOL    HW120813   2.896   3.806   2.880
 6638SOL    HW220814   3.038   3.857   2.817
 6639SOL     OW20815   5.023   4.727   6.347
 6639SOL    HW120816   5.095   4.770   6.402
 6639SOL    HW220817   5.056   4.641   6.310
 6640SOL     OW20818   0.144   1.837   4.989
 6640SOL    HW120819   0.050   1.819   4.958
 6640SOL    HW220820   0.180   1.916   4.939
 6641SOL     OW20821   2.587   1.077   6.525
 6641SOL    HW120822   2.488   1.087   6.535
 6641SOL    HW220823   2.632   1.157   6.565
 6642SOL     OW20824   1.952   6.140   6.759
 6642SOL    HW120825   1.889   6.157   6.683
 6642SOL    HW220826   1.972   6.043   6.764
 6643SOL     OW20827   5.935   5.856   0.290
 6643SOL    HW120828   5.882   5.777   0.260
 6643SOL    HW220829   5.873   5.929   0.318
 6644SOL     OW20830   2.040   5.158   1.568
 6644SOL    HW120831   2.139   5.152   1.566
 6644SOL    HW220832   2.003   5.142   1.477
 6645SOL     OW20833   6.069   4.120   0.476
 6645SOL    HW120834   6.061   4.032   0.430
 6645SOL    HW220835   6.152   4.122   0.532
 6646SOL     OW20836   4.278   0.518   4.973
 6646SOL    HW120837   4.205   0.452   4.995
 6646SOL    HW220838   4.366   0.472   4.977
 6647SOL     OW20839   5.144   0.898   1.020
 6647SOL    HW120840   5.213   0.970   1.020
 6647SOL    HW220841   5.180   0.817   1.067
 6648SOL     OW20842   3.183   6.189   3.909
 6648SOL    HW120843   3.123   6.265   3.881
 6648SOL    HW220844   3.153   6.153   3.997
 6649SOL     OW20845   5.650   1.385   6.712
 6649SOL    HW120846   5.577   1.347   6.768
 6649SOL    HW220847   5.712   1.438   6.770
 6650SOL     OW20848   3.815   1.482   5.592
 6650SOL    HW120849   3.851   1.543   5.523
 6650SOL    HW220850   3.857   1.502   5.681
 6651SOL     OW20851   2.856   0.801   5.778
 6651SOL    HW120852   2.829   0.882   5.727
 6651SOL    HW220853   2.800   0.723   5.749
 6652SOL     OW20854   0.435   4.033   6.836
 6652SOL    HW120855   0.403   3.938   6.838
 6652SOL    HW220856   0.358   4.093   6.817
 6653SOL     OW20857   4.182   3.687   1.309
 6653SOL    HW120858   4.214   3.594   1.326
 6653SOL    HW220859   4.221   3.749   1.377
 6654SOL     OW20860   1.593   5.057   0.722
 6654SOL    HW120861   1.513   5.086   0.776
 6654SOL    HW220862   1.659   5.012   0.782
 6655SOL     OW20863   0.989   6.764   3.931
 6655SOL    HW120864   1.009   6.675   3.970
 6655SOL    HW220865   0.910   6.804   3.979
 6656SOL     OW20866   4.848   2.024   4.028
 6656SOL    HW120867   4.844   1.938   4.079
 6656SOL    HW220868   4.778   2.023   3.957
 6657SOL     OW20869   5.935   4.619   5.958
 6657SOL    HW120870   5.939   4.708   5.913
 6657SOL    HW220871   6.028   4.588   5.978
 6658SOL     OW20872   6.054   0.990   4.557
 6658SOL    HW120873   5.963   0.994   4.599
 6658SOL    HW220874   6.123   1.015   4.625
 6659SOL     OW20875   2.307   3.399   6.894
 6659SOL    HW120876   2.293   3.496   6.876
 6659SOL    HW220877   2.248   3.344   6.836
 6660SOL     OW20878   1.171   5.004   1.197
 6660SOL    HW120879   1.140   4.922   1.149
 6660SOL    HW220880   1.254   4.983   1.249
 6661SOL     OW20881   1.692   0.335   5.283
 6661SOL    HW120882   1.754   0.413   5.293
 6661SOL    HW220883   1.659   0.331   5.189
 6662SOL     OW20884   1.027   0.002   0.073
 6662SOL    HW120885   0.927   0.003   0.078
 6662SOL    HW220886   1.059   0.086   0.030
 6663SOL     OW20887   6.411   5.865   4.617
 6663SOL    HW120888   6.415   5.948   4.561
 6663SOL    HW220889   6.485   5.804   4.591
 6664SOL     OW20890   2.410   6.694   0.387
 6664SOL    HW120891   2.396   6.635   0.466
 6664SOL    HW220892   2.368   6.652   0.306
 6665SOL     OW20893   1.513   6.193   4.565
 6665SOL    HW120894   1.479   6.114   4.513
 6665SOL    HW220895   1.449   6.269   4.556
 6666SOL     OW20896   6.343   6.347   6.192
 6666SOL    HW120897   6.329   6.426   6.132
 6666SOL    HW220898   6.438   6.317   6.187
 6667SOL     OW20899   6.181   6.610   6.265
 6667SOL    HW120900   6.224   6.700   6.272
 6667SOL    HW220901   6.235   6.544   6.317
 6668SOL     OW20902   6.764   5.461   0.430
 6668SOL    HW120903   6.764   5.528   0.504
 6668SOL    HW220904   6.705   5.384   0.454
 6669SOL     OW20905   2.146   2.158   2.750
 6669SOL    HW120906   2.080   2.134   2.679
 6669SOL    HW220907   2.147   2.257   2.763
 6670SOL     OW20908   3.183   1.796   5.199
 6670SOL    HW120909   3.210   1.890   5.176
 6670SOL    HW220910   3.084   1.785   5.188
 6671SOL     OW20911   5.029   6.642   0.423
 6671SOL    HW120912   5.063   6.651   0.517
 6671SOL    HW220913   4.938   6.684   0.417
 6672SOL     OW20914   6.487   2.840   6.660
 6672SOL    HW120915   6.441   2.756   6.633
 6672SOL    HW220916   6.421   2.902   6.702
 6673SOL     OW20917   4.418   4.557   4.328
 6673SOL    HW120918   4.518   4.567   4.325
 6673SOL    HW220919   4.392   4.507   4.410
 6674SOL     OW20920   0.905   3.701   6.783
 6674SOL    HW120921   0.810   3.724   6.802
 6674SOL    HW220922   0.929   3.616   6.830
 6675SOL     OW20923   5.768   3.139   0.159
 6675SOL    HW120924   5.800   3.046   0.176
 6675SOL    HW220925   5.807   3.173   0.073
 6676SOL     OW20926   1.221   4.369   5.759
 6676SOL    HW120927   1.267   4.378   5.847
 6676SOL    HW220928   1.270   4.422   5.690
 6677SOL     OW20929   1.633   1.467   6.189
 6677SOL    HW120930   1.727   1.439   6.208
 6677SOL    HW220931   1.625   1.566   6.200
 6678SOL     OW20932   3.196   3.246   6.984
 6678SOL    HW120933   3.266   3.184   7.019
 6678SOL    HW220934   3.206   3.336   0.008
 6679SOL     OW20935   3.357   1.073   3.770
 6679SOL    HW120936   3.313   0.989   3.738
 6679SOL    HW220937   3.410   1.054   3.852
 6680SOL     OW20938   5.085   6.755   6.534
 6680SOL    HW120939   5.013   6.722   6.595
 6680SOL    HW220940   5.051   6.755   6.440
 6681SOL     OW20941   3.991   5.058   1.361
 6681SOL    HW120942   3.988   5.144   1.411
 6681SOL    HW220943   3.922   5.059   1.288
 6682SOL     OW20944   1.334   4.494   1.605
 6682SOL    HW120945   1.339   4.408   1.655
 6682SOL    HW220946   1.238   4.520   1.594
 6683SOL     OW20947   5.946   3.800   5.071
 6683SOL    HW120948   5.984   3.766   5.157
 6683SOL    HW220949   5.846   3.803   5.079
 6684SOL     OW20950   2.874   7.006   1.690
 6684SOL    HW120951   2.854   0.066   1.632
 6684SOL    HW220952   2.972   7.002   1.708
 6685SOL     OW20953   5.836   2.527   5.664
 6685SOL    HW120954   5.912   2.567   5.614
 6685SOL    HW220955   5.776   2.600   5.697
 6686SOL     OW20956   4.831   6.230   3.890
 6686SOL    HW120957   4.892   6.259   3.964
 6686SOL    HW220958   4.884   6.188   3.817
 6687SOL     OW20959   1.199   3.280   0.947
 6687SOL    HW120960   1.287   3.280   0.995
 6687SOL    HW220961   1.172   3.185   0.929
 6688SOL     OW20962   6.167   4.840   2.637
 6688SOL    HW120963   6.207   4.749   2.622
 6688SOL    HW220964   6.109   4.838   2.718
 6689SOL     OW20965   3.795   3.375   6.593
 6689SOL    HW120966   3.702   3.355   6.627
 6689SOL    HW220967   3.833   3.293   6.551
 6690SOL     OW20968   0.884   1.061   1.057
 6690SOL    HW120969   0.955   1.051   0.987
 6690SOL    HW220970   0.864   1.158   1.071
 6691SOL     OW20971   2.742   6.476   2.633
 6691SOL    HW120972   2.757   6.479   2.534
 6691SOL    HW220973   2.647   6.502   2.652
 6692SOL     OW20974   3.408   3.141   4.154
 6692SOL    HW120975   3.379   3.221   4.206
 6692SOL    HW220976   3.371   3.058   4.197
 6693SOL     OW20977   3.639   2.725   5.508
 6693SOL    HW120978   3.607   2.814   5.541
 6693SOL    HW220979   3.718   2.738   5.448
 6694SOL     OW20980   4.279   5.246   1.095
 6694SOL    HW120981   4.312   5.338   1.118
 6694SOL    HW220982   4.342   5.178   1.133
 6695SOL     OW20983   3.041   2.161   0.018
 6695SOL    HW120984   3.006   2.229   0.083
 6695SOL    HW220985   2.966   2.129   6.979
 6696SOL     OW20986   2.949   3.089   5.203
 6696SOL    HW120987   2.965   3.104   5.105
 6696SOL    HW220988   2.976   2.996   5.227
 6697SOL     OW20989   4.868   2.137   2.527
 6697SOL    HW120990   4.820   2.058   2.566
 6697SOL    HW220991   4.875   2.126   2.428
 6698SOL     OW20992   3.022   2.244   0.646
 6698SOL    HW120993   2.939   2.243   0.590
 6698SOL    HW220994   3.035   2.337   0.682
 6699SOL     OW20995   2.424   5.654   5.292
 6699SOL    HW120996   2.480   5.699   5.222
 6699SOL    HW220997   2.331   5.642   5.257
 6700SOL     OW20998   0.845   0.937   1.451
 6700SOL    HW120999   0.835   1.034   1.474
 6700SOL    HW221000   0.872   0.928   1.356
 6701SOL     OW21001   5.933   4.719   2.454
 6701SOL    HW121002   6.027   4.737   2.483
 6701SOL    HW221003   5.900   4.795   2.399
 6702SOL     OW21004   3.206   2.305   1.753
 6702SOL    HW121005   3.261   2.383   1.724
 6702SOL    HW221006   3.117   2.337   1.785
 6703SOL     OW21007   6.412   1.418   6.999
 6703SOL    HW121008   6.422   1.494   0.044
 6703SOL    HW221009   6.501   1.396   6.958
 6704SOL     OW21010   3.726   1.744   3.713
 6704SOL    HW121011   3.821   1.774   3.713
 6704SOL    HW221012   3.677   1.789   3.787
 6705SOL     OW21013   6.683   3.766   1.594
 6705SOL    HW121014   6.617   3.841   1.589
 6705SOL    HW221015   6.684   3.730   1.687
 6706SOL     OW21016   1.085   4.548   1.568
 6706SOL    HW121017   1.020   4.479   1.599
 6706SOL    HW221018   1.036   4.621   1.521
 6707SOL     OW21019   6.413   6.320   3.674
 6707SOL    HW121020   6.320   6.306   3.706
 6707SOL    HW221021   6.477   6.293   3.746
 6708SOL     OW21022   0.121   4.938   0.528
 6708SOL    HW121023   0.090   4.897   0.613
 6708SOL    HW221024   0.213   4.976   0.541
 6709SOL     OW21025   2.543   6.111   2.890
 6709SOL    HW121026   2.595   6.027   2.901
 6709SOL    HW221027   2.579   6.163   2.813
 6710SOL     OW21028   3.521   1.764   6.021
 6710SOL    HW121029   3.541   1.743   6.116
 6710SOL    HW221030   3.561   1.852   5.997
 6711SOL     OW21031   4.539   6.022   5.700
 6711SOL    HW121032   4.526   5.928   5.668
 6711SOL    HW221033   4.600   6.070   5.638
 6712SOL     OW21034   5.432   4.163   0.741
 6712SOL    HW121035   5.400   4.137   0.650
 6712SOL    HW221036   5.407   4.092   0.807
 6713SOL     OW21037   2.183   0.240   2.481
 6713SOL    HW121038   2.273   0.263   2.517
 6713SOL    HW221039   2.192   0.167   2.413
 6714SOL     OW21040   6.873   0.799   5.874
 6714SOL    HW121041   6.845   0.865   5.804
 6714SOL    HW221042   6.972   0.806   5.889
 6715SOL     OW21043   0.351   0.188   0.281
 6715SOL    HW121044   0.393   0.097   0.287
 6715SOL    HW221045   0.300   0.194   0.195
 6716SOL     OW21046   0.187   5.782   2.132
 6716SOL    HW121047   0.158   5.783   2.037
 6716SOL    HW221048   0.108   5.799   2.191
 6717SOL     OW21049   3.952   2.422   6.428
 6717SOL    HW121050   3.857   2.405   6.404
 6717SOL    HW221051   3.978   2.365   6.506
 6718SOL     OW21052   6.275   1.096   1.057
 6718SOL    HW121053   6.304   1.008   1.021
 6718SOL    HW221054   6.229   1.083   1.145
 6719SOL     OW21055   2.407   6.461   6.211
 6719SOL    HW121056   2.323   6.446   6.264
 6719SOL    HW221057   2.464   6.530   6.256
 6720SOL     OW21058   1.814   0.578   4.456
 6720SOL    HW121059   1.896   0.557   4.509
 6720SOL    HW221060   1.839   0.635   4.378
 6721SOL     OW21061   6.570   6.981   0.519
 6721SOL    HW121062   6.473   6.993   0.538
 6721SOL    HW221063   6.611   6.925   0.591
 6722SOL     OW21064   0.067   2.950   2.078
 6722SOL    HW121065   0.003   2.963   2.153
 6722SOL    HW221066   0.039   2.871   2.023
 6723SOL     OW21067   1.913   6.557   3.385
 6723SOL    HW121068   1.947   6.621   3.316
 6723SOL    HW221069   1.974   6.556   3.464
 6724SOL     OW21070   1.967   3.252   6.185
 6724SOL    HW121071   1.891   3.253   6.251
 6724SOL    HW221072   2.048   3.212   6.228
 6725SOL     OW21073   0.231   3.372   1.772
 6725SOL    HW121074   0.296   3.434   1.815
 6725SOL    HW221075   0.196   3.307   1.840
 6726SOL     OW21076   0.610   2.520   5.357
 6726SOL    HW121077   0.517   2.497   5.385
 6726SOL    HW221078   0.642   2.454   5.290
 6727SOL     OW21079   0.172   4.765   5.299
 6727SOL    HW121080   0.074   4.749   5.295
 6727SOL    HW221081   0.198   4.796   5.390
 6728SOL     OW21082   3.567   2.001   2.324
 6728SOL    HW121083   3.657   2.042   2.341
 6728SOL    HW221084   3.550   1.999   2.225
 6729SOL     OW21085   6.842   0.975   2.733
 6729SOL    HW121086   6.863   0.987   2.830
 6729SOL    HW221087   6.754   0.927   2.724
 6730SOL     OW21088   2.115   6.903   1.184
 6730SOL    HW121089   2.133   6.858   1.097
 6730SOL    HW221090   2.175   6.864   1.255
 6731SOL     OW21091   0.694   6.385   1.120
 6731SOL    HW121092   0.723   6.336   1.202
 6731SOL    HW221093   0.632   6.326   1.067
 6732SOL     OW21094   5.646   4.982   4.682
 6732SOL    HW121095   5.567   5.040   4.698
 6732SOL    HW221096   5.668   4.982   4.584
 6733SOL     OW21097   3.777   5.278   6.806
 6733SOL    HW121098   3.864   5.322   6.828
 6733SOL    HW221099   3.702   5.342   6.822
 6734SOL     OW21100   5.950   2.648   4.226
 6734SOL    HW121101   5.859   2.689   4.218
 6734SOL    HW221102   6.016   2.718   4.253
 6735SOL     OW21103   6.610   4.087   5.151
 6735SOL    HW121104   6.636   4.160   5.089
 6735SOL    HW221105   6.691   4.036   5.179
 6736SOL     OW21106   3.462   3.730   0.324
 6736SOL    HW121107   3.455   3.785   0.240
 6736SOL    HW221108   3.397   3.765   0.391
 6737SOL     OW21109   1.335   2.471   0.800
 6737SOL    HW121110   1.235   2.469   0.800
 6737SOL    HW221111   1.367   2.499   0.891
 6738SOL     OW21112   1.598   6.036   2.965
 6738SOL    HW121113   1.522   5.989   2.920
 6738SOL    HW221114   1.679   6.029   2.908
 6739SOL     OW21115   3.986   6.107   4.863
 6739SOL    HW121116   3.978   6.046   4.784
 6739SOL    HW221117   3.957   6.058   4.945
 6740SOL     OW21118   1.210   0.365   4.654
 6740SOL    HW121119   1.308   0.363   4.676
 6740SOL    HW221120   1.198   0.352   4.556
 6741SOL     OW21121   4.098   1.811   5.084
 6741SOL    HW121122   4.038   1.816   5.163
 6741SOL    HW221123   4.181   1.760   5.107
 6742SOL     OW21124   5.521   6.209   2.455
 6742SOL    HW121125   5.563   6.170   2.536
 6742SOL    HW221126   5.532   6.308   2.455
 6743SOL     OW21127   3.606   5.479   6.868
 6743SOL    HW121128   3.565   5.547   6.807
 6743SOL    HW221129   3.542   5.459   6.943
 6744SOL     OW21130   5.807   4.256   6.020
 6744SOL    HW121131   5.900   4.221   6.015
 6744SOL    HW221132   5.742   4.181   6.013
 6745SOL     OW21133   6.716   6.812   3.374
 6745SOL    HW121134   6.790   6.776   3.317
 6745SOL    HW221135   6.711   6.759   3.459
 6746SOL     OW21136   0.948   1.405   3.455
 6746SOL    HW121137   0.914   1.318   3.492
 6746SOL    HW221138   0.878   1.446   3.397
 6747SOL     OW21139   5.205   1.282   4.688
 6747SOL    HW121140   5.110   1.285   4.656
 6747SOL    HW221141   5.228   1.368   4.734
 6748SOL     OW21142   3.021   1.216   4.009
 6748SOL    HW121143   3.041   1.255   3.918
 6748SOL    HW221144   3.026   1.116   4.004
 6749SOL     OW21145   2.979   5.041   0.531
 6749SOL    HW121146   3.050   4.977   0.561
 6749SOL    HW221147   2.913   4.993   0.473
 6750SOL     OW21148   4.238   2.035   4.982
 6750SOL    HW121149   4.203   2.115   4.933
 6750SOL    HW221150   4.163   1.993   5.034
 6751SOL     OW21151   4.155   6.658   3.350
 6751SOL    HW121152   4.210   6.590   3.398
 6751SOL    HW221153   4.186   6.663   3.255
 6752SOL     OW21154   1.017   1.667   3.207
 6752SOL    HW121155   1.036   1.735   3.278
 6752SOL    HW221156   0.982   1.583   3.249
 6753SOL     OW21157   2.885   0.418   6.573
 6753SOL    HW121158   2.895   0.516   6.590
 6753SOL    HW221159   2.959   0.369   6.619
 6754SOL     OW21160   0.150   2.062   0.589
 6754SOL    HW121161   0.099   1.983   0.623
 6754SOL    HW221162   0.205   2.100   0.663
 6755SOL     OW21163   4.491   0.539   2.896
 6755SOL    HW121164   4.504   0.477   2.974
 6755SOL    HW221165   4.558   0.517   2.825
 6756SOL     OW21166   3.713   5.492   4.908
 6756SOL    HW121167   3.697   5.426   4.982
 6756SOL    HW221168   3.625   5.521   4.869
 6757SOL     OW21169   4.271   2.260   1.077
 6757SOL    HW121170   4.209   2.312   1.018
 6757SOL    HW221171   4.359   2.249   1.031
 6758SOL     OW21172   6.337   1.822   1.852
 6758SOL    HW121173   6.422   1.770   1.857
 6758SOL    HW221174   6.358   1.920   1.852
 6759SOL     OW21175   0.970   3.853   4.681
 6759SOL    HW121176   0.891   3.892   4.729
 6759SOL    HW221177   0.949   3.759   4.654
 6760SOL     OW21178   6.565   4.009   2.671
 6760SOL    HW121179   6.556   4.107   2.689
 6760SOL    HW221180   6.523   3.957   2.744
 6761SOL     OW21181   6.619   2.300   5.534
 6761SOL    HW121182   6.620   2.312   5.633
 6761SOL    HW221183   6.544   2.352   5.494
 6762SOL     OW21184   0.860   5.397   4.624
 6762SOL    HW121185   0.960   5.397   4.616
 6762SOL    HW221186   0.834   5.444   4.708
 6763SOL     OW21187   0.924   4.836   2.714
 6763SOL    HW121188   0.854   4.898   2.749
 6763SOL    HW221189   0.917   4.830   2.614
 6764SOL     OW21190   1.537   5.663   1.038
 6764SOL    HW121191   1.499   5.599   0.972
 6764SOL    HW221192   1.463   5.711   1.084
 6765SOL     OW21193   5.699   4.077   4.009
 6765SOL    HW121194   5.795   4.052   4.016
 6765SOL    HW221195   5.688   4.173   4.033
 6766SOL     OW21196   4.873   6.831   6.260
 6766SOL    HW121197   4.778   6.841   6.288
 6766SOL    HW221198   4.907   6.920   6.227
 6767SOL     OW21199   1.639   2.163   1.002
 6767SOL    HW121200   1.677   2.071   1.013
 6767SOL    HW221201   1.678   2.224   1.071
 6768SOL     OW21202   1.342   6.440   3.532
 6768SOL    HW121203   1.278   6.383   3.481
 6768SOL    HW221204   1.411   6.382   3.576
 6769SOL     OW21205   2.884   1.055   5.569
 6769SOL    HW121206   2.928   1.083   5.654
 6769SOL    HW221207   2.950   1.058   5.494
 6770SOL     OW21208   5.003   1.949   3.376
 6770SOL    HW121209   5.018   1.874   3.312
 6770SOL    HW221210   5.086   1.964   3.430
 6771SOL     OW21211   3.876   1.332   2.227
 6771SOL    HW121212   3.958   1.372   2.267
 6771SOL    HW221213   3.795   1.373   2.270
 6772SOL     OW21214   4.748   2.795   2.139
 6772SOL    HW121215   4.735   2.860   2.063
 6772SOL    HW221216   4.827   2.737   2.120
 6773SOL     OW21217   0.659   6.057   1.817
 6773SOL    HW121218   0.749   6.020   1.841
 6773SOL    HW221219   0.607   5.987   1.769
 6774SOL     OW21220   2.130   3.850   5.561
 6774SOL    HW121221   2.211   3.909   5.550
 6774SOL    HW221222   2.122   3.790   5.482
 6775SOL     OW21223   1.658   2.461   2.684
 6775SOL    HW121224   1.720   2.445   2.607
 6775SOL    HW221225   1.650   2.559   2.701
 6776SOL     OW21226   4.629   3.304   0.082
 6776SOL    HW121227   4.567   3.274   0.155
 6776SOL    HW221228   4.685   3.380   0.116
 6777SOL     OW21229   4.987   4.527   0.738
 6777SOL    HW121230   4.915   4.465   0.709
 6777SOL    HW221231   5.075   4.479   0.736
 6778SOL     OW21232   0.446   5.521   1.620
 6778SOL    HW121233   0.519   5.583   1.647
 6778SOL    HW221234   0.361   5.572   1.609
 6779SOL     OW21235   5.636   5.334   6.304
 6779SOL    HW121236   5.593   5.287   6.382
 6779SOL    HW221237   5.713   5.279   6.271
 6780SOL     OW21238   1.491   3.111   2.553
 6780SOL    HW121239   1.556   3.041   2.524
 6780SOL    HW221240   1.482   3.109   2.652
 6781SOL     OW21241   5.991   2.024   4.809
 6781SOL    HW121242   6.035   2.022   4.719
 6781SOL    HW221243   6.028   1.951   4.866
 6782SOL     OW21244   0.759   1.107   3.212
 6782SOL    HW121245   0.672   1.074   3.174
 6782SOL    HW221246   0.770   1.204   3.190
 6783SOL     OW21247   0.184   1.704   5.933
 6783SOL    HW121248   0.181   1.798   5.966
 6783SOL    HW221249   0.107   1.653   5.970
 6784SOL     OW21250   1.804   3.664   0.531
 6784SOL    HW121251   1.859   3.666   0.615
 6784SOL    HW221252   1.809   3.753   0.485
 6785SOL     OW21253   6.185   5.847   5.056
 6785SOL    HW121254   6.246   5.851   5.135
 6785SOL    HW221255   6.164   5.939   5.025
 6786SOL     OW21256   1.470   1.975   0.724
 6786SOL    HW121257   1.535   2.043   0.759
 6786SOL    HW221258   1.399   1.959   0.792
 6787SOL     OW21259   3.023   2.844   0.416
 6787SOL    HW121260   3.028   2.823   0.319
 6787SOL    HW221261   2.933   2.883   0.437
 6788SOL     OW21262   0.577   4.556   1.376
 6788SOL    HW121263   0.593   4.457   1.366
 6788SOL    HW221264   0.657   4.598   1.420
 6789SOL     OW21265   0.791   4.658   4.241
 6789SOL    HW121266   0.808   4.734   4.179
 6789SOL    HW221267   0.873   4.602   4.249
 6790SOL     OW21268   0.994   3.854   0.299
 6790SOL    HW121269   1.025   3.894   0.213
 6790SOL    HW221270   1.073   3.824   0.353
 6791SOL     OW21271   3.838   2.119   2.327
 6791SOL    HW121272   3.823   2.199   2.268
 6791SOL    HW221273   3.900   2.055   2.282
 6792SOL     OW21274   5.107   7.018   5.333
 6792SOL    HW121275   5.087   0.066   5.262
 6792SOL    HW221276   5.181   0.032   5.391
 6793SOL     OW21277   1.777   1.265   6.953
 6793SOL    HW121278   1.756   1.189   7.014
 6793SOL    HW221279   1.789   1.349   7.006
 6794SOL     OW21280   5.174   1.528   5.302
 6794SOL    HW121281   5.189   1.470   5.222
 6794SOL    HW221282   5.167   1.471   5.384
 6795SOL     OW21283   1.269   0.005   1.344
 6795SOL    HW121284   1.367   0.022   1.341
 6795SOL    HW221285   1.229   0.019   1.253
 6796SOL     OW21286   5.940   1.006   3.200
 6796SOL    HW121287   5.910   0.913   3.182
 6796SOL    HW221288   5.872   1.053   3.257
 6797SOL     OW21289   6.781   2.254   1.959
 6797SOL    HW121290   6.693   2.300   1.964
 6797SOL    HW221291   6.780   2.189   1.883
 6798SOL     OW21292   5.663   6.354   1.799
 6798SOL    HW121293   5.712   6.384   1.716
 6798SOL    HW221294   5.716   6.379   1.880
 6799SOL     OW21295   6.245   0.782   2.148
 6799SOL    HW121296   6.194   0.863   2.177
 6799SOL    HW221297   6.198   0.699   2.179
 6800SOL     OW21298   2.309   2.584   2.069
 6800SOL    HW121299   2.254   2.506   2.039
 6800SOL    HW221300   2.382   2.551   2.130
 6801SOL     OW21301   1.503   0.750   3.175
 6801SOL    HW121302   1.497   0.845   3.207
 6801SOL    HW221303   1.484   0.688   3.251
 6802SOL     OW21304   3.492   5.145   1.369
 6802SOL    HW121305   3.583   5.186   1.364
 6802SOL    HW221306   3.481   5.099   1.457
 6803SOL     OW21307   4.484   3.813   6.055
 6803SOL    HW121308   4.565   3.759   6.032
 6803SOL    HW221309   4.435   3.769   6.130
 6804SOL     OW21310   4.203   4.788   3.938
 6804SOL    HW121311   4.136   4.757   4.005
 6804SOL    HW221312   4.160   4.794   3.848
 6805SOL     OW21313   0.301   4.709   6.404
 6805SOL    HW121314   0.250   4.626   6.426
 6805SOL    HW221315   0.256   4.787   6.447
 6806SOL     OW21316   6.400   1.396   3.308
 6806SOL    HW121317   6.366   1.381   3.215
 6806SOL    HW221318   6.402   1.308   3.356
 6807SOL     OW21319   3.225   3.035   1.111
 6807SOL    HW121320   3.219   2.956   1.173
 6807SOL    HW221321   3.140   3.045   1.061
 6808SOL     OW21322   6.935   1.905   5.933
 6808SOL    HW121323   6.929   1.821   5.878
 6808SOL    HW221324   6.944   1.881   6.030
 6809SOL     OW21325   0.376   3.327   1.161
 6809SOL    HW121326   0.302   3.261   1.172
 6809SOL    HW221327   0.354   3.411   1.210
 6810SOL     OW21328   2.996   0.531   2.347
 6810SOL    HW121329   3.041   0.510   2.434
 6810SOL    HW221330   2.930   0.459   2.325
 6811SOL     OW21331   5.682   4.014   1.787
 6811SOL    HW121332   5.761   4.072   1.804
 6811SOL    HW221333   5.603   4.050   1.835
 6812SOL     OW21334   3.518   4.057   4.804
 6812SOL    HW121335   3.540   3.960   4.809
 6812SOL    HW221336   3.430   4.070   4.759
 6813SOL     OW21337   5.685   3.458   2.971
 6813SOL    HW121338   5.609   3.409   3.014
 6813SOL    HW221339   5.731   3.515   3.039
 6814SOL     OW21340   3.717   2.348   6.298
 6814SOL    HW121341   3.754   2.321   6.209
 6814SOL    HW221342   3.638   2.291   6.320
 6815SOL     OW21343   2.414   5.837   6.876
 6815SOL    HW121344   2.352   5.807   6.948
 6815SOL    HW221345   2.506   5.802   6.894
 6816SOL     OW21346   6.547   0.992   5.976
 6816SOL    HW121347   6.459   0.948   5.959
 6816SOL    HW221348   6.590   0.950   6.056
 6817SOL     OW21349   2.373   2.735   3.239
 6817SOL    HW121350   2.361   2.714   3.336
 6817SOL    HW221351   2.304   2.801   3.210
 6818SOL     OW21352   2.173   6.433   0.705
 6818SOL    HW121353   2.174   6.410   0.608
 6818SOL    HW221354   2.101   6.500   0.723
 6819SOL     OW21355   4.262   1.415   2.879
 6819SOL    HW121356   4.281   1.495   2.935
 6819SOL    HW221357   4.188   1.362   2.920
 6820SOL     OW21358   1.922   6.327   1.108
 6820SOL    HW121359   1.913   6.351   1.011
 6820SOL    HW221360   2.002   6.268   1.120
 6821SOL     OW21361   3.987   2.337   5.313
 6821SOL    HW121362   3.996   2.421   5.260
 6821SOL    HW221363   3.944   2.357   5.401
 6822SOL     OW21364   5.500   2.046   6.046
 6822SOL    HW121365   5.421   2.015   6.099
 6822SOL    HW221366   5.492   2.143   6.027
 6823SOL     OW21367   5.767   3.966   5.721
 6823SOL    HW121368   5.861   3.986   5.691
 6823SOL    HW221369   5.703   3.991   5.648
 6824SOL     OW21370   1.245   1.768   0.662
 6824SOL    HW121371   1.334   1.727   0.643
 6824SOL    HW221372   1.234   1.850   0.606
 6825SOL     OW21373   6.331   0.050   0.520
 6825SOL    HW121374   6.344   0.149   0.513
 6825SOL    HW221375   6.252   0.024   0.465
 6826SOL     OW21376   2.184   3.323   3.389
 6826SOL    HW121377   2.169   3.226   3.369
 6826SOL    HW221378   2.136   3.379   3.321
 6827SOL     OW21379   4.861   5.191   6.226
 6827SOL    HW121380   4.902   5.264   6.172
 6827SOL    HW221381   4.933   5.138   6.271
 6828SOL     OW21382   3.491   1.448   1.451
 6828SOL    HW121383   3.465   1.491   1.538
 6828SOL    HW221384   3.410   1.411   1.406
 6829SOL     OW21385   5.375   6.090   5.424
 6829SOL    HW121386   5.469   6.107   5.395
 6829SOL    HW221387   5.315   6.093   5.344
 6830SOL     OW21388   5.349   0.615   3.082
 6830SOL    HW121389   5.342   0.686   3.152
 6830SOL    HW221390   5.409   0.646   3.009
 6831SOL     OW21391   1.523   0.839   6.573
 6831SOL    HW121392   1.612   0.838   6.527
 6831SOL    HW221393   1.531   0.793   6.662
 6832SOL     OW21394   2.141   4.439   1.009
 6832SOL    HW121395   2.226   4.390   0.992
 6832SOL    HW221396   2.108   4.480   0.924
 6833SOL     OW21397   2.877   4.595   0.138
 6833SOL    HW121398   2.945   4.610   0.066
 6833SOL    HW221399   2.905   4.643   0.221
 6834SOL     OW21400   6.030   0.773   0.435
 6834SOL    HW121401   6.091   0.736   0.505
 6834SOL    HW221402   6.031   0.873   0.439
 6835SOL     OW21403   4.159   0.911   4.689
 6835SOL    HW121404   4.119   0.835   4.638
 6835SOL    HW221405   4.215   0.876   4.764
 6836SOL     OW21406   3.326   4.356   0.280
 6836SOL    HW121407   3.254   4.406   0.232
 6836SOL    HW221408   3.286   4.301   0.353
 6837SOL     OW21409   0.799   2.193   3.038
 6837SOL    HW121410   0.868   2.166   3.106
 6837SOL    HW221411   0.841   2.195   2.947
 6838SOL     OW21412   3.718   6.128   6.728
 6838SOL    HW121413   3.673   6.039   6.717
 6838SOL    HW221414   3.777   6.145   6.650
 6839SOL     OW21415   5.281   1.088   5.847
 6839SOL    HW121416   5.203   1.150   5.854
 6839SOL    HW221417   5.357   1.135   5.804
 6840SOL     OW21418   3.366   7.010   4.153
 6840SOL    HW121419   3.395   7.000   4.057
 6840SOL    HW221420   3.438   6.976   4.213
 6841SOL     OW21421   3.555   4.329   0.503
 6841SOL    HW121422   3.617   4.393   0.547
 6841SOL    HW221423   3.513   4.372   0.424
 6842SOL     OW21424   2.375   3.689   0.792
 6842SOL    HW121425   2.362   3.607   0.736
 6842SOL    HW221426   2.316   3.684   0.873
 6843SOL     OW21427   6.046   6.898   2.059
 6843SOL    HW121428   6.062   6.877   2.156
 6843SOL    HW221429   5.948   6.896   2.041
 6844SOL     OW21430   5.143   7.006   3.568
 6844SOL    HW121431   5.055   6.997   3.614
 6844SOL    HW221432   5.213   0.013   3.634
 6845SOL     OW21433   6.147   5.401   3.183
 6845SOL    HW121434   6.143   5.484   3.128
 6845SOL    HW221435   6.087   5.332   3.143
 6846SOL     OW21436   4.109   3.038   0.771
 6846SOL    HW121437   4.206   3.061   0.760
 6846SOL    HW221438   4.054   3.098   0.713
 6847SOL     OW21439   0.108   4.722   3.580
 6847SOL    HW121440   0.189   4.667   3.601
 6847SOL    HW221441   0.027   4.663   3.582
 6848SOL     OW21442   3.745   6.490   3.845
 6848SOL    HW121443   3.678   6.427   3.884
 6848SOL    HW221444   3.776   6.554   3.915
 6849SOL     OW21445   3.725   5.257   5.441
 6849SOL    HW121446   3.629   5.244   5.416
 6849SOL    HW221447   3.771   5.169   5.445
 6850SOL     OW21448   6.185   3.785   2.495
 6850SOL    HW121449   6.282   3.792   2.519
 6850SOL    HW221450   6.171   3.821   2.403
 6851SOL     OW21451   0.794   3.227   3.676
 6851SOL    HW121452   0.824   3.261   3.587
 6851SOL    HW221453   0.817   3.129   3.683
 6852SOL     OW21454   2.267   5.166   0.581
 6852SOL    HW121455   2.337   5.095   0.568
 6852SOL    HW221456   2.196   5.154   0.512
 6853SOL     OW21457   6.759   3.838   0.675
 6853SOL    HW121458   6.718   3.797   0.594
 6853SOL    HW221459   6.715   3.801   0.757
 6854SOL     OW21460   4.713   1.577   6.483
 6854SOL    HW121461   4.751   1.668   6.464
 6854SOL    HW221462   4.647   1.584   6.558
 6855SOL     OW21463   3.267   5.683   3.206
 6855SOL    HW121464   3.201   5.611   3.186
 6855SOL    HW221465   3.285   5.686   3.304
 6856SOL     OW21466   5.360   3.670   5.496
 6856SOL    HW121467   5.363   3.591   5.434
 6856SOL    HW221468   5.275   3.720   5.482
 6857SOL     OW21469   2.536   2.307   0.013
 6857SOL    HW121470   2.491   2.237   0.068
 6857SOL    HW221471   2.497   2.308   6.940
 6858SOL     OW21472   3.725   3.764   3.887
 6858SOL    HW121473   3.642   3.731   3.840
 6858SOL    HW221474   3.787   3.688   3.902
 6859SOL     OW21475   0.542   0.823   0.810
 6859SOL    HW121476   0.448   0.855   0.803
 6859SOL    HW221477   0.542   0.725   0.831
 6860SOL     OW21478   6.626   5.244   0.907
 6860SOL    HW121479   6.719   5.206   0.908
 6860SOL    HW221480   6.620   5.320   0.972
 6861SOL     OW21481   4.589   4.723   0.344
 6861SOL    HW121482   4.659   4.780   0.386
 6861SOL    HW221483   4.606   4.627   0.365
 6862SOL     OW21484   1.758   4.461   5.452
 6862SOL    HW121485   1.854   4.473   5.478
 6862SOL    HW221486   1.752   4.398   5.375
 6863SOL     OW21487   5.410   0.290   5.873
 6863SOL    HW121488   5.405   0.376   5.924
 6863SOL    HW221489   5.503   0.276   5.840
 6864SOL     OW21490   3.122   5.871   3.766
 6864SOL    HW121491   3.187   5.924   3.712
 6864SOL    HW221492   3.159   5.858   3.858
 6865SOL     OW21493   0.894   5.799   3.048
 6865SOL    HW121494   0.948   5.814   3.131
 6865SOL    HW221495   0.935   5.725   2.995
 6866SOL     OW21496   6.188   5.072   3.038
 6866SOL    HW121497   6.228   4.984   3.014
 6866SOL    HW221498   6.258   5.130   3.080
 6867SOL     OW21499   2.360   4.941   1.527
 6867SOL    HW121500   2.409   5.001   1.590
 6867SOL    HW221501   2.322   4.995   1.452
 6868SOL     OW21502   0.909   5.526   6.172
 6868SOL    HW121503   0.893   5.444   6.117
 6868SOL    HW221504   0.963   5.592   6.120
 6869SOL     OW21505   5.266   1.245   5.574
 6869SOL    HW121506   5.312   1.331   5.598
 6869SOL    HW221507   5.323   1.194   5.511
 6870SOL     OW21508   6.826   4.959   2.240
 6870SOL    HW121509   6.806   4.973   2.143
 6870SOL    HW221510   6.906   5.014   2.266
 6871SOL     OW21511   6.480   4.509   3.502
 6871SOL    HW121512   6.411   4.517   3.430
 6871SOL    HW221513   6.448   4.445   3.572
 6872SOL     OW21514   0.400   2.828   1.325
 6872SOL    HW121515   0.345   2.835   1.408
 6872SOL    HW221516   0.444   2.917   1.307
 6873SOL     OW21517   7.015   3.626   5.157
 6873SOL    HW121518   0.008   3.545   5.099
 6873SOL    HW221519   6.994   3.705   5.101
 6874SOL     OW21520   0.480   6.144   2.004
 6874SOL    HW121521   0.454   6.055   2.041
 6874SOL    HW221522   0.554   6.133   1.938
 6875SOL     OW21523   2.235   2.379   3.221
 6875SOL    HW121524   2.147   2.382   3.267
 6875SOL    HW221525   2.278   2.290   3.237
 6876SOL     OW21526   3.743   6.585   3.587
 6876SOL    HW121527   3.831   6.613   3.549
 6876SOL    HW221528   3.753   6.568   3.685
 6877SOL     OW21529   2.436   3.917   1.169
 6877SOL    HW121530   2.352   3.885   1.213
 6877SOL    HW221531   2.413   3.973   1.090
 6878SOL     OW21532   3.165   1.290   5.469
 6878SOL    HW121533   3.204   1.238   5.393
 6878SOL    HW221534   3.082   1.337   5.438
 6879SOL     OW21535   0.841   2.050   0.536
 6879SOL    HW121536   0.901   2.067   0.614
 6879SOL    HW221537   0.771   1.984   0.562
 6880SOL     OW21538   1.806   4.541   5.047
 6880SOL    HW121539   1.873   4.554   5.121
 6880SOL    HW221540   1.714   4.554   5.084
 6881SOL     OW21541   1.148   3.982   1.580
 6881SOL    HW121542   1.226   4.033   1.616
 6881SOL    HW221543   1.180   3.902   1.530
 6882SOL     OW21544   3.108   0.411   6.758
 6882SOL    HW121545   3.067   0.460   6.835
 6882SOL    HW221546   3.115   0.314   6.779
 6883SOL     OW21547   4.425   1.028   0.708
 6883SOL    HW121548   4.455   1.099   0.773
 6883SOL    HW221549   4.504   0.997   0.655
 6884SOL     OW21550   2.540   4.527   4.386
 6884SOL    HW121551   2.520   4.614   4.432
 6884SOL    HW221552   2.459   4.469   4.387
 6885SOL     OW21553   3.905   5.069   3.951
 6885SOL    HW121554   3.889   5.164   3.924
 6885SOL    HW221555   3.989   5.062   4.004
 6886SOL     OW21556   6.640   0.548   4.765
 6886SOL    HW121557   6.711   0.536   4.696
 6886SOL    HW221558   6.566   0.482   4.749
 6887SOL     OW21559   5.396   5.622   6.258
 6887SOL    HW121560   5.360   5.715   6.255
 6887SOL    HW221561   5.495   5.624   6.251
 6888SOL     OW21562   5.440   6.212   6.923
 6888SOL    HW121563   5.444   6.250   7.015
 6888SOL    HW221564   5.473   6.118   6.925
 6889SOL     OW21565   1.605   2.089   5.155
 6889SOL    HW121566   1.568   2.182   5.158
 6889SOL    HW221567   1.678   2.084   5.088
 6890SOL     OW21568   3.894   6.359   1.272
 6890SOL    HW121569   3.903   6.422   1.350
 6890SOL    HW221570   3.972   6.297   1.271
 6891SOL     OW21571   2.285   4.463   3.430
 6891SOL    HW121572   2.187   4.445   3.422
 6891SOL    HW221573   2.324   4.476   3.338
 6892SOL     OW21574   3.073   2.213   3.570
 6892SOL    HW121575   3.101   2.189   3.663
 6892SOL    HW221576   2.986   2.263   3.573
 6893SOL     OW21577   4.316   4.113   0.043
 6893SOL    HW121578   4.391   4.082   7.004
 6893SOL    HW221579   4.230   4.075   0.009
 6894SOL     OW21580   6.196   4.876   0.527
 6894SOL    HW121581   6.168   4.803   0.590
 6894SOL    HW221582   6.260   4.840   0.460
 6895SOL     OW21583   2.565   5.202   0.109
 6895SOL    HW121584   2.537   5.246   0.023
 6895SOL    HW221585   2.665   5.205   0.116
 6896SOL     OW21586   2.144   6.872   3.493
 6896SOL    HW121587   2.193   6.802   3.546
 6896SOL    HW221588   2.048   6.844   3.483
 6897SOL     OW21589   4.153   4.032   5.920
 6897SOL    HW121590   4.109   3.988   5.998
 6897SOL    HW221591   4.222   3.971   5.881
 6898SOL     OW21592   4.099   1.558   1.704
 6898SOL    HW121593   4.085   1.498   1.625
 6898SOL    HW221594   4.010   1.588   1.739
 6899SOL     OW21595   5.471   6.801   1.212
 6899SOL    HW121596   5.411   6.807   1.292
 6899SOL    HW221597   5.550   6.744   1.233
 6900SOL     OW21598   6.663   6.680   5.777
 6900SOL    HW121599   6.694   6.622   5.852
 6900SOL    HW221600   6.697   6.645   5.690
 6901SOL     OW21601   0.094   5.976   6.245
 6901SOL    HW121602   0.174   6.033   6.261
 6901SOL    HW221603   0.123   5.881   6.233
 6902SOL     OW21604   5.781   6.275   6.691
 6902SOL    HW121605   5.745   6.282   6.598
 6902SOL    HW221606   5.777   6.180   6.721
 6903SOL     OW21607   3.292   5.519   4.177
 6903SOL    HW121608   3.285   5.458   4.098
 6903SOL    HW221609   3.253   5.475   4.258
 6904SOL     OW21610   5.893   0.710   4.697
 6904SOL    HW121611   5.952   0.644   4.651
 6904SOL    HW221612   5.804   0.712   4.651
 6905SOL     OW21613   5.939   6.665   6.138
 6905SOL    HW121614   5.900   6.574   6.123
 6905SOL    HW221615   6.037   6.657   6.154
 6906SOL     OW21616   4.895   1.369   3.677
 6906SOL    HW121617   4.992   1.355   3.698
 6906SOL    HW221618   4.882   1.460   3.638
 6907SOL     OW21619   5.496   2.827   1.292
 6907SOL    HW121620   5.448   2.815   1.379
 6907SOL    HW221621   5.591   2.852   1.309
 6908SOL     OW21622   0.542   5.337   6.150
 6908SOL    HW121623   0.529   5.400   6.226
 6908SOL    HW221624   0.598   5.380   6.080
 6909SOL     OW21625   6.114   4.575   1.333
 6909SOL    HW121626   6.207   4.558   1.366
 6909SOL    HW221627   6.116   4.643   1.260
 6910SOL     OW21628   6.708   2.136   3.578
 6910SOL    HW121629   6.621   2.122   3.530
 6910SOL    HW221630   6.691   2.168   3.671
 6911SOL     OW21631   4.329   6.089   3.985
 6911SOL    HW121632   4.427   6.070   3.988
 6911SOL    HW221633   4.289   6.044   3.905
 6912SOL     OW21634   3.347   4.874   0.445
 6912SOL    HW121635   3.306   4.867   0.536
 6912SOL    HW221636   3.377   4.783   0.414
 6913SOL     OW21637   4.646   5.125   4.624
 6913SOL    HW121638   4.551   5.102   4.605
 6913SOL    HW221639   4.670   5.210   4.578
 6914SOL     OW21640   6.188   3.948   5.441
 6914SOL    HW121641   6.283   3.928   5.466
 6914SOL    HW221642   6.186   4.010   5.363
 6915SOL     OW21643   6.125   3.430   1.601
 6915SOL    HW121644   6.029   3.458   1.589
 6915SOL    HW221645   6.131   3.359   1.671
 6916SOL     OW21646   6.982   2.889   0.030
 6916SOL    HW121647   6.991   2.956   6.975
 6916SOL    HW221648   6.994   2.797   7.013
 6917SOL     OW21649   2.708   5.823   1.477
 6917SOL    HW121650   2.621   5.774   1.475
 6917SOL    HW221651   2.692   5.920   1.493
 6918SOL     OW21652   6.942   3.167   4.608
 6918SOL    HW121653   6.859   3.223   4.619
 6918SOL    HW221654   6.965   3.162   4.511
 6919SOL     OW21655   0.193   6.276   2.616
 6919SOL    HW121656   0.122   6.279   2.545
 6919SOL    HW221657   0.283   6.273   2.574
 6920SOL     OW21658   4.466   5.327   5.443
 6920SOL    HW121659   4.564   5.306   5.446
 6920SOL    HW221660   4.423   5.301   5.529
 6921SOL     OW21661   5.238   5.605   3.265
 6921SOL    HW121662   5.151   5.641   3.235
 6921SOL    HW221663   5.248   5.619   3.364
 6922SOL     OW21664   2.214   5.723   5.652
 6922SOL    HW121665   2.294   5.769   5.614
 6922SOL    HW221666   2.235   5.626   5.667
 6923SOL     OW21667   4.696   5.598   3.210
 6923SOL    HW121668   4.734   5.554   3.291
 6923SOL    HW221669   4.596   5.601   3.218
 6924SOL     OW21670   2.647   4.039   6.347
 6924SOL    HW121671   2.637   4.121   6.403
 6924SOL    HW221672   2.669   3.961   6.405
 6925SOL     OW21673   4.410   6.060   4.679
 6925SOL    HW121674   4.350   6.053   4.599
 6925SOL    HW221675   4.366   6.017   4.758
 6926SOL     OW21676   3.329   2.772   0.934
 6926SOL    HW121677   3.367   2.769   0.841
 6926SOL    HW221678   3.393   2.728   0.997
 6927SOL     OW21679   4.867   2.591   6.272
 6927SOL    HW121680   4.844   2.622   6.364
 6927SOL    HW221681   4.827   2.501   6.256
 6928SOL     OW21682   5.915   6.130   0.832
 6928SOL    HW121683   5.880   6.103   0.742
 6928SOL    HW221684   5.974   6.210   0.822
 6929SOL     OW21685   5.709   5.337   1.005
 6929SOL    HW121686   5.678   5.251   0.966
 6929SOL    HW221687   5.642   5.369   1.072
 6930SOL     OW21688   0.201   6.575   2.607
 6930SOL    HW121689   0.229   6.486   2.642
 6930SOL    HW221690   0.218   6.580   2.509
 6931SOL     OW21691   2.210   0.622   2.044
 6931SOL    HW121692   2.181   0.705   1.996
 6931SOL    HW221693   2.139   0.595   2.109
 6932SOL     OW21694   4.298   6.774   0.534
 6932SOL    HW121695   4.237   6.729   0.470
 6932SOL    HW221696   4.271   6.753   0.628
 6933SOL     OW21697   2.818   6.526   4.347
 6933SOL    HW121698   2.801   6.602   4.409
 6933SOL    HW221699   2.916   6.513   4.335
 6934SOL     OW21700   5.094   3.708   6.012
 6934SOL    HW121701   5.063   3.623   6.055
 6934SOL    HW221702   5.033   3.730   5.935
 6935SOL     OW21703   4.213   4.722   3.480
 6935SOL    HW121704   4.230   4.703   3.383
 6935SOL    HW221705   4.297   4.754   3.523
 6936SOL     OW21706   6.273   2.044   4.015
 6936SOL    HW121707   6.277   2.127   3.960
 6936SOL    HW221708   6.351   2.041   4.077
 6937SOL     OW21709   0.183   6.356   0.162
 6937SOL    HW121710   0.275   6.377   0.198
 6937SOL    HW221711   0.176   6.258   0.145
 6938SOL     OW21712   5.549   3.664   5.684
 6938SOL    HW121713   5.517   3.672   5.778
 6938SOL    HW221714   5.474   3.680   5.621
 6939SOL     OW21715   0.830   4.858   2.086
 6939SOL    HW121716   0.738   4.891   2.109
 6939SOL    HW221717   0.898   4.914   2.132
 6940SOL     OW21718   4.412   1.063   0.054
 6940SOL    HW121719   4.389   0.966   0.048
 6940SOL    HW221720   4.466   1.090   6.994
 6941SOL     OW21721   3.458   3.477   1.656
 6941SOL    HW121722   3.500   3.493   1.745
 6941SOL    HW221723   3.497   3.539   1.588
 6942SOL     OW21724   4.955   0.478   1.469
 6942SOL    HW121725   5.053   0.495   1.454
 6942SOL    HW221726   4.902   0.550   1.423
 6943SOL     OW21727   4.450   6.399   0.246
 6943SOL    HW121728   4.539   6.433   0.214
 6943SOL    HW221729   4.403   6.354   0.170
 6944SOL     OW21730   0.640   3.997   6.650
 6944SOL    HW121731   0.606   3.994   6.557
 6944SOL    HW221732   0.565   3.984   6.714
 6945SOL     OW21733   6.396   1.534   6.171
 6945SOL    HW121734   6.424   1.440   6.193
 6945SOL    HW221735   6.299   1.534   6.144
 6946SOL     OW21736   5.587   6.168   1.215
 6946SOL    HW121737   5.560   6.176   1.120
 6946SOL    HW221738   5.518   6.213   1.273
 6947SOL     OW21739   3.882   6.172   6.514
 6947SOL    HW121740   3.961   6.187   6.574
 6947SOL    HW221741   3.912   6.172   6.419
 6948SOL     OW21742   6.797   0.530   0.545
 6948SOL    HW121743   6.779   0.571   0.456
 6948SOL    HW221744   6.734   0.453   0.560
 6949SOL     OW21745   5.079   6.744   2.589
 6949SOL    HW121746   4.983   6.771   2.595
 6949SOL    HW221747   5.085   6.651   2.552
 6950SOL     OW21748   2.082   1.643   4.574
 6950SOL    HW121749   2.072   1.680   4.481
 6950SOL    HW221750   1.995   1.601   4.603
 6951SOL     OW21751   6.752   6.006   5.691
 6951SOL    HW121752   6.697   6.088   5.703
 6951SOL    HW221753   6.706   5.943   5.628
 6952SOL     OW21754   0.598   6.270   3.551
 6952SOL    HW121755   0.580   6.315   3.463
 6952SOL    HW221756   0.514   6.228   3.584
 6953SOL     OW21757   4.696   6.501   0.242
 6953SOL    HW121758   4.776   6.485   0.185
 6953SOL    HW221759   4.707   6.587   0.291
 6954SOL     OW21760   0.456   3.579   3.374
 6954SOL    HW121761   0.409   3.497   3.405
 6954SOL    HW221762   0.533   3.598   3.435
 6955SOL     OW21763   6.169   0.064   2.434
 6955SOL    HW121764   6.172   0.076   2.533
 6955SOL    HW221765   6.139   6.990   2.413
 6956SOL     OW21766   5.252   5.356   3.521
 6956SOL    HW121767   5.268   5.258   3.513
 6956SOL    HW221768   5.169   5.381   3.472
 6957SOL     OW21769   6.780   4.982   0.644
 6957SOL    HW121770   6.796   4.925   0.564
 6957SOL    HW221771   6.866   4.993   0.695
 6958SOL     OW21772   2.995   3.202   4.459
 6958SOL    HW121773   3.088   3.214   4.492
 6958SOL    HW221774   2.996   3.161   4.368
 6959SOL     OW21775   2.127   1.765   3.915
 6959SOL    HW121776   2.157   1.698   3.847
 6959SOL    HW221777   2.199   1.833   3.929
 6960SOL     OW21778   1.993   4.812   1.653
 6960SOL    HW121779   2.093   4.804   1.649
 6960SOL    HW221780   1.968   4.899   1.695
 6961SOL     OW21781   5.649   2.126   3.528
 6961SOL    HW121782   5.551   2.146   3.521
 6961SOL    HW221783   5.686   2.107   3.437
 6962SOL     OW21784   4.798   5.866   1.714
 6962SOL    HW121785   4.790   5.767   1.700
 6962SOL    HW221786   4.714   5.911   1.685
 6963SOL     OW21787   5.228   5.906   0.927
 6963SOL    HW121788   5.143   5.885   0.975
 6963SOL    HW221789   5.208   5.958   0.844
 6964SOL     OW21790   3.473   0.502   5.153
 6964SOL    HW121791   3.421   0.580   5.118
 6964SOL    HW221792   3.514   0.452   5.076
 6965SOL     OW21793   1.090   2.794   1.750
 6965SOL    HW121794   1.026   2.731   1.793
 6965SOL    HW221795   1.180   2.752   1.745
 6966SOL     OW21796   0.009   2.334   2.991
 6966SOL    HW121797   0.061   2.250   2.981
 6966SOL    HW221798   0.058   2.409   2.947
 6967SOL     OW21799   2.351   6.842   5.231
 6967SOL    HW121800   2.397   6.816   5.146
 6967SOL    HW221801   2.329   6.759   5.282
 6968SOL     OW21802   4.587   6.671   2.508
 6968SOL    HW121803   4.661   6.720   2.554
 6968SOL    HW221804   4.575   6.581   2.550
 6969SOL     OW21805   2.882   2.417   1.027
 6969SOL    HW121806   2.856   2.393   1.120
 6969SOL    HW221807   2.978   2.443   1.024
 6970SOL     OW21808   3.661   4.006   6.411
 6970SOL    HW121809   3.597   4.066   6.459
 6970SOL    HW221810   3.635   3.911   6.427
 6971SOL     OW21811   6.378   4.172   2.389
 6971SOL    HW121812   6.336   4.137   2.473
 6971SOL    HW221813   6.322   4.148   2.310
 6972SOL     OW21814   4.782   3.971   3.448
 6972SOL    HW121815   4.764   3.904   3.375
 6972SOL    HW221816   4.836   3.927   3.520
 6973SOL     OW21817   0.554   2.969   4.677
 6973SOL    HW121818   0.483   2.913   4.635
 6973SOL    HW221819   0.568   3.052   4.622
 6974SOL     OW21820   3.456   4.084   2.630
 6974SOL    HW121821   3.383   4.133   2.678
 6974SOL    HW221822   3.521   4.047   2.696
 6975SOL     OW21823   2.403   6.464   5.939
 6975SOL    HW121824   2.388   6.444   6.036
 6975SOL    HW221825   2.319   6.450   5.888
 6976SOL     OW21826   5.150   5.525   4.299
 6976SOL    HW121827   5.078   5.592   4.280
 6976SOL    HW221828   5.195   5.549   4.385
 6977SOL     OW21829   4.042   2.704   1.670
 6977SOL    HW121830   4.029   2.701   1.570
 6977SOL    HW221831   4.133   2.738   1.691
 6978SOL     OW21832   4.994   1.506   2.651
 6978SOL    HW121833   4.899   1.492   2.676
 6978SOL    HW221834   5.049   1.428   2.682
 6979SOL     OW21835   1.112   3.866   1.122
 6979SOL    HW121836   1.192   3.924   1.135
 6979SOL    HW221837   1.088   3.823   1.209
 6980SOL     OW21838   1.544   0.958   3.953
 6980SOL    HW121839   1.640   0.983   3.937
 6980SOL    HW221840   1.504   0.923   3.868
 6981SOL     OW21841   3.351   2.360   5.499
 6981SOL    HW121842   3.345   2.446   5.447
 6981SOL    HW221843   3.286   2.363   5.575
 6982SOL     OW21844   1.611   0.683   4.730
 6982SOL    HW121845   1.662   0.599   4.713
 6982SOL    HW221846   1.657   0.760   4.686
 6983SOL     OW21847   3.892   2.169   3.688
 6983SOL    HW121848   3.934   2.115   3.761
 6983SOL    HW221849   3.885   2.265   3.717
 6984SOL     OW21850   2.609   1.970   3.554
 6984SOL    HW121851   2.543   1.966   3.479
 6984SOL    HW221852   2.639   2.065   3.567
 6985SOL     OW21853   5.159   4.798   1.968
 6985SOL    HW121854   5.221   4.743   2.024
 6985SOL    HW221855   5.165   4.893   1.996
 6986SOL     OW21856   1.936   6.488   5.804
 6986SOL    HW121857   1.947   6.547   5.724
 6986SOL    HW221858   1.877   6.533   5.871
 6987SOL     OW21859   5.977   1.511   5.793
 6987SOL    HW121860   5.981   1.417   5.757
 6987SOL    HW221861   6.055   1.563   5.759
 6988SOL     OW21862   0.552   0.865   5.367
 6988SOL    HW121863   0.511   0.805   5.436
 6988SOL    HW221864   0.652   0.855   5.370
 6989SOL     OW21865   0.745   3.885   2.945
 6989SOL    HW121866   0.845   3.883   2.946
 6989SOL    HW221867   0.713   3.969   2.902
 6990SOL     OW21868   4.736   2.744   1.413
 6990SOL    HW121869   4.772   2.655   1.442
 6990SOL    HW221870   4.808   2.795   1.365
 6991SOL     OW21871   3.755   4.913   3.252
 6991SOL    HW121872   3.656   4.932   3.248
 6991SOL    HW221873   3.790   4.903   3.159
 6992SOL     OW21874   5.164   6.358   6.061
 6992SOL    HW121875   5.116   6.410   6.131
 6992SOL    HW221876   5.253   6.329   6.096
 6993SOL     OW21877   5.806   0.957   2.454
 6993SOL    HW121878   5.858   1.007   2.523
 6993SOL    HW221879   5.715   0.999   2.444
 6994SOL     OW21880   0.736   2.263   4.527
 6994SOL    HW121881   0.763   2.178   4.574
 6994SOL    HW221882   0.668   2.242   4.457
 6995SOL     OW21883   6.608   4.499   6.077
 6995SOL    HW121884   6.593   4.537   5.986
 6995SOL    HW221885   6.576   4.404   6.079
 6996SOL     OW21886   1.721   6.781   6.880
 6996SOL    HW121887   1.795   6.717   6.901
 6996SOL    HW221888   1.708   6.843   6.957
 6997SOL     OW21889   0.103   6.055   4.887
 6997SOL    HW121890   0.148   6.090   4.969
 6997SOL    HW221891   0.134   5.962   4.868
 6998SOL     OW21892   2.114   0.657   1.609
 6998SOL    HW121893   2.076   0.684   1.521
 6998SOL    HW221894   2.078   0.567   1.634
 6999SOL     OW21895   2.422   2.022   6.286
 6999SOL    HW121896   2.507   2.035   6.336
 6999SOL    HW221897   2.417   2.088   6.210
 7000SOL     OW21898   5.154   6.495   0.998
 7000SOL    HW121899   5.143   6.521   0.902
 7000SOL    HW221900   5.246   6.458   1.013
 7001SOL     OW21901   1.828   2.651   5.505
 7001SOL    HW121902   1.847   2.688   5.414
 7001SOL    HW221903   1.911   2.656   5.560
 7002SOL     OW21904   1.748   5.364   4.222
 7002SOL    HW121905   1.751   5.394   4.318
 7002SOL    HW221906   1.711   5.438   4.166
 7003SOL     OW21907   4.121   4.604   0.218
 7003SOL    HW121908   4.202   4.657   0.241
 7003SOL    HW221909   4.147   4.508   0.206
 7004SOL     OW21910   0.893   4.815   2.415
 7004SOL    HW121911   0.937   4.876   2.349
 7004SOL    HW221912   0.900   4.721   2.382
 7005SOL     OW21913   1.679   0.475   0.784
 7005SOL    HW121914   1.717   0.502   0.696
 7005SOL    HW221915   1.672   0.375   0.787
 7006SOL     OW21916   5.159   4.969   3.858
 7006SOL    HW121917   5.246   4.979   3.808
 7006SOL    HW221918   5.151   4.876   3.893
 7007SOL     OW21919   4.841   0.420   3.438
 7007SOL    HW121920   4.877   0.339   3.484
 7007SOL    HW221921   4.810   0.486   3.507
 7008SOL     OW21922   0.633   3.624   4.612
 7008SOL    HW121923   0.576   3.703   4.636
 7008SOL    HW221924   0.598   3.543   4.658
 7009SOL     OW21925   5.515   6.185   2.125
 7009SOL    HW121926   5.521   6.107   2.062
 7009SOL    HW221927   5.505   6.270   2.073
 7010SOL     OW21928   5.464   3.976   4.140
 7010SOL    HW121929   5.424   4.064   4.164
 7010SOL    HW221930   5.552   3.991   4.095
 7011SOL     OW21931   3.297   6.745   6.345
 7011SOL    HW121932   3.293   6.649   6.370
 7011SOL    HW221933   3.258   6.801   6.418
 7012SOL     OW21934   0.985   1.803   1.499
 7012SOL    HW121935   0.962   1.800   1.597
 7012SOL    HW221936   0.955   1.718   1.456
 7013SOL     OW21937   0.251   0.384   0.100
 7013SOL    HW121938   0.301   0.471   0.101
 7013SOL    HW221939   0.196   0.376   0.183
 7014SOL     OW21940   4.195   3.317   1.066
 7014SOL    HW121941   4.151   3.395   1.021
 7014SOL    HW221942   4.132   3.240   1.070
 7015SOL     OW21943   5.818   5.041   2.588
 7015SOL    HW121944   5.911   5.053   2.621
 7015SOL    HW221945   5.815   5.057   2.490
 7016SOL     OW21946   3.332   4.826   1.774
 7016SOL    HW121947   3.411   4.767   1.788
 7016SOL    HW221948   3.270   4.784   1.707
 7017SOL     OW21949   2.090   5.078   2.434
 7017SOL    HW121950   2.018   5.120   2.488
 7017SOL    HW221951   2.151   5.027   2.495
 7018SOL     OW21952   5.169   3.587   4.288
 7018SOL    HW121953   5.196   3.662   4.349
 7018SOL    HW221954   5.069   3.580   4.285
 7019SOL     OW21955   3.589   4.252   0.178
 7019SOL    HW121956   3.564   4.248   0.082
 7019SOL    HW221957   3.507   4.261   0.234
 7020SOL     OW21958   6.797   5.272   6.885
 7020SOL    HW121959   6.716   5.241   6.935
 7020SOL    HW221960   6.822   5.204   6.816
 7021SOL     OW21961   1.067   1.684   5.508
 7021SOL    HW121962   1.154   1.705   5.463
 7021SOL    HW221963   0.993   1.731   5.459
 7022SOL     OW21964   4.734   6.944   5.976
 7022SOL    HW121965   4.750   6.859   5.925
 7022SOL    HW221966   4.822   6.981   6.007
 7023SOL     OW21967   0.392   1.902   4.198
 7023SOL    HW121968   0.368   1.999   4.194
 7023SOL    HW221969   0.310   1.848   4.214
 7024SOL     OW21970   2.616   4.081   5.305
 7024SOL    HW121971   2.534   4.050   5.257
 7024SOL    HW221972   2.696   4.033   5.269
 7025SOL     OW21973   2.884   1.139   0.492
 7025SOL    HW121974   2.871   1.068   0.423
 7025SOL    HW221975   2.911   1.224   0.447
 7026SOL     OW21976   3.462   1.712   2.294
 7026SOL    HW121977   3.490   1.740   2.386
 7026SOL    HW221978   3.539   1.668   2.248
 7027SOL     OW21979   2.443   5.223   4.099
 7027SOL    HW121980   2.537   5.191   4.090
 7027SOL    HW221981   2.428   5.301   4.037
 7028SOL     OW21982   3.626   1.525   4.148
 7028SOL    HW121983   3.704   1.580   4.118
 7028SOL    HW221984   3.555   1.525   4.077
 7029SOL     OW21985   5.182   5.164   5.575
 7029SOL    HW121986   5.266   5.214   5.553
 7029SOL    HW221987   5.196   5.067   5.556
 7030SOL     OW21988   1.249   1.061   5.431
 7030SOL    HW121989   1.261   0.971   5.388
 7030SOL    HW221990   1.152   1.083   5.436
 7031SOL     OW21991   3.020   5.881   4.846
 7031SOL    HW121992   2.977   5.960   4.888
 7031SOL    HW221993   2.980   5.865   4.755
 7032SOL     OW21994   3.973   0.559   3.211
 7032SOL    HW121995   4.052   0.544   3.269
 7032SOL    HW221996   3.972   0.492   3.137
 7033SOL     OW21997   1.912   2.480   3.560
 7033SOL    HW121998   1.889   2.448   3.652
 7033SOL    HW221999   1.873   2.417   3.492
 7034SOL     OW22000   6.441   0.439   3.846
 7034SOL    HW122001   6.403   0.365   3.901
 7034SOL    HW222002   6.463   0.516   3.905
 7035SOL     OW22003   1.522   6.493   0.993
 7035SOL    HW122004   1.551   6.418   1.053
 7035SOL    HW222005   1.602   6.537   0.953
 7036SOL     OW22006   0.518   0.497   2.863
 7036SOL    HW122007   0.493   0.587   2.826
 7036SOL    HW222008   0.436   0.444   2.881
 7037SOL     OW22009   1.702   1.346   6.679
 7037SOL    HW122010   1.608   1.368   6.654
 7037SOL    HW222011   1.714   1.357   6.778
 7038SOL     OW22012   2.572   3.170   5.368
 7038SOL    HW122013   2.511   3.145   5.443
 7038SOL    HW222014   2.545   3.120   5.286
 7039SOL     OW22015   2.388   5.256   1.997
 7039SOL    HW122016   2.295   5.258   2.035
 7039SOL    HW222017   2.385   5.271   1.899
 7040SOL     OW22018   6.167   1.710   5.685
 7040SOL    HW122019   6.089   1.730   5.625
 7040SOL    HW222020   6.200   1.795   5.726
 7041SOL     OW22021   6.601   1.712   1.825
 7041SOL    HW122022   6.610   1.708   1.925
 7041SOL    HW222023   6.691   1.727   1.784
 7042SOL     OW22024   4.522   4.878   5.170
 7042SOL    HW122025   4.445   4.926   5.128
 7042SOL    HW222026   4.519   4.892   5.269
 7043SOL     OW22027   2.189   3.915   3.081
 7043SOL    HW122028   2.101   3.913   3.128
 7043SOL    HW222029   2.210   3.824   3.045
 7044SOL     OW22030   4.711   4.848   3.937
 7044SOL    HW122031   4.747   4.938   3.963
 7044SOL    HW222032   4.631   4.827   3.993
 7045SOL     OW22033   4.983   5.667   3.214
 7045SOL    HW122034   4.895   5.623   3.228
 7045SOL    HW222035   4.973   5.740   3.146
 7046SOL     OW22036   3.026   0.855   3.272
 7046SOL    HW122037   3.092   0.783   3.249
 7046SOL    HW222038   2.939   0.836   3.226
 7047SOL     OW22039   6.291   1.477   2.156
 7047SOL    HW122040   6.213   1.426   2.192
 7047SOL    HW222041   6.334   1.424   2.083
 7048SOL     OW22042   5.362   6.900   3.265
 7048SOL    HW122043   5.443   6.954   3.289
 7048SOL    HW222044   5.348   6.902   3.166
 7049SOL     OW22045   3.568   1.305   0.837
 7049SOL    HW122046   3.551   1.252   0.754
 7049SOL    HW222047   3.647   1.267   0.885
 7050SOL     OW22048   4.257   3.410   1.306
 7050SOL    HW122049   4.323   3.344   1.342
 7050SOL    HW222050   4.221   3.378   1.219
 7051SOL     OW22051   6.077   6.974   1.382
 7051SOL    HW122052   5.989   7.010   1.350
 7051SOL    HW222053   6.140   0.030   1.399
 7052SOL     OW22054   5.767   2.708   3.424
 7052SOL    HW122055   5.840   2.766   3.388
 7052SOL    HW222056   5.745   2.637   3.358
 7053SOL     OW22057   1.278   3.529   5.331
 7053SOL    HW122058   1.190   3.489   5.304
 7053SOL    HW222059   1.310   3.590   5.258
 7054SOL     OW22060   0.399   6.472   0.305
 7054SOL    HW122061   0.466   6.403   0.279
 7054SOL    HW222062   0.428   6.561   0.270
 7055SOL     OW22063   2.891   6.975   5.851
 7055SOL    HW122064   2.939   7.005   5.768
 7055SOL    HW222065   2.793   6.976   5.835
 7056SOL     OW22066   6.463   4.579   2.281
 7056SOL    HW122067   6.488   4.486   2.306
 7056SOL    HW222068   6.375   4.602   2.321
 7057SOL     OW22069   1.990   5.292   4.117
 7057SOL    HW122070   2.056   5.367   4.125
 7057SOL    HW222071   1.901   5.322   4.151
 7058SOL     OW22072   5.818   4.942   5.318
 7058SOL    HW122073   5.899   4.884   5.331
 7058SOL    HW222074   5.744   4.909   5.378
 7059SOL     OW22075   0.009   1.464   3.647
 7059SOL    HW122076   0.038   1.394   3.582
 7059SOL    HW222077   0.041   1.554   3.616
 7060SOL     OW22078   3.837   0.172   1.067
 7060SOL    HW122079   3.904   0.195   1.138
 7060SOL    HW222080   3.801   0.080   1.083
 7061SOL     OW22081   0.515   3.155   3.687
 7061SOL    HW122082   0.526   3.056   3.674
 7061SOL    HW222083   0.606   3.198   3.689
 7062SOL     OW22084   4.352   0.714   5.194
 7062SOL    HW122085   4.278   0.781   5.190
 7062SOL    HW222086   4.332   0.645   5.263
 7063SOL     OW22087   1.553   0.690   1.924
 7063SOL    HW122088   1.533   0.784   1.952
 7063SOL    HW222089   1.504   0.626   1.983
 7064SOL     OW22090   3.887   1.781   0.670
 7064SOL    HW122091   3.939   1.858   0.632
 7064SOL    HW222092   3.923   1.757   0.760
 7065SOL     OW22093   4.720   3.689   6.041
 7065SOL    HW122094   4.777   3.697   6.122
 7065SOL    HW222095   4.762   3.740   5.966
 7066SOL     OW22096   4.814   0.333   6.805
 7066SOL    HW122097   4.747   0.299   6.871
 7066SOL    HW222098   4.809   0.432   6.800
 7067SOL     OW22099   1.587   2.720   5.396
 7067SOL    HW122100   1.522   2.645   5.393
 7067SOL    HW222101   1.646   2.709   5.476
 7068SOL     OW22102   6.526   4.347   4.975
 7068SOL    HW122103   6.466   4.409   5.025
 7068SOL    HW222104   6.613   4.393   4.957
 7069SOL     OW22105   5.212   1.961   4.724
 7069SOL    HW122106   5.129   1.994   4.680
 7069SOL    HW222107   5.287   2.026   4.707
 7070SOL     OW22108   0.186   0.020   4.823
 7070SOL    HW122109   0.230   6.956   4.857
 7070SOL    HW222110   0.098   0.032   4.870
 7071SOL     OW22111   3.238   6.171   5.678
 7071SOL    HW122112   3.210   6.078   5.653
 7071SOL    HW222113   3.299   6.207   5.607
 7072SOL     OW22114   1.716   6.428   7.010
 7072SOL    HW122115   1.703   6.458   6.916
 7072SOL    HW222116   1.659   6.485   0.052
 7073SOL     OW22117   5.327   0.226   4.668
 7073SOL    HW122118   5.348   0.159   4.596
 7073SOL    HW222119   5.385   0.307   4.655
 7074SOL     OW22120   5.329   2.737   1.488
 7074SOL    HW122121   5.326   2.682   1.571
 7074SOL    HW222122   5.268   2.698   1.420
 7075SOL     OW22123   2.025   4.331   5.367
 7075SOL    HW122124   2.096   4.266   5.340
 7075SOL    HW222125   1.937   4.299   5.333
 7076SOL     OW22126   5.757   2.340   6.209
 7076SOL    HW122127   5.780   2.432   6.242
 7076SOL    HW222128   5.768   2.337   6.110
 7077SOL     OW22129   2.774   4.733   3.711
 7077SOL    HW122130   2.826   4.802   3.760
 7077SOL    HW222131   2.717   4.682   3.775
 7078SOL     OW22132   6.827   6.610   1.614
 7078SOL    HW122133   6.795   6.562   1.695
 7078SOL    HW222134   6.923   6.588   1.597
 7079SOL     OW22135   6.944   5.769   4.561
 7079SOL    HW122136   6.904   5.752   4.651
 7079SOL    HW222137   6.958   5.868   4.550
 7080SOL     OW22138   3.572   1.133   4.906
 7080SOL    HW122139   3.640   1.206   4.917
 7080SOL    HW222140   3.483   1.174   4.890
 7081SOL     OW22141   2.682   6.527   6.906
 7081SOL    HW122142   2.728   6.566   6.985
 7081SOL    HW222143   2.593   6.571   6.894
 7082SOL     OW22144   6.711   4.136   0.367
 7082SOL    HW122145   6.618   4.135   0.331
 7082SOL    HW222146   6.758   4.051   0.341
 7083SOL     OW22147   2.244   6.848   0.665
 7083SOL    HW122148   2.302   6.769   0.686
 7083SOL    HW222149   2.191   6.873   0.745
 7084SOL     OW22150   0.138   5.361   5.477
 7084SOL    HW122151   0.150   5.441   5.537
 7084SOL    HW222152   0.072   5.298   5.518
 7085SOL     OW22153   1.258   1.184   1.852
 7085SOL    HW122154   1.176   1.170   1.797
 7085SOL    HW222155   1.330   1.224   1.796
 7086SOL     OW22156   5.559   0.006   5.874
 7086SOL    HW122157   5.600   6.990   5.958
 7086SOL    HW222158   5.516   0.095   5.892
 7087SOL     OW22159   6.158   3.904   4.439
 7087SOL    HW122160   6.111   3.977   4.388
 7087SOL    HW222161   6.257   3.914   4.428
 7088SOL     OW22162   4.843   2.786   3.817
 7088SOL    HW122163   4.749   2.754   3.807
 7088SOL    HW222164   4.893   2.725   3.878
 7089SOL     OW22165   3.020   2.184   4.519
 7089SOL    HW122166   3.104   2.133   4.500
 7089SOL    HW222167   2.953   2.123   4.562
 7090SOL     OW22168   1.862   0.727   6.960
 7090SOL    HW122169   1.938   0.781   6.997
 7090SOL    HW222170   1.835   0.657   0.008
 7091SOL     OW22171   0.270   2.347   0.939
 7091SOL    HW122172   0.195   2.405   0.909
 7091SOL    HW222173   0.337   2.338   0.865
 7092SOL     OW22174   3.728   3.300   6.106
 7092SOL    HW122175   3.777   3.325   6.023
 7092SOL    HW222176   3.640   3.259   6.081
 7093SOL     OW22177   3.167   3.856   2.073
 7093SOL    HW122178   3.167   3.951   2.103
 7093SOL    HW222179   3.236   3.805   2.123
 7094SOL     OW22180   7.014   5.590   5.689
 7094SOL    HW122181   6.921   5.567   5.717
 7094SOL    HW222182   7.014   5.678   5.641
 7095SOL     OW22183   4.112   4.591   5.745
 7095SOL    HW122184   4.043   4.648   5.701
 7095SOL    HW222185   4.071   4.504   5.772
 7096SOL     OW22186   6.745   1.141   3.346
 7096SOL    HW122187   6.801   1.062   3.370
 7096SOL    HW222188   6.803   1.223   3.344
 7097SOL     OW22189   5.130   1.913   1.580
 7097SOL    HW122190   5.087   1.919   1.490
 7097SOL    HW222191   5.229   1.901   1.569
 7098SOL     OW22192   1.643   5.230   5.728
 7098SOL    HW122193   1.683   5.308   5.777
 7098SOL    HW222194   1.716   5.182   5.679
 7099SOL     OW22195   3.825   1.710   5.139
 7099SOL    HW122196   3.728   1.696   5.157
 7099SOL    HW222197   3.837   1.750   5.048
 7100SOL     OW22198   6.560   3.889   0.164
 7100SOL    HW122199   6.650   3.883   0.206
 7100SOL    HW222200   6.566   3.868   0.067
 7101SOL     OW22201   2.088   1.551   5.326
 7101SOL    HW122202   2.084   1.564   5.425
 7101SOL    HW222203   2.091   1.453   5.305
 7102SOL     OW22204   5.475   0.012   0.526
 7102SOL    HW122205   5.526   6.980   0.595
 7102SOL    HW222206   5.517   0.103   0.515
 7103SOL     OW22207   5.239   5.003   2.825
 7103SOL    HW122208   5.178   5.071   2.866
 7103SOL    HW222209   5.277   5.039   2.740
 7104SOL     OW22210   6.832   3.202   3.415
 7104SOL    HW122211   6.830   3.255   3.330
 7104SOL    HW222212   6.745   3.155   3.427
 7105SOL     OW22213   3.000   3.299   5.657
 7105SOL    HW122214   3.018   3.376   5.718
 7105SOL    HW222215   2.964   3.332   5.570
 7106SOL     OW22216   3.553   3.501   2.427
 7106SOL    HW122217   3.572   3.404   2.412
 7106SOL    HW222218   3.477   3.530   2.368
 7107SOL     OW22219   4.561   0.793   0.562
 7107SOL    HW122220   4.489   0.726   0.577
 7107SOL    HW222221   4.589   0.790   0.466
 7108SOL     OW22222   3.022   6.473   2.927
 7108SOL    HW122223   3.017   6.376   2.953
 7108SOL    HW222224   2.982   6.485   2.836
 7109SOL     OW22225   2.533   0.231   5.966
 7109SOL    HW122226   2.601   0.245   6.038
 7109SOL    HW222227   2.570   0.172   5.895
 7110SOL     OW22228   3.160   5.747   4.041
 7110SOL    HW122229   3.066   5.718   4.020
 7110SOL    HW222230   3.207   5.673   4.089
 7111SOL     OW22231   1.333   2.604   5.289
 7111SOL    HW122232   1.272   2.682   5.299
 7111SOL    HW222233   1.346   2.583   5.192
 7112SOL     OW22234   2.009   4.982   4.642
 7112SOL    HW122235   2.057   5.065   4.670
 7112SOL    HW222236   2.006   4.977   4.542
 7113SOL     OW22237   3.909   3.968   4.686
 7113SOL    HW122238   3.899   4.067   4.688
 7113SOL    HW222239   3.905   3.936   4.591
 7114SOL     OW22240   5.499   5.621   1.125
 7114SOL    HW122241   5.592   5.657   1.135
 7114SOL    HW222242   5.433   5.695   1.139
 7115SOL     OW22243   5.359   3.136   0.508
 7115SOL    HW122244   5.354   3.195   0.588
 7115SOL    HW222245   5.278   3.150   0.451
 7116SOL     OW22246   6.072   4.237   2.879
 7116SOL    HW122247   6.094   4.140   2.875
 7116SOL    HW222248   5.999   4.252   2.946
 7117SOL     OW22249   0.620   6.918   5.197
 7117SOL    HW122250   0.713   6.941   5.170
 7117SOL    HW222251   0.561   6.914   5.116
 7118SOL     OW22252   3.089   4.858   0.925
 7118SOL    HW122253   3.157   4.887   0.992
 7118SOL    HW222254   3.002   4.838   0.971
 7119SOL     OW22255   4.891   1.755   4.171
 7119SOL    HW122256   4.816   1.696   4.143
 7119SOL    HW222257   4.876   1.785   4.265
 7120SOL     OW22258   3.301   2.116   2.418
 7120SOL    HW122259   3.349   2.104   2.331
 7120SOL    HW222260   3.206   2.140   2.401
 7121SOL     OW22261   0.796   0.052   3.098
 7121SOL    HW122262   0.807   0.000   3.183
 7121SOL    HW222263   0.883   0.054   3.049
 7122SOL     OW22264   1.822   0.701   5.766
 7122SOL    HW122265   1.858   0.611   5.792
 7122SOL    HW222266   1.872   0.773   5.814
 7123SOL     OW22267   1.465   4.942   3.114
 7123SOL    HW122268   1.523   4.876   3.161
 7123SOL    HW222269   1.473   4.929   3.015
 7124SOL     OW22270   6.496   2.321   1.389
 7124SOL    HW122271   6.452   2.231   1.391
 7124SOL    HW222272   6.569   2.321   1.320
 7125SOL     OW22273   0.544   6.949   0.680
 7125SOL    HW122274   0.531   6.891   0.599
 7125SOL    HW222275   0.502   0.019   0.664
 7126SOL     OW22276   3.457   5.124   0.428
 7126SOL    HW122277   3.384   5.057   0.433
 7126SOL    HW222278   3.422   5.210   0.391
 7127SOL     OW22279   1.833   5.072   6.027
 7127SOL    HW122280   1.886   5.027   5.955
 7127SOL    HW222281   1.816   5.008   6.101
 7128SOL     OW22282   3.038   4.668   6.959
 7128SOL    HW122283   3.086   4.737   6.905
 7128SOL    HW222284   3.045   4.580   6.913
 7129SOL     OW22285   2.073   1.591   0.371
 7129SOL    HW122286   2.104   1.532   0.297
 7129SOL    HW222287   1.998   1.649   0.338
 7130SOL     OW22288   4.028   5.953   4.615
 7130SOL    HW122289   4.102   6.002   4.569
 7130SOL    HW222290   3.948   5.950   4.555
 7131SOL     OW22291   2.537   1.015   1.341
 7131SOL    HW122292   2.619   1.065   1.370
 7131SOL    HW222293   2.456   1.065   1.371
 7132SOL     OW22294   4.134   3.555   0.255
 7132SOL    HW122295   4.162   3.648   0.234
 7132SOL    HW222296   4.185   3.522   0.335
 7133SOL     OW22297   4.999   5.451   6.125
 7133SOL    HW122298   4.944   5.419   6.048
 7133SOL    HW222299   5.025   5.546   6.110
 7134SOL     OW22300   4.843   6.865   1.180
 7134SOL    HW122301   4.933   6.826   1.161
 7134SOL    HW222302   4.797   6.886   1.093
 7135SOL     OW22303   1.761   2.550   3.219
 7135SOL    HW122304   1.713   2.517   3.137
 7135SOL    HW222305   1.716   2.514   3.301
 7136SOL     OW22306   2.254   1.832   0.377
 7136SOL    HW122307   2.288   1.852   0.469
 7136SOL    HW222308   2.164   1.787   0.384
 7137SOL     OW22309   3.227   0.436   6.526
 7137SOL    HW122310   3.184   0.438   6.616
 7137SOL    HW222311   3.321   0.405   6.535
 7138SOL     OW22312   2.512   2.054   0.140
 7138SOL    HW122313   2.530   1.970   0.090
 7138SOL    HW222314   2.414   2.064   0.156
 7139SOL     OW22315   6.453   4.000   1.648
 7139SOL    HW122316   6.413   4.088   1.674
 7139SOL    HW222317   6.400   3.958   1.575
 7140SOL     OW22318   6.467   3.704   2.198
 7140SOL    HW122319   6.410   3.621   2.196
 7140SOL    HW222320   6.475   3.736   2.293
 7141SOL     OW22321   3.773   6.205   0.751
 7141SOL    HW122322   3.766   6.159   0.663
 7141SOL    HW222323   3.743   6.299   0.742
 7142SOL     OW22324   3.822   0.156   3.123
 7142SOL    HW122325   3.916   0.123   3.133
 7142SOL    HW222326   3.759   0.079   3.135
 7143SOL     OW22327   1.786   2.588   6.296
 7143SOL    HW122328   1.731   2.549   6.369
 7143SOL    HW222329   1.767   2.540   6.210
 7144SOL     OW22330   1.981   2.038   2.560
 7144SOL    HW122331   1.907   2.023   2.626
 7144SOL    HW222332   2.005   1.952   2.517
 7145SOL     OW22333   4.303   0.454   6.782
 7145SOL    HW122334   4.229   0.475   6.718
 7145SOL    HW222335   4.390   0.451   6.734
 7146SOL     OW22336   1.911   6.698   0.111
 7146SOL    HW122337   1.953   6.661   0.028
 7146SOL    HW222338   1.914   6.798   0.109
 7147SOL     OW22339   0.035   6.960   3.180
 7147SOL    HW122340   6.982   6.909   3.132
 7147SOL    HW222341   0.095   7.003   3.112
 7148SOL     OW22342   0.174   6.754   1.193
 7148SOL    HW122343   0.253   6.796   1.238
 7148SOL    HW222344   0.146   6.672   1.243
 7149SOL     OW22345   6.499   6.779   3.817
 7149SOL    HW122346   6.433   6.774   3.741
 7149SOL    HW222347   6.467   6.721   3.892
 7150SOL     OW22348   3.689   2.702   1.164
 7150SOL    HW122349   3.705   2.725   1.068
 7150SOL    HW222350   3.621   2.630   1.170
 7151SOL     OW22351   2.986   6.690   0.672
 7151SOL    HW122352   3.031   6.681   0.761
 7151SOL    HW222353   3.041   6.642   0.603
 7152SOL     OW22354   6.833   0.923   5.634
 7152SOL    HW122355   6.918   0.945   5.585
 7152SOL    HW222356   6.755   0.953   5.579
 7153SOL     OW22357   3.961   5.312   1.470
 7153SOL    HW122358   3.989   5.320   1.566
 7153SOL    HW222359   4.025   5.362   1.412
 7154SOL     OW22360   4.915   6.622   3.375
 7154SOL    HW122361   4.816   6.640   3.373
 7154SOL    HW222362   4.965   6.708   3.378
 7155SOL     OW22363   2.068   3.379   0.751
 7155SOL    HW122364   2.096   3.357   0.845
 7155SOL    HW222365   2.001   3.453   0.753
 7156SOL     OW22366   6.819   3.079   4.178
 7156SOL    HW122367   6.730   3.041   4.200
 7156SOL    HW222368   6.810   3.178   4.163
 7157SOL     OW22369   0.524   4.016   1.041
 7157SOL    HW122370   0.510   3.978   1.132
 7157SOL    HW222371   0.517   3.943   0.973
 7158SOL     OW22372   0.882   0.737   3.964
 7158SOL    HW122373   0.869   0.816   4.023
 7158SOL    HW222374   0.807   0.672   3.978
 7159SOL     OW22375   0.707   4.212   3.310
 7159SOL    HW122376   0.645   4.288   3.332
 7159SOL    HW222377   0.761   4.189   3.392
 7160SOL     OW22378   5.572   0.725   2.968
 7160SOL    HW122379   5.597   0.780   3.048
 7160SOL    HW222380   5.654   0.681   2.931
 7161SOL     OW22381   3.477   4.150   3.395
 7161SOL    HW122382   3.543   4.118   3.463
 7161SOL    HW222383   3.384   4.139   3.431
 7162SOL     OW22384   0.833   5.258   6.327
 7162SOL    HW122385   0.839   5.265   6.227
 7162SOL    HW222386   0.759   5.317   6.360
 7163SOL     OW22387   2.674   6.796   2.369
 7163SOL    HW122388   2.577   6.776   2.374
 7163SOL    HW222389   2.690   6.893   2.390
 7164SOL     OW22390   2.959   0.507   3.969
 7164SOL    HW122391   2.936   0.604   3.974
 7164SOL    HW222392   3.052   0.493   4.001
 7165SOL     OW22393   6.445   0.403   2.829
 7165SOL    HW122394   6.488   0.379   2.741
 7165SOL    HW222395   6.472   0.496   2.854
 7166SOL     OW22396   4.856   1.769   0.783
 7166SOL    HW122397   4.854   1.669   0.787
 7166SOL    HW222398   4.799   1.807   0.855
 7167SOL     OW22399   5.219   3.256   4.621
 7167SOL    HW122400   5.163   3.193   4.567
 7167SOL    HW222401   5.240   3.214   4.709
 7168SOL     OW22402   1.933   2.697   2.578
 7168SOL    HW122403   1.954   2.700   2.480
 7168SOL    HW222404   2.009   2.739   2.629
 7169SOL     OW22405   0.279   3.315   5.864
 7169SOL    HW122406   0.274   3.256   5.783
 7169SOL    HW222407   0.285   3.258   5.946
 7170SOL     OW22408   5.121   0.149   3.340
 7170SOL    HW122409   5.140   0.077   3.408
 7170SOL    HW222410   5.204   0.168   3.288
 7171SOL     OW22411   6.194   3.853   6.736
 7171SOL    HW122412   6.225   3.820   6.826
 7171SOL    HW222413   6.246   3.935   6.712
 7172SOL     OW22414   1.397   0.132   4.873
 7172SOL    HW122415   1.454   0.057   4.906
 7172SOL    HW222416   1.387   0.126   4.774
 7173SOL     OW22417   6.346   4.510   6.643
 7173SOL    HW122418   6.401   4.464   6.713
 7173SOL    HW222419   6.314   4.598   6.679
 7174SOL     OW22420   1.371   3.460   0.658
 7174SOL    HW122421   1.441   3.443   0.727
 7174SOL    HW222422   1.301   3.389   0.662
 7175SOL     OW22423   5.838   3.159   6.122
 7175SOL    HW122424   5.776   3.234   6.145
 7175SOL    HW222425   5.932   3.192   6.121
 7176SOL     OW22426   6.934   1.179   3.685
 7176SOL    HW122427   6.911   1.273   3.662
 7176SOL    HW222428   6.915   1.120   3.606
 7177SOL     OW22429   1.515   5.027   5.207
 7177SOL    HW122430   1.561   5.075   5.282
 7177SOL    HW222431   1.500   4.932   5.234
 7178SOL     OW22432   7.018   1.452   5.873
 7178SOL    HW122433   0.024   1.362   5.839
 7178SOL    HW222434   6.984   1.444   5.967
 7179SOL     OW22435   2.213   3.068   4.327
 7179SOL    HW122436   2.198   2.999   4.256
 7179SOL    HW222437   2.205   3.025   4.417
 7180SOL     OW22438   1.736   5.681   6.961
 7180SOL    HW122439   1.648   5.676   6.914
 7180SOL    HW222440   1.756   5.777   6.983
 7181SOL     OW22441   1.870   0.247   0.278
 7181SOL    HW122442   1.931   0.317   0.314
 7181SOL    HW222443   1.886   0.236   0.179
 7182SOL     OW22444   0.262   3.099   4.528
 7182SOL    HW122445   0.172   3.068   4.499
 7182SOL    HW222446   0.262   3.198   4.541
 7183SOL     OW22447   1.574   5.420   1.338
 7183SOL    HW122448   1.495   5.431   1.277
 7183SOL    HW222449   1.580   5.499   1.399
 7184SOL     OW22450   6.440   1.089   3.738
 7184SOL    HW122451   6.374   1.044   3.797
 7184SOL    HW222452   6.531   1.084   3.779
 7185SOL     OW22453   5.714   0.419   4.993
 7185SOL    HW122454   5.671   0.477   4.924
 7185SOL    HW222455   5.795   0.465   5.030
 7186SOL     OW22456   6.255   1.871   1.442
 7186SOL    HW122457   6.172   1.823   1.470
 7186SOL    HW222458   6.328   1.805   1.426
 7187SOL     OW22459   3.324   4.499   5.620
 7187SOL    HW122460   3.326   4.557   5.702
 7187SOL    HW222461   3.244   4.520   5.565
 7188SOL     OW22462   5.434   0.244   6.902
 7188SOL    HW122463   5.355   0.224   6.844
 7188SOL    HW222464   5.405   0.298   6.981
 7189SOL     OW22465   5.860   1.004   5.342
 7189SOL    HW122466   5.828   0.935   5.276
 7189SOL    HW222467   5.940   0.968   5.391
 7190SOL     OW22468   6.490   4.261   2.007
 7190SOL    HW122469   6.532   4.199   2.075
 7190SOL    HW222470   6.397   4.230   1.987
 7191SOL     OW22471   1.334   5.269   2.518
 7191SOL    HW122472   1.288   5.250   2.605
 7191SOL    HW222473   1.424   5.308   2.536
 7192SOL     OW22474   2.789   4.363   6.129
 7192SOL    HW122475   2.858   4.298   6.160
 7192SOL    HW222476   2.759   4.338   6.037
 7193SOL     OW22477   1.294   3.165   2.873
 7193SOL    HW122478   1.279   3.146   2.776
 7193SOL    HW222479   1.207   3.164   2.921
 7194SOL     OW22480   2.150   2.752   0.931
 7194SOL    HW122481   2.124   2.806   0.850
 7194SOL    HW222482   2.239   2.782   0.964
 7195SOL     OW22483   1.298   4.102   6.978
 7195SOL    HW122484   1.224   4.105   0.027
 7195SOL    HW222485   1.258   4.097   6.887
 7196SOL     OW22486   2.470   3.781   1.701
 7196SOL    HW122487   2.565   3.755   1.719
 7196SOL    HW222488   2.418   3.700   1.674
 7197SOL     OW22489   0.455   2.412   5.990
 7197SOL    HW122490   0.522   2.485   5.979
 7197SOL    HW222491   0.465   2.345   5.916
 7198SOL     OW22492   0.142   0.800   0.640
 7198SOL    HW122493   0.084   0.847   0.573
 7198SOL    HW222494   0.228   0.774   0.596
 7199SOL     OW22495   2.074   0.819   2.220
 7199SOL    HW122496   2.096   0.869   2.137
 7199SOL    HW222497   2.059   0.884   2.295
 7200SOL     OW22498   2.508   2.595   7.013
 7200SOL    HW122499   2.428   2.642   0.032
 7200SOL    HW222500   2.518   2.506   0.039
 7201SOL     OW22501   0.825   6.362   4.322
 7201SOL    HW122502   0.853   6.266   4.318
 7201SOL    HW222503   0.777   6.387   4.238
 7202SOL     OW22504   5.536   6.980   0.097
 7202SOL    HW122505   5.616   6.951   0.044
 7202SOL    HW222506   5.552   0.053   0.133
 7203SOL     OW22507   0.437   1.243   0.572
 7203SOL    HW122508   0.516   1.183   0.590
 7203SOL    HW222509   0.424   1.303   0.651
 7204SOL     OW22510   0.547   0.187   5.645
 7204SOL    HW122511   0.562   0.137   5.560
 7204SOL    HW222512   0.535   0.121   5.720
 7205SOL     OW22513   1.270   3.787   4.316
 7205SOL    HW122514   1.183   3.775   4.267
 7205SOL    HW222515   1.335   3.718   4.285
 7206SOL     OW22516   1.834   0.730   1.883
 7206SOL    HW122517   1.737   0.726   1.860
 7206SOL    HW222518   1.861   0.646   1.929
 7207SOL     OW22519   3.666   0.159   2.435
 7207SOL    HW122520   3.590   0.126   2.491
 7207SOL    HW222521   3.653   0.256   2.415
 7208SOL     OW22522   4.166   6.992   3.497
 7208SOL    HW122523   4.168   6.974   3.595
 7208SOL    HW222524   4.071   6.993   3.465
 7209SOL     OW22525   2.560   3.328   1.705
 7209SOL    HW122526   2.514   3.361   1.788
 7209SOL    HW222527   2.570   3.403   1.640
 7210SOL     OW22528   4.373   1.108   2.885
 7210SOL    HW122529   4.466   1.091   2.919
 7210SOL    HW222530   4.351   1.206   2.895
 7211SOL     OW22531   2.413   6.841   4.774
 7211SOL    HW122532   2.489   6.904   4.756
 7211SOL    HW222533   2.348   6.884   4.837
 7212SOL     OW22534   0.268   6.474   5.075
 7212SOL    HW122535   0.354   6.525   5.069
 7212SOL    HW222536   0.191   6.538   5.080
 7213SOL     OW22537   4.391   5.845   6.826
 7213SOL    HW122538   4.477   5.896   6.827
 7213SOL    HW222539   4.386   5.786   6.906
 7214SOL     OW22540   6.605   0.184   5.041
 7214SOL    HW122541   6.586   0.132   4.958
 7214SOL    HW222542   6.656   0.127   5.106
 7215SOL     OW22543   7.007   3.406   4.327
 7215SOL    HW122544   0.050   3.343   4.280
 7215SOL    HW222545   6.913   3.376   4.313
 7216SOL     OW22546   3.272   7.000   6.956
 7216SOL    HW122547   3.176   7.015   6.932
 7216SOL    HW222548   3.285   7.019   0.034
 7217SOL     OW22549   2.145   3.805   3.720
 7217SOL    HW122550   2.146   3.794   3.621
 7217SOL    HW222551   2.180   3.722   3.763
 7218SOL     OW22552   5.992   2.765   5.177
 7218SOL    HW122553   5.915   2.723   5.129
 7218SOL    HW222554   5.975   2.863   5.187
 7219SOL     OW22555   4.574   0.162   3.290
 7219SOL    HW122556   4.506   0.176   3.363
 7219SOL    HW222557   4.585   0.247   3.239
 7220SOL     OW22558   0.937   4.374   5.248
 7220SOL    HW122559   0.959   4.463   5.288
 7220SOL    HW222560   0.839   4.370   5.230
 7221SOL     OW22561   3.592   5.981   4.221
 7221SOL    HW122562   3.525   6.050   4.192
 7221SOL    HW222563   3.571   5.952   4.315
 7222SOL     OW22564   6.089   0.082   3.390
 7222SOL    HW122565   6.163   0.042   3.444
 7222SOL    HW222566   6.010   0.098   3.448
 7223SOL     OW22567   2.685   1.343   0.706
 7223SOL    HW122568   2.693   1.266   0.643
 7223SOL    HW222569   2.752   1.413   0.682
 7224SOL     OW22570   5.314   1.850   4.050
 7224SOL    HW122571   5.250   1.908   3.999
 7224SOL    HW222572   5.407   1.869   4.020
 7225SOL     OW22573   0.950   5.606   0.661
 7225SOL    HW122574   0.911   5.555   0.584
 7225SOL    HW222575   0.877   5.645   0.716
 7226SOL     OW22576   6.055   1.434   1.860
 7226SOL    HW122577   5.972   1.444   1.806
 7226SOL    HW222578   6.065   1.514   1.920
 7227SOL     OW22579   2.390   2.346   1.019
 7227SOL    HW122580   2.406   2.251   1.047
 7227SOL    HW222581   2.477   2.395   1.013
 7228SOL     OW22582   0.998   2.465   3.503
 7228SOL    HW122583   0.933   2.392   3.525
 7228SOL    HW222584   1.076   2.426   3.455
 7229SOL     OW22585   1.373   6.214   5.516
 7229SOL    HW122586   1.274   6.210   5.531
 7229SOL    HW222587   1.398   6.305   5.481
 7230SOL     OW22588   3.370   5.188   4.193
 7230SOL    HW122589   3.447   5.241   4.159
 7230SOL    HW222590   3.403   5.119   4.258
 7231SOL     OW22591   3.886   0.804   6.472
 7231SOL    HW122592   3.899   0.888   6.525
 7231SOL    HW222593   3.812   0.817   6.406
 7232SOL     OW22594   5.170   6.477   3.373
 7232SOL    HW122595   5.188   6.444   3.280
 7232SOL    HW222596   5.106   6.554   3.369
 7233SOL     OW22597   0.864   1.917   3.531
 7233SOL    HW122598   0.928   1.847   3.499
 7233SOL    HW222599   0.860   1.991   3.464
 7234SOL     OW22600   4.978   2.555   3.936
 7234SOL    HW122601   5.061   2.586   3.982
 7234SOL    HW222602   4.944   2.472   3.980
 7235SOL     OW22603   0.015   5.189   2.667
 7235SOL    HW122604   0.094   5.139   2.701
 7235SOL    HW222605   0.009   5.278   2.714
 7236SOL     OW22606   2.272   2.093   1.711
 7236SOL    HW122607   2.270   2.157   1.788
 7236SOL    HW222608   2.300   2.141   1.628
 7237SOL     OW22609   4.149   0.113   4.953
 7237SOL    HW122610   4.223   0.047   4.962
 7237SOL    HW222611   4.116   0.115   4.859
 7238SOL     OW22612   3.547   1.534   0.083
 7238SOL    HW122613   3.518   1.533   7.006
 7238SOL    HW222614   3.504   1.612   0.129
 7239SOL     OW22615   1.487   2.341   2.520
 7239SOL    HW122616   1.525   2.380   2.604
 7239SOL    HW222617   1.401   2.387   2.498
 7240SOL     OW22618   1.371   0.435   5.728
 7240SOL    HW122619   1.451   0.486   5.696
 7240SOL    HW222620   1.363   0.444   5.827
 7241SOL     OW22621   1.380   0.831   1.177
 7241SOL    HW122622   1.286   0.805   1.154
 7241SOL    HW222623   1.444   0.770   1.130
 7242SOL     OW22624   6.817   5.823   0.443
 7242SOL    HW122625   6.725   5.829   0.403
 7242SOL    HW222626   6.816   5.758   0.519
 7243SOL     OW22627   6.451   4.275   6.072
 7243SOL    HW122628   6.392   4.316   6.141
 7243SOL    HW222629   6.396   4.235   5.999
 7244SOL     OW22630   6.200   1.373   1.642
 7244SOL    HW122631   6.143   1.372   1.559
 7244SOL    HW222632   6.143   1.396   1.721
 7245SOL     OW22633   1.240   2.682   6.171
 7245SOL    HW122634   1.316   2.738   6.137
 7245SOL    HW222635   1.153   2.725   6.147
 7246SOL     OW22636   0.608   0.098   4.027
 7246SOL    HW122637   0.570   0.186   4.057
 7246SOL    HW222638   0.636   0.105   3.931
 7247SOL     OW22639   2.561   1.060   4.116
 7247SOL    HW122640   2.559   1.121   4.036
 7247SOL    HW222641   2.503   0.981   4.099
 7248SOL     OW22642   2.507   1.534   3.451
 7248SOL    HW122643   2.412   1.511   3.430
 7248SOL    HW222644   2.553   1.563   3.367
 7249SOL     OW22645   6.678   4.748   2.616
 7249SOL    HW122646   6.734   4.829   2.635
 7249SOL    HW222647   6.688   4.723   2.520
 7250SOL     OW22648   4.459   6.848   5.991
 7250SOL    HW122649   4.491   6.919   6.053
 7250SOL    HW222650   4.446   6.762   6.041
 7251SOL     OW22651   0.712   6.481   5.642
 7251SOL    HW122652   0.805   6.448   5.627
 7251SOL    HW222653   0.646   6.411   5.615
 7252SOL     OW22654   3.763   3.531   2.585
 7252SOL    HW122655   3.804   3.622   2.586
 7252SOL    HW222656   3.678   3.533   2.532
 7253SOL     OW22657   1.537   6.069   6.667
 7253SOL    HW122658   1.635   6.053   6.655
 7253SOL    HW222659   1.491   6.061   6.578
 7254SOL     OW22660   4.331   5.021   4.360
 7254SOL    HW122661   4.284   5.104   4.390
 7254SOL    HW222662   4.270   4.943   4.371
 7255SOL     OW22663   2.748   4.288   1.462
 7255SOL    HW122664   2.665   4.334   1.428
 7255SOL    HW222665   2.816   4.285   1.389
 7256SOL     OW22666   3.160   5.112   4.320
 7256SOL    HW122667   3.194   5.024   4.354
 7256SOL    HW222668   3.222   5.146   4.249
 7257SOL     OW22669   6.029   2.885   3.537
 7257SOL    HW122670   6.066   2.815   3.475
 7257SOL    HW222671   6.058   2.976   3.505
 7258SOL     OW22672   3.977   1.868   3.696
 7258SOL    HW122673   3.997   1.914   3.610
 7258SOL    HW222674   4.033   1.909   3.769
 7259SOL     OW22675   2.231   3.840   1.328
 7259SOL    HW122676   2.272   3.863   1.417
 7259SOL    HW222677   2.133   3.857   1.332
 7260SOL     OW22678   3.809   1.952   1.699
 7260SOL    HW122679   3.868   1.953   1.618
 7260SOL    HW222680   3.782   2.045   1.722
 7261SOL     OW22681   1.310   2.654   1.774
 7261SOL    HW122682   1.320   2.567   1.724
 7261SOL    HW222683   1.388   2.666   1.835
 7262SOL     OW22684   5.104   1.754   5.551
 7262SOL    HW122685   5.099   1.655   5.537
 7262SOL    HW222686   5.191   1.788   5.514
 7263SOL     OW22687   0.526   0.714   0.225
 7263SOL    HW122688   0.621   0.743   0.220
 7263SOL    HW222689   0.520   0.615   0.226
 7264SOL     OW22690   5.792   2.151   6.536
 7264SOL    HW122691   5.744   2.063   6.532
 7264SOL    HW222692   5.890   2.135   6.547
 7265SOL     OW22693   5.638   5.634   5.674
 7265SOL    HW122694   5.661   5.597   5.584
 7265SOL    HW222695   5.639   5.734   5.669
 7266SOL     OW22696   5.347   6.952   1.750
 7266SOL    HW122697   5.314   7.008   1.674
 7266SOL    HW222698   5.400   7.009   1.813
 7267SOL     OW22699   6.368   6.136   5.103
 7267SOL    HW122700   6.445   6.190   5.069
 7267SOL    HW222701   6.334   6.175   5.189
 7268SOL     OW22702   5.564   4.924   3.565
 7268SOL    HW122703   5.503   4.845   3.559
 7268SOL    HW222704   5.613   4.922   3.652
 7269SOL     OW22705   0.183   6.759   6.777
 7269SOL    HW122706   0.273   6.800   6.766
 7269SOL    HW222707   0.136   6.759   6.688
 7270SOL     OW22708   1.528   3.666   5.459
 7270SOL    HW122709   1.471   3.592   5.424
 7270SOL    HW222710   1.495   3.694   5.550
 7271SOL     OW22711   0.650   5.857   3.181
 7271SOL    HW122712   0.672   5.853   3.278
 7271SOL    HW222713   0.733   5.845   3.127
 7272SOL     OW22714   5.448   5.974   1.959
 7272SOL    HW122715   5.397   5.989   1.875
 7272SOL    HW222716   5.522   5.908   1.943
 7273SOL     OW22717   5.810   4.916   2.328
 7273SOL    HW122718   5.711   4.904   2.343
 7273SOL    HW222719   5.825   4.967   2.244
 7274SOL     OW22720   0.933   5.618   6.473
 7274SOL    HW122721   0.974   5.546   6.531
 7274SOL    HW222722   0.934   5.588   6.378
 7275SOL     OW22723   6.846   6.794   3.101
 7275SOL    HW122724   6.904   6.725   3.057
 7275SOL    HW222725   6.758   6.799   3.054
 7276SOL     OW22726   4.034   1.452   2.445
 7276SOL    HW122727   4.091   1.485   2.520
 7276SOL    HW222728   3.942   1.492   2.453
 7277SOL     OW22729   4.542   0.414   3.196
 7277SOL    HW122730   4.470   0.478   3.223
 7277SOL    HW222731   4.629   0.463   3.188
 7278SOL     OW22732   3.088   2.760   1.058
 7278SOL    HW122733   3.021   2.826   1.024
 7278SOL    HW222734   3.179   2.785   1.027
 7279SOL     OW22735   3.870   4.098   5.768
 7279SOL    HW122736   3.928   4.068   5.693
 7279SOL    HW222737   3.863   4.026   5.837
 7280SOL     OW22738   0.544   1.870   3.846
 7280SOL    HW122739   0.523   1.797   3.912
 7280SOL    HW222740   0.633   1.852   3.805
 7281SOL     OW22741   1.564   0.723   0.424
 7281SOL    HW122742   1.611   0.766   0.501
 7281SOL    HW222743   1.629   0.704   0.351
 7282SOL     OW22744   6.090   6.145   1.656
 7282SOL    HW122745   6.142   6.140   1.571
 7282SOL    HW222746   6.074   6.240   1.680
 7283SOL     OW22747   4.582   0.718   2.129
 7283SOL    HW122748   4.648   0.790   2.147
 7283SOL    HW222749   4.523   0.707   2.209
 7284SOL     OW22750   6.827   2.159   5.858
 7284SOL    HW122751   6.861   2.077   5.905
 7284SOL    HW222752   6.904   2.207   5.816
 7285SOL     OW22753   5.555   3.299   2.261
 7285SOL    HW122754   5.548   3.231   2.334
 7285SOL    HW222755   5.645   3.292   2.217
 7286SOL     OW22756   1.138   1.085   1.216
 7286SOL    HW122757   1.192   1.047   1.291
 7286SOL    HW222758   1.089   1.012   1.169
 7287SOL     OW22759   6.790   2.611   5.636
 7287SOL    HW122760   6.751   2.525   5.668
 7287SOL    HW222761   6.846   2.651   5.708
 7288SOL     OW22762   1.684   2.207   1.717
 7288SOL    HW122763   1.588   2.188   1.740
 7288SOL    HW222764   1.688   2.260   1.632
 7289SOL     OW22765   5.362   2.539   3.845
 7289SOL    HW122766   5.305   2.457   3.841
 7289SOL    HW222767   5.308   2.615   3.880
 7290SOL     OW22768   2.254   1.261   4.899
 7290SOL    HW122769   2.183   1.331   4.909
 7290SOL    HW222770   2.324   1.294   4.835
 7291SOL     OW22771   1.087   0.202   6.943
 7291SOL    HW122772   1.011   0.174   6.885
 7291SOL    HW222773   1.169   0.152   6.917
 7292SOL     OW22774   3.438   6.965   3.011
 7292SOL    HW122775   3.501   0.013   2.972
 7292SOL    HW222776   3.444   6.966   3.111
 7293SOL     OW22777   1.107   1.409   4.826
 7293SOL    HW122778   1.171   1.421   4.902
 7293SOL    HW222779   1.116   1.485   4.762
 7294SOL     OW22780   3.084   4.394   0.110
 7294SOL    HW122781   3.065   4.409   0.013
 7294SOL    HW222782   3.003   4.356   0.154
 7295SOL     OW22783   6.101   4.674   0.676
 7295SOL    HW122784   6.120   4.606   0.746
 7295SOL    HW222785   6.099   4.631   0.586
 7296SOL     OW22786   3.724   5.997   1.436
 7296SOL    HW122787   3.795   5.936   1.470
 7296SOL    HW222788   3.645   5.993   1.497
 7297SOL     OW22789   3.210   6.147   1.368
 7297SOL    HW122790   3.230   6.173   1.462
 7297SOL    HW222791   3.284   6.178   1.308
 7298SOL     OW22792   4.835   5.748   6.020
 7298SOL    HW122793   4.785   5.687   6.082
 7298SOL    HW222794   4.788   5.752   5.932
 7299SOL     OW22795   1.116   2.150   1.087
 7299SOL    HW122796   1.208   2.180   1.113
 7299SOL    HW222797   1.097   2.061   1.128
 7300SOL     OW22798   0.443   6.875   2.431
 7300SOL    HW122799   0.358   6.866   2.379
 7300SOL    HW222800   0.517   6.828   2.382
 7301SOL     OW22801   5.630   2.250   5.047
 7301SOL    HW122802   5.719   2.271   5.007
 7301SOL    HW222803   5.642   2.207   5.136
 7302SOL     OW22804   6.922   2.306   6.136
 7302SOL    HW122805   6.933   2.397   6.095
 7302SOL    HW222806   6.825   2.290   6.155
 7303SOL     OW22807   3.772   1.032   0.148
 7303SOL    HW122808   3.844   0.964   0.134
 7303SOL    HW222809   3.728   1.053   0.061
 7304SOL     OW22810   2.815   5.001   1.362
 7304SOL    HW122811   2.748   4.986   1.289
 7304SOL    HW222812   2.805   4.930   1.431
 7305SOL     OW22813   4.969   1.670   1.197
 7305SOL    HW122814   5.045   1.734   1.191
 7305SOL    HW222815   4.888   1.717   1.232
 7306SOL     OW22816   3.836   1.919   1.408
 7306SOL    HW122817   3.802   2.010   1.432
 7306SOL    HW222818   3.759   1.855   1.403
 7307SOL     OW22819   3.585   6.546   2.325
 7307SOL    HW122820   3.564   6.469   2.386
 7307SOL    HW222821   3.612   6.510   2.236
 7308SOL     OW22822   6.336   1.595   4.664
 7308SOL    HW122823   6.348   1.668   4.732
 7308SOL    HW222824   6.300   1.635   4.580
 7309SOL     OW22825   3.628   5.789   0.844
 7309SOL    HW122826   3.589   5.881   0.844
 7309SOL    HW222827   3.706   5.785   0.906
 7310SOL     OW22828   2.154   3.568   6.717
 7310SOL    HW122829   2.181   3.662   6.695
 7310SOL    HW222830   2.098   3.530   6.643
 7311SOL     OW22831   2.037   1.871   1.269
 7311SOL    HW122832   2.048   1.775   1.241
 7311SOL    HW222833   2.067   1.930   1.194
 7312SOL     OW22834   0.849   2.865   4.819
 7312SOL    HW122835   0.765   2.825   4.783
 7312SOL    HW222836   0.913   2.882   4.744
 7313SOL     OW22837   1.996   1.063   0.672
 7313SOL    HW122838   2.018   1.159   0.691
 7313SOL    HW222839   2.072   1.020   0.623
 7314SOL     OW22840   0.194   3.980   6.505
 7314SOL    HW122841   0.164   3.925   6.427
 7314SOL    HW222842   0.187   4.077   6.481
 7315SOL     OW22843   5.147   5.330   2.155
 7315SOL    HW122844   5.069   5.393   2.148
 7315SOL    HW222845   5.130   5.249   2.100
 7316SOL     OW22846   3.506   3.385   6.650
 7316SOL    HW122847   3.528   3.469   6.701
 7316SOL    HW222848   3.407   3.372   6.648
 7317SOL     OW22849   4.208   1.871   1.190
 7317SOL    HW122850   4.204   1.832   1.282
 7317SOL    HW222851   4.177   1.966   1.193
 7318SOL     OW22852   3.193   0.308   2.105
 7318SOL    HW122853   3.194   0.295   2.204
 7318SOL    HW222854   3.189   0.405   2.083
 7319SOL     OW22855   6.299   3.820   0.007
 7319SOL    HW122856   6.390   3.826   6.983
 7319SOL    HW222857   6.310   3.809   0.106
 7320SOL     OW22858   0.452   3.869   1.961
 7320SOL    HW122859   0.371   3.873   2.019
 7320SOL    HW222860   0.441   3.932   1.884
 7321SOL     OW22861   2.176   6.386   5.765
 7321SOL    HW122862   2.084   6.390   5.805
 7321SOL    HW222863   2.193   6.470   5.713
 7322SOL     OW22864   6.528   2.763   3.130
 7322SOL    HW122865   6.536   2.862   3.130
 7322SOL    HW222866   6.432   2.737   3.135
 7323SOL     OW22867   2.192   3.049   1.587
 7323SOL    HW122868   2.290   3.067   1.581
 7323SOL    HW222869   2.146   3.125   1.632
 7324SOL     OW22870   5.183   5.606   1.317
 7324SOL    HW122871   5.135   5.531   1.363
 7324SOL    HW222872   5.127   5.641   1.242
 7325SOL     OW22873   2.278   0.206   6.065
 7325SOL    HW122874   2.216   0.137   6.029
 7325SOL    HW222875   2.363   0.206   6.011
 7326SOL     OW22876   3.321   5.792   6.528
 7326SOL    HW122877   3.333   5.888   6.502
 7326SOL    HW222878   3.235   5.782   6.578
 7327SOL     OW22879   5.866   2.111   5.612
 7327SOL    HW122880   5.878   2.048   5.689
 7327SOL    HW222881   5.799   2.181   5.636
 7328SOL     OW22882   4.634   6.729   6.596
 7328SOL    HW122883   4.587   6.738   6.509
 7328SOL    HW222884   4.615   6.809   6.653
 7329SOL     OW22885   0.782   4.157   0.527
 7329SOL    HW122886   0.852   4.228   0.525
 7329SOL    HW222887   0.757   4.137   0.622
 7330SOL     OW22888   1.941   3.438   0.197
 7330SOL    HW122889   1.862   3.484   0.157
 7330SOL    HW222890   1.915   3.346   0.226
 7331SOL     OW22891   5.946   6.711   0.848
 7331SOL    HW122892   5.914   6.622   0.815
 7331SOL    HW222893   5.968   6.770   0.771
 7332SOL     OW22894   3.502   5.692   0.133
 7332SOL    HW122895   3.546   5.768   0.084
 7332SOL    HW222896   3.403   5.705   0.131
 7333SOL     OW22897   6.304   3.111   3.734
 7333SOL    HW122898   6.304   3.167   3.817
 7333SOL    HW222899   6.217   3.125   3.685
 7334SOL     OW22900   1.900   6.082   6.162
 7334SOL    HW122901   1.981   6.134   6.136
 7334SOL    HW222902   1.881   6.012   6.093
 7335SOL     OW22903   0.171   2.670   3.294
 7335SOL    HW122904   0.162   2.614   3.211
 7335SOL    HW222905   0.153   2.613   3.374
 7336SOL     OW22906   2.166   6.873   2.226
 7336SOL    HW122907   2.161   6.819   2.141
 7336SOL    HW222908   2.122   6.822   2.300
 7337SOL     OW22909   1.395   2.653   2.091
 7337SOL    HW122910   1.327   2.709   2.044
 7337SOL    HW222911   1.353   2.566   2.120
 7338SOL     OW22912   5.103   1.636   1.724
 7338SOL    HW122913   5.099   1.706   1.653
 7338SOL    HW222914   5.187   1.647   1.778
 7339SOL     OW22915   5.982   0.321   4.816
 7339SOL    HW122916   5.976   0.366   4.905
 7339SOL    HW222917   6.044   0.242   4.822
 7340SOL     OW22918   3.081   1.526   0.109
 7340SOL    HW122919   2.989   1.512   0.072
 7340SOL    HW222920   3.113   1.618   0.085
 7341SOL     OW22921   1.105   4.052   4.968
 7341SOL    HW122922   1.136   4.033   4.875
 7341SOL    HW222923   1.070   4.145   4.973
 7342SOL     OW22924   0.424   6.767   5.820
 7342SOL    HW122925   0.345   6.820   5.849
 7342SOL    HW222926   0.401   6.669   5.822
 7343SOL     OW22927   5.791   4.660   1.609
 7343SOL    HW122928   5.877   4.710   1.614
 7343SOL    HW222929   5.792   4.586   1.676
 7344SOL     OW22930   1.122   0.834   5.938
 7344SOL    HW122931   1.090   0.832   6.033
 7344SOL    HW222932   1.124   0.929   5.907
 7345SOL     OW22933   5.027   5.923   5.596
 7345SOL    HW122934   4.987   5.843   5.641
 7345SOL    HW222935   5.127   5.916   5.599
 7346SOL     OW22936   5.244   4.284   1.417
 7346SOL    HW122937   5.298   4.368   1.414
 7346SOL    HW222938   5.290   4.213   1.363
 7347SOL     OW22939   0.495   3.100   1.036
 7347SOL    HW122940   0.480   3.034   1.111
 7347SOL    HW222941   0.500   3.192   1.074
 7348SOL     OW22942   1.237   3.810   3.539
 7348SOL    HW122943   1.229   3.873   3.461
 7348SOL    HW222944   1.151   3.760   3.550
 7349SOL     OW22945   4.661   2.066   0.402
 7349SOL    HW122946   4.571   2.088   0.440
 7349SOL    HW222947   4.655   1.981   0.350
 7350SOL     OW22948   1.573   3.185   5.375
 7350SOL    HW122949   1.597   3.267   5.324
 7350SOL    HW222950   1.653   3.125   5.382
 7351SOL     OW22951   4.983   6.199   5.225
 7351SOL    HW122952   4.953   6.208   5.130
 7351SOL    HW222953   5.083   6.202   5.229
 7352SOL     OW22954   2.037   2.640   3.193
 7352SOL    HW122955   1.940   2.615   3.190
 7352SOL    HW222956   2.092   2.558   3.209
 7353SOL     OW22957   1.104   0.431   5.663
 7353SOL    HW122958   1.181   0.430   5.727
 7353SOL    HW222959   1.029   0.376   5.699
 7354SOL     OW22960   0.314   1.693   6.257
 7354SOL    HW122961   0.315   1.635   6.339
 7354SOL    HW222962   0.357   1.644   6.182
 7355SOL     OW22963   2.139   0.924   0.388
 7355SOL    HW122964   2.081   0.843   0.377
 7355SOL    HW222965   2.234   0.895   0.403
 7356SOL     OW22966   3.808   3.711   6.066
 7356SOL    HW122967   3.762   3.647   6.127
 7356SOL    HW222968   3.856   3.661   5.994
 7357SOL     OW22969   4.561   6.524   1.668
 7357SOL    HW122970   4.637   6.583   1.638
 7357SOL    HW222971   4.574   6.432   1.632
 7358SOL     OW22972   6.442   3.603   3.249
 7358SOL    HW122973   6.400   3.597   3.340
 7358SOL    HW222974   6.511   3.675   3.249
 7359SOL     OW22975   2.505   2.352   6.141
 7359SOL    HW122976   2.545   2.435   6.103
 7359SOL    HW222977   2.446   2.376   6.219
 7360SOL     OW22978   3.656   4.237   5.605
 7360SOL    HW122979   3.718   4.180   5.658
 7360SOL    HW222980   3.704   4.275   5.526
 7361SOL     OW22981   4.722   0.127   1.450
 7361SOL    HW122982   4.635   0.167   1.478
 7361SOL    HW222983   4.731   0.034   1.487
 7362SOL     OW22984   1.229   5.086   4.773
 7362SOL    HW122985   1.208   5.017   4.842
 7362SOL    HW222986   1.188   5.060   4.686
 7363SOL     OW22987   4.000   1.773   1.021
 7363SOL    HW122988   3.930   1.836   1.055
 7363SOL    HW222989   4.082   1.782   1.077
 7364SOL     OW22990   4.512   0.921   1.457
 7364SOL    HW122991   4.429   0.972   1.435
 7364SOL    HW222992   4.524   0.918   1.556
 7365SOL     OW22993   1.312   6.548   1.895
 7365SOL    HW122994   1.334   6.504   1.982
 7365SOL    HW222995   1.392   6.547   1.836
 7366SOL     OW22996   2.331   5.852   6.618
 7366SOL    HW122997   2.396   5.808   6.557
 7366SOL    HW222998   2.349   5.823   6.712
 7367SOL     OW22999   5.326   3.322   1.079
 7367SOL    HW123000   5.285   3.373   1.154
 7367SOL    HW223001   5.330   3.380   0.997
 7368SOL     OW23002   3.925   2.989   3.150
 7368SOL    HW123003   3.980   3.043   3.213
 7368SOL    HW223004   3.834   2.974   3.189
 7369SOL     OW23005   4.153   2.969   6.676
 7369SOL    HW123006   4.179   2.875   6.699
 7369SOL    HW223007   4.218   3.006   6.610
 7370SOL     OW23008   2.040   0.635   4.651
 7370SOL    HW123009   2.064   0.677   4.564
 7370SOL    HW223010   2.101   0.558   4.669
 7371SOL     OW23011   2.057   6.224   3.392
 7371SOL    HW123012   1.994   6.179   3.456
 7371SOL    HW223013   2.113   6.154   3.347
 7372SOL     OW23014   4.227   1.227   4.976
 7372SOL    HW123015   4.278   1.311   4.957
 7372SOL    HW223016   4.227   1.209   5.074
 7373SOL     OW23017   5.347   1.745   4.575
 7373SOL    HW123018   5.427   1.798   4.547
 7373SOL    HW223019   5.278   1.808   4.612
 7374SOL     OW23020   2.836   1.684   4.994
 7374SOL    HW123021   2.930   1.651   5.003
 7374SOL    HW223022   2.783   1.618   4.941
 7375SOL     OW23023   2.042   3.343   3.620
 7375SOL    HW123024   2.104   3.327   3.543
 7375SOL    HW223025   2.003   3.435   3.614
 7376SOL     OW23026   3.260   1.681   0.410
 7376SOL    HW123027   3.329   1.646   0.348
 7376SOL    HW223028   3.268   1.636   0.498
 7377SOL     OW23029   5.330   4.602   0.585
 7377SOL    HW123030   5.337   4.602   0.685
 7377SOL    HW223031   5.314   4.508   0.553
 7378SOL     OW23032   0.089   1.209   5.731
 7378SOL    HW123033   0.178   1.218   5.686
 7378SOL    HW223034   0.021   1.178   5.664
 7379SOL     OW23035   3.493   1.479   3.107
 7379SOL    HW123036   3.466   1.568   3.068
 7379SOL    HW223037   3.551   1.494   3.187
 7380SOL     OW23038   0.116   4.311   4.842
 7380SOL    HW123039   0.190   4.296   4.907
 7380SOL    HW223040   0.126   4.248   4.765
 7381SOL     OW23041   4.470   3.946   1.721
 7381SOL    HW123042   4.559   3.981   1.693
 7381SOL    HW223043   4.430   4.006   1.790
 7382SOL     OW23044   0.008   5.635   6.383
 7382SOL    HW123045   7.000   5.642   6.288
 7382SOL    HW223046   6.968   5.693   6.439
 7383SOL     OW23047   0.991   0.098   1.440
 7383SOL    HW123048   1.077   0.052   1.418
 7383SOL    HW223049   0.992   0.129   1.535
 7384SOL     OW23050   5.662   0.974   3.492
 7384SOL    HW123051   5.569   1.006   3.475
 7384SOL    HW223052   5.723   1.014   3.423
 7385SOL     OW23053   3.886   5.743   1.577
 7385SOL    HW123054   3.866   5.751   1.675
 7385SOL    HW223055   3.985   5.746   1.564
 7386SOL     OW23056   0.460   2.251   5.554
 7386SOL    HW123057   0.463   2.244   5.654
 7386SOL    HW223058   0.551   2.230   5.518
 7387SOL     OW23059   4.991   6.496   4.718
 7387SOL    HW123060   4.898   6.486   4.751
 7387SOL    HW223061   5.000   6.454   4.628
 7388SOL     OW23062   0.104   5.274   2.433
 7388SOL    HW123063   0.063   5.233   2.514
 7388SOL    HW223064   0.202   5.288   2.448
 7389SOL     OW23065   0.284   3.276   6.432
 7389SOL    HW123066   0.383   3.284   6.442
 7389SOL    HW223067   0.242   3.366   6.440
 7390SOL     OW23068   1.465   1.749   0.293
 7390SOL    HW123069   1.515   1.787   0.372
 7390SOL    HW223070   1.417   1.823   0.246
 7391SOL     OW23071   3.755   3.313   4.873
 7391SOL    HW123072   3.764   3.400   4.921
 7391SOL    HW223073   3.841   3.292   4.826
 7392SOL     OW23074   2.550   6.065   7.003
 7392SOL    HW123075   2.516   5.996   6.939
 7392SOL    HW223076   2.609   6.129   6.953
 7393SOL     OW23077   5.600   5.006   2.752
 7393SOL    HW123078   5.528   5.065   2.716
 7393SOL    HW223079   5.682   5.015   2.696
 7394SOL     OW23080   2.802   2.288   5.522
 7394SOL    HW123081   2.815   2.248   5.613
 7394SOL    HW223082   2.704   2.302   5.506
 7395SOL     OW23083   1.834   2.342   0.113
 7395SOL    HW123084   1.804   2.360   0.019
 7395SOL    HW223085   1.894   2.416   0.143
 7396SOL     OW23086   1.170   7.012   0.307
 7396SOL    HW123087   1.225   6.928   0.311
 7396SOL    HW223088   1.115   7.012   0.224
 7397SOL     OW23089   4.404   5.399   4.747
 7397SOL    HW123090   4.381   5.304   4.725
 7397SOL    HW223091   4.439   5.404   4.841
 7398SOL     OW23092   2.317   4.764   4.085
 7398SOL    HW123093   2.291   4.673   4.116
 7398SOL    HW223094   2.413   4.764   4.056
 7399SOL     OW23095   1.063   2.315   5.252
 7399SOL    HW123096   1.022   2.350   5.337
 7399SOL    HW223097   1.031   2.370   5.175
 7400SOL     OW23098   4.069   2.598   5.884
 7400SOL    HW123099   4.098   2.512   5.926
 7400SOL    HW223100   4.106   2.674   5.938
 7401SOL     OW23101   1.653   1.360   4.720
 7401SOL    HW123102   1.611   1.335   4.633
 7401SOL    HW223103   1.634   1.289   4.788
 7402SOL     OW23104   2.793   5.945   5.925
 7402SOL    HW123105   2.811   5.846   5.919
 7402SOL    HW223106   2.699   5.959   5.955
 7403SOL     OW23107   2.093   4.013   2.388
 7403SOL    HW123108   2.096   3.913   2.398
 7403SOL    HW223109   2.169   4.054   2.438
 7404SOL     OW23110   2.377   5.332   1.378
 7404SOL    HW123111   2.353   5.404   1.314
 7404SOL    HW223112   2.476   5.325   1.386
 7405SOL     OW23113   3.492   4.960   4.277
 7405SOL    HW123114   3.484   4.928   4.372
 7405SOL    HW223115   3.587   4.958   4.249
 7406SOL     OW23116   0.068   2.902   3.401
 7406SOL    HW123117   0.111   2.821   3.361
 7406SOL    HW223118   0.028   2.878   3.490
 7407SOL     OW23119   0.673   6.748   4.333
 7407SOL    HW123120   0.607   6.796   4.276
 7407SOL    HW223121   0.635   6.660   4.362
 7408SOL     OW23122   2.896   4.069   6.811
 7408SOL    HW123123   2.811   4.059   6.759
 7408SOL    HW223124   2.952   4.142   6.771
 7409SOL     OW23125   6.960   1.881   6.234
 7409SOL    HW123126   6.892   1.922   6.296
 7409SOL    HW223127   6.976   1.786   6.261
 7410SOL     OW23128   0.197   6.932   0.594
 7410SOL    HW123129   0.213   6.936   0.692
 7410SOL    HW223130   0.214   0.004   0.554
 7411SOL     OW23131   2.550   0.118   5.174
 7411SOL    HW123132   2.494   0.175   5.115
 7411SOL    HW223133   2.495   0.086   5.252
 7412SOL     OW23134   4.996   0.008   1.880
 7412SOL    HW123135   4.974   0.086   1.821
 7412SOL    HW223136   5.033   6.953   1.824
 7413SOL     OW23137   5.010   6.307   4.517
 7413SOL    HW123138   4.973   6.256   4.440
 7413SOL    HW223139   4.954   6.291   4.598
 7414SOL     OW23140   0.065   0.364   3.769
 7414SOL    HW123141   0.053   0.351   3.670
 7414SOL    HW223142   7.001   0.403   3.808
 7415SOL     OW23143   1.966   4.556   4.449
 7415SOL    HW123144   1.917   4.495   4.512
 7415SOL    HW223145   2.054   4.580   4.487
 7416SOL     OW23146   2.066   1.356   3.149
 7416SOL    HW123147   2.012   1.417   3.208
 7416SOL    HW223148   2.161   1.386   3.148
 7417SOL     OW23149   1.307   0.572   0.058
 7417SOL    HW123150   1.281   0.526   6.993
 7417SOL    HW223151   1.247   0.541   0.133
 7418SOL     OW23152   3.017   5.514   1.023
 7418SOL    HW123153   2.991   5.561   1.108
 7418SOL    HW223154   3.100   5.461   1.039
 7419SOL     OW23155   5.826   2.829   4.921
 7419SOL    HW123156   5.815   2.837   4.822
 7419SOL    HW223157   5.830   2.921   4.961
 7420SOL     OW23158   0.555   6.858   1.917
 7420SOL    HW123159   0.510   6.770   1.934
 7420SOL    HW223160   0.491   6.919   1.869
 7421SOL     OW23161   3.661   4.088   0.589
 7421SOL    HW123162   3.738   4.119   0.646
 7421SOL    HW223163   3.616   4.168   0.548
 7422SOL     OW23164   6.950   3.143   2.802
 7422SOL    HW123165   6.978   3.225   2.852
 7422SOL    HW223166   6.895   3.085   2.862
 7423SOL     OW23167   5.590   4.184   5.302
 7423SOL    HW123168   5.494   4.190   5.330
 7423SOL    HW223169   5.597   4.206   5.205
 7424SOL     OW23170   6.970   6.826   6.057
 7424SOL    HW123171   6.891   6.841   6.116
 7424SOL    HW223172   6.947   6.851   5.963
 7425SOL     OW23173   4.117   5.063   6.989
 7425SOL    HW123174   4.173   5.046   0.052
 7425SOL    HW223175   4.025   5.025   7.004
 7426SOL     OW23176   2.442   1.139   5.689
 7426SOL    HW123177   2.440   1.220   5.747
 7426SOL    HW223178   2.514   1.149   5.620
 7427SOL     OW23179   4.299   0.356   3.952
 7427SOL    HW123180   4.322   0.452   3.969
 7427SOL    HW223181   4.206   0.349   3.918
 7428SOL     OW23182   3.934   1.606   5.861
 7428SOL    HW123183   4.012   1.575   5.915
 7428SOL    HW223184   3.924   1.705   5.870
 7429SOL     OW23185   0.327   6.671   4.350
 7429SOL    HW123186   0.407   6.621   4.384
 7429SOL    HW223187   0.299   6.739   4.418
 7430SOL     OW23188   0.815   2.690   0.181
 7430SOL    HW123189   0.724   2.680   0.220
 7430SOL    HW223190   0.808   2.728   0.089
 7431SOL     OW23191   1.180   2.442   3.060
 7431SOL    HW123192   1.167   2.368   2.994
 7431SOL    HW223193   1.266   2.488   3.042
 7432SOL     OW23194   1.080   0.709   2.635
 7432SOL    HW123195   1.174   0.676   2.646
 7432SOL    HW223196   1.033   0.703   2.723
 7433SOL     OW23197   4.607   5.818   6.297
 7433SOL    HW123198   4.576   5.814   6.392
 7433SOL    HW223199   4.623   5.913   6.271
 7434SOL     OW23200   5.620   6.480   6.035
 7434SOL    HW123201   5.546   6.540   6.062
 7434SOL    HW223202   5.663   6.515   5.952
 7435SOL     OW23203   4.022   5.456   0.797
 7435SOL    HW123204   4.021   5.553   0.775
 7435SOL    HW223205   4.084   5.409   0.733
 7436SOL     OW23206   5.519   3.712   6.161
 7436SOL    HW123207   5.546   3.807   6.175
 7436SOL    HW223208   5.442   3.708   6.098
 7437SOL     OW23209   1.142   6.205   6.963
 7437SOL    HW123210   1.140   6.148   0.027
 7437SOL    HW223211   1.104   6.154   6.886
 7438SOL     OW23212   1.472   6.024   6.930
 7438SOL    HW123213   1.526   6.041   6.848
 7438SOL    HW223214   1.429   6.109   6.960
 7439SOL     OW23215   1.729   5.478   5.853
 7439SOL    HW123216   1.820   5.467   5.815
 7439SOL    HW223217   1.667   5.513   5.783
 7440SOL     OW23218   6.977   3.673   4.255
 7440SOL    HW123219   7.014   3.694   4.165
 7440SOL    HW223220   7.007   3.582   4.284
 7441SOL     OW23221   5.713   6.202   3.791
 7441SOL    HW123222   5.628   6.233   3.832
 7441SOL    HW223223   5.730   6.253   3.706
 7442SOL     OW23224   6.014   1.108   5.955
 7442SOL    HW123225   6.054   1.190   5.995
 7442SOL    HW223226   5.956   1.133   5.878
 7443SOL     OW23227   0.048   6.505   2.072
 7443SOL    HW123228   0.086   6.597   2.062
 7443SOL    HW223229   0.123   6.439   2.079
 7444SOL     OW23230   5.976   2.768   5.494
 7444SOL    HW123231   5.882   2.802   5.501
 7444SOL    HW223232   5.988   2.720   5.408
 7445SOL     OW23233   3.762   1.064   1.369
 7445SOL    HW123234   3.755   0.984   1.427
 7445SOL    HW223235   3.691   1.061   1.299
 7446SOL     OW23236   6.035   3.407   0.818
 7446SOL    HW123237   6.004   3.344   0.746
 7446SOL    HW223238   6.020   3.364   0.907
 7447SOL     OW23239   0.585   3.374   6.426
 7447SOL    HW123240   0.558   3.411   6.515
 7447SOL    HW223241   0.671   3.323   6.436
 7448SOL     OW23242   6.644   6.147   5.368
 7448SOL    HW123243   6.683   6.101   5.288
 7448SOL    HW223244   6.645   6.084   5.446
 7449SOL     OW23245   6.939   3.797   2.042
 7449SOL    HW123246   0.001   3.768   2.093
 7449SOL    HW223247   6.867   3.728   2.050
 7450SOL     OW23248   5.306   2.176   4.522
 7450SOL    HW123249   5.345   2.185   4.431
 7450SOL    HW223250   5.376   2.142   4.585
 7451SOL     OW23251   6.897   0.184   2.958
 7451SOL    HW123252   6.841   0.146   3.032
 7451SOL    HW223253   6.880   0.133   2.874
 7452SOL     OW23254   0.336   6.465   4.667
 7452SOL    HW123255   0.316   6.561   4.646
 7452SOL    HW223256   0.255   6.422   4.708
 7453SOL     OW23257   4.561   0.394   5.965
 7453SOL    HW123258   4.630   0.465   5.957
 7453SOL    HW223259   4.522   0.374   5.875
 7454SOL     OW23260   0.338   2.203   2.450
 7454SOL    HW123261   0.248   2.159   2.460
 7454SOL    HW223262   0.326   2.302   2.449
 7455SOL     OW23263   0.034   1.631   2.547
 7455SOL    HW123264   0.029   1.556   2.481
 7455SOL    HW223265   7.012   1.602   2.634
 7456SOL     OW23266   0.766   1.466   4.424
 7456SOL    HW123267   0.704   1.390   4.446
 7456SOL    HW223268   0.723   1.553   4.451
 7457SOL     OW23269   3.833   0.104   5.905
 7457SOL    HW123270   3.916   0.119   5.958
 7457SOL    HW223271   3.801   0.190   5.866
 7458SOL     OW23272   1.775   6.478   5.543
 7458SOL    HW123273   1.678   6.455   5.530
 7458SOL    HW223274   1.818   6.410   5.602
 7459SOL     OW23275   4.547   0.484   1.658
 7459SOL    HW123276   4.582   0.549   1.591
 7459SOL    HW223277   4.498   0.534   1.730
 7460SOL     OW23278   1.137   5.617   0.870
 7460SOL    HW123279   1.103   5.566   0.949
 7460SOL    HW223280   1.078   5.600   0.792
 7461SOL     OW23281   5.750   1.376   6.036
 7461SOL    HW123282   5.793   1.393   6.125
 7461SOL    HW223283   5.726   1.464   5.993
 7462SOL     OW23284   2.083   3.822   2.726
 7462SOL    HW123285   2.114   3.917   2.727
 7462SOL    HW223286   2.081   3.789   2.632
 7463SOL     OW23287   2.106   4.637   1.233
 7463SOL    HW123288   2.138   4.725   1.199
 7463SOL    HW223289   2.106   4.571   1.158
 7464SOL     OW23290   5.310   0.830   6.897
 7464SOL    HW123291   5.266   0.913   6.932
 7464SOL    HW223292   5.243   0.774   6.848
 7465SOL     OW23293   1.068   5.853   0.031
 7465SOL    HW123294   1.140   5.786   0.011
 7465SOL    HW223295   1.104   5.924   0.091
 7466SOL     OW23296   6.684   0.592   5.577
 7466SOL    HW123297   6.660   0.525   5.647
 7466SOL    HW223298   6.636   0.678   5.597
 7467SOL     OW23299   0.411   1.543   1.047
 7467SOL    HW123300   0.510   1.541   1.063
 7467SOL    HW223301   0.363   1.532   1.135
 7468SOL     OW23302   5.576   2.822   3.595
 7468SOL    HW123303   5.652   2.771   3.553
 7468SOL    HW223304   5.489   2.785   3.562
 7469SOL     OW23305   0.123   1.133   1.007
 7469SOL    HW123306   0.119   1.233   0.995
 7469SOL    HW223307   0.039   1.092   0.972
 7470SOL     OW23308   6.443   3.515   4.267
 7470SOL    HW123309   6.403   3.432   4.227
 7470SOL    HW223310   6.409   3.595   4.218
 7471SOL     OW23311   6.169   6.280   6.572
 7471SOL    HW123312   6.179   6.377   6.593
 7471SOL    HW223313   6.082   6.266   6.525
 7472SOL     OW23314   6.639   6.830   4.885
 7472SOL    HW123315   6.590   6.826   4.972
 7472SOL    HW223316   6.627   6.744   4.836
 7473SOL     OW23317   5.947   5.075   3.212
 7473SOL    HW123318   6.041   5.068   3.179
 7473SOL    HW223319   5.947   5.093   3.310
 7474SOL     OW23320   1.015   1.309   5.217
 7474SOL    HW123321   1.027   1.356   5.304
 7474SOL    HW223322   0.925   1.331   5.179
 7475SOL     OW23323   4.841   2.018   2.275
 7475SOL    HW123324   4.802   2.060   2.193
 7475SOL    HW223325   4.833   1.919   2.269
 7476SOL     OW23326   3.526   0.409   3.983
 7476SOL    HW123327   3.506   0.351   3.904
 7476SOL    HW223328   3.576   0.356   4.052
 7477SOL     OW23329   0.430   0.828   5.103
 7477SOL    HW123330   0.456   0.859   5.194
 7477SOL    HW223331   0.412   0.730   5.105
 7478SOL     OW23332   4.725   5.237   6.471
 7478SOL    HW123333   4.797   5.268   6.533
 7478SOL    HW223334   4.765   5.200   6.388
 7479SOL     OW23335   4.443   2.473   2.007
 7479SOL    HW123336   4.382   2.514   1.938
 7479SOL    HW223337   4.400   2.391   2.044
 7480SOL     OW23338   0.542   4.226   2.266
 7480SOL    HW123339   0.450   4.215   2.304
 7480SOL    HW223340   0.559   4.323   2.247
 7481SOL     OW23341   6.162   5.376   1.535
 7481SOL    HW123342   6.206   5.338   1.453
 7481SOL    HW223343   6.114   5.460   1.512
 7482SOL     OW23344   4.868   2.238   2.967
 7482SOL    HW123345   4.869   2.315   3.031
 7482SOL    HW223346   4.843   2.154   3.016
 7483SOL     OW23347   4.564   2.655   4.407
 7483SOL    HW123348   4.584   2.688   4.314
 7483SOL    HW223349   4.600   2.719   4.474
 7484SOL     OW23350   1.484   0.094   4.066
 7484SOL    HW123351   1.559   0.090   4.133
 7484SOL    HW223352   1.522   0.085   3.974
 7485SOL     OW23353   3.401   6.863   4.698
 7485SOL    HW123354   3.371   6.831   4.608
 7485SOL    HW223355   3.479   6.809   4.729
 7486SOL     OW23356   2.009   6.838   0.563
 7486SOL    HW123357   2.104   6.850   0.593
 7486SOL    HW223358   1.974   6.924   0.527
 7487SOL     OW23359   2.109   6.861   2.999
 7487SOL    HW123360   2.086   6.928   2.929
 7487SOL    HW223361   2.198   6.883   3.038
 7488SOL     OW23362   2.709   0.331   3.825
 7488SOL    HW123363   2.785   0.392   3.802
 7488SOL    HW223364   2.692   0.269   3.749
 7489SOL     OW23365   5.104   2.664   5.359
 7489SOL    HW123366   5.201   2.656   5.340
 7489SOL    HW223367   5.077   2.596   5.427
 7490SOL     OW23368   1.290   1.096   2.119
 7490SOL    HW123369   1.310   1.004   2.154
 7490SOL    HW223370   1.335   1.108   2.030
 7491SOL     OW23371   5.408   2.189   6.503
 7491SOL    HW123372   5.478   2.260   6.512
 7491SOL    HW223373   5.338   2.219   6.438
 7492SOL     OW23374   2.102   0.437   3.190
 7492SOL    HW123375   2.071   0.367   3.126
 7492SOL    HW223376   2.196   0.463   3.168
 7493SOL     OW23377   0.465   3.452   6.680
 7493SOL    HW123378   0.378   3.500   6.677
 7493SOL    HW223379   0.486   3.426   6.774
 7494SOL     OW23380   5.450   0.827   2.669
 7494SOL    HW123381   5.372   0.869   2.623
 7494SOL    HW223382   5.437   0.833   2.768
 7495SOL     OW23383   1.967   1.897   0.286
 7495SOL    HW123384   1.996   1.975   0.230
 7495SOL    HW223385   1.909   1.836   0.232
 7496SOL     OW23386   6.167   3.392   5.619
 7496SOL    HW123387   6.136   3.304   5.581
 7496SOL    HW223388   6.123   3.467   5.569
 7497SOL     OW23389   2.608   4.306   6.393
 7497SOL    HW123390   2.549   4.382   6.421
 7497SOL    HW223391   2.626   4.313   6.295
 7498SOL     OW23392   3.076   0.858   5.290
 7498SOL    HW123393   3.168   0.853   5.250
 7498SOL    HW223394   3.036   0.948   5.270
 7499SOL     OW23395   3.664   1.658   2.682
 7499SOL    HW123396   3.670   1.741   2.627
 7499SOL    HW223397   3.621   1.679   2.770
 7500SOL     OW23398   3.117   5.209   2.848
 7500SOL    HW123399   3.211   5.229   2.821
 7500SOL    HW223400   3.088   5.122   2.808
 7501SOL     OW23401   5.040   4.116   4.869
 7501SOL    HW123402   4.971   4.063   4.918
 7501SOL    HW223403   5.066   4.067   4.785
 7502SOL     OW23404   2.028   0.768   4.408
 7502SOL    HW123405   2.012   0.856   4.453
 7502SOL    HW223406   1.963   0.756   4.333
 7503SOL     OW23407   2.466   0.356   1.403
 7503SOL    HW123408   2.436   0.311   1.487
 7503SOL    HW223409   2.386   0.390   1.353
 7504SOL     OW23410   1.435   0.131   2.875
 7504SOL    HW123411   1.338   0.134   2.897
 7504SOL    HW223412   1.489   0.130   2.959
 7505SOL     OW23413   1.747   2.005   5.375
 7505SOL    HW123414   1.698   2.060   5.307
 7505SOL    HW223415   1.845   2.008   5.355
 7506SOL     OW23416   5.666   0.876   3.203
 7506SOL    HW123417   5.737   0.812   3.173
 7506SOL    HW223418   5.648   0.863   3.300
 7507SOL     OW23419   0.613   1.050   2.600
 7507SOL    HW123420   0.528   1.015   2.560
 7507SOL    HW223421   0.671   1.087   2.528
 7508SOL     OW23422   1.010   0.187   1.688
 7508SOL    HW123423   1.036   0.135   1.769
 7508SOL    HW223424   1.024   0.284   1.705
 7509SOL     OW23425   5.747   4.420   0.565
 7509SOL    HW123426   5.732   4.368   0.650
 7509SOL    HW223427   5.747   4.518   0.586
 7510SOL     OW23428   4.069   3.802   5.667
 7510SOL    HW123429   4.140   3.766   5.727
 7510SOL    HW223430   4.034   3.729   5.608
 7511SOL     OW23431   2.437   6.394   3.454
 7511SOL    HW123432   2.505   6.435   3.515
 7511SOL    HW223433   2.434   6.444   3.368
 7512SOL     OW23434   2.873   6.317   6.570
 7512SOL    HW123435   2.953   6.260   6.591
 7512SOL    HW223436   2.793   6.260   6.558
 7513SOL     OW23437   2.702   0.748   1.495
 7513SOL    HW123438   2.764   0.783   1.565
 7513SOL    HW223439   2.638   0.820   1.468
 7514SOL     OW23440   2.621   6.188   1.936
 7514SOL    HW123441   2.564   6.248   1.992
 7514SOL    HW223442   2.659   6.240   1.859
 7515SOL     OW23443   6.920   5.017   3.027
 7515SOL    HW123444   6.922   5.113   3.001
 7515SOL    HW223445   7.008   4.991   3.068
 7516SOL     OW23446   0.152   6.676   5.327
 7516SOL    HW123447   0.166   6.768   5.290
 7516SOL    HW223448   0.140   6.682   5.426
 7517SOL     OW23449   0.246   2.913   1.018
 7517SOL    HW123450   0.265   2.956   0.930
 7517SOL    HW223451   0.317   2.846   1.039
 7518SOL     OW23452   4.499   4.732   4.096
 7518SOL    HW123453   4.455   4.669   4.160
 7518SOL    HW223454   4.472   4.826   4.117
 7519SOL     OW23455   0.148   6.202   3.277
 7519SOL    HW123456   0.078   6.153   3.226
 7519SOL    HW223457   0.105   6.253   3.352
 7520SOL     OW23458   2.483   0.048   2.194
 7520SOL    HW123459   2.556   0.036   2.261
 7520SOL    HW223460   2.472   0.145   2.173
 7521SOL     OW23461   5.101   4.379   5.971
 7521SOL    HW123462   5.061   4.291   5.945
 7521SOL    HW223463   5.178   4.400   5.910
 7522SOL     OW23464   1.457   1.106   6.029
 7522SOL    HW123465   1.477   1.201   6.003
 7522SOL    HW223466   1.376   1.075   5.980
 7523SOL     OW23467   5.889   0.433   5.919
 7523SOL    HW123468   5.920   0.509   5.863
 7523SOL    HW223469   5.816   0.384   5.872
 7524SOL     OW23470   1.305   2.431   5.484
 7524SOL    HW123471   1.312   2.495   5.408
 7524SOL    HW223472   1.272   2.342   5.450
 7525SOL     OW23473   3.366   0.895   5.884
 7525SOL    HW123474   3.279   0.945   5.883
 7525SOL    HW223475   3.442   0.960   5.883
 7526SOL     OW23476   3.011   3.267   1.916
 7526SOL    HW123477   2.983   3.252   2.011
 7526SOL    HW223478   3.066   3.350   1.910
 7527SOL     OW23479   2.849   6.106   3.206
 7527SOL    HW123480   2.920   6.042   3.236
 7527SOL    HW223481   2.759   6.064   3.220
 7528SOL     OW23482   5.778   2.435   0.352
 7528SOL    HW123483   5.759   2.397   0.443
 7528SOL    HW223484   5.742   2.528   0.347
 7529SOL     OW23485   4.863   1.004   4.678
 7529SOL    HW123486   4.898   1.086   4.724
 7529SOL    HW223487   4.826   1.030   4.589
 7530SOL     OW23488   6.804   2.947   3.010
 7530SOL    HW123489   6.891   2.982   3.045
 7530SOL    HW223490   6.730   3.010   3.032
 7531SOL     OW23491   5.323   3.571   4.693
 7531SOL    HW123492   5.277   3.484   4.677
 7531SOL    HW223493   5.420   3.555   4.710
 7532SOL     OW23494   4.678   5.718   6.968
 7532SOL    HW123495   4.690   5.764   6.880
 7532SOL    HW223496   4.665   5.786   0.021
 7533SOL     OW23497   2.666   1.323   2.066
 7533SOL    HW123498   2.596   1.395   2.065
 7533SOL    HW223499   2.633   1.245   2.014
 7534SOL     OW23500   4.865   6.379   5.375
 7534SOL    HW123501   4.901   6.316   5.306
 7534SOL    HW223502   4.922   6.375   5.457
 7535SOL     OW23503   2.105   0.248   4.924
 7535SOL    HW123504   2.077   0.179   4.990
 7535SOL    HW223505   2.188   0.294   4.957
 7536SOL     OW23506   4.836   4.769   4.643
 7536SOL    HW123507   4.855   4.671   4.639
 7536SOL    HW223508   4.783   4.789   4.726
 7537SOL     OW23509   2.886   5.579   2.049
 7537SOL    HW123510   2.846   5.641   2.116
 7537SOL    HW223511   2.986   5.585   2.054
 7538SOL     OW23512   1.853   3.076   1.735
 7538SOL    HW123513   1.910   3.117   1.806
 7538SOL    HW223514   1.787   3.015   1.778
 7539SOL     OW23515   1.796   3.835   3.907
 7539SOL    HW123516   1.714   3.891   3.921
 7539SOL    HW223517   1.785   3.747   3.952
 7540SOL     OW23518   4.075   0.672   4.565
 7540SOL    HW123519   3.983   0.682   4.527
 7540SOL    HW223520   4.081   0.584   4.613
 7541SOL     OW23521   0.425   4.823   5.173
 7541SOL    HW123522   0.362   4.822   5.251
 7541SOL    HW223523   0.393   4.891   5.106
 7542SOL     OW23524   1.355   5.328   6.387
 7542SOL    HW123525   1.267   5.358   6.423
 7542SOL    HW223526   1.341   5.259   6.316
 7543SOL     OW23527   4.042   1.533   6.366
 7543SOL    HW123528   3.972   1.578   6.311
 7543SOL    HW223529   4.040   1.570   6.459
 7544SOL     OW23530   6.799   2.186   3.051
 7544SOL    HW123531   6.809   2.186   3.151
 7544SOL    HW223532   6.852   2.261   3.012
 7545SOL     OW23533   0.494   5.755   0.508
 7545SOL    HW123534   0.440   5.760   0.424
 7545SOL    HW223535   0.591   5.754   0.485
 7546SOL     OW23536   3.557   2.142   1.710
 7546SOL    HW123537   3.469   2.105   1.740
 7546SOL    HW223538   3.579   2.222   1.766
 7547SOL     OW23539   5.455   1.673   0.556
 7547SOL    HW123540   5.414   1.694   0.644
 7547SOL    HW223541   5.492   1.756   0.515
 7548SOL     OW23542   4.272   1.164   6.768
 7548SOL    HW123543   4.221   1.249   6.778
 7548SOL    HW223544   4.212   1.086   6.790
 7549SOL     OW23545   4.525   2.809   0.292
 7549SOL    HW123546   4.589   2.733   0.303
 7549SOL    HW223547   4.510   2.853   0.380
 7550SOL     OW23548   2.343   5.169   2.845
 7550SOL    HW123549   2.343   5.185   2.944
 7550SOL    HW223550   2.354   5.257   2.798
 7551SOL     OW23551   5.131   3.485   6.218
 7551SOL    HW123552   5.124   3.389   6.247
 7551SOL    HW223553   5.220   3.521   6.247
 7552SOL     OW23554   1.207   6.347   2.838
 7552SOL    HW123555   1.279   6.404   2.799
 7552SOL    HW223556   1.131   6.342   2.774
 7553SOL     OW23557   4.527   6.418   5.637
 7553SOL    HW123558   4.609   6.374   5.674
 7553SOL    HW223559   4.503   6.497   5.694
 7554SOL     OW23560   4.601   1.110   0.469
 7554SOL    HW123561   4.552   1.181   0.520
 7554SOL    HW223562   4.536   1.055   0.417
 7555SOL     OW23563   2.356   4.744   5.800
 7555SOL    HW123564   2.430   4.680   5.781
 7555SOL    HW223565   2.269   4.696   5.801
 7556SOL     OW23566   1.854   3.144   0.229
 7556SOL    HW123567   1.908   3.145   0.313
 7556SOL    HW223568   1.757   3.145   0.251
 7557SOL     OW23569   4.908   0.999   5.410
 7557SOL    HW123570   4.959   0.997   5.496
 7557SOL    HW223571   4.816   1.036   5.426
 7558SOL     OW23572   1.260   2.484   4.009
 7558SOL    HW123573   1.265   2.567   4.066
 7558SOL    HW223574   1.186   2.426   4.042
 7559SOL     OW23575   5.389   3.624   0.592
 7559SOL    HW123576   5.418   3.571   0.672
 7559SOL    HW223577   5.449   3.603   0.515
 7560SOL     OW23578   5.561   0.323   0.942
 7560SOL    HW123579   5.578   0.238   0.992
 7560SOL    HW223580   5.471   0.359   0.966
 7561SOL     OW23581   0.682   3.093   6.909
 7561SOL    HW123582   0.705   3.123   6.817
 7561SOL    HW223583   0.636   3.166   6.958
 7562SOL     OW23584   0.208   6.125   4.198
 7562SOL    HW123585   0.161   6.040   4.222
 7562SOL    HW223586   0.287   6.137   4.257
 7563SOL     OW23587   3.140   0.307   1.730
 7563SOL    HW123588   3.098   0.392   1.697
 7563SOL    HW223589   3.093   0.277   1.812
 7564SOL     OW23590   4.136   0.174   3.150
 7564SOL    HW123591   4.189   0.115   3.088
 7564SOL    HW223592   4.192   0.197   3.229
 7565SOL     OW23593   5.222   3.326   0.704
 7565SOL    HW123594   5.229   3.421   0.736
 7565SOL    HW223595   5.242   3.264   0.779
 7566SOL     OW23596   6.397   4.562   2.951
 7566SOL    HW123597   6.486   4.601   2.926
 7566SOL    HW223598   6.392   4.468   2.917
 7567SOL     OW23599   2.051   2.301   4.590
 7567SOL    HW123600   1.984   2.258   4.651
 7567SOL    HW223601   2.076   2.391   4.627
 7568SOL     OW23602   5.181   6.199   3.335
 7568SOL    HW123603   5.213   6.265   3.403
 7568SOL    HW223604   5.168   6.246   3.247
 7569SOL     OW23605   3.897   4.953   5.797
 7569SOL    HW123606   3.887   4.862   5.757
 7569SOL    HW223607   3.807   4.986   5.826
 7570SOL     OW23608   5.630   3.976   5.498
 7570SOL    HW123609   5.634   3.883   5.462
 7570SOL    HW223610   5.615   4.040   5.422
 7571SOL     OW23611   4.065   5.080   3.043
 7571SOL    HW123612   4.144   5.045   3.094
 7571SOL    HW223613   4.008   5.003   3.013
 7572SOL     OW23614   4.512   1.281   1.210
 7572SOL    HW123615   4.592   1.311   1.263
 7572SOL    HW223616   4.429   1.317   1.253
 7573SOL     OW23617   7.013   0.704   5.621
 7573SOL    HW123618   0.053   0.778   5.591
 7573SOL    HW223619   6.918   0.735   5.621
 7574SOL     OW23620   5.098   0.310   5.373
 7574SOL    HW123621   5.013   0.286   5.420
 7574SOL    HW223622   5.103   0.259   5.287
 7575SOL     OW23623   5.028   0.437   5.829
 7575SOL    HW123624   4.995   0.470   5.741
 7575SOL    HW223625   4.985   0.490   5.902
 7576SOL     OW23626   4.638   3.828   0.192
 7576SOL    HW123627   4.706   3.844   0.120
 7576SOL    HW223628   4.561   3.777   0.154
 7577SOL     OW23629   0.756   0.039   6.645
 7577SOL    HW123630   0.718   6.988   6.584
 7577SOL    HW223631   0.853   0.049   6.628
 7578SOL     OW23632   1.749   5.001   1.496
 7578SOL    HW123633   1.764   5.047   1.409
 7578SOL    HW223634   1.825   4.938   1.514
 7579SOL     OW23635   0.410   1.063   2.101
 7579SOL    HW123636   0.353   1.070   2.183
 7579SOL    HW223637   0.353   1.035   2.024
 7580SOL     OW23638   0.614   4.021   4.509
 7580SOL    HW123639   0.585   4.108   4.470
 7580SOL    HW223640   0.662   4.037   4.595
 7581SOL     OW23641   0.075   1.274   1.667
 7581SOL    HW123642   0.152   1.218   1.637
 7581SOL    HW223643   0.042   1.241   1.756
 7582SOL     OW23644   3.984   1.302   1.556
 7582SOL    HW123645   4.008   1.234   1.626
 7582SOL    HW223646   3.998   1.263   1.465
 7583SOL     OW23647   5.780   3.167   2.127
 7583SOL    HW123648   5.861   3.152   2.184
 7583SOL    HW223649   5.749   3.080   2.090
 7584SOL     OW23650   3.491   6.770   1.679
 7584SOL    HW123651   3.483   6.869   1.689
 7584SOL    HW223652   3.573   6.749   1.626
 7585SOL     OW23653   1.606   2.817   0.080
 7585SOL    HW123654   1.616   2.896   0.019
 7585SOL    HW223655   1.675   2.822   0.153
 7586SOL     OW23656   3.048   0.151   3.679
 7586SOL    HW123657   3.076   0.214   3.751
 7586SOL    HW223658   3.121   0.145   3.610
 7587SOL     OW23659   2.281   2.698   0.120
 7587SOL    HW123660   2.277   2.730   0.215
 7587SOL    HW223661   2.241   2.767   0.060
 7588SOL     OW23662   1.622   2.988   3.546
 7588SOL    HW123663   1.681   3.055   3.591
 7588SOL    HW223664   1.611   2.908   3.605
 7589SOL     OW23665   0.788   0.478   2.631
 7589SOL    HW123666   0.762   0.570   2.601
 7589SOL    HW223667   0.819   0.481   2.726
 7590SOL     OW23668   3.672   1.971   6.331
 7590SOL    HW123669   3.737   2.008   6.397
 7590SOL    HW223670   3.616   2.045   6.294
 7591SOL     OW23671   0.080   3.705   0.905
 7591SOL    HW123672   0.075   3.617   0.857
 7591SOL    HW223673   7.017   3.717   0.960
 7592SOL     OW23674   6.564   4.994   4.478
 7592SOL    HW123675   6.511   4.909   4.481
 7592SOL    HW223676   6.536   5.049   4.399
 7593SOL     OW23677   6.406   3.207   0.643
 7593SOL    HW123678   6.337   3.138   0.665
 7593SOL    HW223679   6.402   3.229   0.546
 7594SOL     OW23680   1.030   5.024   2.259
 7594SOL    HW123681   1.099   4.955   2.237
 7594SOL    HW223682   1.038   5.100   2.194
 7595SOL     OW23683   6.324   2.942   5.846
 7595SOL    HW123684   6.384   3.013   5.810
 7595SOL    HW223685   6.237   2.943   5.796
 7596SOL     OW23686   3.699   5.969   3.659
 7596SOL    HW123687   3.781   5.983   3.604
 7596SOL    HW223688   3.714   6.004   3.751
 7597SOL     OW23689   2.268   6.459   3.004
 7597SOL    HW123690   2.336   6.388   2.987
 7597SOL    HW223691   2.213   6.434   3.083
 7598SOL     OW23692   0.526   1.056   3.062
 7598SOL    HW123693   0.471   1.020   3.137
 7598SOL    HW223694   0.473   1.123   3.010
 7599SOL     OW23695   5.759   2.508   1.892
 7599SOL    HW123696   5.816   2.451   1.833
 7599SOL    HW223697   5.713   2.452   1.961
 7600SOL     OW23698   1.680   1.727   3.033
 7600SOL    HW123699   1.724   1.638   3.046
 7600SOL    HW223700   1.684   1.779   3.118
 7601SOL     OW23701   1.606   5.009   2.491
 7601SOL    HW123702   1.544   4.965   2.427
 7601SOL    HW223703   1.564   5.012   2.582
 7602SOL     OW23704   2.379   3.995   6.420
 7602SOL    HW123705   2.309   3.926   6.403
 7602SOL    HW223706   2.465   3.965   6.379
 7603SOL     OW23707   1.413   5.793   5.948
 7603SOL    HW123708   1.475   5.870   5.936
 7603SOL    HW223709   1.331   5.808   5.892
 7604SOL     OW23710   2.182   3.995   4.607
 7604SOL    HW123711   2.263   3.972   4.661
 7604SOL    HW223712   2.107   4.018   4.668
 7605SOL     OW23713   1.466   0.618   1.394
 7605SOL    HW123714   1.384   0.660   1.433
 7605SOL    HW223715   1.481   0.651   1.301
 7606SOL     OW23716   6.189   4.083   5.210
 7606SOL    HW123717   6.222   3.996   5.173
 7606SOL    HW223718   6.146   4.137   5.137
 7607SOL     OW23719   3.780   5.730   0.244
 7607SOL    HW123720   3.829   5.682   0.318
 7607SOL    HW223721   3.701   5.676   0.216
 7608SOL     OW23722   4.158   3.920   1.587
 7608SOL    HW123723   4.245   3.879   1.562
 7608SOL    HW223724   4.173   4.011   1.626
 7609SOL     OW23725   1.253   3.299   4.398
 7609SOL    HW123726   1.226   3.316   4.303
 7609SOL    HW223727   1.326   3.231   4.400
 7610SOL     OW23728   4.767   4.741   6.351
 7610SOL    HW123729   4.867   4.735   6.357
 7610SOL    HW223730   4.740   4.832   6.321
 7611SOL     OW23731   6.017   3.531   2.137
 7611SOL    HW123732   5.929   3.547   2.181
 7611SOL    HW223733   6.006   3.537   2.038
 7612SOL     OW23734   4.719   2.859   2.704
 7612SOL    HW123735   4.643   2.796   2.718
 7612SOL    HW223736   4.746   2.858   2.607
 7613SOL     OW23737   7.015   2.880   0.855
 7613SOL    HW123738   0.057   2.910   0.927
 7613SOL    HW223739   0.048   2.836   0.782
 7614SOL     OW23740   4.972   3.720   0.695
 7614SOL    HW123741   4.884   3.766   0.695
 7614SOL    HW223742   4.993   3.687   0.787
 7615SOL     OW23743   3.755   5.263   0.131
 7615SOL    HW123744   3.790   5.311   0.051
 7615SOL    HW223745   3.672   5.212   0.105
 7616SOL     OW23746   5.793   6.190   4.469
 7616SOL    HW123747   5.704   6.208   4.428
 7616SOL    HW223748   5.806   6.250   4.548
 7617SOL     OW23749   3.931   5.814   2.554
 7617SOL    HW123750   3.958   5.753   2.628
 7617SOL    HW223751   3.868   5.883   2.589
 7618SOL     OW23752   6.727   1.727   5.331
 7618SOL    HW123753   6.691   1.639   5.362
 7618SOL    HW223754   6.682   1.801   5.380
 7619SOL     OW23755   6.282   2.813   5.259
 7619SOL    HW123756   6.328   2.804   5.170
 7619SOL    HW223757   6.183   2.822   5.244
 7620SOL     OW23758   4.361   5.831   0.952
 7620SOL    HW123759   4.412   5.882   0.883
 7620SOL    HW223760   4.263   5.840   0.934
 7621SOL     OW23761   6.659   1.530   1.413
 7621SOL    HW123762   6.707   1.576   1.339
 7621SOL    HW223763   6.724   1.481   1.471
 7622SOL     OW23764   4.463   5.113   0.041
 7622SOL    HW123765   4.515   5.102   6.975
 7622SOL    HW223766   4.423   5.025   0.066
 7623SOL     OW23767   5.186   3.961   0.089
 7623SOL    HW123768   5.180   3.892   0.017
 7623SOL    HW223769   5.106   3.955   0.148
 7624SOL     OW23770   6.993   3.133   4.877
 7624SOL    HW123771   6.959   3.143   4.784
 7624SOL    HW223772   0.070   3.162   4.881
 7625SOL     OW23773   4.752   0.721   1.506
 7625SOL    HW123774   4.668   0.773   1.523
 7625SOL    HW223775   4.756   0.695   1.409
 7626SOL     OW23776   5.949   0.143   4.393
 7626SOL    HW123777   5.926   0.231   4.434
 7626SOL    HW223778   6.018   0.156   4.321
 7627SOL     OW23779   4.915   3.087   6.792
 7627SOL    HW123780   4.894   3.068   6.888
 7627SOL    HW223781   4.840   3.140   6.752
 7628SOL     OW23782   3.539   2.028   2.032
 7628SOL    HW123783   3.594   2.107   2.004
 7628SOL    HW223784   3.442   2.047   2.013
 7629SOL     OW23785   6.999   5.859   3.178
 7629SOL    HW123786   0.019   5.895   3.263
 7629SOL    HW223787   6.899   5.853   3.187
 7630SOL     OW23788   0.635   6.985   1.223
 7630SOL    HW123789   0.625   0.050   1.169
 7630SOL    HW223790   0.656   6.909   1.162
 7631SOL     OW23791   0.936   1.446   5.964
 7631SOL    HW123792   0.899   1.491   5.883
 7631SOL    HW223793   1.024   1.486   5.988
 7632SOL     OW23794   4.606   3.804   1.326
 7632SOL    HW123795   4.507   3.792   1.329
 7632SOL    HW223796   4.630   3.861   1.248
 7633SOL     OW23797   5.065   0.568   1.082
 7633SOL    HW123798   4.986   0.509   1.097
 7633SOL    HW223799   5.133   0.519   1.027
 7634SOL     OW23800   2.069   1.776   2.383
 7634SOL    HW123801   2.071   1.756   2.285
 7634SOL    HW223802   2.162   1.787   2.417
 7635SOL     OW23803   3.164   5.382   5.076
 7635SOL    HW123804   3.152   5.478   5.102
 7635SOL    HW223805   3.159   5.325   5.158
 7636SOL     OW23806   1.740   2.771   4.206
 7636SOL    HW123807   1.662   2.832   4.194
 7636SOL    HW223808   1.719   2.703   4.277
 7637SOL     OW23809   2.217   5.622   2.538
 7637SOL    HW123810   2.269   5.707   2.546
 7637SOL    HW223811   2.219   5.590   2.443
 7638SOL     OW23812   2.644   6.107   1.408
 7638SOL    HW123813   2.589   6.064   1.336
 7638SOL    HW223814   2.731   6.136   1.369
 7639SOL     OW23815   0.553   2.218   0.833
 7639SOL    HW123816   0.640   2.223   0.882
 7639SOL    HW223817   0.554   2.283   0.757
 7640SOL     OW23818   2.862   0.845   6.055
 7640SOL    HW123819   2.828   0.937   6.075
 7640SOL    HW223820   2.851   0.826   5.957
 7641SOL     OW23821   1.858   3.567   2.535
 7641SOL    HW123822   1.795   3.551   2.610
 7641SOL    HW223823   1.825   3.520   2.453
 7642SOL     OW23824   3.600   1.829   3.164
 7642SOL    HW123825   3.592   1.757   3.233
 7642SOL    HW223826   3.535   1.903   3.185
 7643SOL     OW23827   4.583   2.611   2.620
 7643SOL    HW123828   4.492   2.578   2.598
 7643SOL    HW223829   4.646   2.590   2.545
 7644SOL     OW23830   5.412   1.883   1.521
 7644SOL    HW123831   5.410   1.820   1.443
 7644SOL    HW223832   5.497   1.871   1.571
 7645SOL     OW23833   4.635   3.578   5.579
 7645SOL    HW123834   4.596   3.511   5.515
 7645SOL    HW223835   4.678   3.652   5.528
 7646SOL     OW23836   1.466   3.648   3.474
 7646SOL    HW123837   1.387   3.707   3.492
 7646SOL    HW223838   1.497   3.607   3.560
 7647SOL     OW23839   6.236   2.710   3.393
 7647SOL    HW123840   6.236   2.619   3.434
 7647SOL    HW223841   6.241   2.702   3.293
 7648SOL     OW23842   3.270   1.402   2.867
 7648SOL    HW123843   3.350   1.355   2.903
 7648SOL    HW223844   3.272   1.498   2.895
 7649SOL     OW23845   0.724   0.805   3.245
 7649SOL    HW123846   0.651   0.864   3.279
 7649SOL    HW223847   0.810   0.856   3.243
 7650SOL     OW23848   5.271   1.444   0.691
 7650SOL    HW123849   5.352   1.399   0.652
 7650SOL    HW223850   5.205   1.462   0.618
 7651SOL     OW23851   1.721   0.476   3.702
 7651SOL    HW123852   1.787   0.473   3.626
 7651SOL    HW223853   1.712   0.570   3.733
 7652SOL     OW23854   5.620   3.428   5.442
 7652SOL    HW123855   5.612   3.365   5.518
 7652SOL    HW223856   5.532   3.437   5.396
 7653SOL     OW23857   1.089   1.867   6.855
 7653SOL    HW123858   1.078   1.965   6.876
 7653SOL    HW223859   1.003   1.831   6.819
 7654SOL     OW23860   4.785   2.920   4.159
 7654SOL    HW123861   4.851   2.854   4.197
 7654SOL    HW223862   4.698   2.912   4.209
 7655SOL     OW23863   4.663   6.590   3.079
 7655SOL    HW123864   4.572   6.584   3.038
 7655SOL    HW223865   4.658   6.645   3.162
 7656SOL     OW23866   3.255   3.885   6.148
 7656SOL    HW123867   3.225   3.857   6.239
 7656SOL    HW223868   3.281   3.804   6.095
 7657SOL     OW23869   1.567   2.514   3.981
 7657SOL    HW123870   1.646   2.572   3.999
 7657SOL    HW223871   1.490   2.546   4.036
 7658SOL     OW23872   3.792   6.713   6.501
 7658SOL    HW123873   3.888   6.694   6.523
 7658SOL    HW223874   3.737   6.631   6.520
 7659SOL     OW23875   5.659   4.997   6.373
 7659SOL    HW123876   5.733   5.028   6.432
 7659SOL    HW223877   5.578   4.977   6.428
 7660SOL     OW23878   0.069   5.830   3.899
 7660SOL    HW123879   0.073   5.756   3.832
 7660SOL    HW223880   0.139   5.816   3.969
 7661SOL     OW23881   6.048   2.665   4.844
 7661SOL    HW123882   6.020   2.723   4.920
 7661SOL    HW223883   5.969   2.613   4.811
 7662SOL     OW23884   1.180   3.137   3.612
 7662SOL    HW123885   1.189   3.061   3.548
 7662SOL    HW223886   1.095   3.126   3.665
 7663SOL     OW23887   6.721   5.483   5.507
 7663SOL    HW123888   6.710   5.505   5.605
 7663SOL    HW223889   6.646   5.525   5.456
 7664SOL     OW23890   4.032   0.196   1.292
 7664SOL    HW123891   4.001   0.259   1.363
 7664SOL    HW223892   4.064   0.247   1.213
 7665SOL     OW23893   6.235   0.556   4.582
 7665SOL    HW123894   6.281   0.534   4.668
 7665SOL    HW223895   6.149   0.505   4.576
 7666SOL     OW23896   0.778   5.590   1.999
 7666SOL    HW123897   0.807   5.511   2.054
 7666SOL    HW223898   0.817   5.583   1.908
 7667SOL     OW23899   4.443   6.857   1.886
 7667SOL    HW123900   4.406   6.897   1.970
 7667SOL    HW223901   4.543   6.869   1.886
 7668SOL     OW23902   3.212   4.612   0.962
 7668SOL    HW123903   3.300   4.658   0.963
 7668SOL    HW223904   3.139   4.680   0.961
 7669SOL     OW23905   4.522   1.407   4.655
 7669SOL    HW123906   4.550   1.425   4.561
 7669SOL    HW223907   4.478   1.318   4.660
 7670SOL     OW23908   0.789   4.675   0.423
 7670SOL    HW123909   0.853   4.701   0.495
 7670SOL    HW223910   0.713   4.739   0.421
 7671SOL     OW23911   4.398   1.284   1.513
 7671SOL    HW123912   4.384   1.371   1.561
 7671SOL    HW223913   4.349   1.211   1.562
 7672SOL     OW23914   0.191   6.569   2.336
 7672SOL    HW123915   0.152   6.484   2.300
 7672SOL    HW223916   0.291   6.564   2.329
 7673SOL     OW23917   1.196   6.601   0.826
 7673SOL    HW123918   1.276   6.551   0.793
 7673SOL    HW223919   1.116   6.577   0.771
 7674SOL     OW23920   5.304   0.686   3.346
 7674SOL    HW123921   5.277   0.592   3.366
 7674SOL    HW223922   5.362   0.720   3.419
 7675SOL     OW23923   6.408   6.861   2.184
 7675SOL    HW123924   6.408   6.889   2.088
 7675SOL    HW223925   6.491   6.808   2.202
 7676SOL     OW23926   2.774   2.260   0.513
 7676SOL    HW123927   2.777   2.227   0.419
 7676SOL    HW223928   2.681   2.249   0.550
 7677SOL     OW23929   0.660   5.245   1.266
 7677SOL    HW123930   0.621   5.266   1.355
 7677SOL    HW223931   0.714   5.160   1.272
 7678SOL     OW23932   1.921   3.267   5.104
 7678SOL    HW123933   1.850   3.271   5.035
 7678SOL    HW223934   2.004   3.311   5.070
 7679SOL     OW23935   3.510   6.555   5.840
 7679SOL    HW123936   3.555   6.594   5.921
 7679SOL    HW223937   3.453   6.478   5.868
 7680SOL     OW23938   0.610   0.985   0.011
 7680SOL    HW123939   0.630   0.972   6.933
 7680SOL    HW223940   0.635   0.902   0.062
 7681SOL     OW23941   2.582   0.877   0.895
 7681SOL    HW123942   2.604   0.930   0.812
 7681SOL    HW223943   2.665   0.831   0.927
 7682SOL     OW23944   3.513   0.556   1.819
 7682SOL    HW123945   3.502   0.638   1.875
 7682SOL    HW223946   3.545   0.480   1.876
 7683SOL     OW23947   5.755   2.153   4.629
 7683SOL    HW123948   5.729   2.250   4.629
 7683SOL    HW223949   5.814   2.135   4.551
 7684SOL     OW23950   3.084   1.726   1.813
 7684SOL    HW123951   3.161   1.705   1.873
 7684SOL    HW223952   3.069   1.650   1.750
 7685SOL     OW23953   2.655   1.984   5.953
 7685SOL    HW123954   2.558   1.965   5.937
 7685SOL    HW223955   2.664   2.048   6.029
 7686SOL     OW23956   6.729   6.533   3.211
 7686SOL    HW123957   6.693   6.529   3.118
 7686SOL    HW223958   6.695   6.455   3.264
 7687SOL     OW23959   5.998   4.945   3.838
 7687SOL    HW123960   6.090   4.955   3.801
 7687SOL    HW223961   6.000   4.954   3.938
 7688SOL     OW23962   0.958   6.014   5.320
 7688SOL    HW123963   0.967   6.108   5.288
 7688SOL    HW223964   0.862   5.985   5.312
 7689SOL     OW23965   5.459   6.576   2.086
 7689SOL    HW123966   5.390   6.648   2.079
 7689SOL    HW223967   5.435   6.502   2.023
 7690SOL     OW23968   5.227   4.679   0.206
 7690SOL    HW123969   5.268   4.589   0.193
 7690SOL    HW223970   5.201   4.690   0.302
 7691SOL     OW23971   5.097   3.896   4.668
 7691SOL    HW123972   5.173   3.863   4.724
 7691SOL    HW223973   5.121   3.886   4.571
 7692SOL     OW23974   0.893   6.311   1.697
 7692SOL    HW123975   0.891   6.324   1.796
 7692SOL    HW223976   0.926   6.219   1.676
 7693SOL     OW23977   3.181   6.527   1.840
 7693SOL    HW123978   3.173   6.553   1.743
 7693SOL    HW223979   3.224   6.602   1.891
 7694SOL     OW23980   5.270   3.759   4.474
 7694SOL    HW123981   5.354   3.772   4.421
 7694SOL    HW223982   5.289   3.700   4.553
 7695SOL     OW23983   4.977   0.399   0.676
 7695SOL    HW123984   5.025   0.347   0.746
 7695SOL    HW223985   4.982   0.350   0.589
 7696SOL     OW23986   0.426   0.703   6.098
 7696SOL    HW123987   0.470   0.776   6.150
 7696SOL    HW223988   0.355   0.661   6.154
 7697SOL     OW23989   2.481   6.502   2.711
 7697SOL    HW123990   2.406   6.521   2.647
 7697SOL    HW223991   2.449   6.437   2.780
 7698SOL     OW23992   5.701   1.693   4.099
 7698SOL    HW123993   5.672   1.604   4.066
 7698SOL    HW223994   5.646   1.765   4.056
 7699SOL     OW23995   3.467   5.410   6.532
 7699SOL    HW123996   3.538   5.342   6.518
 7699SOL    HW223997   3.478   5.485   6.466
 7700SOL     OW23998   4.536   5.829   2.755
 7700SOL    HW123999   4.448   5.785   2.738
 7700SOL    HW224000   4.536   5.921   2.716
 7701SOL     OW24001   6.215   2.383   0.364
 7701SOL    HW124002   6.150   2.307   0.354
 7701SOL    HW224003   6.217   2.436   0.279
 7702SOL     OW24004   3.219   6.566   4.959
 7702SOL    HW124005   3.184   6.659   4.950
 7702SOL    HW224006   3.222   6.540   5.055
 7703SOL     OW24007   6.613   5.732   6.750
 7703SOL    HW124008   6.638   5.820   6.789
 7703SOL    HW224009   6.630   5.659   6.817
 7704SOL     OW24010   6.124   0.059   4.818
 7704SOL    HW124011   6.185   0.087   4.893
 7704SOL    HW224012   6.175   0.060   4.732
 7705SOL     OW24013   2.664   6.112   0.619
 7705SOL    HW124014   2.714   6.169   0.554
 7705SOL    HW224015   2.655   6.019   0.582
 7706SOL     OW24016   3.674   3.813   4.758
 7706SOL    HW124017   3.716   3.815   4.849
 7706SOL    HW224018   3.719   3.881   4.700
 7707SOL     OW24019   0.047   4.737   5.916
 7707SOL    HW124020   6.985   4.728   5.972
 7707SOL    HW224021   0.115   4.793   5.964
 7708SOL     OW24022   1.150   6.817   5.789
 7708SOL    HW124023   1.064   6.781   5.753
 7708SOL    HW224024   1.204   6.742   5.826
 7709SOL     OW24025   6.245   4.041   2.603
 7709SOL    HW124026   6.285   4.045   2.695
 7709SOL    HW224027   6.189   3.960   2.594
 7710SOL     OW24028   3.287   2.122   0.151
 7710SOL    HW124029   3.235   2.103   0.235
 7710SOL    HW224030   3.226   2.116   0.072
 7711SOL     OW24031   5.425   6.284   6.058
 7711SOL    HW124032   5.484   6.364   6.054
 7711SOL    HW224033   5.439   6.228   5.976
 7712SOL     OW24034   6.831   5.090   1.799
 7712SOL    HW124035   6.847   5.123   1.892
 7712SOL    HW224036   6.913   5.106   1.743
 7713SOL     OW24037   1.888   3.870   0.956
 7713SOL    HW124038   1.843   3.958   0.973
 7713SOL    HW224039   1.922   3.833   1.042
 7714SOL     OW24040   0.113   4.042   5.432
 7714SOL    HW124041   0.204   4.003   5.447
 7714SOL    HW224042   0.095   4.049   5.334
 7715SOL     OW24043   2.747   2.146   0.259
 7715SOL    HW124044   2.827   2.089   0.241
 7715SOL    HW224045   2.665   2.098   0.228
 7716SOL     OW24046   6.618   4.917   1.788
 7716SOL    HW124047   6.653   4.826   1.765
 7716SOL    HW224048   6.695   4.981   1.797
 7717SOL     OW24049   1.870   1.008   5.639
 7717SOL    HW124050   1.796   1.016   5.706
 7717SOL    HW224051   1.955   0.985   5.686
 7718SOL     OW24052   6.942   3.480   3.469
 7718SOL    HW124053   6.886   3.406   3.433
 7718SOL    HW224054   6.903   3.515   3.554
 7719SOL     OW24055   6.994   4.471   5.563
 7719SOL    HW124056   0.012   4.474   5.470
 7719SOL    HW224057   0.048   4.493   5.628
 7720SOL     OW24058   6.958   1.373   6.120
 7720SOL    HW124059   6.896   1.316   6.174
 7720SOL    HW224060   0.033   1.359   6.152
 7721SOL     OW24061   0.349   5.502   2.042
 7721SOL    HW124062   0.321   5.451   1.961
 7721SOL    HW224063   0.412   5.575   2.014
 7722SOL     OW24064   1.231   4.293   3.340
 7722SOL    HW124065   1.254   4.300   3.243
 7722SOL    HW224066   1.308   4.327   3.395
 7723SOL     OW24067   4.914   3.695   6.243
 7723SOL    HW124068   4.958   3.785   6.251
 7723SOL    HW224069   4.984   3.624   6.242
 7724SOL     OW24070   3.060   3.794   1.077
 7724SOL    HW124071   3.062   3.700   1.112
 7724SOL    HW224072   2.986   3.844   1.121
 7725SOL     OW24073   6.378   1.745   2.488
 7725SOL    HW124074   6.337   1.832   2.515
 7725SOL    HW224075   6.414   1.752   2.395
 7726SOL     OW24076   1.495   5.025   5.911
 7726SOL    HW124077   1.551   5.083   5.852
 7726SOL    HW224078   1.478   5.072   5.998
 7727SOL     OW24079   0.082   2.430   2.611
 7727SOL    HW124080   7.003   2.438   2.599
 7727SOL    HW224081   0.130   2.487   2.545
 7728SOL     OW24082   2.112   3.399   4.999
 7728SOL    HW124083   2.166   3.453   5.065
 7728SOL    HW224084   2.105   3.450   4.913
 7729SOL     OW24085   6.131   2.300   1.307
 7729SOL    HW124086   6.190   2.372   1.272
 7729SOL    HW224087   6.100   2.323   1.400
 7730SOL     OW24088   6.753   5.629   0.665
 7730SOL    HW124089   6.675   5.584   0.709
 7730SOL    HW224090   6.800   5.686   0.733
 7731SOL     OW24091   6.647   1.371   6.890
 7731SOL    HW124092   6.734   1.380   6.938
 7731SOL    HW224093   6.630   1.275   6.867
 7732SOL     OW24094   5.134   0.068   0.350
 7732SOL    HW124095   5.113   6.990   0.347
 7732SOL    HW224096   5.193   0.091   0.272
 7733SOL     OW24097   5.048   6.035   2.382
 7733SOL    HW124098   5.098   6.099   2.324
 7733SOL    HW224099   5.104   6.014   2.463
 7734SOL     OW24100   1.385   4.841   4.150
 7734SOL    HW124101   1.443   4.794   4.216
 7734SOL    HW224102   1.329   4.910   4.197
 7735SOL     OW24103   4.905   6.396   6.497
 7735SOL    HW124104   4.825   6.425   6.550
 7735SOL    HW224105   4.921   6.299   6.510
 7736SOL     OW24106   3.124   2.907   6.946
 7736SOL    HW124107   3.080   2.988   6.909
 7736SOL    HW224108   3.205   2.885   6.892
 7737SOL     OW24109   2.815   6.220   2.739
 7737SOL    HW124110   2.800   6.317   2.720
 7737SOL    HW224111   2.901   6.208   2.788
 7738SOL     OW24112   3.071   5.372   0.018
 7738SOL    HW124113   3.096   5.457   6.990
 7738SOL    HW224114   3.155   5.324   0.046
 7739SOL     OW24115   0.029   2.299   1.182
 7739SOL    HW124116   0.022   2.228   1.112
 7739SOL    HW224117   6.971   2.291   1.245
 7740SOL     OW24118   2.552   1.403   3.162
 7740SOL    HW124119   2.607   1.485   3.149
 7740SOL    HW224120   2.612   1.327   3.189
 7741SOL     OW24121   6.909   5.123   6.162
 7741SOL    HW124122   6.960   5.129   6.076
 7741SOL    HW224123   6.815   5.096   6.143
 7742SOL     OW24124   4.296   1.579   3.095
 7742SOL    HW124125   4.357   1.653   3.123
 7742SOL    HW224126   4.234   1.556   3.170
 7743SOL     OW24127   5.471   1.748   0.143
 7743SOL    HW124128   5.447   1.763   0.047
 7743SOL    HW224129   5.524   1.664   0.151
 7744SOL     OW24130   0.493   0.368   4.100
 7744SOL    HW124131   0.536   0.447   4.144
 7744SOL    HW224132   0.412   0.398   4.050
 7745SOL     OW24133   3.905   1.142   6.870
 7745SOL    HW124134   3.809   1.171   6.868
 7745SOL    HW224135   3.953   1.191   6.942
 7746SOL     OW24136   1.515   0.276   0.464
 7746SOL    HW124137   1.518   0.374   0.485
 7746SOL    HW224138   1.592   0.230   0.508
 7747SOL     OW24139   5.388   5.736   1.480
 7747SOL    HW124140   5.482   5.703   1.493
 7747SOL    HW224141   5.340   5.675   1.417
 7748SOL     OW24142   2.939   3.486   4.887
 7748SOL    HW124143   3.032   3.490   4.853
 7748SOL    HW224144   2.931   3.539   4.972
 7749SOL     OW24145   3.094   3.550   5.778
 7749SOL    HW124146   3.136   3.608   5.709
 7749SOL    HW224147   3.012   3.596   5.814
 7750SOL     OW24148   6.839   6.259   1.506
 7750SOL    HW124149   6.774   6.334   1.490
 7750SOL    HW224150   6.842   6.238   1.604
 7751SOL     OW24151   1.817   2.964   2.526
 7751SOL    HW124152   1.828   2.992   2.430
 7751SOL    HW224153   1.845   2.868   2.536
 7752SOL     OW24154   5.931   6.457   5.433
 7752SOL    HW124155   5.907   6.531   5.495
 7752SOL    HW224156   5.851   6.430   5.379
 7753SOL     OW24157   1.985   0.353   4.207
 7753SOL    HW124158   2.078   0.329   4.179
 7753SOL    HW224159   1.940   0.404   4.133
 7754SOL     OW24160   4.157   6.274   2.201
 7754SOL    HW124161   4.126   6.327   2.280
 7754SOL    HW224162   4.251   6.299   2.178
 7755SOL     OW24163   1.160   2.248   5.894
 7755SOL    HW124164   1.072   2.205   5.912
 7755SOL    HW224165   1.177   2.319   5.962
 7756SOL     OW24166   2.384   5.842   2.589
 7756SOL    HW124167   2.460   5.797   2.636
 7756SOL    HW224168   2.420   5.902   2.517
 7757SOL     OW24169   5.860   5.191   6.188
 7757SOL    HW124170   5.896   5.240   6.109
 7757SOL    HW224171   5.889   5.095   6.184
 7758SOL     OW24172   1.571   1.274   5.669
 7758SOL    HW124173   1.657   1.265   5.720
 7758SOL    HW224174   1.578   1.352   5.607
 7759SOL     OW24175   0.965   2.050   5.545
 7759SOL    HW124176   1.065   2.051   5.555
 7759SOL    HW224177   0.938   1.973   5.488
 7760SOL     OW24178   5.548   3.331   3.172
 7760SOL    HW124179   5.533   3.269   3.095
 7760SOL    HW224180   5.614   3.290   3.235
 7761SOL     OW24181   0.672   0.588   5.648
 7761SOL    HW124182   0.719   0.593   5.560
 7761SOL    HW224183   0.710   0.511   5.701
 7762SOL     OW24184   4.177   0.286   4.229
 7762SOL    HW124185   4.208   0.350   4.159
 7762SOL    HW224186   4.112   0.332   4.290
 7763SOL     OW24187   1.368   1.091   6.560
 7763SOL    HW124188   1.336   1.137   6.477
 7763SOL    HW224189   1.442   1.028   6.536
 7764SOL     OW24190   3.745   2.924   3.401
 7764SOL    HW124191   3.767   2.832   3.369
 7764SOL    HW224192   3.802   2.946   3.480
 7765SOL     OW24193   6.492   2.880   5.430
 7765SOL    HW124194   6.552   2.912   5.357
 7765SOL    HW224195   6.419   2.824   5.390
 7766SOL     OW24196   6.739   3.564   0.198
 7766SOL    HW124197   6.763   3.468   0.215
 7766SOL    HW224198   6.804   3.603   0.133
 7767SOL     OW24199   4.820   6.178   2.517
 7767SOL    HW124200   4.735   6.130   2.496
 7767SOL    HW224201   4.898   6.123   2.487
 7768SOL     OW24202   4.439   4.673   2.555
 7768SOL    HW124203   4.372   4.658   2.481
 7768SOL    HW224204   4.390   4.688   2.641
 7769SOL     OW24205   4.500   2.568   3.294
 7769SOL    HW124206   4.503   2.554   3.195
 7769SOL    HW224207   4.452   2.492   3.338
 7770SOL     OW24208   1.851   4.601   2.578
 7770SOL    HW124209   1.933   4.558   2.615
 7770SOL    HW224210   1.770   4.567   2.627
 7771SOL     OW24211   3.131   2.197   5.364
 7771SOL    HW124212   3.161   2.253   5.286
 7771SOL    HW224213   3.174   2.231   5.448
 7772SOL     OW24214   5.038   0.507   1.837
 7772SOL    HW124215   5.022   0.572   1.763
 7772SOL    HW224216   5.009   0.548   1.924
 7773SOL     OW24217   2.612   6.127   4.990
 7773SOL    HW124218   2.678   6.150   5.061
 7773SOL    HW224219   2.659   6.090   4.910
 7774SOL     OW24220   5.305   1.899   5.436
 7774SOL    HW124221   5.393   1.935   5.466
 7774SOL    HW224222   5.275   1.946   5.353
 7775SOL     OW24223   4.675   5.391   1.046
 7775SOL    HW124224   4.609   5.458   1.010
 7775SOL    HW224225   4.763   5.402   0.999
 7776SOL     OW24226   1.739   5.151   6.458
 7776SOL    HW124227   1.682   5.232   6.470
 7776SOL    HW224228   1.680   5.071   6.444
 7777SOL     OW24229   6.350   6.499   4.570
 7777SOL    HW124230   6.382   6.427   4.632
 7777SOL    HW224231   6.416   6.574   4.569
 7778SOL     OW24232   5.714   4.275   0.785
 7778SOL    HW124233   5.627   4.253   0.829
 7778SOL    HW224234   5.749   4.193   0.739
 7779SOL     OW24235   2.508   2.626   1.807
 7779SOL    HW124236   2.423   2.574   1.798
 7779SOL    HW224237   2.570   2.579   1.871
 7780SOL     OW24238   1.034   4.597   5.330
 7780SOL    HW124239   1.036   4.683   5.381
 7780SOL    HW224240   1.051   4.614   5.233
 7781SOL     OW24241   1.302   5.356   0.409
 7781SOL    HW124242   1.274   5.276   0.462
 7781SOL    HW224243   1.239   5.432   0.427
 7782SOL     OW24244   5.938   5.232   4.282
 7782SOL    HW124245   5.986   5.313   4.312
 7782SOL    HW224246   5.966   5.208   4.189
 7783SOL     OW24247   0.789   5.773   5.584
 7783SOL    HW124248   0.797   5.675   5.569
 7783SOL    HW224249   0.879   5.812   5.599
 7784SOL     OW24250   3.433   1.979   1.487
 7784SOL    HW124251   3.471   2.035   1.414
 7784SOL    HW224252   3.418   2.034   1.569
 7785SOL     OW24253   2.313   6.042   4.441
 7785SOL    HW124254   2.364   6.099   4.376
 7785SOL    HW224255   2.226   6.086   4.463
 7786SOL     OW24256   3.028   6.346   0.316
 7786SOL    HW124257   3.025   6.390   0.226
 7786SOL    HW224258   3.077   6.259   0.309
 7787SOL     OW24259   2.079   2.515   6.256
 7787SOL    HW124260   1.984   2.537   6.278
 7787SOL    HW224261   2.110   2.574   6.182
 7788SOL     OW24262   2.423   5.412   1.090
 7788SOL    HW124263   2.495   5.479   1.069
 7788SOL    HW224264   2.466   5.323   1.108
 7789SOL     OW24265   2.015   6.446   6.442
 7789SOL    HW124266   1.972   6.528   6.479
 7789SOL    HW224267   2.014   6.450   6.342
 7790SOL     OW24268   5.676   5.430   3.444
 7790SOL    HW124269   5.675   5.351   3.382
 7790SOL    HW224270   5.582   5.454   3.468
 7791SOL     OW24271   2.548   4.889   3.217
 7791SOL    HW124272   2.555   4.988   3.211
 7791SOL    HW224273   2.568   4.859   3.310
 7792SOL     OW24274   1.890   5.314   5.191
 7792SOL    HW124275   1.797   5.304   5.227
 7792SOL    HW224276   1.911   5.412   5.183
 7793SOL     OW24277   3.136   0.892   0.911
 7793SOL    HW124278   3.150   0.813   0.851
 7793SOL    HW224279   3.224   0.924   0.946
 7794SOL     OW24280   6.135   3.735   3.312
 7794SOL    HW124281   6.112   3.830   3.289
 7794SOL    HW224282   6.227   3.714   3.277
 7795SOL     OW24283   1.969   4.049   5.591
 7795SOL    HW124284   2.038   4.116   5.562
 7795SOL    HW224285   2.009   3.957   5.591
 7796SOL     OW24286   4.041   3.274   3.736
 7796SOL    HW124287   4.072   3.306   3.826
 7796SOL    HW224288   4.027   3.352   3.676
 7797SOL     OW24289   1.587   0.251   1.976
 7797SOL    HW124290   1.628   0.184   2.037
 7797SOL    HW224291   1.630   0.244   1.886
 7798SOL     OW24292   1.943   3.832   5.238
 7798SOL    HW124293   1.911   3.738   5.250
 7798SOL    HW224294   2.042   3.835   5.250
 7799SOL     OW24295   1.382   6.398   2.118
 7799SOL    HW124296   1.447   6.340   2.068
 7799SOL    HW224297   1.389   6.379   2.216
 7800SOL     OW24298   1.086   5.458   1.541
 7800SOL    HW124299   1.009   5.476   1.603
 7800SOL    HW224300   1.065   5.494   1.451
 7801SOL     OW24301   2.257   2.024   2.074
 7801SOL    HW124302   2.206   2.066   2.148
 7801SOL    HW224303   2.355   2.037   2.088
 7802SOL     OW24304   5.839   3.049   0.860
 7802SOL    HW124305   5.796   3.049   0.950
 7802SOL    HW224306   5.795   3.117   0.802
 7803SOL     OW24307   4.731   2.079   5.829
 7803SOL    HW124308   4.810   2.106   5.775
 7803SOL    HW224309   4.704   2.155   5.889
 7804SOL     OW24310   4.299   2.051   4.382
 7804SOL    HW124311   4.250   1.969   4.353
 7804SOL    HW224312   4.336   2.037   4.474
 7805SOL     OW24313   5.760   2.848   1.386
 7805SOL    HW124314   5.802   2.760   1.364
 7805SOL    HW224315   5.782   2.874   1.480
 7806SOL     OW24316   6.581   1.874   0.383
 7806SOL    HW124317   6.507   1.912   0.327
 7806SOL    HW224318   6.552   1.872   0.478
 7807SOL     OW24319   0.989   5.052   5.476
 7807SOL    HW124320   1.004   4.958   5.507
 7807SOL    HW224321   0.910   5.090   5.524
 7808SOL     OW24322   6.326   3.612   4.559
 7808SOL    HW124323   6.274   3.675   4.502
 7808SOL    HW224324   6.292   3.519   4.544
 7809SOL     OW24325   2.991   4.828   4.278
 7809SOL    HW124326   3.014   4.838   4.374
 7809SOL    HW224327   3.071   4.849   4.222
 7810SOL     OW24328   3.454   0.353   4.382
 7810SOL    HW124329   3.413   0.313   4.299
 7810SOL    HW224330   3.397   0.332   4.461
 7811SOL     OW24331   1.935   5.625   1.699
 7811SOL    HW124332   2.024   5.585   1.723
 7811SOL    HW224333   1.862   5.562   1.726
 7812SOL     OW24334   6.977   1.772   3.934
 7812SOL    HW124335   0.016   1.848   3.904
 7812SOL    HW224336   0.012   1.688   3.936
 7813SOL     OW24337   4.727   2.623   0.264
 7813SOL    HW124338   4.693   2.583   0.179
 7813SOL    HW224339   4.721   2.556   0.338
 7814SOL     OW24340   0.646   3.634   3.560
 7814SOL    HW124341   0.681   3.720   3.523
 7814SOL    HW224342   0.632   3.643   3.659
 7815SOL     OW24343   5.612   1.389   5.073
 7815SOL    HW124344   5.690   1.326   5.084
 7815SOL    HW224345   5.529   1.344   5.107
 7816SOL     OW24346   1.478   2.338   6.087
 7816SOL    HW124347   1.451   2.252   6.129
 7816SOL    HW224348   1.397   2.385   6.051
 7817SOL     OW24349   4.908   4.648   3.544
 7817SOL    HW124350   4.943   4.633   3.636
 7817SOL    HW224351   4.985   4.653   3.480
 7818SOL     OW24352   4.537   0.842   1.720
 7818SOL    HW124353   4.474   0.842   1.798
 7818SOL    HW224354   4.621   0.794   1.745
 7819SOL     OW24355   6.947   4.068   2.964
 7819SOL    HW124356   6.874   4.116   2.917
 7819SOL    HW224357   6.993   4.006   2.901
 7820SOL     OW24358   0.914   1.635   5.756
 7820SOL    HW124359   0.823   1.661   5.723
 7820SOL    HW224360   0.981   1.650   5.683
 7821SOL     OW24361   5.737   5.663   0.240
 7821SOL    HW124362   5.659   5.669   0.302
 7821SOL    HW224363   5.704   5.652   0.146
 7822SOL     OW24364   1.302   1.721   6.650
 7822SOL    HW124365   1.246   1.801   6.670
 7822SOL    HW224366   1.267   1.642   6.701
 7823SOL     OW24367   2.955   3.957   5.004
 7823SOL    HW124368   3.032   4.016   5.028
 7823SOL    HW224369   2.953   3.942   4.906
 7824SOL     OW24370   6.042   0.738   4.018
 7824SOL    HW124371   5.987   0.755   4.099
 7824SOL    HW224372   6.138   0.758   4.038
 7825SOL     OW24373   1.116   3.017   0.954
 7825SOL    HW124374   1.114   3.004   1.054
 7825SOL    HW224375   1.156   2.937   0.911
 7826SOL     OW24376   6.085   1.356   0.330
 7826SOL    HW124377   6.084   1.340   0.428
 7826SOL    HW224378   6.162   1.307   0.289
 7827SOL     OW24379   3.026   4.749   1.305
 7827SOL    HW124380   2.989   4.675   1.249
 7827SOL    HW224381   2.958   4.822   1.313
 7828SOL     OW24382   0.992   4.985   6.782
 7828SOL    HW124383   1.052   4.911   6.813
 7828SOL    HW224384   0.985   4.982   6.683
 7829SOL     OW24385   1.875   3.000   1.478
 7829SOL    HW124386   1.874   3.015   1.577
 7829SOL    HW224387   1.850   2.906   1.458
 7830SOL     OW24388   2.563   4.234   5.554
 7830SOL    HW124389   2.652   4.233   5.508
 7830SOL    HW224390   2.495   4.188   5.497
 7831SOL     OW24391   1.496   5.987   1.096
 7831SOL    HW124392   1.503   5.918   1.169
 7831SOL    HW224393   1.407   6.032   1.102
 7832SOL     OW24394   4.831   1.194   3.337
 7832SOL    HW124395   4.799   1.130   3.407
 7832SOL    HW224396   4.818   1.154   3.246
 7833SOL     OW24397   0.962   0.728   6.147
 7833SOL    HW124398   0.910   0.653   6.188
 7833SOL    HW224399   0.899   0.796   6.110
 7834SOL     OW24400   6.497   1.338   4.047
 7834SOL    HW124401   6.402   1.313   4.065
 7834SOL    HW224402   6.505   1.437   4.037
 7835SOL     OW24403   2.915   1.759   5.276
 7835SOL    HW124404   2.914   1.857   5.297
 7835SOL    HW224405   2.834   1.735   5.222
 7836SOL     OW24406   3.393   3.166   4.889
 7836SOL    HW124407   3.427   3.171   4.796
 7836SOL    HW224408   3.323   3.095   4.896
 7837SOL     OW24409   6.156   5.915   0.858
 7837SOL    HW124410   6.105   5.976   0.797
 7837SOL    HW224411   6.110   5.911   0.947
 7838SOL     OW24412   4.494   6.769   0.118
 7838SOL    HW124413   4.412   6.738   0.164
 7838SOL    HW224414   4.515   6.708   0.041
 7839SOL     OW24415   6.146   4.496   5.113
 7839SOL    HW124416   6.187   4.546   5.189
 7839SOL    HW224417   6.046   4.507   5.115
 7840SOL     OW24418   6.197   2.935   4.040
 7840SOL    HW124419   6.130   2.909   3.970
 7840SOL    HW224420   6.243   2.853   4.073
 7841SOL     OW24421   3.708   1.587   6.515
 7841SOL    HW124422   3.685   1.634   6.430
 7841SOL    HW224423   3.673   1.640   6.592
 7842SOL     OW24424   2.051   1.955   2.937
 7842SOL    HW124425   2.070   1.881   2.872
 7842SOL    HW224426   2.098   2.038   2.907
 7843SOL     OW24427   5.888   5.456   2.855
 7843SOL    HW124428   5.879   5.514   2.936
 7843SOL    HW224429   5.901   5.361   2.882
 7844SOL     OW24430   3.986   6.071   2.232
 7844SOL    HW124431   3.894   6.108   2.220
 7844SOL    HW224432   4.053   6.136   2.197
 7845SOL     OW24433   5.019   1.697   3.838
 7845SOL    HW124434   5.012   1.621   3.903
 7845SOL    HW224435   5.029   1.782   3.888
 7846SOL     OW24436   1.087   1.356   2.697
 7846SOL    HW124437   1.071   1.341   2.794
 7846SOL    HW224438   1.037   1.287   2.644
 7847SOL     OW24439   6.941   1.463   2.763
 7847SOL    HW124440   6.938   1.380   2.708
 7847SOL    HW224441   0.011   1.470   2.808
 7848SOL     OW24442   3.513   3.272   0.485
 7848SOL    HW124443   3.524   3.363   0.444
 7848SOL    HW224444   3.422   3.265   0.525
 7849SOL     OW24445   5.432   3.916   3.600
 7849SOL    HW124446   5.351   3.862   3.622
 7849SOL    HW224447   5.478   3.944   3.685
 7850SOL     OW24448   0.319   2.072   5.389
 7850SOL    HW124449   0.357   2.142   5.450
 7850SOL    HW224450   0.255   2.115   5.325
 7851SOL     OW24451   6.439   1.148   2.187
 7851SOL    HW124452   6.377   1.158   2.109
 7851SOL    HW224453   6.459   1.051   2.201
 7852SOL     OW24454   2.387   1.566   5.682
 7852SOL    HW124455   2.405   1.494   5.748
 7852SOL    HW224456   2.412   1.535   5.591
 7853SOL     OW24457   4.375   2.247   1.316
 7853SOL    HW124458   4.423   2.334   1.309
 7853SOL    HW224459   4.328   2.227   1.230
 7854SOL     OW24460   3.613   3.658   0.018
 7854SOL    HW124461   3.638   3.664   0.114
 7854SOL    HW224462   3.636   3.567   7.002
 7855SOL     OW24463   4.387   5.116   5.212
 7855SOL    HW124464   4.389   5.156   5.304
 7855SOL    HW224465   4.403   5.187   5.144
 7856SOL     OW24466   6.297   4.589   5.324
 7856SOL    HW124467   6.361   4.640   5.382
 7856SOL    HW224468   6.319   4.491   5.328
 7857SOL     OW24469   5.507   1.986   5.246
 7857SOL    HW124470   5.529   1.893   5.217
 7857SOL    HW224471   5.423   2.016   5.200
 7858SOL     OW24472   5.308   5.868   3.722
 7858SOL    HW124473   5.302   5.947   3.662
 7858SOL    HW224474   5.247   5.881   3.800
 7859SOL     OW24475   5.228   2.261   6.323
 7859SOL    HW124476   5.157   2.196   6.295
 7859SOL    HW224477   5.190   2.354   6.322
 7860SOL     OW24478   4.202   0.211   2.416
 7860SOL    HW124479   4.241   0.122   2.393
 7860SOL    HW224480   4.165   0.208   2.509
 7861SOL     OW24481   3.880   4.895   2.025
 7861SOL    HW124482   3.876   4.985   1.981
 7861SOL    HW224483   3.794   4.848   2.011
 7862SOL     OW24484   2.720   3.751   1.452
 7862SOL    HW124485   2.670   3.836   1.434
 7862SOL    HW224486   2.657   3.673   1.449
 7863SOL     OW24487   0.732   5.430   4.189
 7863SOL    HW124488   0.653   5.474   4.232
 7863SOL    HW224489   0.716   5.331   4.185
 7864SOL     OW24490   0.453   5.463   5.242
 7864SOL    HW124491   0.537   5.513   5.221
 7864SOL    HW224492   0.374   5.522   5.228
 7865SOL     OW24493   5.989   6.551   4.365
 7865SOL    HW124494   6.064   6.560   4.431
 7865SOL    HW224495   5.922   6.623   4.380
 7866SOL     OW24496   1.553   1.665   6.512
 7866SOL    HW124497   1.466   1.706   6.538
 7866SOL    HW224498   1.588   1.709   6.429
 7867SOL     OW24499   5.699   6.631   3.192
 7867SOL    HW124500   5.617   6.641   3.249
 7867SOL    HW224501   5.679   6.663   3.100
 7868SOL     OW24502   5.456   6.667   1.727
 7868SOL    HW124503   5.425   6.758   1.698
 7868SOL    HW224504   5.381   6.621   1.774
 7869SOL     OW24505   6.352   3.759   0.297
 7869SOL    HW124506   6.336   3.766   0.396
 7869SOL    HW224507   6.438   3.805   0.274
 7870SOL     OW24508   4.011   4.778   4.134
 7870SOL    HW124509   3.913   4.760   4.125
 7870SOL    HW224510   4.026   4.877   4.136
 7871SOL     OW24511   5.152   2.749   2.293
 7871SOL    HW124512   5.234   2.796   2.260
 7871SOL    HW224513   5.124   2.788   2.381
 7872SOL     OW24514   2.539   4.525   3.252
 7872SOL    HW124515   2.572   4.539   3.346
 7872SOL    HW224516   2.606   4.562   3.188
 7873SOL     OW24517   5.192   0.459   6.056
 7873SOL    HW124518   5.217   0.382   6.116
 7873SOL    HW224519   5.170   0.424   5.965
 7874SOL     OW24520   5.778   1.939   0.416
 7874SOL    HW124521   5.854   1.887   0.378
 7874SOL    HW224522   5.770   2.026   0.369
 7875SOL     OW24523   5.505   2.574   6.662
 7875SOL    HW124524   5.555   2.513   6.600
 7875SOL    HW224525   5.516   2.543   6.756
 7876SOL     OW24526   0.993   0.063   4.633
 7876SOL    HW124527   1.091   0.084   4.622
 7876SOL    HW224528   0.982   6.985   4.655
 7877SOL     OW24529   0.803   2.475   3.098
 7877SOL    HW124530   0.805   2.376   3.110
 7877SOL    HW224531   0.804   2.497   3.001
 7878SOL     OW24532   5.605   5.158   4.288
 7878SOL    HW124533   5.702   5.150   4.308
 7878SOL    HW224534   5.567   5.239   4.332
 7879SOL     OW24535   4.589   5.022   4.254
 7879SOL    HW124536   4.493   5.016   4.281
 7879SOL    HW224537   4.633   4.933   4.264
 7880SOL     OW24538   1.957   5.161   1.062
 7880SOL    HW124539   1.945   5.140   0.965
 7880SOL    HW224540   2.034   5.224   1.073
 7881SOL     OW24541   5.940   4.583   4.570
 7881SOL    HW124542   5.907   4.519   4.639
 7881SOL    HW224543   5.864   4.615   4.514
 7882SOL     OW24544   0.864   3.217   2.792
 7882SOL    HW124545   0.876   3.251   2.886
 7882SOL    HW224546   0.794   3.272   2.746
 7883SOL     OW24547   0.787   0.250   0.726
 7883SOL    HW124548   0.766   0.204   0.812
 7883SOL    HW224549   0.737   0.337   0.722
 7884SOL     OW24550   1.977   4.000   3.787
 7884SOL    HW124551   2.048   3.933   3.764
 7884SOL    HW224552   1.911   3.959   3.849
 7885SOL     OW24553   6.122   5.131   2.024
 7885SOL    HW124554   6.199   5.194   2.018
 7885SOL    HW224555   6.135   5.056   1.959
 7886SOL     OW24556   3.304   5.307   0.310
 7886SOL    HW124557   3.243   5.316   0.389
 7886SOL    HW224558   3.274   5.230   0.254
 7887SOL     OW24559   3.280   2.593   5.321
 7887SOL    HW124560   3.265   2.513   5.263
 7887SOL    HW224561   3.191   2.633   5.346
 7888SOL     OW24562   6.448   6.802   5.107
 7888SOL    HW124563   6.379   6.853   5.159
 7888SOL    HW224564   6.434   6.704   5.121
 7889SOL     OW24565   1.617   5.104   0.454
 7889SOL    HW124566   1.528   5.084   0.413
 7889SOL    HW224567   1.612   5.092   0.553
 7890SOL     OW24568   0.754   3.453   3.403
 7890SOL    HW124569   0.727   3.529   3.462
 7890SOL    HW224570   0.683   3.382   3.405
 7891SOL     OW24571   2.532   4.498   4.105
 7891SOL    HW124572   2.543   4.501   4.204
 7891SOL    HW224573   2.514   4.404   4.076
 7892SOL     OW24574   2.040   1.149   3.639
 7892SOL    HW124575   1.948   1.120   3.614
 7892SOL    HW224576   2.094   1.165   3.557
 7893SOL     OW24577   6.678   6.097   1.888
 7893SOL    HW124578   6.618   6.121   1.811
 7893SOL    HW224579   6.668   6.165   1.961
 7894SOL     OW24580   3.822   6.335   0.325
 7894SOL    HW124581   3.825   6.402   0.250
 7894SOL    HW224582   3.727   6.317   0.349
 7895SOL     OW24583   5.534   0.577   5.862
 7895SOL    HW124584   5.559   0.661   5.911
 7895SOL    HW224585   5.446   0.590   5.816
 7896SOL     OW24586   4.069   3.395   1.546
 7896SOL    HW124587   4.122   3.428   1.468
 7896SOL    HW224588   4.032   3.305   1.525
 7897SOL     OW24589   2.998   3.320   0.587
 7897SOL    HW124590   2.906   3.292   0.614
 7897SOL    HW224591   2.996   3.352   0.492
 7898SOL     OW24592   3.877   1.758   3.387
 7898SOL    HW124593   3.801   1.805   3.432
 7898SOL    HW224594   3.963   1.798   3.419
 7899SOL     OW24595   5.827   0.050   1.382
 7899SOL    HW124596   5.783   6.990   1.425
 7899SOL    HW224597   5.845   0.120   1.452
 7900SOL     OW24598   1.388   5.256   2.239
 7900SOL    HW124599   1.357   5.251   2.334
 7900SOL    HW224600   1.418   5.350   2.219
 7901SOL     OW24601   4.710   1.477   6.201
 7901SOL    HW124602   4.623   1.447   6.162
 7901SOL    HW224603   4.698   1.497   6.299
 7902SOL     OW24604   6.110   6.711   1.284
 7902SOL    HW124605   6.071   6.784   1.339
 7902SOL    HW224606   6.126   6.744   1.191
 7903SOL     OW24607   5.152   1.208   1.279
 7903SOL    HW124608   5.178   1.248   1.191
 7903SOL    HW224609   5.081   1.264   1.321
 7904SOL     OW24610   5.520   0.270   4.004
 7904SOL    HW124611   5.611   0.231   3.986
 7904SOL    HW224612   5.524   0.369   3.997
 7905SOL     OW24613   5.640   2.008   0.115
 7905SOL    HW124614   5.653   2.073   0.189
 7905SOL    HW224615   5.577   1.936   0.144
 7906SOL     OW24616   0.756   5.688   0.832
 7906SOL    HW124617   0.665   5.711   0.798
 7906SOL    HW224618   0.806   5.772   0.854
 7907SOL     OW24619   5.307   1.951   2.532
 7907SOL    HW124620   5.213   1.936   2.561
 7907SOL    HW224621   5.366   1.880   2.571
 7908SOL     OW24622   1.567   1.025   5.535
 7908SOL    HW124623   1.483   0.971   5.539
 7908SOL    HW224624   1.547   1.119   5.562
 7909SOL     OW24625   5.069   4.663   4.456
 7909SOL    HW124626   5.038   4.610   4.377
 7909SOL    HW224627   4.990   4.692   4.510
 7910SOL     OW24628   2.849   3.701   5.813
 7910SOL    HW124629   2.856   3.783   5.870
 7910SOL    HW224630   2.753   3.684   5.792
 7911SOL     OW24631   2.161   4.061   6.956
 7911SOL    HW124632   2.183   4.099   0.026
 7911SOL    HW224633   2.121   4.132   6.898
 7912SOL     OW24634   6.975   5.072   1.044
 7912SOL    HW124635   6.993   5.024   0.958
 7912SOL    HW224636   6.905   5.023   1.095
 7913SOL     OW24637   1.240   4.590   1.060
 7913SOL    HW124638   1.160   4.648   1.076
 7913SOL    HW224639   1.251   4.527   1.136
 7914SOL     OW24640   0.566   4.301   6.722
 7914SOL    HW124641   0.649   4.356   6.729
 7914SOL    HW224642   0.578   4.230   6.653
 7915SOL     OW24643   4.885   2.562   1.703
 7915SOL    HW124644   4.975   2.594   1.731
 7915SOL    HW224645   4.821   2.569   1.780
 7916SOL     OW24646   1.227   5.010   5.154
 7916SOL    HW124647   1.170   4.937   5.192
 7916SOL    HW224648   1.308   5.022   5.212
 7917SOL     OW24649   3.597   3.426   4.615
 7917SOL    HW124650   3.565   3.391   4.703
 7917SOL    HW224651   3.694   3.405   4.605
 7918SOL     OW24652   0.194   1.237   5.235
 7918SOL    HW124653   0.199   1.261   5.138
 7918SOL    HW224654   0.099   1.220   5.260
 7919SOL     OW24655   2.346   4.319   3.181
 7919SOL    HW124656   2.304   4.273   3.259
 7919SOL    HW224657   2.435   4.355   3.207
 7920SOL     OW24658   6.776   6.644   0.435
 7920SOL    HW124659   6.735   6.702   0.365
 7920SOL    HW224660   6.870   6.622   0.410
 7921SOL     OW24661   5.403   6.399   1.050
 7921SOL    HW124662   5.358   6.353   1.127
 7921SOL    HW224663   5.476   6.341   1.015
 7922SOL     OW24664   6.779   6.372   0.767
 7922SOL    HW124665   6.710   6.431   0.811
 7922SOL    HW224666   6.774   6.383   0.668
 7923SOL     OW24667   3.176   0.018   1.562
 7923SOL    HW124668   3.193   7.009   1.656
 7923SOL    HW224669   3.190   0.117   1.553
 7924SOL     OW24670   4.873   6.830   1.623
 7924SOL    HW124671   4.875   6.804   1.527
 7924SOL    HW224672   4.959   6.804   1.667
 7925SOL     OW24673   1.212   1.308   5.982
 7925SOL    HW124674   1.191   1.305   5.885
 7925SOL    HW224675   1.306   1.339   5.995
 7926SOL     OW24676   4.359   1.653   5.431
 7926SOL    HW124677   4.366   1.574   5.370
 7926SOL    HW224678   4.447   1.670   5.475
 7927SOL     OW24679   4.579   5.505   2.306
 7927SOL    HW124680   4.620   5.584   2.352
 7927SOL    HW224681   4.650   5.438   2.284
 7928SOL     OW24682   1.092   1.660   5.142
 7928SOL    HW124683   1.127   1.571   5.112
 7928SOL    HW224684   1.137   1.687   5.227
 7929SOL     OW24685   4.613   4.512   5.576
 7929SOL    HW124686   4.668   4.431   5.593
 7929SOL    HW224687   4.527   4.505   5.627
 7930SOL     OW24688   4.264   5.621   4.738
 7930SOL    HW124689   4.317   5.537   4.747
 7930SOL    HW224690   4.268   5.672   4.824
 7931SOL     OW24691   2.546   2.906   0.129
 7931SOL    HW124692   2.505   2.895   0.219
 7931SOL    HW224693   2.611   2.831   0.112
 7932SOL     OW24694   1.189   6.351   6.721
 7932SOL    HW124695   1.152   6.259   6.735
 7932SOL    HW224696   1.121   6.419   6.746
 7933SOL     OW24697   0.481   6.021   5.844
 7933SOL    HW124698   0.542   5.989   5.918
 7933SOL    HW224699   0.524   6.001   5.756
 7934SOL     OW24700   2.167   5.007   7.008
 7934SOL    HW124701   2.087   4.949   6.989
 7934SOL    HW224702   2.138   5.088   0.040
 7935SOL     OW24703   5.758   5.872   0.879
 7935SOL    HW124704   5.802   5.956   0.847
 7935SOL    HW224705   5.659   5.886   0.884
 7936SOL     OW24706   3.599   5.929   2.930
 7936SOL    HW124707   3.637   5.941   2.839
 7936SOL    HW224708   3.528   5.858   2.928
 7937SOL     OW24709   6.572   6.378   3.398
 7937SOL    HW124710   6.643   6.392   3.466
 7937SOL    HW224711   6.563   6.280   3.378
 7938SOL     OW24712   6.777   5.218   4.052
 7938SOL    HW124713   6.851   5.233   4.117
 7938SOL    HW224714   6.711   5.293   4.058
 7939SOL     OW24715   1.535   2.843   5.043
 7939SOL    HW124716   1.597   2.915   5.072
 7939SOL    HW224717   1.574   2.754   5.064
 7940SOL     OW24718   1.514   3.586   1.520
 7940SOL    HW124719   1.578   3.536   1.462
 7940SOL    HW224720   1.482   3.526   1.594
 7941SOL     OW24721   5.549   0.977   1.219
 7941SOL    HW124722   5.457   1.016   1.223
 7941SOL    HW224723   5.608   1.037   1.165
 7942SOL     OW24724   6.636   5.948   2.610
 7942SOL    HW124725   6.561   5.949   2.676
 7942SOL    HW224726   6.679   5.857   2.610
 7943SOL     OW24727   6.367   3.496   0.277
 7943SOL    HW124728   6.356   3.595   0.269
 7943SOL    HW224729   6.352   3.454   0.188
 7944SOL     OW24730   0.783   2.284   1.694
 7944SOL    HW124731   0.861   2.285   1.756
 7944SOL    HW224732   0.793   2.209   1.629
 7945SOL     OW24733   5.673   5.145   1.369
 7945SOL    HW124734   5.621   5.207   1.309
 7945SOL    HW224735   5.707   5.068   1.316
 7946SOL     OW24736   2.617   0.892   5.604
 7946SOL    HW124737   2.604   0.891   5.703
 7946SOL    HW224738   2.662   0.807   5.576
 7947SOL     OW24739   3.659   2.010   5.994
 7947SOL    HW124740   3.582   2.049   5.943
 7947SOL    HW224741   3.702   2.082   6.049
 7948SOL     OW24742   0.813   6.937   0.775
 7948SOL    HW124743   0.892   6.983   0.735
 7948SOL    HW224744   0.729   6.985   0.748
 7949SOL     OW24745   4.437   4.627   4.716
 7949SOL    HW124746   4.369   4.690   4.680
 7949SOL    HW224747   4.401   4.582   4.798
 7950SOL     OW24748   5.224   5.054   4.131
 7950SOL    HW124749   5.219   5.038   4.033
 7950SOL    HW224750   5.259   5.146   4.148
 7951SOL     OW24751   2.150   4.041   1.919
 7951SOL    HW124752   2.204   3.965   1.882
 7951SOL    HW224753   2.209   4.118   1.940
 7952SOL     OW24754   0.604   3.470   0.426
 7952SOL    HW124755   0.598   3.562   0.465
 7952SOL    HW224756   0.698   3.436   0.436
 7953SOL     OW24757   2.453   2.260   3.879
 7953SOL    HW124758   2.503   2.174   3.888
 7953SOL    HW224759   2.517   2.334   3.859
 7954SOL     OW24760   3.992   4.016   6.372
 7954SOL    HW124761   4.033   4.091   6.321
 7954SOL    HW224762   3.893   4.027   6.374
 7955SOL     OW24763   1.651   6.796   6.617
 7955SOL    HW124764   1.623   6.882   6.575
 7955SOL    HW224765   1.660   6.809   6.716
 7956SOL     OW24766   3.457   6.158   2.584
 7956SOL    HW124767   3.446   6.071   2.536
 7956SOL    HW224768   3.379   6.172   2.645
 7957SOL     OW24769   1.074   1.197   1.644
 7957SOL    HW124770   1.142   1.161   1.580
 7957SOL    HW224771   0.985   1.156   1.625
 7958SOL     OW24772   3.495   4.931   4.548
 7958SOL    HW124773   3.443   4.947   4.632
 7958SOL    HW224774   3.593   4.930   4.568
 7959SOL     OW24775   4.377   5.949   0.681
 7959SOL    HW124776   4.452   5.971   0.619
 7959SOL    HW224777   4.291   5.948   0.632
 7960SOL     OW24778   2.614   0.814   6.409
 7960SOL    HW124779   2.705   0.792   6.374
 7960SOL    HW224780   2.615   0.905   6.450
 7961SOL     OW24781   0.293   0.929   0.883
 7961SOL    HW124782   0.243   0.900   0.801
 7961SOL    HW224783   0.248   1.009   0.923
 7962SOL     OW24784   1.206   0.758   6.767
 7962SOL    HW124785   1.230   0.779   6.672
 7962SOL    HW224786   1.253   0.820   6.829
 7963SOL     OW24787   6.485   6.575   4.038
 7963SOL    HW124788   6.456   6.560   4.133
 7963SOL    HW224789   6.584   6.568   4.032
 7964SOL     OW24790   0.576   4.977   3.084
 7964SOL    HW124791   0.517   5.052   3.114
 7964SOL    HW224792   0.663   4.982   3.132
 7965SOL     OW24793   3.625   2.280   5.530
 7965SOL    HW124794   3.529   2.308   5.522
 7965SOL    HW224795   3.630   2.181   5.542
 7966SOL     OW24796   1.477   2.813   6.121
 7966SOL    HW124797   1.501   2.768   6.034
 7966SOL    HW224798   1.548   2.880   6.144
 7967SOL     OW24799   2.764   6.378   3.138
 7967SOL    HW124800   2.774   6.286   3.176
 7967SOL    HW224801   2.731   6.440   3.209
 7968SOL     OW24802   1.751   2.753   3.932
 7968SOL    HW124803   1.842   2.773   3.897
 7968SOL    HW224804   1.747   2.773   4.030
 7969SOL     OW24805   4.242   6.153   0.487
 7969SOL    HW124806   4.280   6.236   0.526
 7969SOL    HW224807   4.316   6.096   0.451
 7970SOL     OW24808   6.242   2.814   2.759
 7970SOL    HW124809   6.231   2.733   2.817
 7970SOL    HW224810   6.340   2.828   2.741
 7971SOL     OW24811   3.579   2.409   0.297
 7971SOL    HW124812   3.610   2.342   0.365
 7971SOL    HW224813   3.581   2.501   0.337
 7972SOL     OW24814   1.752   3.388   0.527
 7972SOL    HW124815   1.666   3.385   0.475
 7972SOL    HW224816   1.778   3.484   0.542
 7973SOL     OW24817   3.994   4.872   4.638
 7973SOL    HW124818   3.896   4.886   4.633
 7973SOL    HW224819   4.020   4.848   4.732
 7974SOL     OW24820   5.712   1.561   5.575
 7974SOL    HW124821   5.657   1.643   5.558
 7974SOL    HW224822   5.761   1.536   5.491
 7975SOL     OW24823   6.137   1.770   2.344
 7975SOL    HW124824   6.213   1.729   2.395
 7975SOL    HW224825   6.159   1.773   2.247
 7976SOL     OW24826   0.807   0.054   5.951
 7976SOL    HW124827   0.797   0.111   6.033
 7976SOL    HW224828   0.717   0.027   5.918
 7977SOL     OW24829   4.618   6.054   2.147
 7977SOL    HW124830   4.616   6.108   2.062
 7977SOL    HW224831   4.709   6.016   2.161
 7978SOL     OW24832   6.012   3.639   6.755
 7978SOL    HW124833   6.073   3.715   6.733
 7978SOL    HW224834   5.999   3.582   6.674
 7979SOL     OW24835   4.555   6.068   5.303
 7979SOL    HW124836   4.640   6.090   5.350
 7979SOL    HW224837   4.573   6.063   5.204
 7980SOL     OW24838   2.652   5.454   6.785
 7980SOL    HW124839   2.744   5.474   6.751
 7980SOL    HW224840   2.658   5.388   6.860
 7981SOL     OW24841   0.661   5.674   1.662
 7981SOL    HW124842   0.743   5.617   1.668
 7981SOL    HW224843   0.668   5.734   1.582
 7982SOL     OW24844   0.578   1.453   6.944
 7982SOL    HW124845   0.642   1.523   6.977
 7982SOL    HW224846   0.567   1.383   7.014
 7983SOL     OW24847   6.360   2.330   1.787
 7983SOL    HW124848   6.384   2.396   1.716
 7983SOL    HW224849   6.374   2.371   1.877
 7984SOL     OW24850   1.684   1.217   0.840
 7984SOL    HW124851   1.665   1.280   0.916
 7984SOL    HW224852   1.608   1.152   0.832
 7985SOL     OW24853   2.909   0.834   3.924
 7985SOL    HW124854   2.833   0.840   3.989
 7985SOL    HW224855   2.892   0.896   3.847
 7986SOL     OW24856   2.995   1.581   6.669
 7986SOL    HW124857   2.972   1.594   6.573
 7986SOL    HW224858   2.964   1.490   6.699
 7987SOL     OW24859   1.460   2.555   6.640
 7987SOL    HW124860   1.457   2.626   6.709
 7987SOL    HW224861   1.436   2.593   6.551
 7988SOL     OW24862   1.043   2.323   4.091
 7988SOL    HW124863   1.084   2.248   4.143
 7988SOL    HW224864   0.992   2.382   4.153
 7989SOL     OW24865   3.651   3.165   5.284
 7989SOL    HW124866   3.611   3.112   5.359
 7989SOL    HW224867   3.601   3.146   5.199
 7990SOL     OW24868   6.950   3.538   4.573
 7990SOL    HW124869   6.888   3.470   4.611
 7990SOL    HW224870   6.974   3.512   4.479
 7991SOL     OW24871   5.903   6.707   3.620
 7991SOL    HW124872   5.954   6.671   3.699
 7991SOL    HW224873   5.953   6.687   3.536
 7992SOL     OW24874   1.569   6.962   1.253
 7992SOL    HW124875   1.493   6.898   1.243
 7992SOL    HW224876   1.654   6.911   1.261
 7993SOL     OW24877   0.429   6.900   6.715
 7993SOL    HW124878   0.450   6.894   6.617
 7993SOL    HW224879   0.421   6.996   6.742
 7994SOL     OW24880   4.398   6.420   3.898
 7994SOL    HW124881   4.495   6.442   3.895
 7994SOL    HW224882   4.344   6.502   3.878
 7995SOL     OW24883   4.835   5.635   3.824
 7995SOL    HW124884   4.907   5.572   3.855
 7995SOL    HW224885   4.841   5.646   3.725
 7996SOL     OW24886   3.229   0.304   4.756
 7996SOL    HW124887   3.248   0.274   4.850
 7996SOL    HW224888   3.158   0.246   4.716
 7997SOL     OW24889   0.033   1.030   1.462
 7997SOL    HW124890   6.959   1.058   1.482
 7997SOL    HW224891   0.093   1.052   1.539
 7998SOL     OW24892   3.320   5.772   1.367
 7998SOL    HW124893   3.272   5.686   1.381
 7998SOL    HW224894   3.264   5.833   1.311
 7999SOL     OW24895   0.528   0.032   5.872
 7999SOL    HW124896   0.510   6.952   5.865
 7999SOL    HW224897   0.456   0.075   5.925
 8000SOL     OW24898   5.030   0.293   6.632
 8000SOL    HW124899   4.982   0.229   6.571
 8000SOL    HW224900   4.968   0.321   6.706
 8001SOL     OW24901   4.002   6.610   0.868
 8001SOL    HW124902   4.027   6.537   0.805
 8001SOL    HW224903   3.948   6.572   0.943
 8002SOL     OW24904   0.700   2.271   6.120
 8002SOL    HW124905   0.729   2.306   6.209
 8002SOL    HW224906   0.603   2.247   6.124
 8003SOL     OW24907   2.985   5.014   2.699
 8003SOL    HW124908   2.886   5.020   2.702
 8003SOL    HW224909   3.019   5.055   2.615
 8004SOL     OW24910   2.148   3.465   3.164
 8004SOL    HW124911   2.144   3.534   3.092
 8004SOL    HW224912   2.165   3.375   3.123
 8005SOL     OW24913   3.303   0.749   1.691
 8005SOL    HW124914   3.316   0.679   1.762
 8005SOL    HW224915   3.255   0.709   1.613
 8006SOL     OW24916   1.711   0.435   6.452
 8006SOL    HW124917   1.692   0.346   6.411
 8006SOL    HW224918   1.700   0.507   6.382
 8007SOL     OW24919   6.707   0.613   4.341
 8007SOL    HW124920   6.698   0.574   4.249
 8007SOL    HW224921   6.796   0.657   4.350
 8008SOL     OW24922   4.307   5.520   6.213
 8008SOL    HW124923   4.289   5.580   6.135
 8008SOL    HW224924   4.231   5.525   6.278
 8009SOL     OW24925   5.491   1.021   2.956
 8009SOL    HW124926   5.401   0.977   2.961
 8009SOL    HW224927   5.552   0.981   3.025
 8010SOL     OW24928   0.791   0.822   6.449
 8010SOL    HW124929   0.877   0.821   6.499
 8010SOL    HW224930   0.758   0.916   6.440
 8011SOL     OW24931   3.453   2.686   0.715
 8011SOL    HW124932   3.438   2.779   0.682
 8011SOL    HW224933   3.388   2.624   0.670
 8012SOL     OW24934   1.439   4.071   1.646
 8012SOL    HW124935   1.510   4.135   1.677
 8012SOL    HW224936   1.480   3.982   1.626
 8013SOL     OW24937   1.240   5.192   3.818
 8013SOL    HW124938   1.247   5.094   3.834
 8013SOL    HW224939   1.323   5.237   3.851
 8014SOL     OW24940   1.349   6.669   5.249
 8014SOL    HW124941   1.431   6.655   5.194
 8014SOL    HW224942   1.278   6.604   5.220
 8015SOL     OW24943   2.574   0.818   0.024
 8015SOL    HW124944   2.579   0.828   0.123
 8015SOL    HW224945   2.497   0.872   7.008
 8016SOL     OW24946   5.418   0.177   6.259
 8016SOL    HW124947   5.433   0.160   6.356
 8016SOL    HW224948   5.482   0.247   6.226
 8017SOL     OW24949   5.729   0.433   0.719
 8017SOL    HW124950   5.816   0.476   0.742
 8017SOL    HW224951   5.678   0.413   0.802
 8018SOL     OW24952   3.181   1.899   5.514
 8018SOL    HW124953   3.187   1.921   5.416
 8018SOL    HW224954   3.124   1.968   5.559
 8019SOL     OW24955   2.412   4.741   6.650
 8019SOL    HW124956   2.352   4.691   6.713
 8019SOL    HW224957   2.372   4.739   6.558
 8020SOL     OW24958   5.584   1.097   0.816
 8020SOL    HW124959   5.632   1.128   0.897
 8020SOL    HW224960   5.609   1.002   0.796
 8021SOL     OW24961   1.128   2.557   1.386
 8021SOL    HW124962   1.126   2.540   1.288
 8021SOL    HW224963   1.035   2.550   1.423
 8022SOL     OW24964   5.348   6.694   2.650
 8022SOL    HW124965   5.410   6.769   2.675
 8022SOL    HW224966   5.254   6.727   2.647
 8023SOL     OW24967   5.826   5.588   3.089
 8023SOL    HW124968   5.745   5.640   3.062
 8023SOL    HW224969   5.849   5.609   3.184
 8024SOL     OW24970   2.667   5.090   6.819
 8024SOL    HW124971   2.672   5.033   6.737
 8024SOL    HW224972   2.758   5.121   6.844
 8025SOL     OW24973   2.254   6.762   0.005
 8025SOL    HW124974   2.314   6.690   0.040
 8025SOL    HW224975   2.222   6.818   0.081
 8026SOL     OW24976   1.006   4.255   6.893
 8026SOL    HW124977   1.091   4.246   6.841
 8026SOL    HW224978   0.947   4.177   6.875
 8027SOL     OW24979   4.815   0.738   5.447
 8027SOL    HW124980   4.761   0.822   5.457
 8027SOL    HW224981   4.838   0.725   5.351
 8028SOL     OW24982   2.714   5.308   4.596
 8028SOL    HW124983   2.805   5.344   4.619
 8028SOL    HW224984   2.723   5.213   4.567
 8029SOL     OW24985   5.128   3.151   1.634
 8029SOL    HW124986   5.180   3.068   1.658
 8029SOL    HW224987   5.135   3.217   1.708
 8030SOL     OW24988   4.200   4.674   1.024
 8030SOL    HW124989   4.166   4.742   1.089
 8030SOL    HW224990   4.205   4.585   1.068
 8031SOL     OW24991   5.692   6.564   2.259
 8031SOL    HW124992   5.733   6.653   2.277
 8031SOL    HW224993   5.622   6.574   2.188
 8032SOL     OW24994   6.990   5.328   0.686
 8032SOL    HW124995   6.976   5.372   0.598
 8032SOL    HW224996   0.069   5.313   0.701
 8033SOL     OW24997   5.146   1.883   5.786
 8033SOL    HW124998   5.129   1.852   5.693
 8033SOL    HW224999   5.062   1.878   5.839
 8034SOL     OW25000   5.550   6.772   4.865
 8034SOL    HW125001   5.624   6.811   4.920
 8034SOL    HW225002   5.463   6.812   4.892
 8035SOL     OW25003   4.981   1.592   4.570
 8035SOL    HW125004   4.914   1.647   4.620
 8035SOL    HW225005   4.943   1.500   4.555
 8036SOL     OW25006   0.457   4.060   3.186
 8036SOL    HW125007   0.495   4.131   3.246
 8036SOL    HW225008   0.532   4.010   3.143
 8037SOL     OW25009   1.220   3.091   0.541
 8037SOL    HW125010   1.218   3.093   0.441
 8037SOL    HW225011   1.277   3.015   0.571
 8038SOL     OW25012   3.847   0.224   2.116
 8038SOL    HW125013   3.829   0.126   2.113
 8038SOL    HW225014   3.802   0.268   2.038
 8039SOL     OW25015   0.873   1.719   4.687
 8039SOL    HW125016   0.887   1.753   4.780
 8039SOL    HW225017   0.956   1.676   4.654
 8040SOL     OW25018   1.526   6.262   0.262
 8040SOL    HW125019   1.623   6.240   0.263
 8040SOL    HW225020   1.490   6.250   0.169
 8041SOL     OW25021   2.979   1.404   2.394
 8041SOL    HW125022   2.910   1.435   2.328
 8041SOL    HW225023   2.944   1.415   2.487
 8042SOL     OW25024   3.073   3.844   3.845
 8042SOL    HW125025   3.015   3.791   3.907
 8042SOL    HW225026   3.048   3.822   3.750
 8043SOL     OW25027   4.055   6.436   2.382
 8043SOL    HW125028   3.989   6.503   2.349
 8043SOL    HW225029   4.037   6.416   2.479
 8044SOL     OW25030   3.964   2.619   1.336
 8044SOL    HW125031   4.058   2.626   1.302
 8044SOL    HW225032   3.941   2.523   1.352
 8045SOL     OW25033   5.098   1.152   2.169
 8045SOL    HW125034   5.180   1.206   2.189
 8045SOL    HW225035   5.072   1.165   2.073
 8046SOL     OW25036   0.380   5.190   1.056
 8046SOL    HW125037   0.366   5.276   1.006
 8046SOL    HW225038   0.476   5.184   1.084
 8047SOL     OW25039   4.148   5.727   4.256
 8047SOL    HW125040   4.179   5.724   4.352
 8047SOL    HW225041   4.062   5.776   4.251
 8048SOL     OW25042   5.064   1.034   5.634
 8048SOL    HW125043   5.141   1.090   5.605
 8048SOL    HW225044   5.034   1.062   5.725
 8049SOL     OW25045   0.783   0.147   6.892
 8049SOL    HW125046   0.775   0.065   6.948
 8049SOL    HW225047   0.762   0.125   6.797
 8050SOL     OW25048   1.696   4.008   2.962
 8050SOL    HW125049   1.602   4.022   2.931
 8050SOL    HW225050   1.747   4.093   2.952
 8051SOL     OW25051   4.736   5.866   3.216
 8051SOL    HW125052   4.731   5.907   3.125
 8051SOL    HW225053   4.708   5.770   3.211
 8052SOL     OW25054   4.672   1.488   1.677
 8052SOL    HW125055   4.632   1.478   1.768
 8052SOL    HW225056   4.704   1.582   1.665
 8053SOL     OW25057   3.049   3.797   3.163
 8053SOL    HW125058   3.105   3.748   3.096
 8053SOL    HW225059   2.981   3.736   3.202
 8054SOL     OW25060   5.002   6.955   4.511
 8054SOL    HW125061   5.059   6.887   4.558
 8054SOL    HW225062   5.057   7.003   4.443
 8055SOL     OW25063   0.219   0.502   5.537
 8055SOL    HW125064   0.253   0.422   5.586
 8055SOL    HW225065   0.142   0.542   5.587
 8056SOL     OW25066   3.092   1.411   4.372
 8056SOL    HW125067   3.016   1.451   4.423
 8056SOL    HW225068   3.179   1.437   4.415
 8057SOL     OW25069   3.151   1.427   3.285
 8057SOL    HW125070   3.155   1.447   3.187
 8057SOL    HW225071   3.081   1.484   3.328
 8058SOL     OW25072   4.371   0.596   1.844
 8058SOL    HW125073   4.327   0.516   1.882
 8058SOL    HW225074   4.396   0.659   1.917
 8059SOL     OW25075   3.789   1.679   4.600
 8059SOL    HW125076   3.739   1.596   4.621
 8059SOL    HW225077   3.821   1.722   4.684
 8060SOL     OW25078   6.396   2.308   4.044
 8060SOL    HW125079   6.342   2.339   4.123
 8060SOL    HW225080   6.362   2.354   3.962
 8061SOL     OW25081   0.608   1.535   2.879
 8061SOL    HW125082   0.643   1.610   2.935
 8061SOL    HW225083   0.520   1.505   2.915
 8062SOL     OW25084   3.598   5.360   4.118
 8062SOL    HW125085   3.695   5.379   4.129
 8062SOL    HW225086   3.578   5.347   4.021
 8063SOL     OW25087   0.874   2.516   1.518
 8063SOL    HW125088   0.896   2.427   1.556
 8063SOL    HW225089   0.806   2.506   1.446
 8064SOL     OW25090   0.098   4.119   2.157
 8064SOL    HW125091   0.032   4.135   2.230
 8064SOL    HW225092   0.138   4.207   2.128
 8065SOL     OW25093   2.431   5.718   3.864
 8065SOL    HW125094   2.524   5.746   3.842
 8065SOL    HW225095   2.371   5.734   3.785
 8066SOL     OW25096   6.858   2.210   5.435
 8066SOL    HW125097   6.764   2.220   5.466
 8066SOL    HW225098   6.882   2.286   5.375
 8067SOL     OW25099   4.602   2.914   1.652
 8067SOL    HW125100   4.589   2.947   1.745
 8067SOL    HW225101   4.691   2.869   1.645
 8068SOL     OW25102   0.146   4.024   1.060
 8068SOL    HW125103   0.200   3.940   1.053
 8068SOL    HW225104   0.049   4.002   1.049
 8069SOL     OW25105   1.813   6.873   1.196
 8069SOL    HW125106   1.906   6.896   1.169
 8069SOL    HW225107   1.806   6.774   1.211
 8070SOL     OW25108   3.609   3.133   0.095
 8070SOL    HW125109   3.512   3.128   0.071
 8070SOL    HW225110   3.619   3.146   0.193
 8071SOL     OW25111   2.655   6.267   4.703
 8071SOL    HW125112   2.575   6.208   4.702
 8071SOL    HW225113   2.735   6.216   4.672
 8072SOL     OW25114   3.209   0.828   0.276
 8072SOL    HW125115   3.179   0.904   0.218
 8072SOL    HW225116   3.292   0.788   0.238
 8073SOL     OW25117   3.266   5.431   4.466
 8073SOL    HW125118   3.361   5.427   4.436
 8073SOL    HW225119   3.255   5.377   4.550
 8074SOL     OW25120   3.776   2.347   0.535
 8074SOL    HW125121   3.744   2.423   0.478
 8074SOL    HW225122   3.846   2.380   0.599
 8075SOL     OW25123   0.298   0.560   1.044
 8075SOL    HW125124   0.364   0.580   0.972
 8075SOL    HW225125   0.346   0.519   1.122
 8076SOL     OW25126   5.956   2.344   5.190
 8076SOL    HW125127   5.930   2.313   5.098
 8076SOL    HW225128   5.930   2.273   5.256
 8077SOL     OW25129   2.625   5.906   1.993
 8077SOL    HW125130   2.668   5.852   1.921
 8077SOL    HW225131   2.609   5.999   1.960
 8078SOL     OW25132   6.866   1.425   0.040
 8078SOL    HW125133   6.856   1.514   0.085
 8078SOL    HW225134   6.957   1.389   0.059
 8079SOL     OW25135   4.647   1.630   3.215
 8079SOL    HW125136   4.735   1.597   3.248
 8079SOL    HW225137   4.658   1.723   3.180
 8080SOL     OW25138   0.315   2.695   0.738
 8080SOL    HW125139   0.370   2.711   0.656
 8080SOL    HW225140   0.367   2.722   0.819
 8081SOL     OW25141   5.211   6.429   4.956
 8081SOL    HW125142   5.259   6.497   4.900
 8081SOL    HW225143   5.127   6.469   4.991
 8082SOL     OW25144   4.969   6.476   1.801
 8082SOL    HW125145   4.905   6.527   1.858
 8082SOL    HW225146   5.046   6.445   1.857
 8083SOL     OW25147   4.937   3.454   2.535
 8083SOL    HW125148   4.911   3.539   2.489
 8083SOL    HW225149   4.891   3.449   2.624
 8084SOL     OW25150   4.951   0.265   0.420
 8084SOL    HW125151   4.859   0.278   0.384
 8084SOL    HW225152   5.002   0.202   0.361
 8085SOL     OW25153   6.329   6.095   2.110
 8085SOL    HW125154   6.377   6.052   2.033
 8085SOL    HW225155   6.379   6.076   2.195
 8086SOL     OW25156   5.084   1.316   3.344
 8086SOL    HW125157   4.991   1.281   3.350
 8086SOL    HW225158   5.141   1.252   3.291
 8087SOL     OW25159   2.617   1.559   0.480
 8087SOL    HW125160   2.690   1.610   0.435
 8087SOL    HW225161   2.636   1.554   0.578
 8088SOL     OW25162   5.167   2.552   1.356
 8088SOL    HW125163   5.227   2.569   1.277
 8088SOL    HW225164   5.201   2.473   1.407
 8089SOL     OW25165   5.080   2.173   0.642
 8089SOL    HW125166   5.008   2.104   0.646
 8089SOL    HW225167   5.154   2.141   0.584
 8090SOL     OW25168   5.033   1.718   0.434
 8090SOL    HW125169   5.067   1.774   0.509
 8090SOL    HW225170   4.982   1.775   0.370
 8091SOL     OW25171   2.491   3.431   5.434
 8091SOL    HW125172   2.558   3.490   5.390
 8091SOL    HW225173   2.506   3.336   5.406
 8092SOL     OW25174   6.172   2.487   5.218
 8092SOL    HW125175   6.094   2.432   5.189
 8092SOL    HW225176   6.141   2.581   5.236
 8093SOL     OW25177   3.842   5.240   2.883
 8093SOL    HW125178   3.848   5.179   2.962
 8093SOL    HW225179   3.869   5.190   2.801
 8094SOL     OW25180   1.515   3.850   5.073
 8094SOL    HW125181   1.497   3.920   5.004
 8094SOL    HW225182   1.511   3.890   5.164
 8095SOL     OW25183   6.827   4.288   5.451
 8095SOL    HW125184   6.870   4.273   5.362
 8095SOL    HW225185   6.892   4.334   5.511
 8096SOL     OW25186   2.514   6.310   3.062
 8096SOL    HW125187   2.522   6.220   3.020
 8096SOL    HW225188   2.597   6.363   3.043
 8097SOL     OW25189   4.183   7.004   3.774
 8097SOL    HW125190   4.229   0.039   3.844
 8097SOL    HW225191   4.127   6.934   3.817
 8098SOL     OW25192   1.581   0.085   3.401
 8098SOL    HW125193   1.507   0.079   3.468
 8098SOL    HW225194   1.598   0.181   3.379
 8099SOL     OW25195   3.943   0.383   4.323
 8099SOL    HW125196   3.873   0.329   4.276
 8099SOL    HW225197   3.931   0.480   4.300
 8100SOL     OW25198   5.890   0.859   0.733
 8100SOL    HW125199   5.794   0.832   0.743
 8100SOL    HW225200   5.897   0.932   0.665
 8101SOL     OW25201   1.859   0.594   3.436
 8101SOL    HW125202   1.829   0.554   3.350
 8101SOL    HW225203   1.854   0.694   3.430
 8102SOL     OW25204   0.441   4.579   4.548
 8102SOL    HW125205   0.432   4.665   4.600
 8102SOL    HW225206   0.366   4.518   4.572
 8103SOL     OW25207   3.932   6.994   1.358
 8103SOL    HW125208   3.985   0.058   1.338
 8103SOL    HW225209   3.995   6.917   1.369
 8104SOL     OW25210   3.015   0.234   6.196
 8104SOL    HW125211   2.952   0.156   6.188
 8104SOL    HW225212   3.014   0.286   6.111
 8105SOL     OW25213   0.518   2.164   3.040
 8105SOL    HW125214   0.612   2.197   3.050
 8105SOL    HW225215   0.491   2.169   2.944
 8106SOL     OW25216   2.207   5.919   2.866
 8106SOL    HW125217   2.199   5.823   2.840
 8106SOL    HW225218   2.182   5.977   2.789
 8107SOL     OW25219   0.583   5.116   4.863
 8107SOL    HW125220   0.499   5.139   4.913
 8107SOL    HW225221   0.588   5.170   4.779
 8108SOL     OW25222   6.076   3.154   5.477
 8108SOL    HW125223   6.102   3.075   5.533
 8108SOL    HW225224   5.977   3.154   5.464
 8109SOL     OW25225   1.744   3.897   4.248
 8109SOL    HW125226   1.755   3.869   4.344
 8109SOL    HW225227   1.799   3.979   4.231
 8110SOL     OW25228   3.281   6.182   0.810
 8110SOL    HW125229   3.218   6.260   0.817
 8110SOL    HW225230   3.328   6.170   0.897
 8111SOL     OW25231   4.348   0.621   4.703
 8111SOL    HW125232   4.295   0.593   4.783
 8111SOL    HW225233   4.287   0.627   4.623
 8112SOL     OW25234   2.706   2.301   4.819
 8112SOL    HW125235   2.666   2.391   4.802
 8112SOL    HW225236   2.800   2.312   4.853
 8113SOL     OW25237   3.039   3.380   0.849
 8113SOL    HW125238   2.947   3.368   0.887
 8113SOL    HW225239   3.035   3.375   0.749
 8114SOL     OW25240   1.915   3.770   1.667
 8114SOL    HW125241   1.947   3.718   1.746
 8114SOL    HW225242   1.818   3.791   1.677
 8115SOL     OW25243   3.196   0.115   0.393
 8115SOL    HW125244   3.218   0.211   0.377
 8115SOL    HW225245   3.206   0.094   0.490
 8116SOL     OW25246   4.303   5.662   5.970
 8116SOL    HW125247   4.225   5.607   5.940
 8116SOL    HW225248   4.303   5.750   5.924
 8117SOL     OW25249   1.816   1.004   3.842
 8117SOL    HW125250   1.899   1.009   3.897
 8117SOL    HW225251   1.805   1.089   3.790
 8118SOL     OW25252   6.063   4.128   6.052
 8118SOL    HW125253   6.102   4.048   6.096
 8118SOL    HW225254   6.116   4.209   6.076
 8119SOL     OW25255   6.230   6.141   5.660
 8119SOL    HW125256   6.201   6.074   5.592
 8119SOL    HW225257   6.323   6.121   5.689
 8120SOL     OW25258   2.126   5.121   0.336
 8120SOL    HW125259   2.062   5.178   0.286
 8120SOL    HW225260   2.214   5.168   0.344
 8121SOL     OW25261   0.360   4.419   1.876
 8121SOL    HW125262   0.416   4.467   1.809
 8121SOL    HW225263   0.349   4.476   1.958
 8122SOL     OW25264   1.396   6.023   2.172
 8122SOL    HW125265   1.458   5.959   2.218
 8122SOL    HW225266   1.449   6.092   2.123
 8123SOL     OW25267   6.522   0.797   6.978
 8123SOL    HW125268   6.507   0.730   6.906
 8123SOL    HW225269   6.502   0.889   6.943
 8124SOL     OW25270   6.622   6.193   1.078
 8124SOL    HW125271   6.620   6.140   0.993
 8124SOL    HW225272   6.717   6.208   1.106
 8125SOL     OW25273   1.212   0.799   4.016
 8125SOL    HW125274   1.123   0.795   4.060
 8125SOL    HW225275   1.243   0.707   3.994
 8126SOL     OW25276   5.531   4.518   2.644
 8126SOL    HW125277   5.586   4.601   2.634
 8126SOL    HW225278   5.542   4.461   2.563
 8127SOL     OW25279   3.244   6.159   6.379
 8127SOL    HW125280   3.192   6.203   6.306
 8127SOL    HW225281   3.339   6.147   6.349
 8128SOL     OW25282   2.952   2.115   1.602
 8128SOL    HW125283   3.017   2.106   1.677
 8128SOL    HW225284   2.892   2.193   1.619
 8129SOL     OW25285   4.152   0.643   5.854
 8129SOL    HW125286   4.124   0.651   5.950
 8129SOL    HW225287   4.217   0.715   5.832
 8130SOL     OW25288   0.238   3.540   6.438
 8130SOL    HW125289   0.315   3.584   6.392
 8130SOL    HW225290   0.222   3.585   6.526
 8131SOL     OW25291   3.313   1.897   0.902
 8131SOL    HW125292   3.301   1.996   0.893
 8131SOL    HW225293   3.398   1.878   0.951
 8132SOL     OW25294   5.812   6.304   5.968
 8132SOL    HW125295   5.749   6.367   6.013
 8132SOL    HW225296   5.894   6.294   6.023
 8133SOL     OW25297   2.814   4.810   1.544
 8133SOL    HW125298   2.860   4.726   1.513
 8133SOL    HW225299   2.806   4.808   1.644
 8134SOL     OW25300   0.756   2.761   5.337
 8134SOL    HW125301   0.684   2.829   5.320
 8134SOL    HW225302   0.714   2.676   5.368
 8135SOL     OW25303   2.548   6.085   1.117
 8135SOL    HW125304   2.520   6.126   1.031
 8135SOL    HW225305   2.537   5.985   1.112
 8136SOL     OW25306   4.412   4.838   3.006
 8136SOL    HW125307   4.368   4.927   3.018
 8136SOL    HW225308   4.502   4.838   3.051
 8137SOL     OW25309   3.465   1.592   4.776
 8137SOL    HW125310   3.425   1.622   4.862
 8137SOL    HW225311   3.476   1.670   4.715
 8138SOL     OW25312   6.284   1.944   0.437
 8138SOL    HW125313   6.191   1.948   0.401
 8138SOL    HW225314   6.295   2.013   0.509
 8139SOL     OW25315   1.319   1.679   3.931
 8139SOL    HW125316   1.355   1.630   3.852
 8139SOL    HW225317   1.245   1.625   3.972
 8140SOL     OW25318   4.508   0.328   0.906
 8140SOL    HW125319   4.517   0.329   1.006
 8140SOL    HW225320   4.588   0.283   0.866
 8141SOL     OW25321   4.588   6.487   5.367
 8141SOL    HW125322   4.688   6.487   5.365
 8141SOL    HW225323   4.557   6.451   5.456
 8142SOL     OW25324   1.676   5.187   0.151
 8142SOL    HW125325   1.676   5.122   0.227
 8142SOL    HW225326   1.616   5.264   0.173
 8143SOL     OW25327   6.745   4.398   0.296
 8143SOL    HW125328   6.733   4.303   0.326
 8143SOL    HW225329   6.800   4.447   0.363
 8144SOL     OW25330   0.554   6.398   5.946
 8144SOL    HW125331   0.640   6.362   5.910
 8144SOL    HW225332   0.527   6.343   6.026
 8145SOL     OW25333   5.340   5.328   1.447
 8145SOL    HW125334   5.242   5.343   1.460
 8145SOL    HW225335   5.382   5.307   1.535
 8146SOL     OW25336   4.904   0.693   5.188
 8146SOL    HW125337   4.994   0.661   5.156
 8146SOL    HW225338   4.865   0.755   5.120
 8147SOL     OW25339   6.636   1.361   2.278
 8147SOL    HW125340   6.571   1.305   2.228
 8147SOL    HW225341   6.684   1.421   2.214
 8148SOL     OW25342   5.229   4.380   0.746
 8148SOL    HW125343   5.184   4.296   0.717
 8148SOL    HW225344   5.326   4.363   0.762
 8149SOL     OW25345   2.174   5.981   3.138
 8149SOL    HW125346   2.159   5.954   3.043
 8149SOL    HW225347   2.096   5.953   3.193
 8150SOL     OW25348   1.671   3.652   0.914
 8150SOL    HW125349   1.725   3.736   0.925
 8150SOL    HW225350   1.639   3.645   0.820
 8151SOL     OW25351   5.760   4.734   2.980
 8151SOL    HW125352   5.744   4.647   2.933
 8151SOL    HW225353   5.676   4.789   2.978
 8152SOL     OW25354   5.970   2.239   3.190
 8152SOL    HW125355   5.915   2.160   3.216
 8152SOL    HW225356   6.034   2.261   3.263
 8153SOL     OW25357   1.425   2.016   3.669
 8153SOL    HW125358   1.354   2.011   3.739
 8153SOL    HW225359   1.421   1.934   3.612
 8154SOL     OW25360   3.863   6.125   2.528
 8154SOL    HW125361   3.866   6.111   2.429
 8154SOL    HW225362   3.910   6.210   2.552
 8155SOL     OW25363   1.472   3.267   1.494
 8155SOL    HW125364   1.431   3.187   1.450
 8155SOL    HW225365   1.420   3.349   1.469
 8156SOL     OW25366   5.043   6.368   0.451
 8156SOL    HW125367   5.130   6.345   0.494
 8156SOL    HW225368   5.044   6.463   0.420
 8157SOL     OW25369   6.376   4.819   6.008
 8157SOL    HW125370   6.291   4.793   5.962
 8157SOL    HW225371   6.391   4.759   6.087
 8158SOL     OW25372   5.041   4.201   6.957
 8158SOL    HW125373   5.048   4.240   0.030
 8158SOL    HW225374   5.119   4.231   6.902
 8159SOL     OW25375   2.048   5.299   2.842
 8159SOL    HW125376   2.123   5.355   2.877
 8159SOL    HW225377   2.083   5.213   2.805
 8160SOL     OW25378   5.507   0.850   3.826
 8160SOL    HW125379   5.450   0.815   3.900
 8160SOL    HW225380   5.504   0.950   3.825
 8161SOL     OW25381   6.148   2.585   6.422
 8161SOL    HW125382   6.184   2.594   6.329
 8161SOL    HW225383   6.069   2.646   6.433
 8162SOL     OW25384   6.397   6.583   6.819
 8162SOL    HW125385   6.390   6.656   6.752
 8162SOL    HW225386   6.319   6.520   6.808
 8163SOL     OW25387   2.628   4.364   5.258
 8163SOL    HW125388   2.627   4.267   5.285
 8163SOL    HW225389   2.718   4.403   5.278
 8164SOL     OW25390   4.985   2.451   0.260
 8164SOL    HW125391   4.991   2.472   0.163
 8164SOL    HW225392   5.033   2.522   0.312
 8165SOL     OW25393   0.515   3.820   5.677
 8165SOL    HW125394   0.601   3.780   5.646
 8165SOL    HW225395   0.533   3.898   5.736
 8166SOL     OW25396   1.462   0.389   3.365
 8166SOL    HW125397   1.412   0.388   3.279
 8166SOL    HW225398   1.398   0.404   3.441
 8167SOL     OW25399   0.211   7.009   3.781
 8167SOL    HW125400   0.133   6.949   3.765
 8167SOL    HW225401   0.182   0.070   3.833
 8168SOL     OW25402   2.855   1.419   2.629
 8168SOL    HW125403   2.874   1.467   2.715
 8168SOL    HW225404   2.770   1.368   2.638
 8169SOL     OW25405   4.880   1.996   0.589
 8169SOL    HW125406   4.858   1.928   0.658
 8169SOL    HW225407   4.799   2.016   0.534
 8170SOL     OW25408   1.256   5.579   2.115
 8170SOL    HW125409   1.248   5.556   2.213
 8170SOL    HW225410   1.351   5.596   2.093
 8171SOL     OW25411   1.685   1.739   6.265
 8171SOL    HW125412   1.779   1.724   6.295
 8171SOL    HW225413   1.664   1.837   6.271
 8172SOL     OW25414   0.280   1.904   2.041
 8172SOL    HW125415   0.242   1.877   2.129
 8172SOL    HW225416   0.259   2.001   2.024
 8173SOL     OW25417   5.492   1.917   2.232
 8173SOL    HW125418   5.449   1.832   2.262
 8173SOL    HW225419   5.427   1.993   2.243
 8174SOL     OW25420   6.275   1.019   2.546
 8174SOL    HW125421   6.262   1.103   2.492
 8174SOL    HW225422   6.222   0.945   2.505
 8175SOL     OW25423   0.614   3.101   5.546
 8175SOL    HW125424   0.590   3.085   5.450
 8175SOL    HW225425   0.656   3.191   5.555
 8176SOL     OW25426   1.992   5.060   1.324
 8176SOL    HW125427   2.087   5.033   1.334
 8176SOL    HW225428   1.975   5.090   1.230
 8177SOL     OW25429   3.592   6.374   3.521
 8177SOL    HW125430   3.626   6.463   3.554
 8177SOL    HW225431   3.558   6.321   3.599
 8178SOL     OW25432   2.826   6.314   0.516
 8178SOL    HW125433   2.843   6.407   0.549
 8178SOL    HW225434   2.895   6.291   0.447
 8179SOL     OW25435   4.646   2.171   4.670
 8179SOL    HW125436   4.642   2.258   4.622
 8179SOL    HW225437   4.641   2.186   4.768
 8180SOL     OW25438   6.445   0.744   5.273
 8180SOL    HW125439   6.505   0.820   5.296
 8180SOL    HW225440   6.483   0.659   5.308
 8181SOL     OW25441   1.746   1.110   0.593
 8181SOL    HW125442   1.731   1.179   0.663
 8181SOL    HW225443   1.843   1.091   0.584
 8182SOL     OW25444   3.424   3.686   5.818
 8182SOL    HW125445   3.396   3.689   5.914
 8182SOL    HW225446   3.356   3.735   5.763
 8183SOL     OW25447   6.699   2.267   4.901
 8183SOL    HW125448   6.634   2.222   4.963
 8183SOL    HW225449   6.660   2.354   4.871
 8184SOL     OW25450   6.467   0.695   0.478
 8184SOL    HW125451   6.500   0.615   0.429
 8184SOL    HW225452   6.491   0.778   0.427
 8185SOL     OW25453   1.948   0.219   0.019
 8185SOL    HW125454   1.880   0.254   6.974
 8185SOL    HW225455   2.039   0.227   6.999
 8186SOL     OW25456   3.548   4.744   5.348
 8186SOL    HW125457   3.496   4.801   5.285
 8186SOL    HW225458   3.645   4.771   5.346
 8187SOL     OW25459   1.468   2.030   4.869
 8187SOL    HW125460   1.422   2.119   4.867
 8187SOL    HW225461   1.546   2.034   4.932
 8188SOL     OW25462   5.904   2.898   2.929
 8188SOL    HW125463   5.834   2.859   2.869
 8188SOL    HW225464   5.880   2.993   2.949
 8189SOL     OW25465   5.193   4.733   3.202
 8189SOL    HW125466   5.205   4.640   3.167
 8189SOL    HW225467   5.268   4.790   3.172
 8190SOL     OW25468   4.828   5.281   4.444
 8190SOL    HW125469   4.738   5.264   4.404
 8190SOL    HW225470   4.874   5.355   4.394
 8191SOL     OW25471   3.594   6.095   1.902
 8191SOL    HW125472   3.510   6.043   1.920
 8191SOL    HW225473   3.657   6.084   1.978
 8192SOL     OW25474   3.554   4.845   0.708
 8192SOL    HW125475   3.648   4.863   0.738
 8192SOL    HW225476   3.528   4.911   0.638
 8193SOL     OW25477   6.745   6.007   5.155
 8193SOL    HW125478   6.827   5.990   5.210
 8193SOL    HW225479   6.770   6.021   5.060
 8194SOL     OW25480   5.140   2.232   1.139
 8194SOL    HW125481   5.142   2.251   1.041
 8194SOL    HW225482   5.074   2.292   1.184
 8195SOL     OW25483   1.811   0.452   2.273
 8195SOL    HW125484   1.722   0.497   2.262
 8195SOL    HW225485   1.797   0.354   2.284
 8196SOL     OW25486   3.550   5.993   5.936
 8196SOL    HW125487   3.566   6.006   5.838
 8196SOL    HW225488   3.525   6.081   5.977
 8197SOL     OW25489   4.427   1.741   0.138
 8197SOL    HW125490   4.464   1.822   0.094
 8197SOL    HW225491   4.330   1.732   0.116
 8198SOL     OW25492   3.296   6.825   2.801
 8198SOL    HW125493   3.353   6.867   2.871
 8198SOL    HW225494   3.206   6.868   2.801
 8199SOL     OW25495   6.253   3.082   6.350
 8199SOL    HW125496   6.322   3.129   6.406
 8199SOL    HW225497   6.297   3.045   6.268
 8200SOL     OW25498   5.531   4.440   2.075
 8200SOL    HW125499   5.513   4.343   2.059
 8200SOL    HW225500   5.620   4.452   2.118
 8201SOL     OW25501   5.761   0.903   3.941
 8201SOL    HW125502   5.683   0.880   3.883
 8201SOL    HW225503   5.844   0.908   3.886
 8202SOL     OW25504   0.581   6.039   4.208
 8202SOL    HW125505   0.675   6.004   4.212
 8202SOL    HW225506   0.530   5.991   4.137
 8203SOL     OW25507   3.928   2.639   0.336
 8203SOL    HW125508   3.846   2.650   0.392
 8203SOL    HW225509   3.973   2.727   0.325
 8204SOL     OW25510   3.072   4.996   6.700
 8204SOL    HW125511   3.009   4.955   6.635
 8204SOL    HW225512   3.090   5.091   6.676
 8205SOL     OW25513   0.531   4.727   0.354
 8205SOL    HW125514   0.465   4.695   0.423
 8205SOL    HW225515   0.483   4.744   0.268
 8206SOL     OW25516   4.981   2.673   6.027
 8206SOL    HW125517   4.916   2.665   6.102
 8206SOL    HW225518   5.073   2.688   6.063
 8207SOL     OW25519   3.184   3.983   4.461
 8207SOL    HW125520   3.262   3.924   4.440
 8207SOL    HW225521   3.140   4.011   4.376
 8208SOL     OW25522   2.009   0.135   1.166
 8208SOL    HW125523   2.037   0.046   1.202
 8208SOL    HW225524   1.910   0.147   1.179
 8209SOL     OW25525   0.475   1.354   5.163
 8209SOL    HW125526   0.481   1.272   5.219
 8209SOL    HW225527   0.461   1.434   5.223
 8210SOL     OW25528   2.143   1.399   1.384
 8210SOL    HW125529   2.140   1.399   1.284
 8210SOL    HW225530   2.236   1.420   1.415
 8211SOL     OW25531   3.924   3.982   1.815
 8211SOL    HW125532   3.890   4.067   1.775
 8211SOL    HW225533   3.961   3.923   1.743
 8212SOL     OW25534   2.482   1.562   2.106
 8212SOL    HW125535   2.528   1.564   2.017
 8212SOL    HW225536   2.509   1.643   2.158
 8213SOL     OW25537   6.587   4.478   2.588
 8213SOL    HW125538   6.611   4.573   2.606
 8213SOL    HW225539   6.608   4.456   2.492
 8214SOL     OW25540   6.899   5.329   4.943
 8214SOL    HW125541   6.836   5.255   4.921
 8214SOL    HW225542   6.942   5.362   4.859
 8215SOL     OW25543   2.541   5.872   6.001
 8215SOL    HW125544   2.545   5.781   5.961
 8215SOL    HW225545   2.497   5.867   6.091
 8216SOL     OW25546   4.908   5.069   3.788
 8216SOL    HW125547   4.994   5.022   3.809
 8216SOL    HW225548   4.858   5.087   3.873
 8217SOL     OW25549   2.028   3.982   1.500
 8217SOL    HW125550   2.125   3.990   1.521
 8217SOL    HW225551   1.985   3.916   1.562
 8218SOL     OW25552   0.272   6.769   4.672
 8218SOL    HW125553   0.263   6.752   4.770
 8218SOL    HW225554   0.344   6.836   4.656
 8219SOL     OW25555   3.943   3.329   0.334
 8219SOL    HW125556   3.936   3.428   0.320
 8219SOL    HW225557   4.003   3.289   0.265
 8220SOL     OW25558   3.105   4.023   4.164
 8220SOL    HW125559   3.052   3.939   4.164
 8220SOL    HW225560   3.129   4.048   4.070
 8221SOL     OW25561   5.940   6.423   3.159
 8221SOL    HW125562   5.963   6.419   3.062
 8221SOL    HW225563   5.889   6.507   3.177
 8222SOL     OW25564   5.385   1.471   1.511
 8222SOL    HW125565   5.307   1.453   1.570
 8222SOL    HW225566   5.413   1.386   1.465
 8223SOL     OW25567   1.485   4.464   5.309
 8223SOL    HW125568   1.465   4.462   5.211
 8223SOL    HW225569   1.549   4.391   5.331
 8224SOL     OW25570   5.255   2.493   2.189
 8224SOL    HW125571   5.202   2.578   2.193
 8224SOL    HW225572   5.258   2.461   2.095
 8225SOL     OW25573   3.475   1.630   1.149
 8225SOL    HW125574   3.421   1.557   1.191
 8225SOL    HW225575   3.522   1.682   1.221
 8226SOL     OW25576   3.778   5.998   6.967
 8226SOL    HW125577   3.811   6.074   6.912
 8226SOL    HW225578   3.697   5.957   6.924
 8227SOL     OW25579   0.220   1.082   2.308
 8227SOL    HW125580   0.130   1.039   2.320
 8227SOL    HW225581   0.225   1.164   2.366
 8228SOL     OW25582   6.595   1.611   5.779
 8228SOL    HW125583   6.576   1.630   5.876
 8228SOL    HW225584   6.683   1.650   5.754
 8229SOL     OW25585   4.479   3.506   1.083
 8229SOL    HW125586   4.424   3.498   1.000
 8229SOL    HW225587   4.421   3.489   1.163
 8230SOL     OW25588   3.416   0.093   4.802
 8230SOL    HW125589   3.398   0.011   4.748
 8230SOL    HW225590   3.343   0.106   4.868
 8231SOL     OW25591   2.927   2.742   1.304
 8231SOL    HW125592   2.985   2.730   1.224
 8231SOL    HW225593   2.925   2.839   1.329
 8232SOL     OW25594   5.322   2.009   1.891
 8232SOL    HW125595   5.332   2.049   1.799
 8232SOL    HW225596   5.252   1.938   1.888
 8233SOL     OW25597   1.493   6.783   6.221
 8233SOL    HW125598   1.429   6.833   6.279
 8233SOL    HW225599   1.571   6.753   6.276
 8234SOL     OW25600   2.717   3.833   6.855
 8234SOL    HW125601   2.813   3.815   6.875
 8234SOL    HW225602   2.660   3.796   6.928
 8235SOL     OW25603   0.375   3.078   6.914
 8235SOL    HW125604   0.400   3.042   7.004
 8235SOL    HW225605   0.452   3.066   6.851
 8236SOL     OW25606   0.654   5.002   0.653
 8236SOL    HW125607   0.713   4.926   0.683
 8236SOL    HW225608   0.697   5.050   0.576
 8237SOL     OW25609   4.560   6.170   5.921
 8237SOL    HW125610   4.569   6.112   5.840
 8237SOL    HW225611   4.476   6.224   5.913
 8238SOL     OW25612   0.627   5.337   6.475
 8238SOL    HW125613   0.539   5.291   6.483
 8238SOL    HW225614   0.624   5.424   6.523
 8239SOL     OW25615   0.439   1.144   5.334
 8239SOL    HW125616   0.460   1.047   5.340
 8239SOL    HW225617   0.344   1.156   5.305
 8240SOL     OW25618   3.749   3.856   2.584
 8240SOL    HW125619   3.702   3.888   2.666
 8240SOL    HW225620   3.706   3.897   2.503
 8241SOL     OW25621   3.425   5.757   6.022
 8241SOL    HW125622   3.462   5.846   5.995
 8241SOL    HW225623   3.491   5.685   5.999
 8242SOL     OW25624   0.408   4.209   6.109
 8242SOL    HW125625   0.470   4.259   6.170
 8242SOL    HW225626   0.318   4.252   6.111
 8243SOL     OW25627   0.436   3.459   0.886
 8243SOL    HW125628   0.419   3.422   0.977
 8243SOL    HW225629   0.515   3.413   0.846
 8244SOL     OW25630   0.152   0.643   3.559
 8244SOL    HW125631   0.201   0.557   3.545
 8244SOL    HW225632   0.199   0.697   3.629
 8245SOL     OW25633   4.096   2.016   2.222
 8245SOL    HW125634   4.072   2.064   2.137
 8245SOL    HW225635   4.177   1.961   2.206
 8246SOL     OW25636   0.860   3.793   6.197
 8246SOL    HW125637   0.799   3.848   6.140
 8246SOL    HW225638   0.806   3.736   6.258
 8247SOL     OW25639   2.215   0.698   2.839
 8247SOL    HW125640   2.149   0.627   2.815
 8247SOL    HW225641   2.183   0.748   2.919
 8248SOL     OW25642   6.916   4.688   4.806
 8248SOL    HW125643   6.842   4.692   4.738
 8248SOL    HW225644   6.928   4.778   4.848
 8249SOL     OW25645   1.631   2.005   5.668
 8249SOL    HW125646   1.677   2.010   5.579
 8249SOL    HW225647   1.699   2.006   5.741
 8250SOL     OW25648   2.575   2.446   1.565
 8250SOL    HW125649   2.491   2.442   1.511
 8250SOL    HW225650   2.621   2.533   1.547
 8251SOL     OW25651   4.842   3.152   4.665
 8251SOL    HW125652   4.855   3.128   4.761
 8251SOL    HW225653   4.860   3.250   4.653
 8252SOL     OW25654   3.169   2.050   5.821
 8252SOL    HW125655   3.133   1.966   5.861
 8252SOL    HW225656   3.116   2.128   5.853
 8253SOL     OW25657   4.030   5.602   5.957
 8253SOL    HW125658   3.955   5.580   5.894
 8253SOL    HW225659   4.007   5.569   6.049
 8254SOL     OW25660   4.546   4.598   5.313
 8254SOL    HW125661   4.541   4.689   5.353
 8254SOL    HW225662   4.602   4.539   5.370
 8255SOL     OW25663   2.003   6.030   5.174
 8255SOL    HW125664   2.063   6.105   5.202
 8255SOL    HW225665   1.941   6.063   5.103
 8256SOL     OW25666   6.881   6.563   2.275
 8256SOL    HW125667   6.956   6.564   2.208
 8256SOL    HW225668   6.860   6.656   2.304
 8257SOL     OW25669   4.868   3.537   2.855
 8257SOL    HW125670   4.928   3.598   2.907
 8257SOL    HW225671   4.783   3.585   2.832
 8258SOL     OW25672   5.358   2.634   1.180
 8258SOL    HW125673   5.316   2.637   1.089
 8258SOL    HW225674   5.422   2.710   1.190
 8259SOL     OW25675   3.898   1.804   4.844
 8259SOL    HW125676   3.979   1.844   4.802
 8259SOL    HW225677   3.852   1.873   4.900
 8260SOL     OW25678   2.173   6.792   0.935
 8260SOL    HW125679   2.273   6.787   0.940
 8260SOL    HW225680   2.134   6.703   0.957
 8261SOL     OW25681   5.557   6.474   2.479
 8261SOL    HW125682   5.572   6.500   2.384
 8261SOL    HW225683   5.483   6.530   2.517
 8262SOL     OW25684   1.223   3.091   0.230
 8262SOL    HW125685   1.271   3.018   0.180
 8262SOL    HW225686   1.253   3.180   0.195
 8263SOL     OW25687   0.285   2.326   6.434
 8263SOL    HW125688   0.354   2.364   6.496
 8263SOL    HW225689   0.254   2.238   6.468
 8264SOL     OW25690   1.883   6.439   0.821
 8264SOL    HW125691   1.887   6.483   0.731
 8264SOL    HW225692   1.812   6.369   0.821
 8265SOL     OW25693   6.344   0.631   1.751
 8265SOL    HW125694   6.355   0.647   1.849
 8265SOL    HW225695   6.422   0.670   1.702
 8266SOL     OW25696   2.294   0.979   4.928
 8266SOL    HW125697   2.283   0.925   4.845
 8266SOL    HW225698   2.302   1.075   4.904
 8267SOL     OW25699   1.647   3.965   1.335
 8267SOL    HW125700   1.555   3.996   1.311
 8267SOL    HW225701   1.715   4.019   1.286
 8268SOL     OW25702   2.692   6.506   6.007
 8268SOL    HW125703   2.594   6.487   6.001
 8268SOL    HW225704   2.739   6.471   5.926
 8269SOL     OW25705   4.256   1.822   2.167
 8269SOL    HW125706   4.279   1.861   2.079
 8269SOL    HW225707   4.337   1.816   2.225
 8270SOL     OW25708   2.739   6.275   4.396
 8270SOL    HW125709   2.798   6.258   4.475
 8270SOL    HW225710   2.746   6.370   4.368
 8271SOL     OW25711   0.149   7.009   2.915
 8271SOL    HW125712   0.203   0.055   2.969
 8271SOL    HW225713   0.187   6.917   2.925
 8272SOL     OW25714   6.301   1.690   2.776
 8272SOL    HW125715   6.304   1.783   2.812
 8272SOL    HW225716   6.330   1.691   2.680
 8273SOL     OW25717   2.867   1.463   0.964
 8273SOL    HW125718   2.904   1.482   0.872
 8273SOL    HW225719   2.791   1.399   0.957
 8274SOL     OW25720   3.979   5.470   4.469
 8274SOL    HW125721   4.029   5.555   4.486
 8274SOL    HW225722   3.959   5.425   4.556
 8275SOL     OW25723   5.568   0.410   4.632
 8275SOL    HW125724   5.565   0.467   4.715
 8275SOL    HW225725   5.662   0.410   4.596
 8276SOL     OW25726   0.615   1.864   5.186
 8276SOL    HW125727   0.600   1.827   5.278
 8276SOL    HW225728   0.630   1.789   5.122
 8277SOL     OW25729   1.165   6.103   5.707
 8277SOL    HW125730   1.115   6.166   5.766
 8277SOL    HW225731   1.262   6.105   5.730
 8278SOL     OW25732   3.266   1.545   6.685
 8278SOL    HW125733   3.303   1.605   6.756
 8278SOL    HW225734   3.166   1.549   6.688
 8279SOL     OW25735   0.654   6.734   4.850
 8279SOL    HW125736   0.734   6.783   4.885
 8279SOL    HW225737   0.683   6.667   4.783
 8280SOL     OW25738   2.790   2.923   0.677
 8280SOL    HW125739   2.860   2.858   0.705
 8280SOL    HW225740   2.707   2.910   0.731
 8281SOL     OW25741   2.248   4.719   1.638
 8281SOL    HW125742   2.287   4.796   1.589
 8281SOL    HW225743   2.241   4.640   1.577
 8282SOL     OW25744   4.425   3.775   6.737
 8282SOL    HW125745   4.501   3.722   6.702
 8282SOL    HW225746   4.457   3.839   6.806
 8283SOL     OW25747   1.723   5.020   5.025
 8283SOL    HW125748   1.786   5.018   5.103
 8283SOL    HW225749   1.629   5.031   5.058
 8284SOL     OW25750   0.946   3.784   1.401
 8284SOL    HW125751   0.924   3.687   1.396
 8284SOL    HW225752   1.018   3.798   1.469
 8285SOL     OW25753   3.530   4.062   4.416
 8285SOL    HW125754   3.505   4.099   4.327
 8285SOL    HW225755   3.519   3.962   4.415
 8286SOL     OW25756   5.129   1.705   4.910
 8286SOL    HW125757   5.054   1.755   4.866
 8286SOL    HW225758   5.137   1.735   5.005
 8287SOL     OW25759   1.076   4.913   4.597
 8287SOL    HW125760   0.988   4.961   4.602
 8287SOL    HW225761   1.073   4.845   4.524
 8288SOL     OW25762   2.733   2.230   2.282
 8288SOL    HW125763   2.788   2.151   2.309
 8288SOL    HW225764   2.776   2.277   2.205
 8289SOL     OW25765   0.588   6.584   6.155
 8289SOL    HW125766   0.509   6.606   6.212
 8289SOL    HW225767   0.560   6.524   6.081
 8290SOL     OW25768   5.452   1.732   1.045
 8290SOL    HW125769   5.425   1.791   1.120
 8290SOL    HW225770   5.540   1.688   1.067
 8291SOL     OW25771   5.196   4.885   5.531
 8291SOL    HW125772   5.227   4.854   5.621
 8291SOL    HW225773   5.237   4.828   5.460
 8292SOL     OW25774   3.124   6.222   6.612
 8292SOL    HW125775   3.141   6.320   6.602
 8292SOL    HW225776   3.169   6.173   6.537
 8293SOL     OW25777   2.011   5.686   0.943
 8293SOL    HW125778   1.952   5.634   1.005
 8293SOL    HW225779   1.960   5.765   0.907
 8294SOL     OW25780   5.482   3.859   5.005
 8294SOL    HW125781   5.493   3.881   4.908
 8294SOL    HW225782   5.412   3.919   5.045
 8295SOL     OW25783   5.018   3.955   2.516
 8295SOL    HW125784   5.101   4.005   2.544
 8295SOL    HW225785   4.973   3.917   2.597
 8296SOL     OW25786   2.384   5.006   0.212
 8296SOL    HW125787   2.305   4.994   0.152
 8296SOL    HW225788   2.458   5.050   0.161
 8297SOL     OW25789   0.375   2.983   3.052
 8297SOL    HW125790   0.388   2.920   3.129
 8297SOL    HW225791   0.278   2.991   3.032
 8298SOL     OW25792   6.618   1.566   0.834
 8298SOL    HW125793   6.703   1.610   0.805
 8298SOL    HW225794   6.589   1.604   0.922
 8299SOL     OW25795   0.544   2.590   2.932
 8299SOL    HW125796   0.525   2.641   3.016
 8299SOL    HW225797   0.565   2.653   2.858
 8300SOL     OW25798   0.192   6.058   3.845
 8300SOL    HW125799   0.151   5.967   3.839
 8300SOL    HW225800   0.207   6.082   3.941
 8301SOL     OW25801   4.191   0.781   0.383
 8301SOL    HW125802   4.124   0.732   0.438
 8301SOL    HW225803   4.262   0.717   0.353
 8302SOL     OW25804   5.432   6.663   6.114
 8302SOL    HW125805   5.447   6.666   6.213
 8302SOL    HW225806   5.333   6.662   6.096
 8303SOL     OW25807   5.874   0.283   3.788
 8303SOL    HW125808   5.958   0.318   3.746
 8303SOL    HW225809   5.830   0.355   3.841
 8304SOL     OW25810   5.862   3.518   1.620
 8304SOL    HW125811   5.801   3.443   1.648
 8304SOL    HW225812   5.809   3.603   1.613
 8305SOL     OW25813   4.805   4.317   3.964
 8305SOL    HW125814   4.893   4.333   3.921
 8305SOL    HW225815   4.814   4.327   4.063
 8306SOL     OW25816   6.122   1.599   3.805
 8306SOL    HW125817   6.214   1.571   3.778
 8306SOL    HW225818   6.079   1.523   3.855
 8307SOL     OW25819   3.714   5.499   1.744
 8307SOL    HW125820   3.632   5.470   1.694
 8307SOL    HW225821   3.724   5.598   1.737
 8308SOL     OW25822   2.457   5.685   0.426
 8308SOL    HW125823   2.435   5.604   0.481
 8308SOL    HW225824   2.514   5.658   0.348
 8309SOL     OW25825   6.525   6.053   2.892
 8309SOL    HW125826   6.611   6.011   2.921
 8309SOL    HW225827   6.453   6.032   2.959
 8310SOL     OW25828   0.897   5.609   1.373
 8310SOL    HW125829   0.878   5.678   1.443
 8310SOL    HW225830   0.871   5.643   1.283
 8311SOL     OW25831   6.382   2.076   5.528
 8311SOL    HW125832   6.301   2.120   5.568
 8311SOL    HW225833   6.463   2.129   5.552
 8312SOL     OW25834   4.568   0.616   0.091
 8312SOL    HW125835   4.499   0.548   0.115
 8312SOL    HW225836   4.600   0.600   7.017
 8313SOL     OW25837   5.766   0.144   6.730
 8313SOL    HW125838   5.782   0.180   6.638
 8313SOL    HW225839   5.751   0.220   6.793
 8314SOL     OW25840   6.060   6.622   6.970
 8314SOL    HW125841   6.004   6.670   0.019
 8314SOL    HW225842   6.015   6.537   6.942
 8315SOL     OW25843   3.827   3.054   2.022
 8315SOL    HW125844   3.785   3.144   2.024
 8315SOL    HW225845   3.824   3.014   2.114
 8316SOL     OW25846   1.018   3.094   2.257
 8316SOL    HW125847   1.026   3.193   2.268
 8316SOL    HW225848   0.995   3.052   2.344
 8317SOL     OW25849   1.413   2.583   3.016
 8317SOL    HW125850   1.387   2.584   2.920
 8317SOL    HW225851   1.435   2.676   3.046
 8318SOL     OW25852   4.010   2.264   5.667
 8318SOL    HW125853   3.946   2.318   5.612
 8318SOL    HW225854   3.985   2.271   5.763
 8319SOL     OW25855   0.845   1.300   1.195
 8319SOL    HW125856   0.817   1.390   1.159
 8319SOL    HW225857   0.926   1.311   1.251
 8320SOL     OW25858   3.125   3.859   2.490
 8320SOL    HW125859   3.058   3.875   2.563
 8320SOL    HW225860   3.211   3.829   2.529
 8321SOL     OW25861   6.098   6.986   6.637
 8321SOL    HW125862   6.067   6.894   6.658
 8321SOL    HW225863   6.157   0.000   6.710
 8322SOL     OW25864   6.672   0.298   0.596
 8322SOL    HW125865   6.629   0.242   0.666
 8322SOL    HW225866   6.712   0.238   0.526
 8323SOL     OW25867   4.581   4.742   1.816
 8323SOL    HW125868   4.597   4.644   1.803
 8323SOL    HW225869   4.527   4.777   1.740
 8324SOL     OW25870   6.012   6.898   1.668
 8324SOL    HW125871   6.007   6.913   1.569
 8324SOL    HW225872   5.992   6.983   1.716
 8325SOL     OW25873   1.609   3.380   5.159
 8325SOL    HW125874   1.654   3.335   5.082
 8325SOL    HW225875   1.635   3.476   5.162
 8326SOL     OW25876   4.541   4.098   5.643
 8326SOL    HW125877   4.465   4.133   5.589
 8326SOL    HW225878   4.569   4.167   5.710
 8327SOL     OW25879   0.238   0.197   5.590
 8327SOL    HW125880   0.336   0.180   5.586
 8327SOL    HW225881   0.191   0.112   5.615
 8328SOL     OW25882   2.701   6.130   6.535
 8328SOL    HW125883   2.695   6.095   6.441
 8328SOL    HW225884   2.635   6.082   6.593
 8329SOL     OW25885   1.333   3.104   5.696
 8329SOL    HW125886   1.394   3.169   5.652
 8329SOL    HW225887   1.321   3.024   5.637
 8330SOL     OW25888   2.831   0.705   6.299
 8330SOL    HW125889   2.930   0.687   6.299
 8330SOL    HW225890   2.799   0.716   6.205
 8331SOL     OW25891   3.049   0.460   1.181
 8331SOL    HW125892   2.977   0.394   1.162
 8331SOL    HW225893   3.138   0.415   1.179
 8332SOL     OW25894   5.777   5.614   2.390
 8332SOL    HW125895   5.792   5.603   2.292
 8332SOL    HW225896   5.680   5.607   2.411
 8333SOL     OW25897   0.382   5.210   6.457
 8333SOL    HW125898   0.336   5.127   6.486
 8333SOL    HW225899   0.324   5.260   6.392
 8334SOL     OW25900   3.887   1.842   4.353
 8334SOL    HW125901   3.828   1.922   4.355
 8334SOL    HW225902   3.873   1.789   4.436
 8335SOL     OW25903   5.097   0.851   0.133
 8335SOL    HW125904   5.189   0.865   0.170
 8335SOL    HW225905   5.029   0.881   0.201
 8336SOL     OW25906   0.551   4.731   2.952
 8336SOL    HW125907   0.533   4.809   3.011
 8336SOL    HW225908   0.599   4.660   3.004
 8337SOL     OW25909   1.113   6.352   3.392
 8337SOL    HW125910   1.117   6.284   3.319
 8337SOL    HW225911   1.021   6.391   3.398
 8338SOL     OW25912   3.885   5.073   1.771
 8338SOL    HW125913   3.816   5.141   1.747
 8338SOL    HW225914   3.975   5.117   1.773
 8339SOL     OW25915   6.459   0.368   1.748
 8339SOL    HW125916   6.422   0.459   1.767
 8339SOL    HW225917   6.389   0.311   1.707
 8340SOL     OW25918   5.076   3.721   1.293
 8340SOL    HW125919   5.024   3.658   1.352
 8340SOL    HW225920   5.114   3.795   1.349
 8341SOL     OW25921   2.481   6.795   6.609
 8341SOL    HW125922   2.475   6.761   6.702
 8341SOL    HW225923   2.573   6.830   6.591
 8342SOL     OW25924   4.873   6.978   0.114
 8342SOL    HW125925   4.847   6.900   0.057
 8342SOL    HW225926   4.950   0.007   0.072
 8343SOL     OW25927   0.458   5.486   3.818
 8343SOL    HW125928   0.429   5.561   3.877
 8343SOL    HW225929   0.428   5.399   3.857
 8344SOL     OW25930   6.206   5.911   4.365
 8344SOL    HW125931   6.225   5.847   4.439
 8344SOL    HW225932   6.166   5.862   4.287
 8345SOL     OW25933   3.828   2.147   2.596
 8345SOL    HW125934   3.808   2.129   2.499
 8345SOL    HW225935   3.924   2.171   2.606
 8346SOL     OW25936   3.690   4.999   0.435
 8346SOL    HW125937   3.602   5.048   0.436
 8346SOL    HW225938   3.675   4.903   0.411
 8347SOL     OW25939   3.309   6.744   4.424
 8347SOL    HW125940   3.273   6.735   4.331
 8347SOL    HW225941   3.235   6.737   4.490
 8348SOL     OW25942   2.136   1.356   1.114
 8348SOL    HW125943   2.205   1.352   1.042
 8348SOL    HW225944   2.070   1.282   1.102
 8349SOL     OW25945   0.227   0.199   2.249
 8349SOL    HW125946   0.308   0.199   2.190
 8349SOL    HW225947   0.147   0.228   2.196
 8350SOL     OW25948   3.360   6.309   5.892
 8350SOL    HW125949   3.299   6.261   5.828
 8350SOL    HW225950   3.313   6.320   5.980
 8351SOL     OW25951   5.274   5.383   4.552
 8351SOL    HW125952   5.260   5.482   4.565
 8351SOL    HW225953   5.187   5.336   4.563
 8352SOL     OW25954   0.008   0.073   3.488
 8352SOL    HW125955   7.006   0.055   3.392
 8352SOL    HW225956   0.095   0.123   3.494
 8353SOL     OW25957   0.254   4.033   1.485
 8353SOL    HW125958   0.279   4.098   1.413
 8353SOL    HW225959   0.159   4.046   1.511
 8354SOL     OW25960   3.637   0.143   4.632
 8354SOL    HW125961   3.559   0.130   4.694
 8354SOL    HW225962   3.704   0.070   4.647
 8355SOL     OW25963   2.941   1.176   5.831
 8355SOL    HW125964   3.025   1.166   5.885
 8355SOL    HW225965   2.862   1.170   5.890
 8356SOL     OW25966   0.543   0.067   1.729
 8356SOL    HW125967   0.593   0.050   1.645
 8356SOL    HW225968   0.468   0.130   1.712
 8357SOL     OW25969   3.443   0.096   5.396
 8357SOL    HW125970   3.409   0.042   5.473
 8357SOL    HW225971   3.366   0.122   5.337
 8358SOL     OW25972   1.743   4.216   4.934
 8358SOL    HW125973   1.684   4.200   4.855
 8358SOL    HW225974   1.824   4.268   4.906
 8359SOL     OW25975   3.314   0.705   4.891
 8359SOL    HW125976   3.358   0.627   4.845
 8359SOL    HW225977   3.369   0.787   4.877
 8360SOL     OW25978   3.595   6.760   0.428
 8360SOL    HW125979   3.686   6.720   0.414
 8360SOL    HW225980   3.603   6.859   0.430
 8361SOL     OW25981   3.385   0.265   1.679
 8361SOL    HW125982   3.430   0.319   1.608
 8361SOL    HW225983   3.290   0.294   1.687
 8362SOL     OW25984   4.479   1.245   0.886
 8362SOL    HW125985   4.460   1.338   0.917
 8362SOL    HW225986   4.556   1.207   0.937
 8363SOL     OW25987   5.242   3.165   0.056
 8363SOL    HW125988   5.195   3.117   7.001
 8363SOL    HW225989   5.339   3.138   0.057
 8364SOL     OW25990   1.022   2.322   3.815
 8364SOL    HW125991   1.005   2.227   3.787
 8364SOL    HW225992   1.067   2.324   3.904
 8365SOL     OW25993   1.649   3.342   2.496
 8365SOL    HW125994   1.575   3.298   2.547
 8365SOL    HW225995   1.634   3.330   2.398
 8366SOL     OW25996   2.069   5.511   1.311
 8366SOL    HW125997   2.097   5.452   1.235
 8366SOL    HW225998   1.992   5.470   1.359
 8367SOL     OW25999   4.192   5.709   5.034
 8367SOL    HW126000   4.210   5.679   5.128
 8367SOL    HW226001   4.101   5.677   5.006
 8368SOL     OW26002   1.035   0.117   6.562
 8368SOL    HW126003   0.973   0.194   6.577
 8368SOL    HW226004   1.022   0.081   6.470
 8369SOL     OW26005   0.708   0.277   6.080
 8369SOL    HW126006   0.792   0.331   6.075
 8369SOL    HW226007   0.664   0.275   5.991
 8370SOL     OW26008   2.741   1.421   5.892
 8370SOL    HW126009   2.704   1.514   5.885
 8370SOL    HW226010   2.807   1.406   5.819
 8371SOL     OW26011   2.113   4.455   0.716
 8371SOL    HW126012   2.035   4.405   0.677
 8371SOL    HW226013   2.191   4.393   0.723
 8372SOL     OW26014   1.689   5.473   1.748
 8372SOL    HW126015   1.688   5.474   1.848
 8372SOL    HW226016   1.673   5.379   1.716
 8373SOL     OW26017   1.921   0.036   4.008
 8373SOL    HW126018   1.994   0.102   3.990
 8373SOL    HW226019   1.932   6.976   3.947
 8374SOL     OW26020   0.314   0.550   5.101
 8374SOL    HW126021   0.397   0.537   5.047
 8374SOL    HW226022   0.234   0.538   5.042
 8375SOL     OW26023   3.859   6.361   4.959
 8375SOL    HW126024   3.929   6.398   5.020
 8375SOL    HW226025   3.888   6.271   4.925
 8376SOL     OW26026   0.463   1.369   4.340
 8376SOL    HW126027   0.387   1.307   4.356
 8376SOL    HW226028   0.435   1.463   4.361
 8377SOL     OW26029   5.155   6.205   0.940
 8377SOL    HW126030   5.251   6.191   0.964
 8377SOL    HW226031   5.137   6.303   0.931
 8378SOL     OW26032   4.237   4.979   2.782
 8378SOL    HW126033   4.184   4.931   2.713
 8378SOL    HW226034   4.188   5.063   2.809
 8379SOL     OW26035   5.479   3.113   1.164
 8379SOL    HW126036   5.444   3.199   1.127
 8379SOL    HW226037   5.453   3.104   1.260
 8380SOL     OW26038   0.984   0.633   2.285
 8380SOL    HW126039   1.035   0.577   2.350
 8380SOL    HW226040   1.034   0.718   2.267
 8381SOL     OW26041   0.327   2.169   4.242
 8381SOL    HW126042   0.391   2.219   4.183
 8381SOL    HW226043   0.262   2.233   4.283
 8382SOL     OW26044   2.344   6.956   2.696
 8382SOL    HW126045   2.405   0.015   2.705
 8382SOL    HW226046   2.261   6.972   2.749
 8383SOL     OW26047   2.944   0.012   5.583
 8383SOL    HW126048   3.043   0.002   5.594
 8383SOL    HW226049   2.922   0.106   5.558
 8384SOL     OW26050   6.436   1.314   1.532
 8384SOL    HW126051   6.508   1.370   1.573
 8384SOL    HW226052   6.351   1.326   1.584
 8385SOL     OW26053   5.159   2.590   0.419
 8385SOL    HW126054   5.182   2.582   0.516
 8385SOL    HW226055   5.221   2.656   0.376
 8386SOL     OW26056   1.544   6.097   1.627
 8386SOL    HW126057   1.536   6.022   1.693
 8386SOL    HW226058   1.592   6.066   1.545
 8387SOL     OW26059   1.281   1.369   1.469
 8387SOL    HW126060   1.262   1.464   1.494
 8387SOL    HW226061   1.315   1.320   1.549
 8388SOL     OW26062   2.218   0.195   0.532
 8388SOL    HW126063   2.223   0.248   0.447
 8388SOL    HW226064   2.264   0.245   0.605
 8389SOL     OW26065   0.143   3.620   3.567
 8389SOL    HW126066   0.221   3.568   3.533
 8389SOL    HW226067   0.059   3.580   3.530
 8390SOL     OW26068   4.432   0.014   0.459
 8390SOL    HW126069   4.388   6.947   0.485
 8390SOL    HW226070   4.512   7.015   0.402
 8391SOL     OW26071   6.099   5.115   0.941
 8391SOL    HW126072   6.042   5.047   0.894
 8391SOL    HW226073   6.138   5.074   1.024
 8392SOL     OW26074   6.910   4.732   5.239
 8392SOL    HW126075   6.858   4.662   5.287
 8392SOL    HW226076   6.908   4.817   5.292
 8393SOL     OW26077   0.213   0.031   2.588
 8393SOL    HW126078   0.182   7.012   2.675
 8393SOL    HW226079   0.259   6.978   2.534
 8394SOL     OW26080   6.953   2.501   2.009
 8394SOL    HW126081   6.883   2.431   1.995
 8394SOL    HW226082   6.971   2.548   1.923
 8395SOL     OW26083   2.439   6.643   4.594
 8395SOL    HW126084   2.526   6.595   4.601
 8395SOL    HW226085   2.435   6.715   4.664
 8396SOL     OW26086   4.204   5.293   2.914
 8396SOL    HW126087   4.131   5.239   2.957
 8396SOL    HW226088   4.288   5.283   2.966
 8397SOL     OW26089   2.489   0.213   2.567
 8397SOL    HW126090   2.567   0.270   2.540
 8397SOL    HW226091   2.491   0.198   2.666
 8398SOL     OW26092   4.317   2.393   6.732
 8398SOL    HW126093   4.413   2.391   6.759
 8398SOL    HW226094   4.270   2.465   6.782
 8399SOL     OW26095   6.141   5.900   6.800
 8399SOL    HW126096   6.210   5.912   6.729
 8399SOL    HW226097   6.106   5.990   6.828
 8400SOL     OW26098   1.512   1.586   4.569
 8400SOL    HW126099   1.537   1.635   4.486
 8400SOL    HW226100   1.532   1.488   4.558
 8401SOL     OW26101   2.975   1.158   6.360
 8401SOL    HW126102   3.013   1.090   6.298
 8401SOL    HW226103   3.045   1.226   6.382
 8402SOL     OW26104   3.489   2.015   5.518
 8402SOL    HW126105   3.518   1.922   5.540
 8402SOL    HW226106   3.390   2.016   5.501
 8403SOL     OW26107   1.475   2.113   4.277
 8403SOL    HW126108   1.478   2.048   4.353
 8403SOL    HW226109   1.567   2.132   4.246
 8404SOL     OW26110   4.469   6.679   5.765
 8404SOL    HW126111   4.476   6.719   5.856
 8404SOL    HW226112   4.480   6.750   5.695
 8405SOL     OW26113   2.479   0.377   5.384
 8405SOL    HW126114   2.416   0.446   5.348
 8405SOL    HW226115   2.458   0.288   5.342
 8406SOL     OW26116   6.029   0.188   0.670
 8406SOL    HW126117   5.989   0.099   0.689
 8406SOL    HW226118   6.107   0.204   0.731
 8407SOL     OW26119   3.404   6.167   4.137
 8407SOL    HW126120   3.399   6.201   4.231
 8407SOL    HW226121   3.312   6.144   4.105
 8408SOL     OW26122   6.108   3.552   2.596
 8408SOL    HW126123   6.011   3.536   2.573
 8408SOL    HW226124   6.136   3.641   2.561
 8409SOL     OW26125   5.521   2.768   3.858
 8409SOL    HW126126   5.510   2.820   3.773
 8409SOL    HW226127   5.474   2.680   3.849
 8410SOL     OW26128   5.205   0.812   2.121
 8410SOL    HW126129   5.211   0.878   2.196
 8410SOL    HW226130   5.175   0.859   2.038
 8411SOL     OW26131   0.396   4.842   0.151
 8411SOL    HW126132   0.310   4.872   0.192
 8411SOL    HW226133   0.405   4.882   0.060
 8412SOL     OW26134   3.088   1.581   1.168
 8412SOL    HW126135   3.100   1.664   1.223
 8412SOL    HW226136   2.991   1.570   1.146
 8413SOL     OW26137   4.111   5.423   0.085
 8413SOL    HW126138   4.178   5.364   0.041
 8413SOL    HW226139   4.096   5.394   0.179
 8414SOL     OW26140   3.562   4.922   3.516
 8414SOL    HW126141   3.648   4.871   3.512
 8414SOL    HW226142   3.533   4.932   3.611
 8415SOL     OW26143   6.893   6.074   4.092
 8415SOL    HW126144   6.953   6.000   4.124
 8415SOL    HW226145   6.822   6.090   4.161
 8416SOL     OW26146   5.374   3.992   2.677
 8416SOL    HW126147   5.324   3.908   2.696
 8416SOL    HW226148   5.323   4.047   2.610
 8417SOL     OW26149   1.593   4.104   5.829
 8417SOL    HW126150   1.511   4.073   5.781
 8417SOL    HW226151   1.656   4.146   5.764
 8418SOL     OW26152   5.525   4.448   1.058
 8418SOL    HW126153   5.523   4.349   1.051
 8418SOL    HW226154   5.619   4.481   1.049
 8419SOL     OW26155   5.542   6.978   2.381
 8419SOL    HW126156   5.571   0.054   2.373
 8419SOL    HW226157   5.537   6.952   2.477
 8420SOL     OW26158   4.733   6.715   0.427
 8420SOL    HW126159   4.724   6.746   0.522
 8420SOL    HW226160   4.682   6.777   0.367
 8421SOL     OW26161   1.582   5.614   6.561
 8421SOL    HW126162   1.668   5.665   6.561
 8421SOL    HW226163   1.592   5.532   6.505
 8422SOL     OW26164   3.762   1.163   0.994
 8422SOL    HW126165   3.857   1.183   1.018
 8422SOL    HW226166   3.706   1.163   1.077
 8423SOL     OW26167   3.512   4.593   6.074
 8423SOL    HW126168   3.608   4.565   6.076
 8423SOL    HW226169   3.496   4.665   6.140
 8424SOL     OW26170   2.103   2.402   2.560
 8424SOL    HW126171   2.010   2.367   2.570
 8424SOL    HW226172   2.121   2.471   2.631
 8425SOL     OW26173   4.763   5.300   6.765
 8425SOL    HW126174   4.833   5.274   6.699
 8425SOL    HW226175   4.804   5.310   6.856
 8426SOL     OW26176   3.477   3.373   3.496
 8426SOL    HW126177   3.507   3.278   3.490
 8426SOL    HW226178   3.419   3.385   3.576
 8427SOL     OW26179   3.678   3.740   4.489
 8427SOL    HW126180   3.761   3.789   4.463
 8427SOL    HW226181   3.660   3.754   4.587
 8428SOL     OW26182   0.381   5.142   1.417
 8428SOL    HW126183   0.376   5.054   1.370
 8428SOL    HW226184   0.467   5.148   1.467
 8429SOL     OW26185   1.681   5.897   4.273
 8429SOL    HW126186   1.698   5.993   4.253
 8429SOL    HW226187   1.721   5.840   4.200
 8430SOL     OW26188   3.350   5.163   3.614
 8430SOL    HW126189   3.444   5.197   3.608
 8430SOL    HW226190   3.286   5.235   3.584
 8431SOL     OW26191   3.448   4.581   0.427
 8431SOL    HW126192   3.422   4.589   0.523
 8431SOL    HW226193   3.386   4.519   0.380
 8432SOL     OW26194   5.313   6.991   6.088
 8432SOL    HW126195   5.344   0.063   6.116
 8432SOL    HW226196   5.260   6.998   6.003
 8433SOL     OW26197   5.056   2.633   0.845
 8433SOL    HW126198   5.059   2.676   0.936
 8433SOL    HW226199   5.147   2.631   0.805
 8434SOL     OW26200   2.683   6.550   4.700
 8434SOL    HW126201   2.670   6.454   4.722
 8434SOL    HW226202   2.703   6.601   4.783
 8435SOL     OW26203   6.030   1.280   1.403
 8435SOL    HW126204   5.942   1.278   1.449
 8435SOL    HW226205   6.044   1.194   1.354
 8436SOL     OW26206   3.765   6.802   3.296
 8436SOL    HW126207   3.811   6.835   3.213
 8436SOL    HW226208   3.681   6.754   3.270
 8437SOL     OW26209   1.921   0.470   3.964
 8437SOL    HW126210   1.959   0.397   3.908
 8437SOL    HW226211   1.821   0.470   3.956
 8438SOL     OW26212   2.426   4.432   2.508
 8438SOL    HW126213   2.429   4.411   2.605
 8438SOL    HW226214   2.412   4.347   2.456
 8439SOL     OW26215   6.641   5.058   2.411
 8439SOL    HW126216   6.708   5.007   2.357
 8439SOL    HW226217   6.557   5.067   2.358
 8440SOL     OW26218   1.198   2.661   3.547
 8440SOL    HW126219   1.291   2.640   3.518
 8440SOL    HW226220   1.140   2.580   3.534
 8441SOL     OW26221   6.169   6.545   0.197
 8441SOL    HW126222   6.254   6.492   0.201
 8441SOL    HW226223   6.171   6.603   0.116
 8442SOL     OW26224   3.029   1.348   5.040
 8442SOL    HW126225   3.126   1.354   5.065
 8442SOL    HW226226   3.020   1.314   4.947
 8443SOL     OW26227   2.153   5.151   3.779
 8443SOL    HW126228   2.206   5.128   3.697
 8443SOL    HW226229   2.202   5.118   3.860
 8444SOL     OW26230   2.815   5.874   3.488
 8444SOL    HW126231   2.748   5.866   3.414
 8444SOL    HW226232   2.772   5.850   3.575
 8445SOL     OW26233   3.884   6.740   0.476
 8445SOL    HW126234   3.850   6.754   0.569
 8445SOL    HW226235   3.909   6.828   0.435
 8446SOL     OW26236   4.665   4.608   6.688
 8446SOL    HW126237   4.607   4.554   6.748
 8446SOL    HW226238   4.609   4.651   6.617
 8447SOL     OW26239   4.619   2.125   1.789
 8447SOL    HW126240   4.641   2.198   1.724
 8447SOL    HW226241   4.666   2.041   1.763
 8448SOL     OW26242   4.600   6.061   3.954
 8448SOL    HW126243   4.586   5.999   3.877
 8448SOL    HW226244   4.671   6.128   3.932
 8449SOL     OW26245   6.694   2.696   3.783
 8449SOL    HW126246   6.772   2.743   3.823
 8449SOL    HW226247   6.721   2.650   3.698
 8450SOL     OW26248   0.496   6.612   1.488
 8450SOL    HW126249   0.585   6.648   1.460
 8450SOL    HW226250   0.506   6.515   1.513
 8451SOL     OW26251   3.810   1.990   7.000
 8451SOL    HW126252   3.873   2.069   7.004
 8451SOL    HW226253   3.720   2.018   0.015
 8452SOL     OW26254   5.818   1.485   3.028
 8452SOL    HW126255   5.776   1.552   3.088
 8452SOL    HW226256   5.807   1.393   3.067
 8453SOL     OW26257   0.129   4.247   6.464
 8453SOL    HW126258   0.158   4.338   6.493
 8453SOL    HW226259   0.038   4.228   6.499
 8454SOL     OW26260   6.945   6.975   1.504
 8454SOL    HW126261   0.013   0.002   1.518
 8454SOL    HW226262   6.915   6.934   1.591
 8455SOL     OW26263   6.520   3.127   1.751
 8455SOL    HW126264   6.582   3.203   1.735
 8455SOL    HW226265   6.554   3.046   1.703
 8456SOL     OW26266   4.516   6.283   2.865
 8456SOL    HW126267   4.604   6.235   2.866
 8456SOL    HW226268   4.464   6.257   2.947
 8457SOL     OW26269   6.612   6.600   4.754
 8457SOL    HW126270   6.646   6.564   4.667
 8457SOL    HW226271   6.622   6.530   4.825
 8458SOL     OW26272   3.150   1.326   6.523
 8458SOL    HW126273   3.226   1.270   6.489
 8458SOL    HW226274   3.183   1.419   6.540
 8459SOL     OW26275   2.734   5.747   2.199
 8459SOL    HW126276   2.793   5.799   2.261
 8459SOL    HW226277   2.688   5.809   2.136
 8460SOL     OW26278   4.237   3.660   5.440
 8460SOL    HW126279   4.277   3.644   5.530
 8460SOL    HW226280   4.241   3.757   5.418
 8461SOL     OW26281   0.397   4.277   3.875
 8461SOL    HW126282   0.413   4.193   3.927
 8461SOL    HW226283   0.334   4.259   3.800
 8462SOL     OW26284   3.149   2.652   6.476
 8462SOL    HW126285   3.073   2.598   6.511
 8462SOL    HW226286   3.174   2.619   6.385
 8463SOL     OW26287   6.360   6.993   1.169
 8463SOL    HW126288   6.359   0.073   1.160
 8463SOL    HW226289   6.274   6.955   1.133
 8464SOL     OW26290   5.564   3.563   4.826
 8464SOL    HW126291   5.632   3.512   4.774
 8464SOL    HW226292   5.591   3.660   4.831
 8465SOL     OW26293   0.977   2.454   1.198
 8465SOL    HW126294   0.994   2.537   1.145
 8465SOL    HW226295   0.884   2.457   1.235
 8466SOL     OW26296   0.684   0.058   4.382
 8466SOL    HW126297   0.650   7.005   4.321
 8466SOL    HW226298   0.726   0.017   4.463
 8467SOL     OW26299   4.207   6.816   0.802
 8467SOL    HW126300   4.149   6.885   0.759
 8467SOL    HW226301   4.150   6.747   0.845
 8468SOL     OW26302   3.673   2.186   6.561
 8468SOL    HW126303   3.720   2.225   6.641
 8468SOL    HW226304   3.604   2.250   6.529
 8469SOL     OW26305   3.190   1.467   6.173
 8469SOL    HW126306   3.091   1.457   6.187
 8469SOL    HW226307   3.206   1.532   6.099
 8470SOL     OW26308   1.946   3.918   0.026
 8470SOL    HW126309   2.021   3.969   7.003
 8470SOL    HW226310   1.928   3.954   0.117
 8471SOL     OW26311   3.670   0.982   3.201
 8471SOL    HW126312   3.734   0.913   3.236
 8471SOL    HW226313   3.706   1.021   3.116
 8472SOL     OW26314   6.918   0.907   5.259
 8472SOL    HW126315   6.980   0.831   5.282
 8472SOL    HW226316   6.927   0.928   5.162
 8473SOL     OW26317   6.804   6.058   6.737
 8473SOL    HW126318   6.756   6.019   6.816
 8473SOL    HW226319   6.878   5.996   6.710
 8474SOL     OW26320   3.398   3.091   1.592
 8474SOL    HW126321   3.484   3.138   1.573
 8474SOL    HW226322   3.401   2.999   1.551
 8475SOL     OW26323   6.941   2.417   3.930
 8475SOL    HW126324   6.924   2.373   4.019
 8475SOL    HW226325   6.965   2.513   3.945
 8476SOL     OW26326   6.639   2.455   1.137
 8476SOL    HW126327   6.605   2.474   1.045
 8476SOL    HW226328   6.589   2.512   1.203
 8477SOL     OW26329   5.079   6.943   0.800
 8477SOL    HW126330   5.113   6.975   0.888
 8477SOL    HW226331   5.144   6.968   0.728
 8478SOL     OW26332   1.593   6.973   6.049
 8478SOL    HW126333   1.651   6.950   5.971
 8478SOL    HW226334   1.568   6.890   6.098
 8479SOL     OW26335   0.766   2.717   1.215
 8479SOL    HW126336   0.688   2.720   1.277
 8479SOL    HW226337   0.736   2.690   1.124
 8480SOL     OW26338   4.488   1.962   6.984
 8480SOL    HW126339   4.537   2.048   6.987
 8480SOL    HW226340   4.433   1.957   6.900
 8481SOL     OW26341   4.054   2.051   4.159
 8481SOL    HW126342   4.149   2.077   4.146
 8481SOL    HW226343   4.049   1.971   4.219
 8482SOL     OW26344   4.556   5.951   1.608
 8482SOL    HW126345   4.482   5.914   1.552
 8482SOL    HW226346   4.519   5.986   1.694
 8483SOL     OW26347   4.811   6.459   2.456
 8483SOL    HW126348   4.789   6.362   2.467
 8483SOL    HW226349   4.760   6.496   2.378
 8484SOL     OW26350   0.343   6.141   3.614
 8484SOL    HW126351   0.353   6.057   3.562
 8484SOL    HW226352   0.310   6.120   3.706
 8485SOL     OW26353   3.934   2.595   6.837
 8485SOL    HW126354   3.889   2.563   6.754
 8485SOL    HW226355   3.873   2.583   6.915
 8486SOL     OW26356   3.579   1.043   2.662
 8486SOL    HW126357   3.584   1.125   2.604
 8486SOL    HW226358   3.515   1.059   2.736
 8487SOL     OW26359   6.100   1.692   6.207
 8487SOL    HW126360   6.020   1.667   6.262
 8487SOL    HW226361   6.131   1.613   6.155
 8488SOL     OW26362   5.467   6.017   0.261
 8488SOL    HW126363   5.466   5.988   0.166
 8488SOL    HW226364   5.379   5.997   0.304
 8489SOL     OW26365   6.346   1.924   1.049
 8489SOL    HW126366   6.296   1.958   1.129
 8489SOL    HW226367   6.289   1.932   0.967
 8490SOL     OW26368   4.701   6.453   3.902
 8490SOL    HW126369   4.735   6.507   3.825
 8490SOL    HW226370   4.738   6.360   3.896
 8491SOL     OW26371   2.513   6.197   0.829
 8491SOL    HW126372   2.423   6.159   0.805
 8491SOL    HW226373   2.578   6.178   0.756
 8492SOL     OW26374   4.981   4.128   5.881
 8492SOL    HW126375   4.993   4.101   5.786
 8492SOL    HW226376   4.889   4.105   5.911
 8493SOL     OW26377   2.761   2.748   6.759
 8493SOL    HW126378   2.801   2.829   6.718
 8493SOL    HW226379   2.666   2.739   6.731
 8494SOL     OW26380   3.260   5.323   1.402
 8494SOL    HW126381   3.207   5.288   1.325
 8494SOL    HW226382   3.354   5.289   1.395
 8495SOL     OW26383   6.303   5.291   2.593
 8495SOL    HW126384   6.402   5.303   2.603
 8495SOL    HW226385   6.279   5.284   2.496
 8496SOL     OW26386   0.963   2.615   2.150
 8496SOL    HW126387   0.889   2.650   2.092
 8496SOL    HW226388   0.997   2.529   2.112
 8497SOL     OW26389   6.301   0.902   3.874
 8497SOL    HW126390   6.229   0.930   3.937
 8497SOL    HW226391   6.274   0.818   3.827
 8498SOL     OW26392   6.901   6.400   2.836
 8498SOL    HW126393   6.857   6.337   2.900
 8498SOL    HW226394   6.923   6.351   2.751
 8499SOL     OW26395   2.138   4.844   6.748
 8499SOL    HW126396   2.042   4.843   6.719
 8499SOL    HW226397   2.146   4.894   6.834
 8500SOL     OW26398   1.683   6.113   5.232
 8500SOL    HW126399   1.585   6.104   5.248
 8500SOL    HW226400   1.702   6.092   5.136
 8501SOL     OW26401   0.751   2.159   6.864
 8501SOL    HW126402   0.694   2.119   6.935
 8501SOL    HW226403   0.835   2.105   6.853
 8502SOL     OW26404   1.256   4.001   0.829
 8502SOL    HW126405   1.238   4.054   0.912
 8502SOL    HW226406   1.281   3.907   0.853
 8503SOL     OW26407   1.503   6.672   3.814
 8503SOL    HW126408   1.414   6.680   3.769
 8503SOL    HW226409   1.572   6.721   3.760
 8504SOL     OW26410   2.457   4.979   2.543
 8504SOL    HW126411   2.478   5.002   2.448
 8504SOL    HW226412   2.404   5.053   2.585
 8505SOL     OW26413   4.908   3.723   3.899
 8505SOL    HW126414   4.858   3.735   3.984
 8505SOL    HW226415   4.973   3.648   3.908
 8506SOL     OW26416   0.036   0.697   6.457
 8506SOL    HW126417   0.090   0.781   6.449
 8506SOL    HW226418   6.958   0.720   6.462
 8507SOL     OW26419   3.558   1.288   5.174
 8507SOL    HW126420   3.600   1.297   5.264
 8507SOL    HW226421   3.537   1.192   5.156
 8508SOL     OW26422   5.942   1.569   5.114
 8508SOL    HW126423   5.877   1.598   5.043
 8508SOL    HW226424   6.025   1.625   5.108
 8509SOL     OW26425   4.445   1.493   4.026
 8509SOL    HW126426   4.458   1.508   3.928
 8509SOL    HW226427   4.393   1.408   4.040
 8510SOL     OW26428   5.758   4.123   3.434
 8510SOL    HW126429   5.815   4.041   3.437
 8510SOL    HW226430   5.750   4.162   3.526
 8511SOL     OW26431   6.283   3.520   2.144
 8511SOL    HW126432   6.186   3.543   2.150
 8511SOL    HW226433   6.296   3.445   2.079
 8512SOL     OW26434   3.306   2.066   1.738
 8512SOL    HW126435   3.229   2.002   1.734
 8512SOL    HW226436   3.271   2.158   1.754
 8513SOL     OW26437   5.673   4.372   1.335
 8513SOL    HW126438   5.711   4.299   1.278
 8513SOL    HW226439   5.740   4.445   1.344
 8514SOL     OW26440   2.584   2.489   3.835
 8514SOL    HW126441   2.549   2.545   3.910
 8514SOL    HW226442   2.554   2.526   3.748
 8515SOL     OW26443   5.728   1.438   0.750
 8515SOL    HW126444   5.650   1.395   0.704
 8515SOL    HW226445   5.752   1.523   0.703
 8516SOL     OW26446   6.067   2.656   1.742
 8516SOL    HW126447   6.132   2.720   1.700
 8516SOL    HW226448   6.081   2.656   1.841
 8517SOL     OW26449   1.700   2.863   6.736
 8517SOL    HW126450   1.607   2.855   6.773
 8517SOL    HW226451   1.700   2.837   6.640
 8518SOL     OW26452   4.516   4.039   6.891
 8518SOL    HW126453   4.610   4.072   6.898
 8518SOL    HW226454   4.475   4.072   6.806
 8519SOL     OW26455   1.339   4.289   1.805
 8519SOL    HW126456   1.375   4.200   1.774
 8519SOL    HW226457   1.239   4.287   1.803
 8520SOL     OW26458   3.925   2.426   0.184
 8520SOL    HW126459   3.841   2.452   0.138
 8520SOL    HW226460   3.955   2.500   0.244
 8521SOL     OW26461   1.910   4.972   6.319
 8521SOL    HW126462   1.995   5.018   6.292
 8521SOL    HW226463   1.844   5.039   6.352
 8522SOL     OW26464   1.372   6.770   1.144
 8522SOL    HW126465   1.334   6.794   1.054
 8522SOL    HW226466   1.391   6.672   1.148
 8523SOL     OW26467   2.220   6.478   6.623
 8523SOL    HW126468   2.141   6.447   6.569
 8523SOL    HW226469   2.300   6.425   6.597
 8524SOL     OW26470   0.429   2.308   4.926
 8524SOL    HW126471   0.336   2.342   4.940
 8524SOL    HW226472   0.449   2.306   4.828
 8525SOL     OW26473   6.348   3.955   3.250
 8525SOL    HW126474   6.441   3.976   3.282
 8525SOL    HW226475   6.354   3.915   3.158
 8526SOL     OW26476   4.043   5.687   0.138
 8526SOL    HW126477   4.054   5.595   0.099
 8526SOL    HW226478   3.965   5.687   0.200
 8527SOL     OW26479   2.687   0.483   6.351
 8527SOL    HW126480   2.736   0.453   6.433
 8527SOL    HW226481   2.716   0.576   6.328
 8528SOL     OW26482   3.790   2.253   6.041
 8528SOL    HW126483   3.883   2.259   6.006
 8528SOL    HW226484   3.732   2.321   5.994
 8529SOL     OW26485   0.718   0.605   1.461
 8529SOL    HW126486   0.680   0.665   1.391
 8529SOL    HW226487   0.695   0.510   1.441
 8530SOL     OW26488   3.030   3.872   4.681
 8530SOL    HW126489   3.109   3.857   4.741
 8530SOL    HW226490   3.054   3.941   4.612
 8531SOL     OW26491   6.588   5.273   2.576
 8531SOL    HW126492   6.596   5.178   2.545
 8531SOL    HW226493   6.598   5.334   2.498
 8532SOL     OW26494   3.723   5.281   4.541
 8532SOL    HW126495   3.648   5.344   4.517
 8532SOL    HW226496   3.789   5.329   4.600
 8533SOL     OW26497   1.784   0.306   5.956
 8533SOL    HW126498   1.804   0.367   6.032
 8533SOL    HW226499   1.807   0.352   5.870
 8534SOL     OW26500   6.311   3.192   4.098
 8534SOL    HW126501   6.231   3.236   4.056
 8534SOL    HW226502   6.304   3.093   4.088
 8535SOL     OW26503   6.564   1.448   4.663
 8535SOL    HW126504   6.484   1.507   4.672
 8535SOL    HW226505   6.598   1.424   4.754
 8536SOL     OW26506   6.160   2.274   4.919
 8536SOL    HW126507   6.169   2.248   4.823
 8536SOL    HW226508   6.216   2.214   4.975
 8537SOL     OW26509   5.431   1.723   1.848
 8537SOL    HW126510   5.435   1.779   1.931
 8537SOL    HW226511   5.445   1.627   1.871
 8538SOL     OW26512   0.871   1.097   6.231
 8538SOL    HW126513   0.821   1.047   6.160
 8538SOL    HW226514   0.968   1.099   6.208
 8539SOL     OW26515   5.772   1.075   1.730
 8539SOL    HW126516   5.728   0.986   1.740
 8539SOL    HW226517   5.820   1.099   1.815
 8540SOL     OW26518   4.621   0.812   0.264
 8540SOL    HW126519   4.540   0.869   0.278
 8540SOL    HW226520   4.599   0.741   0.197
 8541SOL     OW26521   2.922   1.929   4.646
 8541SOL    HW126522   2.829   1.958   4.671
 8541SOL    HW226523   2.977   1.916   4.728
 8542SOL     OW26524   3.350   4.697   6.758
 8542SOL    HW126525   3.315   4.626   6.819
 8542SOL    HW226526   3.400   4.765   6.811
 8543SOL     OW26527   3.075   0.755   0.512
 8543SOL    HW126528   3.137   0.785   0.439
 8543SOL    HW226529   3.067   0.656   0.510
 8544SOL     OW26530   5.506   3.116   4.785
 8544SOL    HW126531   5.494   3.032   4.733
 8544SOL    HW226532   5.433   3.124   4.853
 8545SOL     OW26533   4.645   6.470   4.647
 8545SOL    HW126534   4.565   6.511   4.691
 8545SOL    HW226535   4.702   6.543   4.608
 8546SOL     OW26536   0.489   0.503   3.161
 8546SOL    HW126537   0.573   0.449   3.168
 8546SOL    HW226538   0.420   0.449   3.114
 8547SOL     OW26539   1.670   6.483   6.443
 8547SOL    HW126540   1.571   6.468   6.443
 8547SOL    HW226541   1.716   6.403   6.404
 8548SOL     OW26542   6.439   3.337   5.608
 8548SOL    HW126543   6.461   3.404   5.537
 8548SOL    HW226544   6.344   3.348   5.637
 8549SOL     OW26545   1.353   3.008   4.388
 8549SOL    HW126546   1.255   2.993   4.375
 8549SOL    HW226547   1.398   2.921   4.405
 8550SOL     OW26548   1.834   4.784   6.676
 8550SOL    HW126549   1.740   4.815   6.687
 8550SOL    HW226550   1.846   4.744   6.585
 8551SOL     OW26551   2.739   3.372   6.474
 8551SOL    HW126552   2.742   3.333   6.566
 8551SOL    HW226553   2.650   3.414   6.458
 8552SOL     OW26554   3.062   0.445   3.491
 8552SOL    HW126555   3.078   0.509   3.566
 8552SOL    HW226556   2.969   0.408   3.498
 8553SOL     OW26557   3.941   3.798   6.534
 8553SOL    HW126558   4.037   3.768   6.539
 8553SOL    HW226559   3.937   3.890   6.495
 8554SOL     OW26560   0.847   4.690   0.878
 8554SOL    HW126561   0.925   4.728   0.927
 8554SOL    HW226562   0.765   4.697   0.935
 8555SOL     OW26563   2.682   1.358   3.570
 8555SOL    HW126564   2.775   1.351   3.533
 8555SOL    HW226565   2.628   1.419   3.512
 8556SOL     OW26566   1.170   5.930   5.140
 8556SOL    HW126567   1.232   6.008   5.144
 8556SOL    HW226568   1.097   5.942   5.209
 8557SOL     OW26569   6.329   6.995   2.974
 8557SOL    HW126570   6.256   7.006   3.041
 8557SOL    HW226571   6.398   0.047   2.988
 8558SOL     OW26572   2.009   4.472   3.163
 8558SOL    HW126573   2.084   4.529   3.131
 8558SOL    HW226574   1.928   4.529   3.180
 8559SOL     OW26575   1.646   0.667   2.260
 8559SOL    HW126576   1.597   0.672   2.173
 8559SOL    HW226577   1.586   0.700   2.333
 8560SOL     OW26578   6.470   6.430   1.787
 8560SOL    HW126579   6.416   6.346   1.780
 8560SOL    HW226580   6.551   6.423   1.729
 8561SOL     OW26581   3.502   0.382   2.282
 8561SOL    HW126582   3.543   0.467   2.315
 8561SOL    HW226583   3.522   0.371   2.185
 8562SOL     OW26584   4.113   6.080   5.917
 8562SOL    HW126585   4.031   6.085   5.860
 8562SOL    HW226586   4.090   6.038   6.005
 8563SOL     OW26587   1.866   4.515   0.397
 8563SOL    HW126588   1.847   4.611   0.419
 8563SOL    HW226589   1.850   4.459   0.477
 8564SOL     OW26590   3.150   0.938   4.880
 8564SOL    HW126591   3.137   0.933   4.979
 8564SOL    HW226592   3.189   0.852   4.847
 8565SOL     OW26593   3.835   5.192   1.146
 8565SOL    HW126594   3.777   5.238   1.214
 8565SOL    HW226595   3.908   5.254   1.118
 8566SOL     OW26596   1.280   0.157   1.580
 8566SOL    HW126597   1.311   0.225   1.515
 8566SOL    HW226598   1.239   0.080   1.531
 8567SOL     OW26599   0.679   2.523   3.478
 8567SOL    HW126600   0.600   2.561   3.527
 8567SOL    HW226601   0.703   2.435   3.518
 8568SOL     OW26602   5.495   1.301   6.921
 8568SOL    HW126603   5.488   1.329   7.016
 8568SOL    HW226604   5.411   1.255   6.894
 8569SOL     OW26605   4.568   1.135   6.138
 8569SOL    HW126606   4.522   1.112   6.224
 8569SOL    HW226607   4.659   1.095   6.138
 8570SOL     OW26608   1.833   1.784   4.819
 8570SOL    HW126609   1.741   1.757   4.848
 8570SOL    HW226610   1.828   1.829   4.730
 8571SOL     OW26611   1.428   5.756   4.733
 8571SOL    HW126612   1.413   5.724   4.826
 8571SOL    HW226613   1.488   5.692   4.685
 8572SOL     OW26614   3.644   4.800   6.530
 8572SOL    HW126615   3.584   4.878   6.548
 8572SOL    HW226616   3.644   4.739   6.609
 8573SOL     OW26617   3.344   6.245   6.883
 8573SOL    HW126618   3.289   6.162   6.887
 8573SOL    HW226619   3.399   6.253   6.966
 8574SOL     OW26620   0.201   6.255   6.040
 8574SOL    HW126621   0.146   6.202   5.975
 8574SOL    HW226622   0.298   6.245   6.018
 8575SOL     OW26623   2.397   2.712   4.466
 8575SOL    HW126624   2.314   2.702   4.411
 8575SOL    HW226625   2.374   2.756   4.553
 8576SOL     OW26626   1.291   5.136   6.211
 8576SOL    HW126627   1.306   5.039   6.231
 8576SOL    HW226628   1.357   5.167   6.143
 8577SOL     OW26629   0.784   6.424   4.822
 8577SOL    HW126630   0.692   6.389   4.802
 8577SOL    HW226631   0.829   6.449   4.737
 8578SOL     OW26632   5.578   6.578   3.976
 8578SOL    HW126633   5.537   6.647   4.035
 8578SOL    HW226634   5.664   6.546   4.016
 8579SOL     OW26635   2.257   0.116   1.956
 8579SOL    HW126636   2.246   0.210   1.924
 8579SOL    HW226637   2.241   0.112   2.055
 8580SOL     OW26638   2.437   5.945   1.661
 8580SOL    HW126639   2.362   5.948   1.595
 8580SOL    HW226640   2.447   6.036   1.703
 8581SOL     OW26641   3.538   3.720   1.529
 8581SOL    HW126642   3.607   3.792   1.516
 8581SOL    HW226643   3.476   3.747   1.603
 8582SOL     OW26644   4.520   4.504   3.925
 8582SOL    HW126645   4.521   4.594   3.969
 8582SOL    HW226646   4.515   4.432   3.995
 8583SOL     OW26647   5.488   0.896   4.260
 8583SOL    HW126648   5.588   0.898   4.261
 8583SOL    HW226649   5.458   0.828   4.193
 8584SOL     OW26650   0.722   5.094   5.542
 8584SOL    HW126651   0.705   5.146   5.626
 8584SOL    HW226652   0.635   5.062   5.505
 8585SOL     OW26653   0.733   6.219   5.846
 8585SOL    HW126654   0.669   6.211   5.770
 8585SOL    HW226655   0.777   6.130   5.861
 8586SOL     OW26656   3.169   6.428   2.238
 8586SOL    HW126657   3.174   6.526   2.254
 8586SOL    HW226658   3.237   6.401   2.169
 8587SOL     OW26659   1.100   6.902   3.743
 8587SOL    HW126660   1.046   6.855   3.813
 8587SOL    HW226661   1.047   6.911   3.659
 8588SOL     OW26662   2.502   1.306   0.441
 8588SOL    HW126663   2.435   1.298   0.515
 8588SOL    HW226664   2.546   1.396   0.446
 8589SOL     OW26665   4.665   2.911   5.611
 8589SOL    HW126666   4.685   2.994   5.664
 8589SOL    HW226667   4.717   2.835   5.649
 8590SOL     OW26668   6.886   5.898   3.700
 8590SOL    HW126669   6.873   5.809   3.657
 8590SOL    HW226670   6.928   5.885   3.790
 8591SOL     OW26671   0.394   3.773   6.905
 8591SOL    HW126672   0.319   3.788   6.969
 8591SOL    HW226673   0.470   3.728   6.952
 8592SOL     OW26674   6.831   2.859   6.368
 8592SOL    HW126675   6.818   2.760   6.377
 8592SOL    HW226676   6.744   2.903   6.350
 8593SOL     OW26677   2.077   1.303   0.777
 8593SOL    HW126678   2.083   1.383   0.716
 8593SOL    HW226679   2.168   1.282   0.813
 8594SOL     OW26680   4.238   2.334   5.539
 8594SOL    HW126681   4.155   2.301   5.583
 8594SOL    HW226682   4.284   2.399   5.599
 8595SOL     OW26683   0.375   2.389   3.161
 8595SOL    HW126684   0.428   2.475   3.163
 8595SOL    HW226685   0.430   2.318   3.117
 8596SOL     OW26686   0.987   5.388   3.284
 8596SOL    HW126687   1.047   5.314   3.315
 8596SOL    HW226688   1.022   5.476   3.317
 8597SOL     OW26689   4.400   1.780   1.023
 8597SOL    HW126690   4.341   1.819   1.094
 8597SOL    HW226691   4.394   1.836   0.940
 8598SOL     OW26692   6.004   0.456   0.579
 8598SOL    HW126693   6.090   0.489   0.540
 8598SOL    HW226694   6.013   0.358   0.599
 8599SOL     OW26695   1.121   2.669   5.061
 8599SOL    HW126696   1.182   2.681   4.983
 8599SOL    HW226697   1.032   2.635   5.029
 8600SOL     OW26698   5.492   4.757   4.752
 8600SOL    HW126699   5.509   4.739   4.849
 8600SOL    HW226700   5.561   4.822   4.718
 8601SOL     OW26701   1.234   1.422   4.443
 8601SOL    HW126702   1.330   1.434   4.468
 8601SOL    HW226703   1.221   1.330   4.405
 8602SOL     OW26704   2.786   5.362   1.573
 8602SOL    HW126705   2.721   5.365   1.649
 8602SOL    HW226706   2.825   5.271   1.567
 8603SOL     OW26707   4.736   6.037   0.835
 8603SOL    HW126708   4.717   6.095   0.914
 8603SOL    HW226709   4.783   6.090   0.764
 8604SOL     OW26710   0.247   3.175   4.838
 8604SOL    HW126711   0.254   3.226   4.752
 8604SOL    HW226712   0.330   3.189   4.892
 8605SOL     OW26713   2.900   6.030   3.817
 8605SOL    HW126714   2.884   6.102   3.749
 8605SOL    HW226715   2.989   5.988   3.799
 8606SOL     OW26716   1.702   3.280   6.354
 8606SOL    HW126717   1.651   3.279   6.440
 8606SOL    HW226718   1.643   3.244   6.280
 8607SOL     OW26719   3.612   6.050   0.938
 8607SOL    HW126720   3.673   6.103   0.879
 8607SOL    HW226721   3.645   6.053   1.032
 8608SOL     OW26722   3.829   4.887   2.614
 8608SOL    HW126723   3.790   4.864   2.525
 8608SOL    HW226724   3.755   4.899   2.680
 8609SOL     OW26725   5.111   0.565   2.504
 8609SOL    HW126726   5.128   0.606   2.594
 8609SOL    HW226727   5.072   0.634   2.443
 8610SOL     OW26728   1.499   1.994   2.842
 8610SOL    HW126729   1.432   2.068   2.829
 8610SOL    HW226730   1.489   1.956   2.934
 8611SOL     OW26731   2.704   1.380   5.029
 8611SOL    HW126732   2.634   1.362   4.959
 8611SOL    HW226733   2.794   1.381   4.986
 8612SOL     OW26734   2.599   3.699   1.089
 8612SOL    HW126735   2.559   3.785   1.120
 8612SOL    HW226736   2.612   3.701   0.990
 8613SOL     OW26737   2.356   1.831   1.183
 8613SOL    HW126738   2.396   1.897   1.247
 8613SOL    HW226739   2.270   1.797   1.220
 8614SOL     OW26740   0.951   2.719   2.396
 8614SOL    HW126741   1.045   2.728   2.430
 8614SOL    HW226742   0.953   2.681   2.304
 8615SOL     OW26743   4.603   1.191   4.985
 8615SOL    HW126744   4.694   1.162   5.015
 8615SOL    HW226745   4.585   1.154   4.894
 8616SOL     OW26746   3.133   4.380   1.712
 8616SOL    HW126747   3.113   4.379   1.615
 8616SOL    HW226748   3.050   4.399   1.764
 8617SOL     OW26749   6.346   1.295   6.518
 8617SOL    HW126750   6.408   1.278   6.441
 8617SOL    HW226751   6.267   1.346   6.486
 8618SOL     OW26752   5.788   5.611   0.780
 8618SOL    HW126753   5.782   5.700   0.823
 8618SOL    HW226754   5.839   5.618   0.694
 8619SOL     OW26755   3.880   4.844   2.297
 8619SOL    HW126756   3.883   4.839   2.197
 8619SOL    HW226757   3.970   4.825   2.335
 8620SOL     OW26758   1.461   0.629   3.676
 8620SOL    HW126759   1.554   0.643   3.710
 8620SOL    HW226760   1.404   0.590   3.749
 8621SOL     OW26761   5.719   1.789   2.828
 8621SOL    HW126762   5.725   1.854   2.904
 8621SOL    HW226763   5.811   1.757   2.805
 8622SOL     OW26764   5.678   3.387   0.900
 8622SOL    HW126765   5.707   3.427   0.813
 8622SOL    HW226766   5.695   3.288   0.898
 8623SOL     OW26767   0.976   3.773   4.380
 8623SOL    HW126768   0.987   3.860   4.428
 8623SOL    HW226769   0.931   3.707   4.440
 8624SOL     OW26770   1.642   3.881   4.699
 8624SOL    HW126771   1.589   3.959   4.731
 8624SOL    HW226772   1.658   3.818   4.775
 8625SOL     OW26773   4.375   0.728   6.178
 8625SOL    HW126774   4.407   0.765   6.091
 8625SOL    HW226775   4.329   0.641   6.163
 8626SOL     OW26776   3.523   3.227   5.964
 8626SOL    HW126777   3.504   3.132   5.940
 8626SOL    HW226778   3.505   3.286   5.885
 8627SOL     OW26779   1.372   1.858   3.454
 8627SOL    HW126780   1.421   1.923   3.397
 8627SOL    HW226781   1.380   1.766   3.415
 8628SOL     OW26782   6.074   6.390   0.618
 8628SOL    HW126783   6.093   6.311   0.560
 8628SOL    HW226784   6.137   6.392   0.695
 8629SOL     OW26785   1.208   5.481   5.033
 8629SOL    HW126786   1.162   5.568   5.015
 8629SOL    HW226787   1.141   5.407   5.036
 8630SOL     OW26788   5.338   4.230   3.907
 8630SOL    HW126789   5.406   4.265   3.971
 8630SOL    HW226790   5.250   4.218   3.953
 8631SOL     OW26791   0.926   4.673   6.200
 8631SOL    HW126792   0.926   4.764   6.159
 8631SOL    HW226793   0.953   4.606   6.131
 8632SOL     OW26794   3.521   5.460   4.372
 8632SOL    HW126795   3.542   5.429   4.279
 8632SOL    HW226796   3.583   5.533   4.398
 8633SOL     OW26797   5.209   1.566   5.856
 8633SOL    HW126798   5.175   1.475   5.831
 8633SOL    HW226799   5.140   1.615   5.908
 8634SOL     OW26800   5.127   3.680   0.461
 8634SOL    HW126801   5.216   3.650   0.494
 8634SOL    HW226802   5.061   3.680   0.536
 8635SOL     OW26803   5.455   3.646   6.430
 8635SOL    HW126804   5.537   3.658   6.486
 8635SOL    HW226805   5.473   3.675   6.336
 8636SOL     OW26806   5.344   5.591   0.891
 8636SOL    HW126807   5.382   5.554   0.976
 8636SOL    HW226808   5.375   5.685   0.879
 8637SOL     OW26809   1.940   0.964   0.170
 8637SOL    HW126810   1.962   1.049   0.218
 8637SOL    HW226811   1.858   0.978   0.114
 8638SOL     OW26812   3.117   2.855   5.532
 8638SOL    HW126813   3.056   2.920   5.578
 8638SOL    HW226814   3.063   2.778   5.498
 8639SOL     OW26815   5.299   2.616   0.665
 8639SOL    HW126816   5.318   2.702   0.619
 8639SOL    HW226817   5.374   2.552   0.650
 8640SOL     OW26818   4.201   3.731   6.563
 8640SOL    HW126819   4.283   3.785   6.583
 8640SOL    HW226820   4.209   3.641   6.606
 8641SOL     OW26821   4.573   4.973   3.578
 8641SOL    HW126822   4.672   4.969   3.570
 8641SOL    HW226823   4.543   4.910   3.650
 8642SOL     OW26824   1.623   6.300   2.869
 8642SOL    HW126825   1.651   6.383   2.918
 8642SOL    HW226826   1.602   6.228   2.936
 8643SOL     OW26827   2.519   0.005   6.907
 8643SOL    HW126828   2.517   0.088   6.852
 8643SOL    HW226829   2.426   6.998   6.932
 8644SOL     OW26830   5.536   2.522   5.119
 8644SOL    HW126831   5.560   2.426   5.133
 8644SOL    HW226832   5.495   2.534   5.029
 8645SOL     OW26833   4.691   4.267   1.519
 8645SOL    HW126834   4.781   4.274   1.476
 8645SOL    HW226835   4.698   4.214   1.603
 8646SOL     OW26836   6.586   2.017   1.258
 8646SOL    HW126837   6.572   1.918   1.257
 8646SOL    HW226838   6.563   2.055   1.168
 8647SOL     OW26839   2.898   5.570   6.392
 8647SOL    HW126840   2.956   5.645   6.361
 8647SOL    HW226841   2.940   5.483   6.367
 8648SOL     OW26842   6.336   0.863   3.275
 8648SOL    HW126843   6.369   0.925   3.346
 8648SOL    HW226844   6.240   0.881   3.256
 8649SOL     OW26845   5.234   5.298   5.917
 8649SOL    HW126846   5.144   5.327   5.886
 8649SOL    HW226847   5.246   5.322   6.013
 8650SOL     OW26848   2.310   4.991   4.683
 8650SOL    HW126849   2.301   5.039   4.596
 8650SOL    HW226850   2.394   4.938   4.684
 8651SOL     OW26851   4.055   0.105   6.504
 8651SOL    HW126852   3.960   0.077   6.519
 8651SOL    HW226853   4.115   0.029   6.527
 8652SOL     OW26854   1.707   4.594   4.022
 8652SOL    HW126855   1.807   4.597   4.021
 8652SOL    HW226856   1.671   4.674   3.974
 8653SOL     OW26857   5.527   0.360   6.496
 8653SOL    HW126858   5.449   0.376   6.556
 8653SOL    HW226859   5.564   0.449   6.466
 8654SOL     OW26860   0.745   4.607   1.591
 8654SOL    HW126861   0.789   4.520   1.613
 8654SOL    HW226862   0.811   4.681   1.599
 8655SOL     OW26863   0.229   1.229   4.004
 8655SOL    HW126864   0.315   1.179   4.000
 8655SOL    HW226865   0.206   1.248   4.099
 8656SOL     OW26866   6.648   6.999   1.005
 8656SOL    HW126867   6.683   0.034   1.081
 8656SOL    HW226868   6.550   6.985   1.016
 8657SOL     OW26869   5.493   4.707   0.063
 8657SOL    HW126870   5.583   4.669   0.082
 8657SOL    HW226871   5.440   4.711   0.148
 8658SOL     OW26872   5.751   6.052   0.358
 8658SOL    HW126873   5.660   6.012   0.356
 8658SOL    HW226874   5.753   6.135   0.303
 8659SOL     OW26875   4.403   1.829   2.704
 8659SOL    HW126876   4.348   1.785   2.775
 8659SOL    HW226877   4.362   1.811   2.615
 8660SOL     OW26878   6.538   3.940   1.911
 8660SOL    HW126879   6.621   3.990   1.936
 8660SOL    HW226880   6.510   3.967   1.819
 8661SOL     OW26881   6.322   4.331   0.689
 8661SOL    HW126882   6.227   4.317   0.715
 8661SOL    HW226883   6.378   4.347   0.770
 8662SOL     OW26884   4.376   5.501   1.213
 8662SOL    HW126885   4.468   5.477   1.246
 8662SOL    HW226886   4.371   5.599   1.196
 8663SOL     OW26887   3.199   6.044   1.785
 8663SOL    HW126888   3.131   6.025   1.856
 8663SOL    HW226889   3.249   5.961   1.763
 8664SOL     OW26890   1.311   6.152   0.697
 8664SOL    HW126891   1.314   6.236   0.751
 8664SOL    HW226892   1.390   6.095   0.718
 8665SOL     OW26893   5.545   5.959   4.765
 8665SOL    HW126894   5.604   5.880   4.780
 8665SOL    HW226895   5.450   5.928   4.760
 8666SOL     OW26896   5.439   1.311   3.640
 8666SOL    HW126897   5.350   1.349   3.666
 8666SOL    HW226898   5.510   1.381   3.651
 8667SOL     OW26899   4.211   2.316   3.123
 8667SOL    HW126900   4.244   2.311   3.028
 8667SOL    HW226901   4.121   2.273   3.129
 8668SOL     OW26902   4.792   2.916   3.000
 8668SOL    HW126903   4.709   2.860   2.998
 8668SOL    HW226904   4.819   2.940   2.907
 8669SOL     OW26905   1.750   6.261   5.949
 8669SOL    HW126906   1.804   6.248   5.865
 8669SOL    HW226907   1.796   6.215   6.025
 8670SOL     OW26908   3.875   4.718   5.357
 8670SOL    HW126909   3.965   4.686   5.328
 8670SOL    HW226910   3.854   4.803   5.309
 8671SOL     OW26911   5.314   1.542   2.829
 8671SOL    HW126912   5.324   1.503   2.738
 8671SOL    HW226913   5.224   1.585   2.838
 8672SOL     OW26914   1.288   5.667   4.460
 8672SOL    HW126915   1.316   5.726   4.535
 8672SOL    HW226916   1.346   5.684   4.380
 8673SOL     OW26917   6.276   2.968   0.350
 8673SOL    HW126918   6.331   2.983   0.267
 8673SOL    HW226919   6.208   2.897   0.332
 8674SOL     OW26920   5.184   6.069   2.952
 8674SOL    HW126921   5.261   6.075   3.015
 8674SOL    HW226922   5.156   6.162   2.926
 8675SOL     OW26923   3.396   2.050   4.057
 8675SOL    HW126924   3.307   2.006   4.065
 8675SOL    HW226925   3.443   2.048   4.145
 8676SOL     OW26926   4.829   0.094   2.475
 8676SOL    HW126927   4.744   0.121   2.429
 8676SOL    HW226928   4.870   0.174   2.518
 8677SOL     OW26929   2.426   5.013   5.879
 8677SOL    HW126930   2.494   5.036   5.809
 8677SOL    HW226931   2.398   4.917   5.867
 8678SOL     OW26932   7.003   0.321   2.151
 8678SOL    HW126933   0.031   0.409   2.158
 8678SOL    HW226934   6.904   0.336   2.154
 8679SOL     OW26935   6.960   1.962   3.210
 8679SOL    HW126936   6.983   1.872   3.248
 8679SOL    HW226937   0.024   2.006   3.178
 8680SOL     OW26938   0.580   3.696   0.086
 8680SOL    HW126939   0.635   3.779   0.081
 8680SOL    HW226940   0.638   3.617   0.069
 8681SOL     OW26941   4.973   4.940   0.694
 8681SOL    HW126942   4.954   4.923   0.791
 8681SOL    HW226943   4.889   4.968   0.649
 8682SOL     OW26944   5.247   6.580   1.888
 8682SOL    HW126945   5.224   6.489   1.923
 8682SOL    HW226946   5.237   6.647   1.961
 8683SOL     OW26947   2.310   1.769   4.321
 8683SOL    HW126948   2.289   1.683   4.367
 8683SOL    HW226949   2.409   1.783   4.319
 8684SOL     OW26950   6.740   2.998   5.272
 8684SOL    HW126951   6.734   3.073   5.338
 8684SOL    HW226952   6.785   2.920   5.315
 8685SOL     OW26953   0.480   2.254   6.763
 8685SOL    HW126954   0.458   2.312   6.685
 8685SOL    HW226955   0.573   2.275   6.794
 8686SOL     OW26956   6.950   1.205   2.616
 8686SOL    HW126957   6.931   1.132   2.682
 8686SOL    HW226958   6.897   1.190   2.533
 8687SOL     OW26959   5.169   4.579   1.228
 8687SOL    HW126960   5.253   4.545   1.271
 8687SOL    HW226961   5.130   4.652   1.284
 8688SOL     OW26962   2.011   5.272   6.887
 8688SOL    HW126963   2.000   5.281   6.788
 8688SOL    HW226964   2.095   5.220   6.906
 8689SOL     OW26965   3.858   3.660   1.606
 8689SOL    HW126966   3.832   3.747   1.566
 8689SOL    HW226967   3.876   3.594   1.533
 8690SOL     OW26968   1.609   3.888   3.539
 8690SOL    HW126969   1.593   3.804   3.487
 8690SOL    HW226970   1.554   3.886   3.623
 8691SOL     OW26971   3.066   1.835   5.970
 8691SOL    HW126972   3.145   1.775   5.984
 8691SOL    HW226973   3.015   1.804   5.889
 8692SOL     OW26974   2.406   1.159   5.223
 8692SOL    HW126975   2.390   1.256   5.209
 8692SOL    HW226976   2.335   1.107   5.175
 8693SOL     OW26977   5.694   0.906   6.998
 8693SOL    HW126978   5.753   0.830   6.970
 8693SOL    HW226979   5.744   0.992   6.990
 8694SOL     OW26980   4.645   0.509   5.191
 8694SOL    HW126981   4.602   0.549   5.272
 8694SOL    HW226982   4.723   0.566   5.163
 8695SOL     OW26983   4.273   3.434   6.212
 8695SOL    HW126984   4.310   3.470   6.127
 8695SOL    HW226985   4.207   3.499   6.250
 8696SOL     OW26986   1.976   4.882   5.830
 8696SOL    HW126987   1.925   4.819   5.771
 8696SOL    HW226988   2.053   4.920   5.779
 8697SOL     OW26989   0.037   2.848   6.524
 8697SOL    HW126990   0.026   2.774   6.589
 8697SOL    HW226991   6.977   2.851   6.463
 8698SOL     OW26992   5.106   5.702   5.063
 8698SOL    HW126993   5.083   5.647   4.983
 8698SOL    HW226994   5.029   5.763   5.084
 8699SOL     OW26995   1.639   2.606   5.124
 8699SOL    HW126996   1.684   2.643   5.205
 8699SOL    HW226997   1.610   2.512   5.142
 8700SOL     OW26998   1.096   1.473   4.011
 8700SOL    HW126999   1.078   1.492   4.108
 8700SOL    HW227000   1.177   1.415   4.004
 8701SOL     OW27001   1.058   0.852   0.183
 8701SOL    HW127002   1.120   0.819   0.112
 8701SOL    HW227003   1.028   0.944   0.161
 8702SOL     OW27004   5.675   5.030   1.692
 8702SOL    HW127005   5.612   5.087   1.744
 8702SOL    HW227006   5.624   4.973   1.627
 8703SOL     OW27007   2.811   4.687   6.788
 8703SOL    HW127008   2.885   4.703   6.854
 8703SOL    HW227009   2.777   4.593   6.798
 8704SOL     OW27010   0.343   3.974   3.512
 8704SOL    HW127011   0.421   3.939   3.460
 8704SOL    HW227012   0.370   3.992   3.606
 8705SOL     OW27013   5.255   1.082   6.280
 8705SOL    HW127014   5.327   1.147   6.255
 8705SOL    HW227015   5.169   1.131   6.293
 8706SOL     OW27016   4.977   2.232   6.979
 8706SOL    HW127017   4.904   2.181   0.004
 8706SOL    HW227018   4.947   2.263   6.888
 8707SOL     OW27019   6.897   1.222   6.337
 8707SOL    HW127020   6.969   1.153   6.336
 8707SOL    HW227021   6.807   1.177   6.334
 8708SOL     OW27022   4.466   1.517   2.312
 8708SOL    HW127023   4.522   1.594   2.282
 8708SOL    HW227024   4.369   1.542   2.305
 8709SOL     OW27025   0.054   6.631   0.311
 8709SOL    HW127026   0.116   6.703   0.280
 8709SOL    HW227027   0.047   6.560   0.242
 8710SOL     OW27028   1.919   3.107   3.978
 8710SOL    HW127029   1.935   3.011   3.954
 8710SOL    HW227030   1.879   3.112   4.070
 8711SOL     OW27031   1.994   0.076   3.137
 8711SOL    HW127032   1.966   0.094   3.231
 8711SOL    HW227033   2.076   0.019   3.137
 8712SOL     OW27034   3.923   2.050   4.616
 8712SOL    HW127035   3.960   2.072   4.526
 8712SOL    HW227036   3.995   2.013   4.674
 8713SOL     OW27037   6.569   3.299   4.008
 8713SOL    HW127038   6.589   3.253   3.921
 8713SOL    HW227039   6.493   3.253   4.053
 8714SOL     OW27040   0.660   0.368   5.810
 8714SOL    HW127041   0.604   0.317   5.744
 8714SOL    HW227042   0.601   0.428   5.863
 8715SOL     OW27043   4.616   6.780   0.670
 8715SOL    HW127044   4.525   6.805   0.639
 8715SOL    HW227045   4.609   6.717   0.748
 8716SOL     OW27046   6.719   0.178   1.194
 8716SOL    HW127047   6.773   0.261   1.199
 8716SOL    HW227048   6.740   0.120   1.273
 8717SOL     OW27049   3.067   3.084   4.701
 8717SOL    HW127050   3.139   3.136   4.656
 8717SOL    HW227051   2.991   3.069   4.638
 8718SOL     OW27052   1.915   3.537   5.231
 8718SOL    HW127053   1.853   3.588   5.172
 8718SOL    HW227054   1.886   3.442   5.236
 8719SOL     OW27055   3.823   0.502   6.772
 8719SOL    HW127056   3.831   0.507   6.871
 8719SOL    HW227057   3.801   0.593   6.736
 8720SOL     OW27058   0.021   5.402   6.133
 8720SOL    HW127059   6.965   5.345   6.166
 8720SOL    HW227060   7.011   5.498   6.133
 8721SOL     OW27061   6.874   2.887   1.872
 8721SOL    HW127062   6.872   2.904   1.970
 8721SOL    HW227063   6.945   2.943   1.830
 8722SOL     OW27064   3.666   1.229   6.805
 8722SOL    HW127065   3.574   1.265   6.821
 8722SOL    HW227066   3.717   1.290   6.744
 8723SOL     OW27067   5.322   5.830   1.173
 8723SOL    HW127068   5.276   5.847   1.260
 8723SOL    HW227069   5.291   5.897   1.106
 8724SOL     OW27070   4.670   6.774   5.085
 8724SOL    HW127071   4.760   6.753   5.124
 8724SOL    HW227072   4.654   6.872   5.090
 8725SOL     OW27073   1.884   6.157   5.731
 8725SOL    HW127074   1.861   6.134   5.637
 8725SOL    HW227075   1.977   6.126   5.752
 8726SOL     OW27076   6.873   1.377   3.348
 8726SOL    HW127077   6.900   1.442   3.277
 8726SOL    HW227078   6.802   1.418   3.405
 8727SOL     OW27079   6.090   6.578   2.135
 8727SOL    HW127080   6.068   6.494   2.185
 8727SOL    HW227081   6.166   6.560   2.072
 8728SOL     OW27082   6.376   0.536   2.306
 8728SOL    HW127083   6.391   0.440   2.280
 8728SOL    HW227084   6.294   0.542   2.362
 8729SOL     OW27085   3.421   5.709   4.975
 8729SOL    HW127086   3.380   5.717   5.066
 8729SOL    HW227087   3.377   5.636   4.924
 8730SOL     OW27088   6.266   4.581   2.620
 8730SOL    HW127089   6.255   4.578   2.521
 8730SOL    HW227090   6.362   4.562   2.644
 8731SOL     OW27091   1.708   2.747   2.731
 8731SOL    HW127092   1.708   2.826   2.792
 8731SOL    HW227093   1.794   2.744   2.680
 8732SOL     OW27094   5.914   5.003   1.794
 8732SOL    HW127095   5.876   4.952   1.871
 8732SOL    HW227096   5.840   5.042   1.740
 8733SOL     OW27097   1.853   5.389   1.412
 8733SOL    HW127098   1.767   5.374   1.363
 8733SOL    HW227099   1.843   5.361   1.507
 8734SOL     OW27100   0.724   4.602   2.049
 8734SOL    HW127101   0.750   4.697   2.064
 8734SOL    HW227102   0.807   4.547   2.036
 8735SOL     OW27103   1.060   2.427   0.761
 8735SOL    HW127104   1.078   2.331   0.784
 8735SOL    HW227105   0.963   2.447   0.778
 8736SOL     OW27106   0.305   5.582   0.276
 8736SOL    HW127107   0.205   5.581   0.274
 8736SOL    HW227108   0.339   5.586   0.182
 8737SOL     OW27109   2.042   6.616   6.912
 8737SOL    HW127110   2.074   6.535   6.862
 8737SOL    HW227111   2.103   6.693   6.892
 8738SOL     OW27112   2.670   5.357   4.326
 8738SOL    HW127113   2.710   5.277   4.282
 8738SOL    HW227114   2.671   5.345   4.425
 8739SOL     OW27115   6.007   5.218   6.781
 8739SOL    HW127116   6.056   5.297   6.744
 8739SOL    HW227117   6.072   5.149   6.812
 8740SOL     OW27118   4.761   1.120   4.468
 8740SOL    HW127119   4.774   1.198   4.408
 8740SOL    HW227120   4.677   1.071   4.442
 8741SOL     OW27121   2.614   1.227   2.369
 8741SOL    HW127122   2.533   1.217   2.311
 8741SOL    HW227123   2.598   1.185   2.457
 8742SOL     OW27124   5.315   6.242   1.267
 8742SOL    HW127125   5.276   6.151   1.279
 8742SOL    HW227126   5.342   6.279   1.356
 8743SOL     OW27127   1.818   0.066   2.028
 8743SOL    HW127128   1.863   0.098   1.945
 8743SOL    HW227129   1.768   7.001   2.009
 8744SOL     OW27130   4.172   2.778   6.318
 8744SOL    HW127131   4.073   2.793   6.319
 8744SOL    HW227132   4.204   2.755   6.409
 8745SOL     OW27133   6.379   2.580   6.592
 8745SOL    HW127134   6.299   2.543   6.546
 8745SOL    HW227135   6.447   2.507   6.604
 8746SOL     OW27136   4.309   5.443   4.369
 8746SOL    HW127137   4.310   5.507   4.446
 8746SOL    HW227138   4.400   5.441   4.327
 8747SOL     OW27139   0.572   2.581   3.223
 8747SOL    HW127140   0.622   2.577   3.310
 8747SOL    HW227141   0.634   2.561   3.148
 8748SOL     OW27142   6.448   1.289   4.413
 8748SOL    HW127143   6.527   1.232   4.389
 8748SOL    HW227144   6.452   1.312   4.510
 8749SOL     OW27145   2.355   0.442   4.634
 8749SOL    HW127146   2.383   0.406   4.545
 8749SOL    HW227147   2.270   0.396   4.663
 8750SOL     OW27148   3.036   3.690   5.079
 8750SOL    HW127149   3.120   3.708   5.027
 8750SOL    HW227150   2.990   3.777   5.097
 8751SOL     OW27151   5.312   1.437   2.296
 8751SOL    HW127152   5.316   1.537   2.287
 8751SOL    HW227153   5.332   1.395   2.207
 8752SOL     OW27154   3.228   3.478   0.071
 8752SOL    HW127155   3.249   3.547   0.001
 8752SOL    HW227156   3.236   3.518   0.162
 8753SOL     OW27157   4.031   2.243   5.946
 8753SOL    HW127158   4.026   2.144   5.939
 8753SOL    HW227159   4.124   2.273   5.924
 8754SOL     OW27160   2.325   3.443   5.654
 8754SOL    HW127161   2.318   3.521   5.716
 8754SOL    HW227162   2.408   3.452   5.599
 8755SOL     OW27163   2.136   0.782   0.731
 8755SOL    HW127164   2.049   0.765   0.684
 8755SOL    HW227165   2.133   0.740   0.822
 8756SOL     OW27166   0.814   3.400   4.298
 8756SOL    HW127167   0.887   3.414   4.366
 8756SOL    HW227168   0.826   3.311   4.255
 8757SOL     OW27169   4.124   5.640   6.421
 8757SOL    HW127170   4.150   5.734   6.441
 8757SOL    HW227171   4.165   5.580   6.491
 8758SOL     OW27172   4.862   5.893   2.237
 8758SOL    HW127173   4.934   5.950   2.274
 8758SOL    HW227174   4.828   5.831   2.308
 8759SOL     OW27175   5.142   2.562   6.907
 8759SOL    HW127176   5.211   2.632   6.890
 8759SOL    HW227177   5.187   2.477   6.936
 8760SOL     OW27178   2.135   1.073   5.369
 8760SOL    HW127179   2.112   0.992   5.316
 8760SOL    HW227180   2.200   1.048   5.441
 8761SOL     OW27181   6.445   2.080   1.811
 8761SOL    HW127182   6.490   2.034   1.734
 8761SOL    HW227183   6.429   2.176   1.789
 8762SOL     OW27184   1.304   4.170   3.083
 8762SOL    HW127185   1.368   4.105   3.042
 8762SOL    HW227186   1.217   4.125   3.101
 8763SOL     OW27187   6.956   6.466   6.078
 8763SOL    HW127188   6.972   6.548   6.023
 8763SOL    HW227189   6.882   6.482   6.142
 8764SOL     OW27190   4.721   0.219   4.911
 8764SOL    HW127191   4.775   0.300   4.933
 8764SOL    HW227192   4.768   0.164   4.842
 8765SOL     OW27193   5.220   6.977   4.278
 8765SOL    HW127194   5.181   0.035   4.228
 8765SOL    HW227195   5.177   6.892   4.247
 8766SOL     OW27196   4.722   4.579   4.297
 8766SOL    HW127197   4.712   4.676   4.320
 8766SOL    HW227198   4.819   4.559   4.279
 8767SOL     OW27199   4.757   5.154   2.987
 8767SOL    HW127200   4.676   5.192   3.032
 8767SOL    HW227201   4.734   5.066   2.945
 8768SOL     OW27202   1.156   2.518   0.318
 8768SOL    HW127203   1.232   2.456   0.333
 8768SOL    HW227204   1.076   2.486   0.370
 8769SOL     OW27205   6.989   0.602   4.172
 8769SOL    HW127206   6.893   0.600   4.144
 8769SOL    HW227207   0.018   0.673   4.121
 8770SOL     OW27208   4.667   4.357   2.250
 8770SOL    HW127209   4.645   4.320   2.160
 8770SOL    HW227210   4.676   4.283   2.316
 8771SOL     OW27211   1.375   1.891   6.394
 8771SOL    HW127212   1.354   1.796   6.419
 8771SOL    HW227213   1.349   1.951   6.470
 8772SOL     OW27214   4.924   0.455   6.224
 8772SOL    HW127215   4.864   0.376   6.238
 8772SOL    HW227216   5.002   0.450   6.286
 8773SOL     OW27217   4.800   2.250   3.787
 8773SOL    HW127218   4.786   2.321   3.856
 8773SOL    HW227219   4.745   2.170   3.810
 8774SOL     OW27220   1.277   0.849   0.025
 8774SOL    HW127221   1.341   0.919   0.057
 8774SOL    HW227222   1.316   0.758   0.043
 8775SOL     OW27223   5.856   6.738   5.393
 8775SOL    HW127224   5.896   6.829   5.388
 8775SOL    HW227225   5.771   6.741   5.446
 8776SOL     OW27226   3.774   2.886   6.689
 8776SOL    HW127227   3.753   2.974   6.647
 8776SOL    HW227228   3.863   2.891   6.735
 8777SOL     OW27229   7.014   4.050   2.488
 8777SOL    HW127230   6.915   4.045   2.501
 8777SOL    HW227231   0.022   4.144   2.472
 8778SOL     OW27232   5.382   2.895   5.402
 8778SOL    HW127233   5.460   2.890   5.464
 8778SOL    HW227234   5.409   2.862   5.311
 8779SOL     OW27235   2.697   5.042   2.721
 8779SOL    HW127236   2.686   4.998   2.810
 8779SOL    HW227237   2.643   4.994   2.652
 8780SOL     OW27238   0.635   6.365   3.047
 8780SOL    HW127239   0.622   6.268   3.067
 8780SOL    HW227240   0.732   6.382   3.031
 8781SOL     OW27241   5.250   0.891   2.926
 8781SOL    HW127242   5.221   0.851   2.839
 8781SOL    HW227243   5.171   0.895   2.988
 8782SOL     OW27244   6.318   6.567   1.372
 8782SOL    HW127245   6.243   6.624   1.339
 8782SOL    HW227246   6.300   6.540   1.467
 8783SOL     OW27247   6.485   4.654   3.849
 8783SOL    HW127248   6.430   4.597   3.787
 8783SOL    HW227249   6.470   4.750   3.829
 8784SOL     OW27250   6.261   3.887   6.095
 8784SOL    HW127251   6.266   3.813   6.028
 8784SOL    HW227252   6.353   3.919   6.116
 8785SOL     OW27253   5.741   3.528   0.172
 8785SOL    HW127254   5.816   3.547   0.109
 8785SOL    HW227255   5.759   3.443   0.221
 8786SOL     OW27256   2.532   0.626   0.726
 8786SOL    HW127257   2.590   0.599   0.803
 8786SOL    HW227258   2.552   0.568   0.647
 8787SOL     OW27259   3.590   1.743   1.712
 8787SOL    HW127260   3.631   1.827   1.676
 8787SOL    HW227261   3.570   1.754   1.809
 8788SOL     OW27262   6.173   1.350   5.492
 8788SOL    HW127263   6.182   1.286   5.416
 8788SOL    HW227264   6.115   1.310   5.563
 8789SOL     OW27265   6.129   6.640   4.573
 8789SOL    HW127266   6.056   6.593   4.624
 8789SOL    HW227267   6.208   6.579   4.565
 8790SOL     OW27268   0.498   0.212   6.256
 8790SOL    HW127269   0.506   0.212   6.356
 8790SOL    HW227270   0.578   0.255   6.216
 8791SOL     OW27271   5.459   6.807   5.245
 8791SOL    HW127272   5.489   6.721   5.204
 8791SOL    HW227273   5.396   6.854   5.184
 8792SOL     OW27274   2.407   5.739   2.974
 8792SOL    HW127275   2.360   5.827   2.963
 8792SOL    HW227276   2.389   5.703   3.065
 8793SOL     OW27277   1.162   4.516   2.832
 8793SOL    HW127278   1.128   4.597   2.784
 8793SOL    HW227279   1.177   4.539   2.928
 8794SOL     OW27280   4.741   0.204   2.083
 8794SOL    HW127281   4.791   0.286   2.111
 8794SOL    HW227282   4.741   0.197   1.983
 8795SOL     OW27283   1.313   4.858   5.780
 8795SOL    HW127284   1.350   4.868   5.687
 8795SOL    HW227285   1.372   4.905   5.845
 8796SOL     OW27286   4.025   2.201   4.403
 8796SOL    HW127287   4.053   2.153   4.320
 8796SOL    HW227288   4.085   2.280   4.418
 8797SOL     OW27289   0.090   0.028   0.092
 8797SOL    HW127290   0.135   0.080   0.019
 8797SOL    HW227291   0.013   0.082   0.128
 8798SOL     OW27292   5.648   5.858   6.509
 8798SOL    HW127293   5.705   5.887   6.432
 8798SOL    HW227294   5.579   5.793   6.478
 8799SOL     OW27295   2.651   4.566   3.501
 8799SOL    HW127296   2.726   4.612   3.548
 8799SOL    HW227297   2.607   4.501   3.564
 8800SOL     OW27298   6.713   4.031   5.481
 8800SOL    HW127299   6.713   4.130   5.499
 8800SOL    HW227300   6.805   3.995   5.497
 8801SOL     OW27301   6.950   1.189   5.308
 8801SOL    HW127302   6.899   1.223   5.387
 8801SOL    HW227303   6.950   1.089   5.310
 8802SOL     OW27304   2.131   6.958   0.157
 8802SOL    HW127305   2.064   0.012   0.170
 8802SOL    HW227306   2.150   6.915   0.245
 8803SOL     OW27307   6.844   6.184   7.007
 8803SOL    HW127308   6.918   6.119   6.993
 8803SOL    HW227309   6.843   6.252   6.934
 8804SOL     OW27310   2.650   6.737   2.107
 8804SOL    HW127311   2.587   6.801   2.062
 8804SOL    HW227312   2.646   6.750   2.206
 8805SOL     OW27313   2.831   6.222   3.600
 8805SOL    HW127314   2.804   6.150   3.536
 8805SOL    HW227315   2.866   6.300   3.548
 8806SOL     OW27316   3.095   5.056   2.301
 8806SOL    HW127317   3.017   4.999   2.327
 8806SOL    HW227318   3.142   5.015   2.223
 8807SOL     OW27319   5.158   0.449   0.333
 8807SOL    HW127320   5.129   0.363   0.376
 8807SOL    HW227321   5.122   0.525   0.387
 8808SOL     OW27322   5.967   2.566   6.832
 8808SOL    HW127323   6.005   2.475   6.813
 8808SOL    HW227324   5.944   2.611   6.746
 8809SOL     OW27325   4.964   5.871   3.030
 8809SOL    HW127326   4.874   5.894   2.993
 8809SOL    HW227327   5.025   5.950   3.021
 8810SOL     OW27328   6.268   0.652   4.878
 8810SOL    HW127329   6.329   0.711   4.932
 8810SOL    HW227330   6.174   0.685   4.886
 8811SOL     OW27331   3.333   0.800   2.741
 8811SOL    HW127332   3.410   0.844   2.787
 8811SOL    HW227333   3.305   0.855   2.662
 8812SOL     OW27334   1.997   0.482   0.671
 8812SOL    HW127335   1.974   0.422   0.748
 8812SOL    HW227336   1.961   0.574   0.688
 8813SOL     OW27337   2.138   4.972   1.898
 8813SOL    HW127338   2.233   4.969   1.867
 8813SOL    HW227339   2.134   4.942   1.994
 8814SOL     OW27340   5.829   6.972   0.883
 8814SOL    HW127341   5.878   6.885   0.896
 8814SOL    HW227342   5.807   7.011   0.973
 8815SOL     OW27343   5.474   0.074   1.082
 8815SOL    HW127344   5.529   7.010   1.086
 8815SOL    HW227345   5.392   0.057   1.027
 8816SOL     OW27346   1.274   6.762   0.265
 8816SOL    HW127347   1.367   6.760   0.228
 8816SOL    HW227348   1.269   6.703   0.346
 8817SOL     OW27349   0.083   4.948   4.142
 8817SOL    HW127350   0.082   4.963   4.043
 8817SOL    HW227351   0.138   4.867   4.163
 8818SOL     OW27352   0.420   4.359   4.776
 8818SOL    HW127353   0.330   4.397   4.753
 8818SOL    HW227354   0.445   4.385   4.869
 8819SOL     OW27355   5.671   5.491   5.439
 8819SOL    HW127356   5.622   5.469   5.355
 8819SOL    HW227357   5.662   5.415   5.504
 8820SOL     OW27358   2.658   0.417   5.056
 8820SOL    HW127359   2.627   0.483   4.988
 8820SOL    HW227360   2.680   0.464   5.141
 8821SOL     OW27361   1.710   6.247   0.782
 8821SOL    HW127362   1.677   6.236   0.875
 8821SOL    HW227363   1.660   6.186   0.721
 8822SOL     OW27364   0.702   0.313   3.820
 8822SOL    HW127365   0.769   0.274   3.884
 8822SOL    HW227366   0.748   0.337   3.734
 8823SOL     OW27367   2.543   0.843   2.657
 8823SOL    HW127368   2.625   0.899   2.653
 8823SOL    HW227369   2.560   0.755   2.614
 8824SOL     OW27370   1.368   2.303   0.312
 8824SOL    HW127371   1.376   2.312   0.411
 8824SOL    HW227372   1.387   2.208   0.286
 8825SOL     OW27373   2.460   1.175   1.846
 8825SOL    HW127374   2.431   1.143   1.936
 8825SOL    HW227375   2.531   1.114   1.810
 8826SOL     OW27376   6.947   3.711   0.361
 8826SOL    HW127377   0.007   3.656   0.390
 8826SOL    HW227378   6.863   3.662   0.383
 8827SOL     OW27379   4.392   1.507   1.657
 8827SOL    HW127380   4.445   1.562   1.720
 8827SOL    HW227381   4.296   1.536   1.660
 8828SOL     OW27382   3.879   5.860   5.910
 8828SOL    HW127383   3.937   5.790   5.868
 8828SOL    HW227384   3.925   5.898   5.990
 8829SOL     OW27385   5.023   2.968   0.940
 8829SOL    HW127386   5.082   3.012   1.008
 8829SOL    HW227387   5.079   2.924   0.871
 8830SOL     OW27388   1.709   1.977   2.649
 8830SOL    HW127389   1.656   2.024   2.720
 8830SOL    HW227390   1.734   1.886   2.682
 8831SOL     OW27391   4.281   2.313   4.441
 8831SOL    HW127392   4.284   2.217   4.413
 8831SOL    HW227393   4.326   2.369   4.371
 8832SOL     OW27394   0.149   6.803   3.374
 8832SOL    HW127395   0.105   6.862   3.306
 8832SOL    HW227396   0.119   6.829   3.465
 8833SOL     OW27397   2.193   5.025   5.714
 8833SOL    HW127398   2.229   5.017   5.621
 8833SOL    HW227399   2.268   5.048   5.777
 8834SOL     OW27400   5.382   4.284   4.678
 8834SOL    HW127401   5.311   4.352   4.667
 8834SOL    HW227402   5.373   4.238   4.766
 8835SOL     OW27403   4.579   0.896   5.441
 8835SOL    HW127404   4.496   0.941   5.474
 8835SOL    HW227405   4.577   0.892   5.341
 8836SOL     OW27406   4.959   2.387   0.519
 8836SOL    HW127407   5.008   2.312   0.563
 8836SOL    HW227408   5.010   2.419   0.439
 8837SOL     OW27409   6.963   6.304   2.394
 8837SOL    HW127410   6.928   6.372   2.329
 8837SOL    HW227411   6.921   6.215   2.375
 8838SOL     OW27412   2.074   5.495   3.636
 8838SOL    HW127413   2.068   5.578   3.691
 8838SOL    HW227414   2.041   5.417   3.689
 8839SOL     OW27415   5.754   5.541   2.115
 8839SOL    HW127416   5.676   5.484   2.139
 8839SOL    HW227417   5.824   5.485   2.070
 8840SOL     OW27418   0.268   1.742   2.668
 8840SOL    HW127419   0.353   1.732   2.617
 8840SOL    HW227420   0.191   1.741   2.605
 8841SOL     OW27421   0.458   0.881   4.704
 8841SOL    HW127422   0.391   0.810   4.730
 8841SOL    HW227423   0.540   0.870   4.759
 8842SOL     OW27424   3.407   2.857   2.386
 8842SOL    HW127425   3.492   2.846   2.437
 8842SOL    HW227426   3.422   2.829   2.291
 8843SOL     OW27427   2.096   3.288   5.781
 8843SOL    HW127428   2.139   3.221   5.841
 8843SOL    HW227429   2.166   3.329   5.721
 8844SOL     OW27430   0.212   1.340   6.229
 8844SOL    HW127431   0.299   1.339   6.180
 8844SOL    HW227432   0.225   1.379   6.320
 8845SOL     OW27433   3.441   3.740   1.077
 8845SOL    HW127434   3.501   3.695   1.143
 8845SOL    HW227435   3.447   3.694   0.989
 8846SOL     OW27436   3.611   5.347   3.855
 8846SOL    HW127437   3.624   5.286   3.777
 8846SOL    HW227438   3.551   5.423   3.828
 8847SOL     OW27439   2.461   0.788   2.923
 8847SOL    HW127440   2.509   0.830   2.846
 8847SOL    HW227441   2.370   0.760   2.894
 8848SOL     OW27442   3.044   2.147   2.197
 8848SOL    HW127443   2.997   2.231   2.170
 8848SOL    HW227444   2.980   2.085   2.242
 8849SOL     OW27445   3.019   6.212   3.005
 8849SOL    HW127446   2.945   6.176   3.062
 8849SOL    HW227447   3.104   6.165   3.027
 8850SOL     OW27448   1.451   1.946   6.995
 8850SOL    HW127449   1.459   1.952   6.896
 8850SOL    HW227450   1.375   1.885   7.019
 8851SOL     OW27451   1.270   5.521   2.370
 8851SOL    HW127452   1.283   5.434   2.419
 8851SOL    HW227453   1.236   5.590   2.434
 8852SOL     OW27454   5.382   3.370   5.705
 8852SOL    HW127455   5.441   3.449   5.722
 8852SOL    HW227456   5.392   3.342   5.610
 8853SOL     OW27457   2.880   1.498   0.628
 8853SOL    HW127458   2.912   1.589   0.651
 8853SOL    HW227459   2.948   1.430   0.656
 8854SOL     OW27460   3.371   1.767   5.616
 8854SOL    HW127461   3.336   1.678   5.645
 8854SOL    HW227462   3.294   1.824   5.585
 8855SOL     OW27463   0.077   5.882   1.461
 8855SOL    HW127464   0.101   5.843   1.372
 8855SOL    HW227465   0.086   5.981   1.458
 8856SOL     OW27466   0.165   6.400   6.279
 8856SOL    HW127467   0.076   6.382   6.321
 8856SOL    HW227468   0.175   6.346   6.196
 8857SOL     OW27469   6.795   1.502   4.118
 8857SOL    HW127470   6.833   1.494   4.026
 8857SOL    HW227471   6.711   1.556   4.115
 8858SOL     OW27472   1.044   3.113   5.431
 8858SOL    HW127473   1.036   3.015   5.450
 8858SOL    HW227474   1.137   3.134   5.403
 8859SOL     OW27475   0.227   0.207   4.119
 8859SOL    HW127476   0.158   0.270   4.155
 8859SOL    HW227477   0.291   0.182   4.191
 8860SOL     OW27478   6.666   2.710   2.831
 8860SOL    HW127479   6.672   2.777   2.906
 8860SOL    HW227480   6.666   2.618   2.869
 8861SOL     OW27481   4.118   1.535   6.053
 8861SOL    HW127482   4.160   1.446   6.072
 8861SOL    HW227483   4.065   1.565   6.132
 8862SOL     OW27484   5.661   0.668   4.073
 8862SOL    HW127485   5.683   0.701   4.165
 8862SOL    HW227486   5.687   0.738   4.006
 8863SOL     OW27487   1.349   4.931   4.521
 8863SOL    HW127488   1.377   5.019   4.484
 8863SOL    HW227489   1.250   4.927   4.527
 8864SOL     OW27490   3.494   4.753   6.279
 8864SOL    HW127491   3.565   4.790   6.339
 8864SOL    HW227492   3.406   4.757   6.326
 8865SOL     OW27493   3.401   0.234   6.015
 8865SOL    HW127494   3.335   0.160   6.005
 8865SOL    HW227495   3.353   0.320   6.031
 8866SOL     OW27496   5.186   0.421   3.449
 8866SOL    HW127497   5.128   0.342   3.432
 8866SOL    HW227498   5.281   0.396   3.432
 8867SOL     OW27499   5.564   4.220   3.077
 8867SOL    HW127500   5.534   4.140   3.129
 8867SOL    HW227501   5.545   4.206   2.979
 8868SOL     OW27502   6.606   2.867   1.044
 8868SOL    HW127503   6.644   2.947   1.090
 8868SOL    HW227504   6.680   2.807   1.013
 8869SOL     OW27505   4.104   5.701   4.529
 8869SOL    HW127506   4.154   5.657   4.603
 8869SOL    HW227507   4.076   5.793   4.558
 8870SOL     OW27508   2.885   0.339   0.733
 8870SOL    HW127509   2.944   0.398   0.678
 8870SOL    HW227510   2.906   0.243   0.713
 8871SOL     OW27511   2.168   1.290   4.258
 8871SOL    HW127512   2.079   1.309   4.299
 8871SOL    HW227513   2.166   1.318   4.162
 8872SOL     OW27514   1.468   4.431   5.002
 8872SOL    HW127515   1.418   4.348   5.027
 8872SOL    HW227516   1.531   4.411   4.927
 8873SOL     OW27517   0.788   6.958   1.802
 8873SOL    HW127518   0.696   6.920   1.815
 8873SOL    HW227519   0.799   6.986   1.707
 8874SOL     OW27520   1.856   6.446   2.404
 8874SOL    HW127521   1.933   6.503   2.432
 8874SOL    HW227522   1.887   6.378   2.337
 8875SOL     OW27523   0.282   3.643   5.389
 8875SOL    HW127524   0.279   3.742   5.401
 8875SOL    HW227525   0.193   3.604   5.411
 8876SOL     OW27526   2.423   6.533   4.936
 8876SOL    HW127527   2.508   6.573   4.969
 8876SOL    HW227528   2.399   6.574   4.847
 8877SOL     OW27529   3.173   1.868   4.099
 8877SOL    HW127530   3.116   1.860   4.181
 8877SOL    HW227531   3.115   1.891   4.021
 8878SOL     OW27532   6.373   4.759   0.368
 8878SOL    HW127533   6.365   4.675   0.422
 8878SOL    HW227534   6.469   4.785   0.362
 8879SOL     OW27535   5.029   4.873   3.003
 8879SOL    HW127536   5.052   4.805   3.073
 8879SOL    HW227537   5.108   4.888   2.943
 8880SOL     OW27538   5.262   5.930   4.721
 8880SOL    HW127539   5.199   5.854   4.737
 8880SOL    HW227540   5.220   6.016   4.751
 8881SOL     OW27541   5.179   6.711   4.240
 8881SOL    HW127542   5.172   6.621   4.284
 8881SOL    HW227543   5.130   6.708   4.153
 8882SOL     OW27544   5.680   1.194   1.067
 8882SOL    HW127545   5.780   1.203   1.068
 8882SOL    HW227546   5.640   1.265   1.125
 8883SOL     OW27547   1.420   6.318   5.924
 8883SOL    HW127548   1.354   6.251   5.958
 8883SOL    HW227549   1.512   6.284   5.939
 8884SOL     OW27550   6.693   4.141   5.926
 8884SOL    HW127551   6.698   4.207   5.851
 8884SOL    HW227552   6.605   4.152   5.974
 8885SOL     OW27553   6.440   3.679   1.896
 8885SOL    HW127554   6.412   3.662   1.991
 8885SOL    HW227555   6.465   3.776   1.885
 8886SOL     OW27556   2.828   6.720   4.545
 8886SOL    HW127557   2.828   6.815   4.576
 8886SOL    HW227558   2.776   6.664   4.610
 8887SOL     OW27559   3.999   0.584   0.286
 8887SOL    HW127560   4.039   0.504   0.333
 8887SOL    HW227561   4.073   0.641   0.251
 8888SOL     OW27562   1.871   1.689   5.587
 8888SOL    HW127563   1.947   1.623   5.588
 8888SOL    HW227564   1.829   1.689   5.496
 8889SOL     OW27565   7.001   0.305   6.545
 8889SOL    HW127566   6.923   0.292   6.606
 8889SOL    HW227567   6.969   0.342   6.458
 8890SOL     OW27568   6.757   6.028   4.641
 8890SOL    HW127569   6.698   6.107   4.625
 8890SOL    HW227570   6.844   6.040   4.594
 8891SOL     OW27571   4.345   3.392   6.965
 8891SOL    HW127572   4.277   3.466   6.957
 8891SOL    HW227573   4.437   3.431   6.961
 8892SOL     OW27574   3.387   5.306   3.062
 8892SOL    HW127575   3.382   5.250   2.980
 8892SOL    HW227576   3.445   5.386   3.045
 8893SOL     OW27577   0.860   5.513   3.931
 8893SOL    HW127578   0.822   5.541   4.019
 8893SOL    HW227579   0.843   5.585   3.863
 8894SOL     OW27580   3.517   2.412   6.773
 8894SOL    HW127581   3.565   2.499   6.786
 8894SOL    HW227582   3.453   2.397   6.849
 8895SOL     OW27583   6.378   2.904   2.162
 8895SOL    HW127584   6.401   2.975   2.097
 8895SOL    HW227585   6.454   2.890   2.226
 8896SOL     OW27586   2.835   3.289   5.363
 8896SOL    HW127587   2.879   3.223   5.302
 8896SOL    HW227588   2.745   3.255   5.389
 8897SOL     OW27589   2.156   3.063   3.324
 8897SOL    HW127590   2.059   3.064   3.348
 8897SOL    HW227591   2.175   2.988   3.261
 8898SOL     OW27592   5.053   2.914   2.543
 8898SOL    HW127593   5.045   2.843   2.613
 8898SOL    HW227594   5.001   2.995   2.571
 8899SOL     OW27595   1.503   5.590   1.560
 8899SOL    HW127596   1.580   5.565   1.618
 8899SOL    HW227597   1.429   5.524   1.573
 8900SOL     OW27598   5.680   2.760   2.853
 8900SOL    HW127599   5.655   2.810   2.769
 8900SOL    HW227600   5.654   2.664   2.843
 8901SOL     OW27601   2.031   1.095   4.970
 8901SOL    HW127602   2.004   1.023   4.906
 8901SOL    HW227603   2.130   1.107   4.967
 8902SOL     OW27604   1.899   6.583   0.590
 8902SOL    HW127605   1.906   6.677   0.558
 8902SOL    HW227606   1.901   6.521   0.511
 8903SOL     OW27607   0.506   1.575   4.763
 8903SOL    HW127608   0.545   1.580   4.671
 8903SOL    HW227609   0.546   1.646   4.821
 8904SOL     OW27610   6.406   0.156   4.362
 8904SOL    HW127611   6.483   0.100   4.332
 8904SOL    HW227612   6.437   0.251   4.376
 8905SOL     OW27613   1.865   4.259   3.665
 8905SOL    HW127614   1.815   4.219   3.588
 8905SOL    HW227615   1.924   4.189   3.705
 8906SOL     OW27616   0.545   6.585   6.592
 8906SOL    HW127617   0.555   6.503   6.649
 8906SOL    HW227618   0.504   6.658   6.646
 8907SOL     OW27619   2.720   2.731   5.408
 8907SOL    HW127620   2.728   2.671   5.488
 8907SOL    HW227621   2.626   2.730   5.374
 8908SOL     OW27622   1.303   4.821   0.065
 8908SOL    HW127623   1.353   4.822   6.998
 8908SOL    HW227624   1.236   4.896   0.066
 8909SOL     OW27625   2.247   0.961   6.138
 8909SOL    HW127626   2.327   0.977   6.079
 8909SOL    HW227627   2.255   0.872   6.182
 8910SOL     OW27628   0.052   2.418   5.499
 8910SOL    HW127629   0.005   2.366   5.570
 8910SOL    HW227630   7.004   2.448   5.431
 8911SOL     OW27631   4.106   2.259   4.886
 8911SOL    HW127632   4.013   2.249   4.850
 8911SOL    HW227633   4.111   2.341   4.943
 8912SOL     OW27634   3.530   3.577   6.405
 8912SOL    HW127635   3.548   3.514   6.480
 8912SOL    HW227636   3.528   3.671   6.440
 8913SOL     OW27637   4.805   5.162   5.893
 8913SOL    HW127638   4.797   5.253   5.933
 8913SOL    HW227639   4.895   5.152   5.851
 8914SOL     OW27640   4.555   0.388   4.640
 8914SOL    HW127641   4.461   0.394   4.673
 8914SOL    HW227642   4.611   0.459   4.683
 8915SOL     OW27643   0.547   2.664   4.076
 8915SOL    HW127644   0.624   2.606   4.051
 8915SOL    HW227645   0.568   2.712   4.162
 8916SOL     OW27646   6.727   2.635   0.452
 8916SOL    HW127647   6.743   2.645   0.354
 8916SOL    HW227648   6.808   2.596   0.495
 8917SOL     OW27649   6.570   3.509   6.942
 8917SOL    HW127650   6.617   3.527   0.009
 8917SOL    HW227651   6.573   3.410   6.923
 8918SOL     OW27652   6.222   4.176   0.976
 8918SOL    HW127653   6.287   4.100   0.967
 8918SOL    HW227654   6.165   4.181   0.895
 8919SOL     OW27655   3.887   4.215   0.730
 8919SOL    HW127656   3.961   4.184   0.790
 8919SOL    HW227657   3.866   4.311   0.751
 8920SOL     OW27658   6.995   1.066   6.987
 8920SOL    HW127659   6.898   1.069   7.010
 8920SOL    HW227660   0.020   1.151   7.015
 8921SOL     OW27661   2.094   2.128   2.277
 8921SOL    HW127662   2.140   2.076   2.350
 8921SOL    HW227663   2.002   2.092   2.264
 8922SOL     OW27664   4.439   4.769   1.343
 8922SOL    HW127665   4.492   4.707   1.286
 8922SOL    HW227666   4.347   4.731   1.357
 8923SOL     OW27667   1.720   2.483   6.537
 8923SOL    HW127668   1.628   2.483   6.576
 8923SOL    HW227669   1.758   2.390   6.541
 8924SOL     OW27670   3.680   5.324   5.113
 8924SOL    HW127671   3.678   5.397   5.182
 8924SOL    HW227672   3.638   5.241   5.151
 8925SOL     OW27673   1.054   2.013   3.148
 8925SOL    HW127674   1.116   1.954   3.097
 8925SOL    HW227675   1.105   2.058   3.222
 8926SOL     OW27676   6.515   3.052   5.638
 8926SOL    HW127677   6.502   3.146   5.604
 8926SOL    HW227678   6.494   2.987   5.565
 8927SOL     OW27679   0.096   0.931   4.692
 8927SOL    HW127680   0.181   0.903   4.737
 8927SOL    HW227681   0.107   1.022   4.653
 8928SOL     OW27682   0.854   6.883   6.203
 8928SOL    HW127683   0.756   6.895   6.217
 8928SOL    HW227684   0.869   6.814   6.132
 8929SOL     OW27685   5.759   2.298   4.221
 8929SOL    HW127686   5.705   2.226   4.264
 8929SOL    HW227687   5.854   2.266   4.209
 8930SOL     OW27688   1.844   3.272   4.197
 8930SOL    HW127689   1.854   3.286   4.098
 8930SOL    HW227690   1.929   3.297   4.243
 8931SOL     OW27691   2.284   3.502   0.619
 8931SOL    HW127692   2.207   3.447   0.652
 8931SOL    HW227693   2.264   3.536   0.528
 8932SOL     OW27694   6.474   1.288   1.263
 8932SOL    HW127695   6.496   1.312   1.357
 8932SOL    HW227696   6.450   1.371   1.212
 8933SOL     OW27697   2.307   2.779   6.293
 8933SOL    HW127698   2.252   2.757   6.213
 8933SOL    HW227699   2.392   2.725   6.291
 8934SOL     OW27700   3.222   4.883   4.545
 8934SOL    HW127701   3.322   4.883   4.544
 8934SOL    HW227702   3.189   4.925   4.630
 8935SOL     OW27703   0.015   4.288   0.440
 8935SOL    HW127704   0.005   4.196   0.479
 8935SOL    HW227705   0.109   4.299   0.405
 8936SOL     OW27706   1.521   3.272   2.993
 8936SOL    HW127707   1.575   3.193   3.021
 8936SOL    HW227708   1.436   3.242   2.951
 8937SOL     OW27709   0.222   0.174   5.120
 8937SOL    HW127710   0.242   0.221   5.206
 8937SOL    HW227711   0.137   0.208   5.082
 8938SOL     OW27712   0.217   6.967   0.846
 8938SOL    HW127713   0.124   6.956   0.879
 8938SOL    HW227714   0.271   6.886   0.869
 8939SOL     OW27715   6.148   4.237   4.238
 8939SOL    HW127716   6.178   4.296   4.312
 8939SOL    HW227717   6.208   4.251   4.158
 8940SOL     OW27718   6.492   0.873   2.140
 8940SOL    HW127719   6.568   0.821   2.099
 8940SOL    HW227720   6.406   0.827   2.118
 8941SOL     OW27721   5.593   2.725   4.570
 8941SOL    HW127722   5.637   2.695   4.655
 8941SOL    HW227723   5.624   2.667   4.494
 8942SOL     OW27724   6.390   5.469   5.793
 8942SOL    HW127725   6.399   5.551   5.851
 8942SOL    HW227726   6.364   5.497   5.701
 8943SOL     OW27727   3.821   5.318   0.404
 8943SOL    HW127728   3.795   5.293   0.310
 8943SOL    HW227729   3.748   5.292   0.467
 8944SOL     OW27730   5.200   5.487   5.237
 8944SOL    HW127731   5.129   5.483   5.307
 8944SOL    HW227732   5.170   5.547   5.162
 8945SOL     OW27733   1.270   1.108   3.255
 8945SOL    HW127734   1.301   1.070   3.342
 8945SOL    HW227735   1.251   1.033   3.191
 8946SOL     OW27736   2.687   1.602   4.609
 8946SOL    HW127737   2.727   1.536   4.673
 8946SOL    HW227738   2.627   1.555   4.545
 8947SOL     OW27739   2.604   3.242   5.797
 8947SOL    HW127740   2.580   3.213   5.705
 8947SOL    HW227741   2.662   3.173   5.840
 8948SOL     OW27742   6.414   6.075   4.404
 8948SOL    HW127743   6.346   6.011   4.368
 8948SOL    HW227744   6.402   6.165   4.361
 8949SOL     OW27745   3.332   5.594   0.437
 8949SOL    HW127746   3.368   5.598   0.344
 8949SOL    HW227747   3.407   5.587   0.502
 8950SOL     OW27748   4.475   4.195   6.664
 8950SOL    HW127749   4.518   4.199   6.574
 8950SOL    HW227750   4.475   4.286   6.705
 8951SOL     OW27751   1.643   0.931   4.602
 8951SOL    HW127752   1.555   0.935   4.556
 8951SOL    HW227753   1.716   0.950   4.537
 8952SOL     OW27754   0.831   6.092   2.112
 8952SOL    HW127755   0.816   6.063   2.207
 8952SOL    HW227756   0.904   6.037   2.071
 8953SOL     OW27757   1.443   3.650   0.287
 8953SOL    HW127758   1.357   3.667   0.336
 8953SOL    HW227759   1.491   3.737   0.273
 8954SOL     OW27760   6.601   6.868   4.579
 8954SOL    HW127761   6.587   6.952   4.631
 8954SOL    HW227762   6.621   6.793   4.641
 8955SOL     OW27763   6.917   5.471   2.420
 8955SOL    HW127764   6.986   5.537   2.391
 8955SOL    HW227765   6.961   5.382   2.435
 8956SOL     OW27766   2.080   1.436   6.569
 8956SOL    HW127767   2.178   1.448   6.584
 8956SOL    HW227768   2.060   1.340   6.550
 8957SOL     OW27769   1.654   4.265   1.280
 8957SOL    HW127770   1.746   4.293   1.307
 8957SOL    HW227771   1.621   4.322   1.205
 8958SOL     OW27772   0.619   1.807   4.869
 8958SOL    HW127773   0.561   1.888   4.862
 8958SOL    HW227774   0.705   1.832   4.914
 8959SOL     OW27775   1.592   4.313   2.003
 8959SOL    HW127776   1.683   4.308   1.961
 8959SOL    HW227777   1.524   4.330   1.932
 8960SOL     OW27778   4.169   5.540   3.147
 8960SOL    HW127779   4.070   5.553   3.140
 8960SOL    HW227780   4.189   5.476   3.220
 8961SOL     OW27781   3.283   0.811   3.664
 8961SOL    HW127782   3.314   0.791   3.571
 8961SOL    HW227783   3.214   0.744   3.691
 8962SOL     OW27784   6.419   5.521   2.896
 8962SOL    HW127785   6.320   5.520   2.908
 8962SOL    HW227786   6.457   5.607   2.929
 8963SOL     OW27787   4.184   6.804   5.126
 8963SOL    HW127788   4.086   6.799   5.110
 8963SOL    HW227789   4.200   6.838   5.219
 8964SOL     OW27790   5.130   3.519   3.057
 8964SOL    HW127791   5.047   3.515   3.112
 8964SOL    HW227792   5.209   3.531   3.118
 8965SOL     OW27793   2.537   5.307   0.816
 8965SOL    HW127794   2.605   5.360   0.867
 8965SOL    HW227795   2.445   5.332   0.846
 8966SOL     OW27796   6.683   4.110   0.648
 8966SOL    HW127797   6.706   4.013   0.652
 8966SOL    HW227798   6.685   4.140   0.552
 8967SOL     OW27799   3.820   0.401   0.924
 8967SOL    HW127800   3.802   0.482   0.980
 8967SOL    HW227801   3.818   0.320   0.982
 8968SOL     OW27802   4.800   5.577   2.843
 8968SOL    HW127803   4.723   5.629   2.879
 8968SOL    HW227804   4.841   5.523   2.916
 8969SOL     OW27805   6.330   0.801   4.141
 8969SOL    HW127806   6.424   0.835   4.149
 8969SOL    HW227807   6.280   0.821   4.225
 8970SOL     OW27808   2.768   3.039   6.751
 8970SOL    HW127809   2.796   3.107   6.683
 8970SOL    HW227810   2.822   3.051   6.834
 8971SOL     OW27811   6.173   4.950   1.836
 8971SOL    HW127812   6.241   4.987   1.774
 8971SOL    HW227813   6.081   4.973   1.802
 8972SOL     OW27814   5.269   3.188   6.768
 8972SOL    HW127815   5.357   3.141   6.756
 8972SOL    HW227816   5.195   3.129   6.734
 8973SOL     OW27817   0.634   3.543   3.156
 8973SOL    HW127818   0.701   3.506   3.221
 8973SOL    HW227819   0.542   3.532   3.194
 8974SOL     OW27820   1.185   4.665   4.691
 8974SOL    HW127821   1.236   4.676   4.777
 8974SOL    HW227822   1.107   4.728   4.690
 8975SOL     OW27823   1.503   6.057   6.172
 8975SOL    HW127824   1.539   6.040   6.080
 8975SOL    HW227825   1.514   5.975   6.228
 8976SOL     OW27826   6.910   5.638   6.137
 8976SOL    HW127827   6.811   5.647   6.127
 8976SOL    HW227828   6.956   5.699   6.073
 8977SOL     OW27829   6.994   3.366   6.714
 8977SOL    HW127830   0.049   3.384   6.780
 8977SOL    HW227831   0.014   3.330   6.629
 8978SOL     OW27832   5.207   6.474   3.830
 8978SOL    HW127833   5.254   6.397   3.872
 8978SOL    HW227834   5.210   6.553   3.891
 8979SOL     OW27835   1.230   3.984   4.712
 8979SOL    HW127836   1.263   4.005   4.620
 8979SOL    HW227837   1.145   3.931   4.706
 8980SOL     OW27838   4.060   2.991   5.382
 8980SOL    HW127839   4.007   3.065   5.423
 8980SOL    HW227840   3.998   2.917   5.355
 8981SOL     OW27841   4.222   0.983   6.066
 8981SOL    HW127842   4.184   1.056   6.010
 8981SOL    HW227843   4.275   0.920   6.008
 8982SOL     OW27844   1.404   2.187   1.807
 8982SOL    HW127845   1.424   2.160   1.901
 8982SOL    HW227846   1.314   2.152   1.780
 8983SOL     OW27847   1.244   5.549   6.217
 8983SOL    HW127848   1.166   5.486   6.211
 8983SOL    HW227849   1.327   5.501   6.187
 8984SOL     OW27850   6.709   6.978   3.826
 8984SOL    HW127851   6.653   6.898   3.845
 8984SOL    HW227852   6.789   6.951   3.771
 8985SOL     OW27853   2.219   1.805   0.815
 8985SOL    HW127854   2.261   1.835   0.729
 8985SOL    HW227855   2.248   1.711   0.835
 8986SOL     OW27856   3.962   5.404   1.723
 8986SOL    HW127857   4.005   5.430   1.810
 8986SOL    HW227858   3.866   5.433   1.724
 8987SOL     OW27859   5.210   0.166   0.602
 8987SOL    HW127860   5.295   0.116   0.586
 8987SOL    HW227861   5.142   0.138   0.534
 8988SOL     OW27862   1.554   3.927   6.503
 8988SOL    HW127863   1.534   3.946   6.599
 8988SOL    HW227864   1.507   3.844   6.475
 8989SOL     OW27865   5.558   4.405   2.370
 8989SOL    HW127866   5.627   4.334   2.382
 8989SOL    HW227867   5.597   4.481   2.318
 8990SOL     OW27868   2.111   5.850   2.249
 8990SOL    HW127869   2.199   5.862   2.203
 8990SOL    HW227870   2.118   5.884   2.343
 8991SOL     OW27871   2.255   2.332   0.275
 8991SOL    HW127872   2.259   2.233   0.270
 8991SOL    HW227873   2.186   2.359   0.342
 8992SOL     OW27874   6.290   2.324   6.883
 8992SOL    HW127875   6.368   2.349   6.940
 8992SOL    HW227876   6.249   2.239   6.917
 8993SOL     OW27877   4.584   2.297   2.338
 8993SOL    HW127878   4.593   2.238   2.258
 8993SOL    HW227879   4.615   2.389   2.314
 8994SOL     OW27880   1.325   5.342   4.773
 8994SOL    HW127881   1.302   5.245   4.769
 8994SOL    HW227882   1.321   5.373   4.867
 8995SOL     OW27883   0.955   2.643   6.597
 8995SOL    HW127884   0.871   2.653   6.650
 8995SOL    HW227885   1.034   2.660   6.656
 8996SOL     OW27886   6.632   5.081   1.467
 8996SOL    HW127887   6.597   5.044   1.553
 8996SOL    HW227888   6.691   5.160   1.486
 8997SOL     OW27889   4.428   1.213   6.402
 8997SOL    HW127890   4.352   1.151   6.420
 8997SOL    HW227891   4.400   1.307   6.422
 8998SOL     OW27892   6.396   3.503   4.934
 8998SOL    HW127893   6.332   3.581   4.931
 8998SOL    HW227894   6.490   3.537   4.930
 8999SOL     OW27895   5.215   6.616   6.883
 8999SOL    HW127896   5.264   6.661   6.958
 8999SOL    HW227897   5.129   6.663   6.866
 9000SOL     OW27898   2.503   4.281   0.375
 9000SOL    HW127899   2.540   4.268   0.283
 9000SOL    HW227900   2.577   4.304   0.437
 9001SOL     OW27901   1.160   5.600   2.598
 9001SOL    HW127902   1.253   5.621   2.628
 9001SOL    HW227903   1.104   5.683   2.600
 9002SOL     OW27904   6.716   5.106   4.951
 9002SOL    HW127905   6.759   5.016   4.954
 9002SOL    HW227906   6.663   5.122   5.034
 9003SOL     OW27907   5.307   2.953   1.673
 9003SOL    HW127908   5.288   2.913   1.762
 9003SOL    HW227909   5.318   2.881   1.605
 9004SOL     OW27910   4.837   6.489   0.817
 9004SOL    HW127911   4.916   6.547   0.838
 9004SOL    HW227912   4.773   6.491   0.894
 9005SOL     OW27913   4.953   2.513   4.849
 9005SOL    HW127914   4.941   2.610   4.870
 9005SOL    HW227915   5.033   2.478   4.898
 9006SOL     OW27916   3.099   6.430   0.771
 9006SOL    HW127917   3.128   6.479   0.689
 9006SOL    HW227918   3.010   6.387   0.755
 9007SOL     OW27919   4.532   0.444   4.222
 9007SOL    HW127920   4.445   0.487   4.200
 9007SOL    HW227921   4.573   0.490   4.301
 9008SOL     OW27922   0.158   5.836   3.407
 9008SOL    HW127923   0.126   5.797   3.493
 9008SOL    HW227924   0.255   5.858   3.414
 9009SOL     OW27925   2.411   1.483   0.214
 9009SOL    HW127926   2.443   1.423   0.287
 9009SOL    HW227927   2.452   1.573   0.224
 9010SOL     OW27928   1.138   0.030   4.036
 9010SOL    HW127929   1.234   0.035   4.006
 9010SOL    HW227930   1.096   6.966   4.000
 9011SOL     OW27931   4.289   2.581   1.761
 9011SOL    HW127932   4.275   2.495   1.710
 9011SOL    HW227933   4.350   2.641   1.709
 9012SOL     OW27934   3.087   4.405   1.415
 9012SOL    HW127935   3.096   4.305   1.420
 9012SOL    HW227936   3.146   4.440   1.342
 9013SOL     OW27937   6.920   6.554   4.773
 9013SOL    HW127938   6.918   6.599   4.684
 9013SOL    HW227939   6.998   6.492   4.778
 9014SOL     OW27940   0.323   1.461   0.262
 9014SOL    HW127941   0.384   1.393   0.222
 9014SOL    HW227942   0.363   1.552   0.251
 9015SOL     OW27943   5.689   1.636   1.418
 9015SOL    HW127944   5.608   1.673   1.373
 9015SOL    HW227945   5.677   1.641   1.517
 9016SOL     OW27946   0.893   6.762   6.562
 9016SOL    HW127947   0.964   6.741   6.495
 9016SOL    HW227948   0.935   6.801   6.644
 9017SOL     OW27949   4.394   2.032   1.968
 9017SOL    HW127950   4.477   2.051   1.915
 9017SOL    HW227951   4.314   2.045   1.910
 9018SOL     OW27952   4.193   1.796   6.456
 9018SOL    HW127953   4.102   1.779   6.493
 9018SOL    HW227954   4.261   1.760   6.519
 9019SOL     OW27955   0.964   0.923   1.977
 9019SOL    HW127956   0.870   0.900   1.954
 9019SOL    HW227957   0.975   1.022   1.979
 9020SOL     OW27958   0.899   3.515   1.381
 9020SOL    HW127959   0.844   3.480   1.458
 9020SOL    HW227960   0.841   3.525   1.301
 9021SOL     OW27961   6.924   0.150   3.927
 9021SOL    HW127962   6.897   0.064   3.882
 9021SOL    HW227963   6.866   0.224   3.895
 9022SOL     OW27964   2.741   1.779   0.345
 9022SOL    HW127965   2.835   1.771   0.312
 9022SOL    HW227966   2.740   1.835   0.428
 9023SOL     OW27967   3.362   3.727   2.596
 9023SOL    HW127968   3.453   3.689   2.615
 9023SOL    HW227969   3.305   3.656   2.553
 9024SOL     OW27970   0.314   4.992   4.744
 9024SOL    HW127971   0.325   5.064   4.813
 9024SOL    HW227972   0.365   4.910   4.773
 9025SOL     OW27973   0.900   5.469   0.186
 9025SOL    HW127974   0.981   5.414   0.165
 9025SOL    HW227975   0.844   5.479   0.104
 9026SOL     OW27976   4.030   3.108   1.065
 9026SOL    HW127977   3.943   3.067   1.094
 9026SOL    HW227978   4.072   3.052   0.994
 9027SOL     OW27979   1.225   2.055   4.145
 9027SOL    HW127980   1.314   2.063   4.189
 9027SOL    HW227981   1.157   2.025   4.211
 9028SOL     OW27982   2.231   3.663   5.784
 9028SOL    HW127983   2.269   3.708   5.865
 9028SOL    HW227984   2.185   3.731   5.727
 9029SOL     OW27985   2.863   5.815   4.629
 9029SOL    HW127986   2.861   5.817   4.529
 9029SOL    HW227987   2.770   5.826   4.665
 9030SOL     OW27988   2.320   2.166   3.448
 9030SOL    HW127989   2.341   2.069   3.464
 9030SOL    HW227990   2.327   2.216   3.534
 9031SOL     OW27991   4.821   5.921   4.167
 9031SOL    HW127992   4.858   5.919   4.075
 9031SOL    HW227993   4.753   5.847   4.178
 9032SOL     OW27994   3.730   3.144   0.372
 9032SOL    HW127995   3.807   3.208   0.366
 9032SOL    HW227996   3.669   3.173   0.445
 9033SOL     OW27997   1.252   5.065   4.211
 9033SOL    HW127998   1.324   5.090   4.276
 9033SOL    HW227999   1.206   5.148   4.178
 9034SOL     OW28000   3.033   0.582   5.586
 9034SOL    HW128001   2.960   0.648   5.606
 9034SOL    HW228002   3.039   0.569   5.487
 9035SOL     OW28003   1.744   4.500   6.067
 9035SOL    HW128004   1.760   4.454   5.979
 9035SOL    HW228005   1.767   4.439   6.142
 9036SOL     OW28006   2.404   0.959   5.427
 9036SOL    HW128007   2.424   1.015   5.507
 9036SOL    HW228008   2.419   1.013   5.344
 9037SOL     OW28009   1.490   3.736   5.724
 9037SOL    HW128010   1.420   3.807   5.738
 9037SOL    HW228011   1.578   3.770   5.756
 9038SOL     OW28012   4.766   6.149   6.118
 9038SOL    HW128013   4.728   6.133   6.209
 9038SOL    HW228014   4.693   6.140   6.049
 9039SOL     OW28015   2.877   5.009   4.866
 9039SOL    HW128016   2.845   4.917   4.843
 9039SOL    HW228017   2.799   5.067   4.888
 9040SOL     OW28018   3.247   2.068   2.967
 9040SOL    HW128019   3.321   2.100   2.908
 9040SOL    HW228020   3.160   2.108   2.937
 9041SOL     OW28021   1.626   2.302   2.118
 9041SOL    HW128022   1.535   2.262   2.126
 9041SOL    HW228023   1.631   2.384   2.175
 9042SOL     OW28024   2.647   0.145   4.217
 9042SOL    HW128025   2.684   0.224   4.168
 9042SOL    HW228026   2.591   0.090   4.154
 9043SOL     OW28027   2.146   1.539   6.889
 9043SOL    HW128028   2.148   1.485   6.974
 9043SOL    HW228029   2.051   1.563   6.867
 9044SOL     OW28030   5.416   0.975   1.646
 9044SOL    HW128031   5.336   0.918   1.661
 9044SOL    HW228032   5.399   1.066   1.683
 9045SOL     OW28033   2.779   0.711   2.471
 9045SOL    HW128034   2.873   0.684   2.450
 9045SOL    HW228035   2.757   0.796   2.422
 9046SOL     OW28036   3.651   4.080   4.090
 9046SOL    HW128037   3.672   4.073   3.992
 9046SOL    HW228038   3.552   4.071   4.103
 9047SOL     OW28039   1.193   3.588   5.585
 9047SOL    HW128040   1.264   3.547   5.641
 9047SOL    HW228041   1.211   3.569   5.488
 9048SOL     OW28042   5.940   1.908   6.080
 9048SOL    HW128043   5.972   1.833   6.137
 9048SOL    HW228044   5.853   1.943   6.116
 9049SOL     OW28045   3.635   0.051   6.108
 9049SOL    HW128046   3.632   0.102   6.022
 9049SOL    HW228047   3.549   0.002   6.120
 9050SOL     OW28048   0.208   3.401   6.926
 9050SOL    HW128049   0.239   3.318   6.880
 9050SOL    HW228050   0.259   3.413   7.011
 9051SOL     OW28051   4.483   6.465   0.788
 9051SOL    HW128052   4.472   6.368   0.810
 9051SOL    HW228053   4.511   6.514   0.870
 9052SOL     OW28054   1.848   2.430   3.829
 9052SOL    HW128055   1.898   2.377   3.896
 9052SOL    HW228056   1.814   2.514   3.871
 9053SOL     OW28057   2.047   1.743   2.741
 9053SOL    HW128058   2.093   1.693   2.668
 9053SOL    HW228059   1.948   1.735   2.729
 9054SOL     OW28060   1.361   6.868   1.928
 9054SOL    HW128061   1.293   6.818   1.982
 9054SOL    HW228062   1.352   6.844   1.831
 9055SOL     OW28063   5.897   3.135   3.859
 9055SOL    HW128064   5.945   3.207   3.910
 9055SOL    HW228065   5.957   3.055   3.851
 9056SOL     OW28066   0.675   1.260   1.981
 9056SOL    HW128067   0.616   1.331   2.019
 9056SOL    HW228068   0.646   1.171   2.014
 9057SOL     OW28069   5.546   4.981   5.732
 9057SOL    HW128070   5.498   5.063   5.761
 9057SOL    HW228071   5.609   4.952   5.803
 9058SOL     OW28072   2.619   1.786   3.176
 9058SOL    HW128073   2.597   1.788   3.079
 9058SOL    HW228074   2.692   1.852   3.195
 9059SOL     OW28075   1.303   2.178   5.219
 9059SOL    HW128076   1.219   2.231   5.233
 9059SOL    HW228077   1.282   2.097   5.164
 9060SOL     OW28078   5.985   3.236   2.708
 9060SOL    HW128079   6.053   3.175   2.749
 9060SOL    HW228080   5.946   3.193   2.626
 9061SOL     OW28081   2.916   5.639   1.595
 9061SOL    HW128082   2.884   5.715   1.537
 9061SOL    HW228083   2.860   5.558   1.578
 9062SOL     OW28084   1.881   6.098   1.709
 9062SOL    HW128085   1.823   6.167   1.666
 9062SOL    HW228086   1.977   6.119   1.690
 9063SOL     OW28087   2.563   0.356   2.975
 9063SOL    HW128088   2.630   0.332   3.046
 9063SOL    HW228089   2.485   0.403   3.017
 9064SOL     OW28090   6.387   2.396   5.782
 9064SOL    HW128091   6.485   2.384   5.769
 9064SOL    HW228092   6.352   2.467   5.721
 9065SOL     OW28093   3.220   6.695   6.065
 9065SOL    HW128094   3.243   6.677   6.161
 9065SOL    HW228095   3.137   6.645   6.041
 9066SOL     OW28096   5.359   6.632   0.479
 9066SOL    HW128097   5.362   6.657   0.382
 9066SOL    HW228098   5.344   6.533   0.488
 9067SOL     OW28099   5.959   0.453   4.576
 9067SOL    HW128100   5.964   0.398   4.660
 9067SOL    HW228101   5.875   0.431   4.527
 9068SOL     OW28102   2.803   0.083   5.290
 9068SOL    HW128103   2.858   0.163   5.312
 9068SOL    HW228104   2.726   0.110   5.232
 9069SOL     OW28105   2.249   2.522   1.748
 9069SOL    HW128106   2.173   2.563   1.798
 9069SOL    HW228107   2.285   2.445   1.799
 9070SOL     OW28108   1.537   4.189   5.385
 9070SOL    HW128109   1.464   4.167   5.450
 9070SOL    HW228110   1.565   4.107   5.336
 9071SOL     OW28111   5.601   0.484   1.241
 9071SOL    HW128112   5.691   0.443   1.222
 9071SOL    HW228113   5.597   0.575   1.200
 9072SOL     OW28114   6.730   1.062   2.113
 9072SOL    HW128115   6.648   1.017   2.149
 9072SOL    HW228116   6.744   1.149   2.162
 9073SOL     OW28117   3.326   6.505   1.481
 9073SOL    HW128118   3.421   6.496   1.512
 9073SOL    HW228119   3.286   6.414   1.470
 9074SOL     OW28120   2.284   1.548   1.717
 9074SOL    HW128121   2.377   1.569   1.747
 9074SOL    HW228122   2.247   1.474   1.773
 9075SOL     OW28123   1.477   1.152   3.014
 9075SOL    HW128124   1.423   1.178   3.094
 9075SOL    HW228125   1.485   1.230   2.953
 9076SOL     OW28126   5.492   2.055   4.697
 9076SOL    HW128127   5.509   1.968   4.745
 9076SOL    HW228128   5.580   2.097   4.673
 9077SOL     OW28129   5.765   6.864   6.997
 9077SOL    HW128130   5.811   6.812   0.049
 9077SOL    HW228131   5.821   6.942   6.970
 9078SOL     OW28132   4.547   3.659   6.302
 9078SOL    HW128133   4.588   3.579   6.344
 9078SOL    HW228134   4.450   3.662   6.323
 9079SOL     OW28135   3.197   6.801   3.896
 9079SOL    HW128136   3.118   6.862   3.901
 9079SOL    HW228137   3.189   6.742   3.815
 9080SOL     OW28138   5.054   2.916   6.673
 9080SOL    HW128139   5.017   2.997   6.718
 9080SOL    HW228140   4.979   2.855   6.647
 9081SOL     OW28141   4.255   5.982   2.843
 9081SOL    HW128142   4.234   5.914   2.774
 9081SOL    HW228143   4.292   5.937   2.925
 9082SOL     OW28144   2.437   0.506   5.636
 9082SOL    HW128145   2.402   0.587   5.589
 9082SOL    HW228146   2.462   0.436   5.569
 9083SOL     OW28147   3.151   5.726   6.053
 9083SOL    HW128148   3.251   5.728   6.052
 9083SOL    HW228149   3.117   5.734   5.960
 9084SOL     OW28150   3.194   3.901   5.433
 9084SOL    HW128151   3.274   3.905   5.373
 9084SOL    HW228152   3.161   3.994   5.451
 9085SOL     OW28153   2.547   4.762   1.366
 9085SOL    HW128154   2.645   4.756   1.389
 9085SOL    HW228155   2.501   4.821   1.432
 9086SOL     OW28156   1.161   4.939   0.425
 9086SOL    HW128157   1.087   4.926   0.359
 9086SOL    HW228158   1.213   4.854   0.434
 9087SOL     OW28159   4.925   2.883   1.862
 9087SOL    HW128160   4.852   2.918   1.921
 9087SOL    HW228161   4.908   2.913   1.768
 9088SOL     OW28162   5.515   6.310   0.434
 9088SOL    HW128163   5.503   6.243   0.360
 9088SOL    HW228164   5.601   6.359   0.420
 9089SOL     OW28165   5.495   6.162   5.811
 9089SOL    HW128166   5.509   6.071   5.851
 9089SOL    HW228167   5.568   6.181   5.745
 9090SOL     OW28168   6.776   0.491   3.462
 9090SOL    HW128169   6.826   0.557   3.518
 9090SOL    HW228170   6.681   0.522   3.452
 9091SOL     OW28171   3.064   4.617   0.576
 9091SOL    HW128172   3.156   4.606   0.612
 9091SOL    HW228173   3.033   4.532   0.535
 9092SOL     OW28174   1.052   1.089   0.842
 9092SOL    HW128175   0.989   1.131   0.776
 9092SOL    HW228176   1.128   1.046   0.794
 9093SOL     OW28177   1.216   6.600   5.994
 9093SOL    HW128178   1.309   6.578   6.023
 9093SOL    HW228179   1.152   6.579   6.068
 9094SOL     OW28180   6.375   4.930   2.832
 9094SOL    HW128181   6.365   4.854   2.896
 9094SOL    HW228182   6.307   4.921   2.760
 9095SOL     OW28183   5.194   4.515   5.749
 9095SOL    HW128184   5.200   4.614   5.741
 9095SOL    HW228185   5.279   4.473   5.719
 9096SOL     OW28186   6.052   4.159   2.398
 9096SOL    HW128187   6.099   4.169   2.486
 9096SOL    HW228188   5.954   4.145   2.414
 9097SOL     OW28189   1.362   1.506   0.918
 9097SOL    HW128190   1.276   1.480   0.874
 9097SOL    HW228191   1.438   1.486   0.856
 9098SOL     OW28192   3.517   1.661   5.173
 9098SOL    HW128193   3.446   1.596   5.202
 9098SOL    HW228194   3.473   1.741   5.132
 9099SOL     OW28195   3.148   2.317   5.668
 9099SOL    HW128196   3.068   2.372   5.645
 9099SOL    HW228197   3.120   2.223   5.685
 9100SOL     OW28198   0.301   3.390   3.522
 9100SOL    HW128199   0.364   3.338   3.580
 9100SOL    HW228200   0.220   3.334   3.503
 9101SOL     OW28201   2.145   2.546   2.811
 9101SOL    HW128202   2.145   2.643   2.787
 9101SOL    HW228203   2.185   2.534   2.902
 9102SOL     OW28204   2.876   6.882   1.952
 9102SOL    HW128205   2.844   6.869   1.858
 9102SOL    HW228206   2.827   6.820   2.013
 9103SOL     OW28207   6.766   3.253   6.624
 9103SOL    HW128208   6.785   3.155   6.635
 9103SOL    HW228209   6.836   3.306   6.671
 9104SOL     OW28210   0.439   6.261   2.492
 9104SOL    HW128211   0.476   6.169   2.505
 9104SOL    HW228212   0.455   6.290   2.397
 9105SOL     OW28213   1.144   1.612   6.051
 9105SOL    HW128214   1.179   1.592   6.142
 9105SOL    HW228215   1.148   1.710   6.035
 9106SOL     OW28216   0.212   3.106   1.229
 9106SOL    HW128217   0.204   3.030   1.164
 9106SOL    HW228218   0.140   3.100   1.297
 9107SOL     OW28219   3.125   0.680   6.645
 9107SOL    HW128220   3.142   0.643   6.553
 9107SOL    HW228221   3.193   0.643   6.708
 9108SOL     OW28222   5.260   4.646   5.359
 9108SOL    HW128223   5.176   4.640   5.305
 9108SOL    HW228224   5.333   4.595   5.313
 9109SOL     OW28225   6.541   3.376   3.482
 9109SOL    HW128226   6.587   3.400   3.396
 9109SOL    HW228227   6.544   3.277   3.495
 9110SOL     OW28228   1.859   4.977   4.381
 9110SOL    HW128229   1.818   4.904   4.436
 9110SOL    HW228230   1.918   4.936   4.311
 9111SOL     OW28231   5.669   2.177   0.308
 9111SOL    HW128232   5.589   2.190   0.367
 9111SOL    HW228233   5.726   2.259   0.310
 9112SOL     OW28234   0.949   5.244   3.034
 9112SOL    HW128235   0.902   5.237   2.946
 9112SOL    HW228236   0.888   5.286   3.101
 9113SOL     OW28237   4.728   2.603   2.860
 9113SOL    HW128238   4.663   2.590   2.785
 9113SOL    HW228239   4.819   2.618   2.822
 9114SOL     OW28240   0.442   4.944   3.361
 9114SOL    HW128241   0.498   4.923   3.281
 9114SOL    HW228242   0.484   4.905   3.443
 9115SOL     OW28243   6.586   6.210   4.554
 9115SOL    HW128244   6.518   6.157   4.503
 9115SOL    HW228245   6.546   6.242   4.640
 9116SOL     OW28246   6.953   6.958   2.743
 9116SOL    HW128247   0.014   6.985   2.796
 9116SOL    HW228248   6.960   6.861   2.720
 9117SOL     OW28249   4.297   2.888   6.922
 9117SOL    HW128250   4.346   2.950   6.861
 9117SOL    HW228251   4.217   2.935   6.960
 9118SOL     OW28252   0.282   3.039   0.587
 9118SOL    HW128253   0.331   3.105   0.530
 9118SOL    HW228254   0.322   3.038   0.679
 9119SOL     OW28255   4.297   0.721   2.561
 9119SOL    HW128256   4.209   0.725   2.609
 9119SOL    HW228257   4.357   0.794   2.595
 9120SOL     OW28258   6.611   1.499   5.430
 9120SOL    HW128259   6.541   1.538   5.490
 9120SOL    HW228260   6.596   1.401   5.420
 9121SOL     OW28261   3.961   6.886   5.284
 9121SOL    HW128262   4.036   6.917   5.342
 9121SOL    HW228263   3.935   6.960   5.221
 9122SOL     OW28264   2.320   4.679   2.185
 9122SOL    HW128265   2.307   4.668   2.087
 9122SOL    HW228266   2.414   4.709   2.204
 9123SOL     OW28267   1.907   1.012   4.516
 9123SOL    HW128268   1.963   1.075   4.570
 9123SOL    HW228269   1.896   1.048   4.424
 9124SOL     OW28270   4.353   5.204   0.298
 9124SOL    HW128271   4.406   5.207   0.213
 9124SOL    HW228272   4.264   5.162   0.279
 9125SOL     OW28273   4.160   4.143   0.810
 9125SOL    HW128274   4.128   4.052   0.838
 9125SOL    HW228275   4.157   4.150   0.710
 9126SOL     OW28276   6.279   3.465   1.356
 9126SOL    HW128277   6.377   3.449   1.366
 9126SOL    HW228278   6.236   3.465   1.447
 9127SOL     OW28279   6.360   1.423   5.852
 9127SOL    HW128280   6.407   1.502   5.813
 9127SOL    HW228281   6.382   1.341   5.799
 9128SOL     OW28282   5.672   2.243   5.321
 9128SOL    HW128283   5.661   2.257   5.419
 9128SOL    HW228284   5.744   2.176   5.305
 9129SOL     OW28285   0.157   2.372   0.151
 9129SOL    HW128286   0.141   2.445   0.086
 9129SOL    HW228287   0.079   2.309   0.152
 9130SOL     OW28288   1.523   3.706   6.252
 9130SOL    HW128289   1.454   3.770   6.218
 9130SOL    HW228290   1.546   3.640   6.180
 9131SOL     OW28291   5.562   3.006   6.108
 9131SOL    HW128292   5.533   3.100   6.092
 9131SOL    HW228293   5.653   2.992   6.070
 9132SOL     OW28294   0.535   5.784   4.063
 9132SOL    HW128295   0.528   5.725   4.144
 9132SOL    HW228296   0.628   5.779   4.026
 9133SOL     OW28297   3.714   6.144   1.167
 9133SOL    HW128298   3.775   6.222   1.181
 9133SOL    HW228299   3.692   6.103   1.255
 9134SOL     OW28300   3.632   5.205   1.756
 9134SOL    HW128301   3.542   5.179   1.791
 9134SOL    HW228302   3.621   5.248   1.667
 9135SOL     OW28303   0.156   0.282   1.388
 9135SOL    HW128304   0.143   0.205   1.325
 9135SOL    HW228305   0.226   0.260   1.455
 9136SOL     OW28306   4.491   5.769   6.555
 9136SOL    HW128307   4.446   5.807   6.635
 9136SOL    HW228308   4.522   5.676   6.574
 9137SOL     OW28309   4.085   0.822   6.724
 9137SOL    HW128310   4.058   0.910   6.684
 9137SOL    HW228311   4.151   0.778   6.664
 9138SOL     OW28312   6.902   4.781   6.443
 9138SOL    HW128313   6.947   4.849   6.385
 9138SOL    HW228314   6.911   4.690   6.401
 9139SOL     OW28315   2.150   1.191   2.656
 9139SOL    HW128316   2.221   1.198   2.726
 9139SOL    HW228317   2.109   1.281   2.641
 9140SOL     OW28318   0.039   3.924   2.732
 9140SOL    HW128319   0.026   3.962   2.640
 9140SOL    HW228320   0.120   3.866   2.733
 9141SOL     OW28321   5.597   6.408   1.477
 9141SOL    HW128322   5.543   6.474   1.527
 9141SOL    HW228323   5.633   6.450   1.393
 9142SOL     OW28324   0.669   4.059   1.673
 9142SOL    HW128325   0.573   4.059   1.700
 9142SOL    HW228326   0.726   4.058   1.754
 9143SOL     OW28327   6.490   2.933   0.153
 9143SOL    HW128328   6.476   2.834   0.149
 9143SOL    HW228329   6.545   2.956   0.233
 9144SOL     OW28330   2.590   5.666   4.471
 9144SOL    HW128331   2.595   5.582   4.525
 9144SOL    HW228332   2.512   5.721   4.501
 9145SOL     OW28333   0.593   5.594   6.562
 9145SOL    HW128334   0.519   5.626   6.621
 9145SOL    HW228335   0.673   5.653   6.574
 9146SOL     OW28336   5.445   2.838   3.025
 9146SOL    HW128337   5.532   2.809   2.986
 9146SOL    HW228338   5.377   2.847   2.953
 9147SOL     OW28339   5.976   0.494   5.055
 9147SOL    HW128340   6.043   0.490   5.130
 9147SOL    HW228341   5.983   0.583   5.009
 9148SOL     OW28342   5.244   6.189   2.241
 9148SOL    HW128343   5.261   6.229   2.331
 9148SOL    HW228344   5.330   6.185   2.190
 9149SOL     OW28345   5.133   3.369   2.367
 9149SOL    HW128346   5.067   3.409   2.430
 9149SOL    HW228347   5.226   3.389   2.398
 9150SOL     OW28348   3.248   4.876   1.138
 9150SOL    HW128349   3.241   4.973   1.161
 9150SOL    HW228350   3.187   4.823   1.196
 9151SOL     OW28351   1.509   4.429   3.959
 9151SOL    HW128352   1.589   4.474   3.999
 9151SOL    HW228353   1.540   4.365   3.889
 9152SOL     OW28354   2.307   4.258   4.622
 9152SOL    HW128355   2.257   4.259   4.709
 9152SOL    HW228356   2.301   4.168   4.581
 9153SOL     OW28357   0.384   2.673   6.815
 9153SOL    HW128358   0.410   2.600   6.877
 9153SOL    HW228359   0.441   2.754   6.832
 9154SOL     OW28360   5.198   4.684   4.863
 9154SOL    HW128361   5.280   4.686   4.921
 9154SOL    HW228362   5.189   4.771   4.814
 9155SOL     OW28363   1.805   4.873   2.648
 9155SOL    HW128364   1.840   4.788   2.608
 9155SOL    HW228365   1.775   4.935   2.576
 9156SOL     OW28366   6.707   1.745   1.218
 9156SOL    HW128367   6.780   1.803   1.181
 9156SOL    HW228368   6.653   1.707   1.142
 9157SOL     OW28369   3.101   3.894   6.747
 9157SOL    HW128370   3.191   3.931   6.770
 9157SOL    HW228371   3.030   3.955   6.780
 9158SOL     OW28372   6.432   3.915   4.515
 9158SOL    HW128373   6.475   4.001   4.489
 9158SOL    HW228374   6.497   3.860   4.567
 9159SOL     OW28375   1.701   0.864   3.477
 9159SOL    HW128376   1.615   0.885   3.524
 9159SOL    HW228377   1.703   0.913   3.390
 9160SOL     OW28378   0.947   6.385   5.888
 9160SOL    HW128379   0.904   6.463   5.934
 9160SOL    HW228380   0.877   6.332   5.841
 9161SOL     OW28381   6.112   4.752   3.255
 9161SOL    HW128382   6.013   4.757   3.272
 9161SOL    HW228383   6.137   4.658   3.231
 9162SOL     OW28384   4.327   0.407   2.620
 9162SOL    HW128385   4.364   0.425   2.529
 9162SOL    HW228386   4.290   0.491   2.659
 9163SOL     OW28387   6.811   3.368   3.865
 9163SOL    HW128388   6.799   3.295   3.798
 9163SOL    HW228389   6.737   3.364   3.932
 9164SOL     OW28390   1.971   0.769   6.685
 9164SOL    HW128391   2.043   0.701   6.697
 9164SOL    HW228392   1.947   0.808   6.774
 9165SOL     OW28393   5.396   1.693   6.153
 9165SOL    HW128394   5.391   1.599   6.119
 9165SOL    HW228395   5.335   1.703   6.232
 9166SOL     OW28396   4.511   5.142   0.712
 9166SOL    HW128397   4.492   5.234   0.745
 9166SOL    HW228398   4.528   5.081   0.790
 9167SOL     OW28399   2.198   2.228   5.847
 9167SOL    HW128400   2.144   2.260   5.770
 9167SOL    HW228401   2.159   2.264   5.932
 9168SOL     OW28402   6.897   5.967   6.443
 9168SOL    HW128403   6.930   5.963   6.349
 9168SOL    HW228404   6.801   5.993   6.444
 9169SOL     OW28405   0.081   6.687   6.277
 9169SOL    HW128406   0.036   6.722   6.195
 9169SOL    HW228407   0.090   6.588   6.270
 9170SOL     OW28408   2.133   0.136   6.280
 9170SOL    HW128409   2.080   0.207   6.327
 9170SOL    HW228410   2.201   0.179   6.221
 9171SOL     OW28411   3.557   6.217   0.344
 9171SOL    HW128412   3.510   6.187   0.427
 9171SOL    HW228413   3.624   6.147   0.317
 9172SOL     OW28414   4.700   0.884   3.706
 9172SOL    HW128415   4.639   0.933   3.768
 9172SOL    HW228416   4.758   0.822   3.759
 9173SOL     OW28417   6.475   3.544   5.424
 9173SOL    HW128418   6.546   3.601   5.383
 9173SOL    HW228419   6.398   3.536   5.360
 9174SOL     OW28420   0.866   5.776   6.829
 9174SOL    HW128421   0.939   5.838   6.858
 9174SOL    HW228422   0.837   5.800   6.736
 9175SOL     OW28423   1.269   0.376   6.546
 9175SOL    HW128424   1.321   0.393   6.462
 9175SOL    HW228425   1.277   0.280   6.572
 9176SOL     OW28426   2.676   0.520   2.066
 9176SOL    HW128427   2.647   0.606   2.107
 9176SOL    HW228428   2.607   0.488   2.002
 9177SOL     OW28429   1.244   2.689   4.185
 9177SOL    HW128430   1.260   2.701   4.283
 9177SOL    HW228431   1.165   2.744   4.157
 9178SOL     OW28432   1.995   5.604   6.730
 9178SOL    HW128433   2.083   5.597   6.775
 9178SOL    HW228434   1.954   5.513   6.723
 9179SOL     OW28435   1.819   5.604   4.938
 9179SOL    HW128436   1.868   5.615   4.851
 9179SOL    HW228437   1.747   5.537   4.926
 9180SOL     OW28438   6.210   2.403   3.336
 9180SOL    HW128439   6.259   2.375   3.419
 9180SOL    HW228440   6.255   2.364   3.256
 9181SOL     OW28441   5.030   2.503   3.656
 9181SOL    HW128442   5.039   2.593   3.613
 9181SOL    HW228443   5.005   2.514   3.752
 9182SOL     OW28444   3.138   0.423   2.896
 9182SOL    HW128445   3.236   0.419   2.878
 9182SOL    HW228446   3.122   0.420   2.995
 9183SOL     OW28447   4.845   4.513   6.517
 9183SOL    HW128448   4.829   4.587   6.452
 9183SOL    HW228449   4.801   4.535   6.604
 9184SOL     OW28450   3.550   2.218   1.024
 9184SOL    HW128451   3.627   2.221   0.961
 9184SOL    HW228452   3.505   2.129   1.018
 9185SOL     OW28453   7.007   0.225   5.016
 9185SOL    HW128454   6.954   0.191   4.939
 9185SOL    HW228455   6.959   0.302   5.059
 9186SOL     OW28456   5.399   0.637   5.299
 9186SOL    HW128457   5.354   0.596   5.379
 9186SOL    HW228458   5.393   0.736   5.304
 9187SOL     OW28459   4.077   1.888   6.853
 9187SOL    HW128460   3.993   1.941   6.863
 9187SOL    HW228461   4.101   1.848   6.942
 9188SOL     OW28462   1.794   0.576   1.592
 9188SOL    HW128463   1.745   0.659   1.569
 9188SOL    HW228464   1.817   0.576   1.689
 9189SOL     OW28465   3.266   6.176   2.766
 9189SOL    HW128466   3.331   6.183   2.841
 9189SOL    HW228467   3.220   6.264   2.753
 9190SOL     OW28468   0.783   3.598   5.012
 9190SOL    HW128469   0.815   3.503   5.005
 9190SOL    HW228470   0.854   3.660   4.981
 9191SOL     OW28471   5.758   1.107   6.424
 9191SOL    HW128472   5.728   1.022   6.466
 9191SOL    HW228473   5.837   1.143   6.473
 9192SOL     OW28474   6.071   2.907   5.706
 9192SOL    HW128475   6.056   2.851   5.788
 9192SOL    HW228476   6.020   2.868   5.630
 9193SOL     OW28477   3.915   3.874   4.433
 9193SOL    HW128478   3.977   3.815   4.380
 9193SOL    HW228479   3.877   3.945   4.373
 9194SOL     OW28480   3.674   5.986   2.661
 9194SOL    HW128481   3.749   6.027   2.609
 9194SOL    HW228482   3.595   6.048   2.662
 9195SOL     OW28483   1.651   3.074   3.112
 9195SOL    HW128484   1.624   3.005   3.179
 9195SOL    HW228485   1.731   3.124   3.145
 9196SOL     OW28486   5.454   0.001   3.704
 9196SOL    HW128487   5.459   6.931   3.749
 9196SOL    HW228488   5.510   0.000   3.621
 9197SOL     OW28489   3.275   5.156   0.829
 9197SOL    HW128490   3.317   5.121   0.913
 9197SOL    HW228491   3.317   5.243   0.804
 9198SOL     OW28492   5.984   4.365   6.659
 9198SOL    HW128493   6.064   4.351   6.600
 9198SOL    HW228494   6.012   4.413   6.742
 9199SOL     OW28495   0.314   2.898   6.495
 9199SOL    HW128496   0.227   2.856   6.520
 9199SOL    HW228497   0.302   2.956   6.414
 9200SOL     OW28498   2.227   5.429   5.815
 9200SOL    HW128499   2.221   5.331   5.833
 9200SOL    HW228500   2.156   5.456   5.751
 9201SOL     OW28501   0.430   3.011   0.796
 9201SOL    HW128502   0.517   2.972   0.764
 9201SOL    HW228503   0.446   3.062   0.881
 9202SOL     OW28504   1.146   5.759   4.191
 9202SOL    HW128505   1.069   5.698   4.212
 9202SOL    HW228506   1.228   5.705   4.175
 9203SOL     OW28507   5.610   3.096   5.808
 9203SOL    HW128508   5.569   3.005   5.796
 9203SOL    HW228509   5.704   3.086   5.838
 9204SOL     OW28510   4.869   3.639   4.350
 9204SOL    HW128511   4.873   3.724   4.298
 9204SOL    HW228512   4.796   3.644   4.418
 9205SOL     OW28513   4.828   5.543   2.560
 9205SOL    HW128514   4.827   5.586   2.650
 9205SOL    HW228515   4.922   5.514   2.538
 9206SOL     OW28516   3.396   6.968   3.813
 9206SOL    HW128517   3.444   6.927   3.736
 9206SOL    HW228518   3.324   6.906   3.844
 9207SOL     OW28519   3.735   5.004   6.792
 9207SOL    HW128520   3.734   5.104   6.788
 9207SOL    HW228521   3.803   4.974   6.859
 9208SOL     OW28522   5.183   4.172   2.540
 9208SOL    HW128523   5.191   4.192   2.443
 9208SOL    HW228524   5.248   4.228   2.592
 9209SOL     OW28525   4.185   0.386   1.541
 9209SOL    HW128526   4.231   0.297   1.551
 9209SOL    HW228527   4.104   0.388   1.599
 9210SOL     OW28528   0.409   0.753   1.693
 9210SOL    HW128529   0.435   0.690   1.766
 9210SOL    HW228530   0.491   0.785   1.646
 9211SOL     OW28531   5.508   3.235   6.384
 9211SOL    HW128532   5.558   3.281   6.310
 9211SOL    HW228533   5.442   3.299   6.424
 9212SOL     OW28534   4.918   4.349   5.134
 9212SOL    HW128535   4.850   4.276   5.139
 9212SOL    HW228536   4.938   4.370   5.039
 9213SOL     OW28537   4.747   5.630   4.451
 9213SOL    HW128538   4.694   5.569   4.510
 9213SOL    HW228539   4.689   5.706   4.421
 9214SOL     OW28540   7.007   2.861   4.920
 9214SOL    HW128541   6.989   2.959   4.929
 9214SOL    HW228542   0.002   2.821   5.010
 9215SOL     OW28543   1.195   4.796   2.791
 9215SOL    HW128544   1.112   4.836   2.753
 9215SOL    HW228545   1.246   4.866   2.841
 9216SOL     OW28546   2.550   6.697   3.913
 9216SOL    HW128547   2.620   6.656   3.971
 9216SOL    HW228548   2.475   6.730   3.969
 9217SOL     OW28549   5.986   2.360   0.169
 9217SOL    HW128550   5.983   2.265   0.138
 9217SOL    HW228551   5.919   2.374   0.242
 9218SOL     OW28552   3.807   0.814   6.863
 9218SOL    HW128553   3.738   0.875   6.825
 9218SOL    HW228554   3.892   0.825   6.812
 9219SOL     OW28555   4.208   3.411   5.907
 9219SOL    HW128556   4.263   3.346   5.854
 9219SOL    HW228557   4.194   3.376   5.999
 9220SOL     OW28558   1.629   6.894   1.919
 9220SOL    HW128559   1.655   6.797   1.913
 9220SOL    HW228560   1.532   6.900   1.940
 9221SOL     OW28561   2.661   6.940   4.387
 9221SOL    HW128562   2.733   6.878   4.356
 9221SOL    HW228563   2.665   0.006   4.333
 9222SOL     OW28564   2.704   5.271   4.977
 9222SOL    HW128565   2.666   5.339   5.040
 9222SOL    HW228566   2.631   5.211   4.945
 9223SOL     OW28567   0.930   2.529   4.252
 9223SOL    HW128568   0.853   2.541   4.189
 9223SOL    HW228569   0.948   2.614   4.301
 9224SOL     OW28570   1.436   4.657   3.459
 9224SOL    HW128571   1.491   4.577   3.434
 9224SOL    HW228572   1.407   4.649   3.554
 9225SOL     OW28573   3.759   5.513   5.827
 9225SOL    HW128574   3.722   5.589   5.774
 9225SOL    HW228575   3.807   5.450   5.766
 9226SOL     OW28576   0.794   0.313   1.446
 9226SOL    HW128577   0.850   0.384   1.488
 9226SOL    HW228578   0.839   0.224   1.457
 9227SOL     OW28579   1.736   6.224   1.371
 9227SOL    HW128580   1.827   6.219   1.329
 9227SOL    HW228581   1.701   6.132   1.387
 9228SOL     OW28582   2.438   2.529   0.403
 9228SOL    HW128583   2.412   2.456   0.340
 9228SOL    HW228584   2.535   2.550   0.391
 9229SOL     OW28585   0.989   4.921   6.108
 9229SOL    HW128586   1.036   4.985   6.169
 9229SOL    HW228587   1.052   4.890   6.037
 9230SOL     OW28588   4.922   3.288   2.946
 9230SOL    HW128589   4.887   3.230   2.873
 9230SOL    HW228590   4.912   3.384   2.920
 9231SOL     OW28591   1.032   3.480   5.253
 9231SOL    HW128592   0.965   3.554   5.246
 9231SOL    HW228593   0.986   3.392   5.241
 9232SOL     OW28594   2.891   5.155   1.049
 9232SOL    HW128595   2.929   5.135   0.958
 9232SOL    HW228596   2.829   5.082   1.076
 9233SOL     OW28597   0.345   6.692   0.898
 9233SOL    HW128598   0.414   6.759   0.923
 9233SOL    HW228599   0.386   6.601   0.896
 9234SOL     OW28600   2.198   5.905   0.936
 9234SOL    HW128601   2.106   5.883   0.905
 9234SOL    HW228602   2.252   5.821   0.943
 9235SOL     OW28603   2.158   3.216   3.039
 9235SOL    HW128604   2.154   3.197   2.940
 9235SOL    HW228605   2.218   3.149   3.083
 9236SOL     OW28606   2.713   3.860   6.548
 9236SOL    HW128607   2.639   3.844   6.612
 9236SOL    HW228608   2.744   3.773   6.510
 9237SOL     OW28609   0.679   5.798   3.447
 9237SOL    HW128610   0.762   5.811   3.501
 9237SOL    HW228611   0.615   5.739   3.497
 9238SOL     OW28612   2.916   2.239   6.033
 9238SOL    HW128613   2.944   2.323   6.080
 9238SOL    HW228614   2.835   2.201   6.077
 9239SOL     OW28615   6.911   4.283   6.614
 9239SOL    HW128616   6.954   4.211   6.669
 9239SOL    HW228617   6.950   4.371   6.638
 9240SOL     OW28618   5.154   3.072   2.124
 9240SOL    HW128619   5.055   3.065   2.119
 9240SOL    HW228620   5.182   3.166   2.102
 9241SOL     OW28621   0.486   5.718   0.786
 9241SOL    HW128622   0.510   5.770   0.704
 9241SOL    HW228623   0.443   5.780   0.852
 9242SOL     OW28624   1.614   3.839   1.573
 9242SOL    HW128625   1.587   3.742   1.569
 9242SOL    HW228626   1.628   3.873   1.480
 9243SOL     OW28627   6.950   0.789   2.173
 9243SOL    HW128628   6.963   0.856   2.246
 9243SOL    HW228629   6.852   0.775   2.158
 9244SOL     OW28630   2.932   5.989   5.707
 9244SOL    HW128631   2.894   5.970   5.798
 9244SOL    HW228632   2.859   6.021   5.647
 9245SOL     OW28633   0.861   4.430   3.781
 9245SOL    HW128634   0.895   4.513   3.737
 9245SOL    HW228635   0.767   4.446   3.812
 9246SOL     OW28636   5.439   0.399   3.359
 9246SOL    HW128637   5.531   0.414   3.394
 9246SOL    HW228638   5.444   0.382   3.260
 9247SOL     OW28639   2.900   5.841   2.413
 9247SOL    HW128640   2.923   5.778   2.486
 9247SOL    HW228641   2.874   5.929   2.452
 9248SOL     OW28642   3.256   2.013   4.464
 9248SOL    HW128643   3.296   2.019   4.555
 9248SOL    HW228644   3.299   1.939   4.413
 9249SOL     OW28645   4.488   4.908   1.570
 9249SOL    HW128646   4.466   4.857   1.487
 9249SOL    HW228647   4.471   5.005   1.555
 9250SOL     OW28648   6.495   2.967   3.897
 9250SOL    HW128649   6.438   2.946   3.818
 9250SOL    HW228650   6.486   2.895   3.966
 9251SOL     OW28651   4.110   1.135   2.530
 9251SOL    HW128652   4.100   1.174   2.622
 9251SOL    HW228653   4.054   1.185   2.465
 9252SOL     OW28654   5.663   0.159   4.871
 9252SOL    HW128655   5.681   0.129   4.777
 9252SOL    HW228656   5.694   0.253   4.882
 9253SOL     OW28657   5.582   4.870   5.452
 9253SOL    HW128658   5.517   4.914   5.390
 9253SOL    HW228659   5.583   4.919   5.539
 9254SOL     OW28660   4.371   4.660   2.822
 9254SOL    HW128661   4.275   4.633   2.813
 9254SOL    HW228662   4.377   4.737   2.885
 9255SOL     OW28663   5.247   3.627   0.062
 9255SOL    HW128664   5.343   3.599   0.050
 9255SOL    HW228665   5.235   3.666   0.153
 9256SOL     OW28666   2.477   0.321   2.155
 9256SOL    HW128667   2.492   0.378   2.074
 9256SOL    HW228668   2.490   0.376   2.237
 9257SOL     OW28669   5.936   5.031   3.535
 9257SOL    HW128670   6.001   5.030   3.611
 9257SOL    HW228671   5.858   5.089   3.558
 9258SOL     OW28672   3.810   3.288   1.707
 9258SOL    HW128673   3.900   3.307   1.669
 9258SOL    HW228674   3.808   3.196   1.746
 9259SOL     OW28675   1.569   1.469   0.750
 9259SOL    HW128676   1.624   1.551   0.732
 9259SOL    HW228677   1.629   1.389   0.755
 9260SOL     OW28678   6.155   2.198   5.611
 9260SOL    HW128679   6.073   2.149   5.638
 9260SOL    HW228680   6.131   2.289   5.577
 9261SOL     OW28681   4.249   1.445   6.909
 9261SOL    HW128682   4.331   1.445   6.852
 9261SOL    HW228683   4.262   1.380   6.985
 9262SOL     OW28684   0.707   5.988   5.133
 9262SOL    HW128685   0.740   6.081   5.121
 9262SOL    HW228686   0.611   5.982   5.104
 9263SOL     OW28687   2.622   5.676   2.676
 9263SOL    HW128688   2.712   5.705   2.642
 9263SOL    HW228689   2.614   5.577   2.670
 9264SOL     OW28690   4.819   3.928   0.006
 9264SOL    HW128691   4.794   3.995   6.956
 9264SOL    HW228692   4.909   3.890   7.004
 9265SOL     OW28693   3.259   2.466   0.322
 9265SOL    HW128694   3.169   2.426   0.306
 9265SOL    HW228695   3.328   2.393   0.327
 9266SOL     OW28696   1.158   6.344   0.983
 9266SOL    HW128697   1.088   6.292   0.935
 9266SOL    HW228698   1.168   6.434   0.940
 9267SOL     OW28699   0.238   1.659   4.225
 9267SOL    HW128700   0.281   1.607   4.150
 9267SOL    HW228701   0.300   1.662   4.303
 9268SOL     OW28702   1.639   0.486   2.640
 9268SOL    HW128703   1.662   0.576   2.677
 9268SOL    HW228704   1.723   0.435   2.623
 9269SOL     OW28705   4.142   0.280   6.244
 9269SOL    HW128706   4.069   0.312   6.305
 9269SOL    HW228707   4.102   0.230   6.167
 9270SOL     OW28708   4.258   0.155   5.632
 9270SOL    HW128709   4.252   0.094   5.711
 9270SOL    HW228710   4.236   0.248   5.660
 9271SOL     OW28711   6.062   0.068   0.411
 9271SOL    HW128712   5.997   0.053   0.486
 9271SOL    HW228713   6.029   0.142   0.353
 9272SOL     OW28714   1.114   5.740   6.093
 9272SOL    HW128715   1.168   5.670   6.140
 9272SOL    HW228716   1.164   5.772   6.012
 9273SOL     OW28717   6.519   6.068   3.404
 9273SOL    HW128718   6.613   6.065   3.370
 9273SOL    HW228719   6.518   6.116   3.492
 9274SOL     OW28720   0.092   1.689   7.015
 9274SOL    HW128721   0.039   1.733   6.942
 9274SOL    HW228722   0.032   1.670   0.074
 9275SOL     OW28723   6.352   0.885   0.174
 9275SOL    HW128724   6.415   0.905   0.249
 9275SOL    HW228725   6.402   0.845   0.097
 9276SOL     OW28726   1.815   4.561   0.743
 9276SOL    HW128727   1.808   4.527   0.837
 9276SOL    HW228728   1.823   4.661   0.745
 9277SOL     OW28729   4.329   4.593   2.001
 9277SOL    HW128730   4.350   4.548   1.914
 9277SOL    HW228731   4.242   4.641   1.994
 9278SOL     OW28732   2.046   0.633   5.569
 9278SOL    HW128733   2.017   0.554   5.622
 9278SOL    HW228734   1.967   0.692   5.551
 9279SOL     OW28735   3.168   6.953   1.821
 9279SOL    HW128736   3.122   0.013   1.861
 9279SOL    HW228737   3.159   6.874   1.883
 9280SOL     OW28738   2.782   1.010   2.619
 9280SOL    HW128739   2.821   0.962   2.698
 9280SOL    HW228740   2.856   1.042   2.560
 9281SOL     OW28741   3.251   4.238   6.953
 9281SOL    HW128742   3.208   4.314   7.002
 9281SOL    HW228743   3.256   4.260   6.855
 9282SOL     OW28744   4.851   0.855   4.166
 9282SOL    HW128745   4.943   0.871   4.130
 9282SOL    HW228746   4.855   0.784   4.237
 9283SOL     OW28747   5.351   0.534   4.525
 9283SOL    HW128748   5.376   0.586   4.443
 9283SOL    HW228749   5.432   0.523   4.583
 9284SOL     OW28750   2.727   2.983   5.499
 9284SOL    HW128751   2.753   2.901   5.447
 9284SOL    HW228752   2.729   3.063   5.438
 9285SOL     OW28753   5.216   3.458   1.397
 9285SOL    HW128754   5.282   3.520   1.355
 9285SOL    HW228755   5.158   3.509   1.461
 9286SOL     OW28756   5.257   5.193   1.167
 9286SOL    HW128757   5.288   5.225   1.256
 9286SOL    HW228758   5.310   5.112   1.140
 9287SOL     OW28759   3.839   4.855   6.093
 9287SOL    HW128760   3.876   4.861   6.186
 9287SOL    HW228761   3.912   4.876   6.028
 9288SOL     OW28762   4.633   1.931   2.816
 9288SOL    HW128763   4.666   2.024   2.797
 9288SOL    HW228764   4.548   1.915   2.766
 9289SOL     OW28765   4.736   0.216   0.834
 9289SOL    HW128766   4.753   0.124   0.798
 9289SOL    HW228767   4.818   0.272   0.820
 9290SOL     OW28768   5.517   1.134   3.830
 9290SOL    HW128769   5.616   1.144   3.836
 9290SOL    HW228770   5.483   1.184   3.750
 9291SOL     OW28771   1.392   5.339   5.899
 9291SOL    HW128772   1.352   5.421   5.857
 9291SOL    HW228773   1.465   5.304   5.841
 9292SOL     OW28774   2.594   2.329   6.664
 9292SOL    HW128775   2.530   2.347   6.738
 9292SOL    HW228776   2.685   2.313   6.701
 9293SOL     OW28777   5.985   4.071   6.609
 9293SOL    HW128778   5.983   4.171   6.611
 9293SOL    HW228779   6.076   4.039   6.633
 9294SOL     OW28780   5.414   1.461   5.996
 9294SOL    HW128781   5.354   1.520   5.942
 9294SOL    HW228782   5.503   1.454   5.952
 9295SOL     OW28783   5.678   0.363   5.780
 9295SOL    HW128784   5.621   0.441   5.805
 9295SOL    HW228785   5.713   0.375   5.687
 9296SOL     OW28786   1.913   5.283   0.229
 9296SOL    HW128787   1.947   5.340   0.153
 9296SOL    HW228788   1.829   5.237   0.200
 9297SOL     OW28789   1.050   6.936   2.514
 9297SOL    HW128790   1.039   6.991   2.431
 9297SOL    HW228791   1.121   6.867   2.498
 9298SOL     OW28792   1.365   6.294   6.242
 9298SOL    HW128793   1.357   6.369   6.176
 9298SOL    HW228794   1.417   6.219   6.202
 9299SOL     OW28795   1.483   2.047   4.573
 9299SOL    HW128796   1.409   2.110   4.550
 9299SOL    HW228797   1.470   2.015   4.667
 9300SOL     OW28798   0.252   5.171   6.045
 9300SOL    HW128799   0.158   5.197   6.022
 9300SOL    HW228800   0.315   5.208   5.977
 9301SOL     OW28801   5.857   5.395   4.585
 9301SOL    HW128802   5.873   5.416   4.681
 9301SOL    HW228803   5.817   5.305   4.576
 9302SOL     OW28804   2.118   3.328   4.329
 9302SOL    HW128805   2.163   3.239   4.318
 9302SOL    HW228806   2.118   3.353   4.426
 9303SOL     OW28807   3.074   3.622   0.711
 9303SOL    HW128808   3.051   3.544   0.769
 9303SOL    HW228809   3.068   3.706   0.766
 9304SOL     OW28810   4.481   4.582   0.682
 9304SOL    HW128811   4.396   4.634   0.690
 9304SOL    HW228812   4.553   4.642   0.648
 9305SOL     OW28813   3.542   0.137   0.673
 9305SOL    HW128814   3.580   0.116   0.583
 9305SOL    HW228815   3.567   0.231   0.698
 9306SOL     OW28816   1.343   4.095   5.597
 9306SOL    HW128817   1.297   4.036   5.530
 9306SOL    HW228818   1.331   4.058   5.689
 9307SOL     OW28819   0.845   4.093   0.248
 9307SOL    HW128820   0.858   4.164   0.318
 9307SOL    HW228821   0.861   4.003   0.288
 9308SOL     OW28822   1.733   3.851   2.152
 9308SOL    HW128823   1.684   3.816   2.073
 9308SOL    HW228824   1.830   3.861   2.130
 9309SOL     OW28825   3.604   5.732   5.711
 9309SOL    HW128826   3.543   5.763   5.638
 9309SOL    HW228827   3.552   5.680   5.778
 9310SOL     OW28828   5.616   6.450   5.740
 9310SOL    HW128829   5.553   6.462   5.663
 9310SOL    HW228830   5.667   6.364   5.729
 9311SOL     OW28831   5.424   4.531   1.378
 9311SOL    HW128832   5.417   4.538   1.478
 9311SOL    HW228833   5.502   4.473   1.354
 9312SOL     OW28834   1.892   2.677   1.025
 9312SOL    HW128835   1.978   2.690   0.976
 9312SOL    HW228836   1.857   2.585   1.008
 9313SOL     OW28837   0.287   0.549   1.914
 9313SOL    HW128838   0.212   0.547   1.847
 9313SOL    HW228839   0.250   0.567   2.005
 9314SOL     OW28840   6.880   3.711   0.008
 9314SOL    HW128841   6.966   3.759   0.024
 9314SOL    HW228842   6.857   3.717   6.930
 9315SOL     OW28843   6.769   6.911   5.604
 9315SOL    HW128844   6.785   6.813   5.592
 9315SOL    HW228845   6.698   6.941   5.540
 9316SOL     OW28846   6.212   6.446   5.877
 9316SOL    HW128847   6.253   6.537   5.877
 9316SOL    HW228848   6.119   6.451   5.841
 9317SOL     OW28849   4.198   5.601   4.001
 9317SOL    HW128850   4.181   5.628   4.096
 9317SOL    HW228851   4.194   5.502   3.993
 9318SOL     OW28852   5.933   0.050   6.914
 9318SOL    HW128853   5.890   0.084   6.830
 9318SOL    HW228854   5.931   0.122   6.984
 9319SOL     OW28855   2.388   2.839   1.036
 9319SOL    HW128856   2.367   2.919   1.093
 9319SOL    HW228857   2.407   2.761   1.095
 9320SOL     OW28858   4.004   0.404   5.428
 9320SOL    HW128859   3.978   0.400   5.525
 9320SOL    HW228860   3.941   0.346   5.375
 9321SOL     OW28861   0.619   0.921   4.931
 9321SOL    HW128862   0.582   1.010   4.904
 9321SOL    HW228863   0.550   0.871   4.984
 9322SOL     OW28864   0.212   4.253   6.835
 9322SOL    HW128865   0.232   4.343   6.796
 9322SOL    HW228866   0.220   4.258   6.935
 9323SOL     OW28867   1.390   1.555   4.799
 9323SOL    HW128868   1.354   1.461   4.795
 9323SOL    HW228869   1.450   1.571   4.721
 9324SOL     OW28870   1.788   3.769   2.857
 9324SOL    HW128871   1.731   3.847   2.884
 9324SOL    HW228872   1.853   3.797   2.787
 9325SOL     OW28873   6.997   0.356   0.607
 9325SOL    HW128874   6.969   0.301   0.686
 9325SOL    HW228875   6.925   0.423   0.586
 9326SOL     OW28876   2.748   4.968   0.246
 9326SOL    HW128877   2.724   5.045   0.304
 9326SOL    HW228878   2.710   4.883   0.284
 9327SOL     OW28879   4.393   0.004   2.408
 9327SOL    HW128880   4.473   0.053   2.376
 9327SOL    HW228881   4.365   6.955   2.341
 9328SOL     OW28882   1.841   0.402   4.920
 9328SOL    HW128883   1.742   0.385   4.928
 9328SOL    HW228884   1.887   0.315   4.901
 9329SOL     OW28885   6.459   4.915   1.032
 9329SOL    HW128886   6.559   4.928   1.035
 9329SOL    HW228887   6.433   4.885   0.940
 9330SOL     OW28888   0.062   7.006   5.672
 9330SOL    HW128889   0.096   6.915   5.648
 9330SOL    HW228890   0.018   7.003   5.762
 9331SOL     OW28891   1.966   1.519   6.155
 9331SOL    HW128892   1.933   1.548   6.066
 9331SOL    HW228893   1.973   1.598   6.216
 9332SOL     OW28894   3.937   5.087   0.564
 9332SOL    HW128895   3.886   5.164   0.601
 9332SOL    HW228896   3.885   5.043   0.491
 9333SOL     OW28897   4.088   5.346   6.332
 9333SOL    HW128898   4.150   5.359   6.409
 9333SOL    HW228899   4.035   5.262   6.344
 9334SOL     OW28900   4.892   6.193   4.948
 9334SOL    HW128901   4.806   6.216   4.993
 9334SOL    HW228902   4.879   6.192   4.849
 9335SOL     OW28903   1.640   1.543   7.008
 9335SOL    HW128904   1.643   1.589   6.919
 9335SOL    HW228905   1.545   1.520   0.011
 9336SOL     OW28906   4.633   6.647   4.316
 9336SOL    HW128907   4.684   6.684   4.394
 9336SOL    HW228908   4.653   6.701   4.235
 9337SOL     OW28909   4.851   1.370   5.722
 9337SOL    HW128910   4.883   1.319   5.802
 9337SOL    HW228911   4.827   1.463   5.749
 9338SOL     OW28912   5.927   6.368   1.007
 9338SOL    HW128913   5.828   6.368   0.996
 9338SOL    HW228914   5.953   6.428   1.082
 9339SOL     OW28915   6.303   5.840   0.058
 9339SOL    HW128916   6.252   5.847   6.991
 9339SOL    HW228917   6.243   5.810   0.131
 9340SOL     OW28918   3.605   4.868   2.885
 9340SOL    HW128919   3.540   4.838   2.815
 9340SOL    HW228920   3.561   4.866   2.975
 9341SOL     OW28921   6.078   4.736   1.105
 9341SOL    HW128922   6.037   4.803   1.167
 9341SOL    HW228923   6.059   4.762   1.010
 9342SOL     OW28924   2.366   0.288   5.000
 9342SOL    HW128925   2.393   0.380   5.029
 9342SOL    HW228926   2.419   0.262   4.919
 9343SOL     OW28927   5.521   4.138   2.086
 9343SOL    HW128928   5.426   4.127   2.117
 9343SOL    HW228929   5.571   4.053   2.103
 9344SOL     OW28930   5.171   6.062   0.703
 9344SOL    HW128931   5.114   6.021   0.632
 9344SOL    HW228932   5.114   6.119   0.763
 9345SOL     OW28933   6.457   4.682   2.037
 9345SOL    HW128934   6.480   4.779   2.033
 9345SOL    HW228935   6.482   4.646   2.127
 9346SOL     OW28936   4.711   0.126   1.742
 9346SOL    HW128937   4.784   0.188   1.714
 9346SOL    HW228938   4.751   0.043   1.780
 9347SOL     OW28939   3.198   5.850   0.473
 9347SOL    HW128940   3.242   5.761   0.475
 9347SOL    HW228941   3.106   5.841   0.434
 9348SOL     OW28942   2.595   5.383   2.684
 9348SOL    HW128943   2.513   5.336   2.651
 9348SOL    HW228944   2.642   5.324   2.749
 9349SOL     OW28945   6.510   5.603   2.580
 9349SOL    HW128946   6.457   5.572   2.659
 9349SOL    HW228947   6.608   5.592   2.600
 9350SOL     OW28948   6.673   1.761   4.262
 9350SOL    HW128949   6.651   1.678   4.313
 9350SOL    HW228950   6.772   1.768   4.250
 9351SOL     OW28951   3.482   0.360   6.263
 9351SOL    HW128952   3.456   0.309   6.345
 9351SOL    HW228953   3.494   0.297   6.186
 9352SOL     OW28954   3.574   2.755   6.024
 9352SOL    HW128955   3.555   2.691   6.098
 9352SOL    HW228956   3.573   2.707   5.937
 9353SOL     OW28957   1.645   4.088   0.958
 9353SOL    HW128958   1.728   4.145   0.964
 9353SOL    HW228959   1.574   4.138   0.909
 9354SOL     OW28960   6.844   2.022   6.441
 9354SOL    HW128961   6.767   2.027   6.378
 9354SOL    HW228962   6.887   2.112   6.450
 9355SOL     OW28963   6.739   1.748   4.637
 9355SOL    HW128964   6.761   1.744   4.735
 9355SOL    HW228965   6.729   1.655   4.601
 9356SOL     OW28966   4.787   5.591   1.744
 9356SOL    HW128967   4.728   5.510   1.741
 9356SOL    HW228968   4.883   5.562   1.741
 9357SOL     OW28969   3.302   3.112   6.539
 9357SOL    HW128970   3.238   3.035   6.534
 9357SOL    HW228971   3.254   3.192   6.577
 9358SOL     OW28972   6.650   3.466   3.004
 9358SOL    HW128973   6.562   3.514   3.011
 9358SOL    HW228974   6.721   3.531   2.976
 9359SOL     OW28975   1.090   3.819   5.665
 9359SOL    HW128976   1.027   3.844   5.592
 9359SOL    HW228977   1.137   3.734   5.642
 9360SOL     OW28978   1.705   6.196   6.334
 9360SOL    HW128979   1.774   6.154   6.275
 9360SOL    HW228980   1.614   6.167   6.303
 9361SOL     OW28981   1.293   6.348   3.099
 9361SOL    HW128982   1.267   6.333   3.004
 9361SOL    HW228983   1.256   6.435   3.131
 9362SOL     OW28984   1.978   2.708   2.307
 9362SOL    HW128985   1.998   2.769   2.231
 9362SOL    HW228986   1.995   2.613   2.280
 9363SOL     OW28987   3.587   6.263   1.647
 9363SOL    HW128988   3.566   6.184   1.590
 9363SOL    HW228989   3.592   6.234   1.743
 9364SOL     OW28990   3.870   3.216   5.459
 9364SOL    HW128991   3.802   3.230   5.386
 9364SOL    HW228992   3.823   3.201   5.546
 9365SOL     OW28993   2.215   2.192   5.283
 9365SOL    HW128994   2.175   2.225   5.198
 9365SOL    HW228995   2.260   2.267   5.330
 9366SOL     OW28996   3.436   7.015   6.744
 9366SOL    HW128997   3.495   0.075   6.757
 9366SOL    HW228998   3.353   0.007   6.797
 9367SOL     OW28999   6.801   6.168   2.643
 9367SOL    HW129000   6.818   6.208   2.553
 9367SOL    HW229001   6.727   6.102   2.637
 9368SOL     OW29002   3.057   1.460   3.689
 9368SOL    HW129003   3.021   1.501   3.605
 9368SOL    HW229004   3.049   1.361   3.684
 9369SOL     OW29005   6.927   0.202   4.763
 9369SOL    HW129006   7.009   0.259   4.766
 9369SOL    HW229007   6.897   0.191   4.668
 9370SOL     OW29008   5.150   0.180   2.021
 9370SOL    HW129009   5.098   0.124   1.956
 9370SOL    HW229010   5.108   0.174   2.111
 9371SOL     OW29011   2.318   4.727   0.552
 9371SOL    HW129012   2.279   4.713   0.643
 9371SOL    HW229013   2.333   4.638   0.508
 9372SOL     OW29014   5.321   6.428   2.745
 9372SOL    HW129015   5.410   6.399   2.779
 9372SOL    HW229016   5.325   6.525   2.718
 9373SOL     OW29017   4.697   1.879   1.754
 9373SOL    HW129018   4.604   1.843   1.748
 9373SOL    HW229019   4.739   1.848   1.840
 9374SOL     OW29020   0.881   3.465   0.842
 9374SOL    HW129021   0.826   3.512   0.774
 9374SOL    HW229022   0.840   3.376   0.863
 9375SOL     OW29023   6.260   1.429   3.051
 9375SOL    HW129024   6.187   1.363   3.065
 9375SOL    HW229025   6.287   1.429   2.955
 9376SOL     OW29026   3.026   4.352   1.031
 9376SOL    HW129027   3.007   4.404   0.947
 9376SOL    HW229028   3.125   4.342   1.042
 9377SOL     OW29029   1.627   5.546   3.735
 9377SOL    HW129030   1.680   5.588   3.661
 9377SOL    HW229031   1.649   5.449   3.741
 9378SOL     OW29032   1.472   1.301   5.051
 9378SOL    HW129033   1.527   1.384   5.061
 9378SOL    HW229034   1.456   1.261   5.141
 9379SOL     OW29035   3.903   5.813   5.368
 9379SOL    HW129036   3.987   5.763   5.350
 9379SOL    HW229037   3.908   5.856   5.458
 9380SOL     OW29038   5.627   5.296   5.139
 9380SOL    HW129039   5.723   5.270   5.134
 9380SOL    HW229040   5.588   5.297   5.047
 9381SOL     OW29041   3.562   2.617   5.790
 9381SOL    HW129042   3.474   2.639   5.748
 9381SOL    HW229043   3.636   2.637   5.725
 9382SOL     OW29044   3.568   0.734   2.930
 9382SOL    HW129045   3.628   0.814   2.923
 9382SOL    HW229046   3.620   0.652   2.906
 9383SOL     OW29047   1.454   5.991   4.353
 9383SOL    HW129048   1.402   5.957   4.274
 9383SOL    HW229049   1.549   5.962   4.345
 9384SOL     OW29050   3.327   6.947   2.153
 9384SOL    HW129051   3.289   6.991   2.235
 9384SOL    HW229052   3.376   7.015   2.098
 9385SOL     OW29053   3.777   0.395   3.286
 9385SOL    HW129054   3.786   0.322   3.219
 9385SOL    HW229055   3.844   0.467   3.266
 9386SOL     OW29056   2.064   6.121   4.770
 9386SOL    HW129057   2.101   6.208   4.802
 9386SOL    HW229058   1.999   6.086   4.838
 9387SOL     OW29059   2.354   1.709   6.972
 9387SOL    HW129060   2.308   1.741   0.036
 9387SOL    HW229061   2.296   1.641   6.926
 9388SOL     OW29062   2.305   5.303   3.080
 9388SOL    HW129063   2.219   5.295   3.129
 9388SOL    HW229064   2.323   5.399   3.058
 9389SOL     OW29065   1.538   0.553   4.405
 9389SOL    HW129066   1.532   0.589   4.312
 9389SOL    HW229067   1.631   0.568   4.440
 9390SOL     OW29068   4.514   4.872   4.820
 9390SOL    HW129069   4.524   4.962   4.777
 9390SOL    HW229070   4.496   4.803   4.750
 9391SOL     OW29071   2.269   1.738   4.957
 9391SOL    HW129072   2.321   1.716   5.040
 9391SOL    HW229073   2.181   1.777   4.983
 9392SOL     OW29074   6.674   0.611   5.999
 9392SOL    HW129075   6.602   0.591   5.933
 9392SOL    HW229076   6.730   0.687   5.965
 9393SOL     OW29077   3.409   6.932   6.157
 9393SOL    HW129078   3.374   6.865   6.223
 9393SOL    HW229079   3.334   6.986   6.120
 9394SOL     OW29080   0.492   1.486   2.321
 9394SOL    HW129081   0.587   1.517   2.328
 9394SOL    HW229082   0.432   1.566   2.315
 9395SOL     OW29083   2.713   1.936   1.043
 9395SOL    HW129084   2.741   1.841   1.031
 9395SOL    HW229085   2.698   1.977   0.954
 9396SOL     OW29086   2.043   4.846   4.225
 9396SOL    HW129087   2.031   4.767   4.164
 9396SOL    HW229088   2.139   4.871   4.229
 9397SOL     OW29089   4.150   6.869   6.569
 9397SOL    HW129090   4.062   6.834   6.602
 9397SOL    HW229091   4.224   6.827   6.622
 9398SOL     OW29092   0.098   0.534   4.914
 9398SOL    HW129093   0.110   0.500   4.821
 9398SOL    HW229094   0.007   0.509   4.947
 9399SOL     OW29095   0.190   1.837   5.452
 9399SOL    HW129096   0.223   1.924   5.416
 9399SOL    HW229097   0.267   1.777   5.472
 9400SOL     OW29098   4.070   1.297   1.941
 9400SOL    HW129099   4.083   1.289   2.039
 9400SOL    HW229100   4.081   1.393   1.913
 9401SOL     OW29101   5.943   0.423   3.439
 9401SOL    HW129102   5.982   0.506   3.400
 9401SOL    HW229103   5.994   0.397   3.521
 9402SOL     OW29104   1.261   4.898   3.893
 9402SOL    HW129105   1.322   4.835   3.846
 9402SOL    HW229106   1.283   4.901   3.990
 9403SOL     OW29107   5.982   1.702   3.187
 9403SOL    HW129108   5.973   1.776   3.120
 9403SOL    HW229109   6.022   1.622   3.143
 9404SOL     OW29110   1.117   3.426   6.918
 9404SOL    HW129111   1.170   3.483   6.980
 9404SOL    HW229112   1.104   3.475   6.831
 9405SOL     OW29113   1.422   5.617   2.652
 9405SOL    HW129114   1.437   5.697   2.594
 9405SOL    HW229115   1.501   5.556   2.646
 9406SOL     OW29116   6.770   2.944   5.684
 9406SOL    HW129117   6.844   3.012   5.688
 9406SOL    HW229118   6.690   2.985   5.639
 9407SOL     OW29119   2.735   5.286   2.891
 9407SOL    HW129120   2.756   5.188   2.897
 9407SOL    HW229121   2.819   5.337   2.872
 9408SOL     OW29122   5.598   1.964   6.464
 9408SOL    HW129123   5.627   1.987   6.371
 9408SOL    HW229124   5.523   2.025   6.491
 9409SOL     OW29125   6.132   5.673   0.174
 9409SOL    HW129126   6.133   5.574   0.179
 9409SOL    HW229127   6.072   5.709   0.246
 9410SOL     OW29128   3.024   0.155   1.951
 9410SOL    HW129129   3.081   0.210   2.012
 9410SOL    HW229130   2.932   0.146   1.990
 9411SOL     OW29131   3.060   3.012   1.986
 9411SOL    HW129132   3.009   2.948   1.930
 9411SOL    HW229133   3.050   3.104   1.949
 9412SOL     OW29134   6.805   2.402   2.623
 9412SOL    HW129135   6.800   2.311   2.583
 9412SOL    HW229136   6.759   2.402   2.712
 9413SOL     OW29137   3.207   6.191   3.532
 9413SOL    HW129138   3.266   6.216   3.609
 9413SOL    HW229139   3.148   6.269   3.509
 9414SOL     OW29140   3.337   0.409   3.475
 9414SOL    HW129141   3.240   0.422   3.493
 9414SOL    HW229142   3.391   0.458   3.544
 9415SOL     OW29143   2.947   6.686   1.604
 9415SOL    HW129144   3.040   6.701   1.572
 9415SOL    HW229145   2.883   6.723   1.537
 9416SOL     OW29146   0.444   2.713   1.005
 9416SOL    HW129147   0.411   2.646   1.071
 9416SOL    HW229148   0.538   2.691   0.980
 9417SOL     OW29149   3.958   0.389   6.406
 9417SOL    HW129150   3.859   0.401   6.405
 9417SOL    HW229151   3.993   0.405   6.498
 9418SOL     OW29152   3.596   6.633   1.011
 9418SOL    HW129153   3.620   6.699   0.940
 9418SOL    HW229154   3.501   6.647   1.040
 9419SOL     OW29155   3.639   5.337   5.986
 9419SOL    HW129156   3.674   5.246   5.963
 9419SOL    HW229157   3.678   5.404   5.923
 9420SOL     OW29158   6.644   3.835   5.717
 9420SOL    HW129159   6.621   3.905   5.784
 9420SOL    HW229160   6.691   3.877   5.639
 9421SOL     OW29161   2.109   6.562   4.288
 9421SOL    HW129162   2.072   6.655   4.287
 9421SOL    HW229163   2.079   6.514   4.370
 9422SOL     OW29164   3.903   5.494   3.655
 9422SOL    HW129165   3.826   5.545   3.694
 9422SOL    HW229166   3.979   5.557   3.640
 9423SOL     OW29167   3.475   0.214   3.824
 9423SOL    HW129168   3.542   0.246   3.756
 9423SOL    HW229169   3.449   0.120   3.803
 9424SOL     OW29170   5.378   0.871   4.518
 9424SOL    HW129171   5.395   0.910   4.428
 9424SOL    HW229172   5.379   0.944   4.587
 9425SOL     OW29173   6.736   3.166   0.015
 9425SOL    HW129174   6.661   3.108   7.004
 9425SOL    HW229175   6.823   3.116   0.003
 9426SOL     OW29176   3.584   1.704   6.282
 9426SOL    HW129177   3.597   1.802   6.299
 9426SOL    HW229178   3.490   1.678   6.305
 9427SOL     OW29179   2.628   4.876   3.477
 9427SOL    HW129180   2.655   4.924   3.560
 9427SOL    HW229181   2.623   4.777   3.495
 9428SOL     OW29182   6.346   0.495   1.000
 9428SOL    HW129183   6.397   0.496   1.086
 9428SOL    HW229184   6.406   0.522   0.925
 9429SOL     OW29185   2.061   3.717   2.471
 9429SOL    HW129186   1.989   3.658   2.506
 9429SOL    HW229187   2.105   3.674   2.392
 9430SOL     OW29188   0.617   4.120   2.873
 9430SOL    HW129189   0.532   4.073   2.849
 9430SOL    HW229190   0.600   4.185   2.947
 9431SOL     OW29191   6.496   4.026   1.273
 9431SOL    HW129192   6.478   3.951   1.336
 9431SOL    HW229193   6.435   4.019   1.194
 9432SOL     OW29194   4.648   0.218   2.721
 9432SOL    HW129195   4.594   0.134   2.718
 9432SOL    HW229196   4.714   0.212   2.796
 9433SOL     OW29197   2.876   5.367   2.507
 9433SOL    HW129198   2.815   5.336   2.580
 9433SOL    HW229199   2.838   5.341   2.418
 9434SOL     OW29200   5.515   4.846   2.992
 9434SOL    HW129201   5.467   4.767   2.953
 9434SOL    HW229202   5.537   4.911   2.920
 9435SOL     OW29203   0.043   2.605   4.534
 9435SOL    HW129204   0.021   2.524   4.480
 9435SOL    HW229205   0.130   2.591   4.581
 9436SOL     OW29206   1.614   2.544   1.577
 9436SOL    HW129207   1.521   2.507   1.579
 9436SOL    HW229208   1.613   2.637   1.542
 9437SOL     OW29209   1.631   5.855   3.176
 9437SOL    HW129210   1.653   5.873   3.272
 9437SOL    HW229211   1.615   5.942   3.129
 9438SOL     OW29212   6.704   0.154   1.728
 9438SOL    HW129213   6.617   0.186   1.765
 9438SOL    HW229214   6.733   0.214   1.654
 9439SOL     OW29215   0.788   3.522   1.138
 9439SOL    HW129216   0.827   3.549   1.050
 9439SOL    HW229217   0.694   3.556   1.144
 9440SOL     OW29218   4.063   4.790   3.709
 9440SOL    HW129219   4.119   4.750   3.636
 9440SOL    HW229220   4.032   4.881   3.681
 9441SOL     OW29221   0.548   3.489   5.087
 9441SOL    HW129222   0.640   3.523   5.069
 9441SOL    HW229223   0.553   3.402   5.137
 9442SOL     OW29224   4.463   2.866   0.785
 9442SOL    HW129225   4.457   2.809   0.867
 9442SOL    HW229226   4.541   2.835   0.730
 9443SOL     OW29227   2.230   5.546   0.847
 9443SOL    HW129228   2.304   5.614   0.846
 9443SOL    HW229229   2.147   5.588   0.886
 9444SOL     OW29230   1.292   3.350   0.202
 9444SOL    HW129231   1.255   3.437   0.169
 9444SOL    HW229232   1.360   3.368   0.273
 9445SOL     OW29233   5.628   3.498   3.725
 9445SOL    HW129234   5.558   3.437   3.761
 9445SOL    HW229235   5.640   3.575   3.789
 9446SOL     OW29236   6.703   5.580   4.195
 9446SOL    HW129237   6.760   5.573   4.277
 9446SOL    HW229238   6.635   5.651   4.208
 9447SOL     OW29239   5.937   3.743   4.549
 9447SOL    HW129240   6.019   3.799   4.539
 9447SOL    HW229241   5.856   3.802   4.546
 9448SOL     OW29242   0.166   0.163   6.745
 9448SOL    HW129243   0.067   0.167   6.739
 9448SOL    HW229244   0.206   0.174   6.654
 9449SOL     OW29245   6.565   5.824   0.346
 9449SOL    HW129246   6.479   5.795   0.388
 9449SOL    HW229247   6.552   5.834   0.247
 9450SOL     OW29248   2.414   5.501   4.870
 9450SOL    HW129249   2.362   5.444   4.934
 9450SOL    HW229250   2.414   5.459   4.780
 9451SOL     OW29251   4.275   6.976   5.836
 9451SOL    HW129252   4.210   6.905   5.863
 9451SOL    HW229253   4.364   6.956   5.877
 9452SOL     OW29254   2.053   4.318   0.323
 9452SOL    HW129255   1.983   4.387   0.341
 9452SOL    HW229256   2.050   4.292   0.226
 9453SOL     OW29257   1.758   4.901   3.549
 9453SOL    HW129258   1.798   4.981   3.506
 9453SOL    HW229259   1.827   4.830   3.560
 9454SOL     OW29260   3.610   2.945   6.900
 9454SOL    HW129261   3.688   2.911   6.847
 9454SOL    HW229262   3.643   3.010   6.969
 9455SOL     OW29263   3.303   1.691   2.973
 9455SOL    HW129264   3.261   1.731   3.055
 9455SOL    HW229265   3.377   1.751   2.941
 9456SOL     OW29266   0.584   3.039   1.331
 9456SOL    HW129267   0.619   3.118   1.281
 9456SOL    HW229268   0.643   3.020   1.409
 9457SOL     OW29269   2.205   3.840   5.265
 9457SOL    HW129270   2.224   3.747   5.236
 9457SOL    HW229271   2.268   3.903   5.219
 9458SOL     OW29272   1.186   3.163   6.951
 9458SOL    HW129273   1.153   3.252   6.919
 9458SOL    HW229274   1.286   3.164   6.954
 9459SOL     OW29275   5.384   4.720   3.569
 9459SOL    HW129276   5.381   4.643   3.632
 9459SOL    HW229277   5.291   4.742   3.539
 9460SOL     OW29278   6.954   3.036   3.945
 9460SOL    HW129279   6.891   3.061   4.018
 9460SOL    HW229280   7.001   2.951   3.968
 9461SOL     OW29281   6.690   1.633   2.120
 9461SOL    HW129282   6.735   1.715   2.157
 9461SOL    HW229283   6.760   1.573   2.081
 9462SOL     OW29284   2.116   3.762   3.463
 9462SOL    HW129285   2.105   3.759   3.364
 9462SOL    HW229286   2.028   3.786   3.505
 9463SOL     OW29287   6.382   0.564   2.033
 9463SOL    HW129288   6.477   0.532   2.039
 9463SOL    HW229289   6.353   0.600   2.121
 9464SOL     OW29290   6.225   0.300   0.844
 9464SOL    HW129291   6.273   0.359   0.909
 9464SOL    HW229292   6.285   0.226   0.814
 9465SOL     OW29293   1.683   4.850   2.887
 9465SOL    HW129294   1.716   4.887   2.800
 9465SOL    HW229295   1.643   4.760   2.872
 9466SOL     OW29296   4.438   4.848   6.120
 9466SOL    HW129297   4.502   4.776   6.144
 9466SOL    HW229298   4.437   4.861   6.020
 9467SOL     OW29299   1.572   2.762   2.290
 9467SOL    HW129300   1.642   2.824   2.253
 9467SOL    HW229301   1.519   2.723   2.214
 9468SOL     OW29302   5.777   3.595   6.160
 9468SOL    HW129303   5.694   3.649   6.152
 9468SOL    HW229304   5.852   3.642   6.113
 9469SOL     OW29305   6.662   5.829   1.924
 9469SOL    HW129306   6.664   5.927   1.903
 9469SOL    HW229307   6.693   5.778   1.844
 9470SOL     OW29308   4.791   3.219   5.323
 9470SOL    HW129309   4.835   3.296   5.369
 9470SOL    HW229310   4.694   3.217   5.347
 9471SOL     OW29311   0.079   1.783   4.711
 9471SOL    HW129312   7.008   1.747   4.734
 9471SOL    HW229313   0.091   1.873   4.754
 9472SOL     OW29314   6.296   3.574   5.210
 9472SOL    HW129315   6.223   3.619   5.261
 9472SOL    HW229316   6.258   3.500   5.155
 9473SOL     OW29317   2.756   5.237   6.520
 9473SOL    HW129318   2.677   5.211   6.575
 9473SOL    HW229319   2.734   5.317   6.465
 9474SOL     OW29320   0.530   2.528   6.985
 9474SOL    HW129321   0.525   2.487   0.058
 9474SOL    HW229322   0.612   2.494   6.939
 9475SOL     OW29323   3.253   3.542   6.317
 9475SOL    HW129324   3.223   3.460   6.366
 9475SOL    HW229325   3.345   3.567   6.348
 9476SOL     OW29326   3.694   4.156   4.610
 9476SOL    HW129327   3.639   4.137   4.529
 9476SOL    HW229328   3.635   4.161   4.690
 9477SOL     OW29329   0.657   3.281   1.225
 9477SOL    HW129330   0.706   3.359   1.187
 9477SOL    HW229331   0.566   3.309   1.254
 9478SOL     OW29332   5.168   2.984   0.278
 9478SOL    HW129333   5.194   3.050   0.207
 9478SOL    HW229334   5.078   3.008   0.314
 9479SOL     OW29335   4.154   6.349   6.907
 9479SOL    HW129336   4.238   6.316   6.951
 9479SOL    HW229337   4.111   6.419   6.964
 9480SOL     OW29338   4.571   3.673   0.719
 9480SOL    HW129339   4.490   3.684   0.776
 9480SOL    HW229340   4.580   3.752   0.657
 9481SOL     OW29341   4.905   3.328   2.219
 9481SOL    HW129342   4.983   3.312   2.279
 9481SOL    HW229343   4.910   3.421   2.182
 9482SOL     OW29344   0.285   1.124   2.941
 9482SOL    HW129345   0.240   1.116   2.852
 9482SOL    HW229346   0.231   1.075   3.010
 9483SOL     OW29347   1.507   2.058   1.466
 9483SOL    HW129348   1.591   2.023   1.426
 9483SOL    HW229349   1.516   2.157   1.480
 9484SOL     OW29350   4.021   0.891   3.496
 9484SOL    HW129351   4.012   0.991   3.498
 9484SOL    HW229352   4.113   0.866   3.528
 9485SOL     OW29353   0.236   0.408   0.773
 9485SOL    HW129354   0.139   0.394   0.754
 9485SOL    HW229355   0.277   0.465   0.701
 9486SOL     OW29356   3.133   6.425   1.062
 9486SOL    HW129357   3.043   6.411   1.104
 9486SOL    HW229358   3.124   6.424   0.963
 9487SOL     OW29359   3.760   3.380   3.867
 9487SOL    HW129360   3.849   3.350   3.900
 9487SOL    HW229361   3.761   3.386   3.768
 9488SOL     OW29362   2.117   6.535   0.992
 9488SOL    HW129363   2.102   6.452   0.938
 9488SOL    HW229364   2.151   6.511   1.082
 9489SOL     OW29365   4.526   4.437   1.675
 9489SOL    HW129366   4.571   4.390   1.599
 9489SOL    HW229367   4.497   4.371   1.744
 9490SOL     OW29368   0.035   5.203   1.632
 9490SOL    HW129369   0.103   5.133   1.652
 9490SOL    HW229370   0.047   5.235   1.538
 9491SOL     OW29371   6.420   5.058   3.942
 9491SOL    HW129372   6.348   5.036   3.876
 9491SOL    HW229373   6.509   5.032   3.904
 9492SOL     OW29374   3.474   2.873   3.388
 9492SOL    HW129375   3.556   2.928   3.396
 9492SOL    HW229376   3.492   2.794   3.330
 9493SOL     OW29377   3.181   5.325   3.468
 9493SOL    HW129378   3.257   5.343   3.405
 9493SOL    HW229379   3.100   5.373   3.436
 9494SOL     OW29380   4.918   4.023   1.622
 9494SOL    HW129381   5.003   3.990   1.581
 9494SOL    HW229382   4.928   4.028   1.721
 9495SOL     OW29383   6.494   1.846   3.676
 9495SOL    HW129384   6.410   1.830   3.728
 9495SOL    HW229385   6.567   1.788   3.711
 9496SOL     OW29386   6.293   4.208   1.693
 9496SOL    HW129387   6.332   4.299   1.698
 9496SOL    HW229388   6.272   4.175   1.785
 9497SOL     OW29389   5.406   6.119   6.265
 9497SOL    HW129390   5.335   6.154   6.326
 9497SOL    HW229391   5.413   6.178   6.185
 9498SOL     OW29392   4.463   6.681   4.535
 9498SOL    HW129393   4.523   6.692   4.455
 9498SOL    HW229394   4.402   6.603   4.519
 9499SOL     OW29395   1.953   5.318   6.603
 9499SOL    HW129396   1.869   5.273   6.573
 9499SOL    HW229397   1.974   5.394   6.542
 9500SOL     OW29398   5.248   0.639   0.676
 9500SOL    HW129399   5.168   0.629   0.736
 9500SOL    HW229400   5.279   0.549   0.647
 9501SOL     OW29401   2.979   1.028   4.497
 9501SOL    HW129402   2.920   1.002   4.420
 9501SOL    HW229403   3.075   1.016   4.471
 9502SOL     OW29404   5.345   2.541   5.323
 9502SOL    HW129405   5.327   2.448   5.291
 9502SOL    HW229406   5.416   2.582   5.266
 9503SOL     OW29407   0.233   1.647   1.974
 9503SOL    HW129408   0.316   1.592   1.982
 9503SOL    HW229409   0.257   1.744   1.972
 9504SOL     OW29410   0.300   2.544   1.159
 9504SOL    HW129411   0.204   2.568   1.173
 9504SOL    HW229412   0.307   2.465   1.099
 9505SOL     OW29413   5.152   4.825   3.453
 9505SOL    HW129414   5.164   4.793   3.359
 9505SOL    HW229415   5.121   4.920   3.452
 9506SOL     OW29416   0.479   2.159   6.190
 9506SOL    HW129417   0.530   2.116   6.264
 9506SOL    HW229418   0.471   2.095   6.113
 9507SOL     OW29419   0.896   2.724   3.550
 9507SOL    HW129420   0.913   2.630   3.520
 9507SOL    HW229421   0.858   2.776   3.474
 9508SOL     OW29422   6.532   2.422   0.618
 9508SOL    HW129423   6.540   2.460   0.710
 9508SOL    HW229424   6.485   2.488   0.559
 9509SOL     OW29425   0.933   1.249   3.869
 9509SOL    HW129426   1.030   1.265   3.853
 9509SOL    HW229427   0.884   1.337   3.870
 9510SOL     OW29428   1.374   3.496   2.938
 9510SOL    HW129429   1.381   3.540   3.027
 9510SOL    HW229430   1.416   3.405   2.943
 9511SOL     OW29431   1.148   0.281   0.883
 9511SOL    HW129432   1.073   0.339   0.915
 9511SOL    HW229433   1.232   0.335   0.878
 9512SOL     OW29434   5.859   1.712   1.182
 9512SOL    HW129435   5.792   1.663   1.126
 9512SOL    HW229436   5.816   1.740   1.268
 9513SOL     OW29437   2.074   3.998   6.408
 9513SOL    HW129438   2.033   4.089   6.405
 9513SOL    HW229439   2.080   3.961   6.316
 9514SOL     OW29440   2.208   5.026   6.222
 9514SOL    HW129441   2.198   4.953   6.290
 9514SOL    HW229442   2.303   5.056   6.219
 9515SOL     OW29443   1.795   5.589   1.114
 9515SOL    HW129444   1.802   5.574   1.212
 9515SOL    HW229445   1.700   5.605   1.089
 9516SOL     OW29446   5.080   4.141   5.232
 9516SOL    HW129447   5.026   4.092   5.301
 9516SOL    HW229448   5.041   4.231   5.217
 9517SOL     OW29449   1.281   5.060   0.814
 9517SOL    HW129450   1.229   5.107   0.742
 9517SOL    HW229451   1.314   5.127   0.880
 9518SOL     OW29452   2.195   2.432   0.036
 9518SOL    HW129453   2.232   2.525   0.042
 9518SOL    HW229454   2.220   2.381   0.118
 9519SOL     OW29455   3.954   3.438   4.640
 9519SOL    HW129456   3.996   3.372   4.703
 9519SOL    HW229457   3.973   3.531   4.672
 9520SOL     OW29458   1.350   1.523   3.694
 9520SOL    HW129459   1.255   1.512   3.664
 9520SOL    HW229460   1.411   1.477   3.629
 9521SOL     OW29461   4.795   5.166   1.424
 9521SOL    HW129462   4.701   5.168   1.457
 9521SOL    HW229463   4.798   5.190   1.327
 9522SOL     OW29464   3.725   5.291   1.371
 9522SOL    HW129465   3.699   5.388   1.368
 9522SOL    HW229466   3.815   5.282   1.414
 9523SOL     OW29467   2.652   4.746   5.192
 9523SOL    HW129468   2.564   4.704   5.215
 9523SOL    HW229469   2.686   4.709   5.106
 9524SOL     OW29470   3.550   3.400   0.917
 9524SOL    HW129471   3.596   3.447   0.842
 9524SOL    HW229472   3.451   3.418   0.912
 9525SOL     OW29473   2.497   2.531   5.619
 9525SOL    HW129474   2.445   2.490   5.694
 9525SOL    HW229475   2.594   2.528   5.641
 9526SOL     OW29476   6.588   4.719   1.336
 9526SOL    HW129477   6.663   4.654   1.323
 9526SOL    HW229478   6.622   4.802   1.379
 9527SOL     OW29479   0.376   0.800   4.476
 9527SOL    HW129480   0.403   0.844   4.562
 9527SOL    HW229481   0.389   0.701   4.484
 9528SOL     OW29482   6.958   1.482   0.544
 9528SOL    HW129483   0.019   1.433   0.511
 9528SOL    HW229484   6.918   1.536   0.470
 9529SOL     OW29485   6.453   3.500   6.496
 9529SOL    HW129486   6.357   3.526   6.490
 9529SOL    HW229487   6.499   3.517   6.409
 9530SOL     OW29488   2.143   3.479   2.586
 9530SOL    HW129489   2.146   3.576   2.559
 9530SOL    HW229490   2.086   3.469   2.667
 9531SOL     OW29491   4.442   5.232   2.681
 9531SOL    HW129492   4.531   5.273   2.701
 9531SOL    HW229493   4.451   5.132   2.682
 9532SOL     OW29494   6.575   6.202   1.373
 9532SOL    HW129495   6.552   6.175   1.280
 9532SOL    HW229496   6.591   6.300   1.377
 9533SOL     OW29497   6.983   5.985   5.252
 9533SOL    HW129498   7.016   6.017   5.341
 9533SOL    HW229499   0.031   5.922   5.212
 9534SOL     OW29500   0.251   3.719   4.928
 9534SOL    HW129501   0.179   3.768   4.977
 9534SOL    HW229502   0.328   3.701   4.990
 9535SOL     OW29503   2.061   1.127   6.347
 9535SOL    HW129504   2.151   1.089   6.371
 9535SOL    HW229505   1.993   1.095   6.413
 9536SOL     OW29506   2.904   3.872   5.542
 9536SOL    HW129507   2.912   3.773   5.550
 9536SOL    HW229508   2.884   3.896   5.447
 9537SOL     OW29509   2.624   6.547   3.600
 9537SOL    HW129510   2.555   6.607   3.639
 9537SOL    HW229511   2.704   6.546   3.658
 9538SOL     OW29512   5.711   1.921   3.732
 9538SOL    HW129513   5.693   1.983   3.656
 9538SOL    HW229514   5.745   1.834   3.697
 9539SOL     OW29515   3.347   3.719   5.037
 9539SOL    HW129516   3.389   3.629   5.046
 9539SOL    HW229517   3.385   3.781   5.106
 9540SOL     OW29518   5.914   4.111   4.207
 9540SOL    HW129519   5.995   4.163   4.231
 9540SOL    HW229520   5.940   4.023   4.168
 9541SOL     OW29521   3.493   0.847   5.436
 9541SOL    HW129522   3.582   0.803   5.450
 9541SOL    HW229523   3.451   0.811   5.352
 9542SOL     OW29524   4.910   4.731   4.958
 9542SOL    HW129525   4.947   4.797   5.023
 9542SOL    HW229526   4.980   4.663   4.937
 9543SOL     OW29527   3.700   0.760   5.744
 9543SOL    HW129528   3.670   0.855   5.744
 9543SOL    HW229529   3.686   0.720   5.835
 9544SOL     OW29530   6.978   2.032   3.454
 9544SOL    HW129531   6.946   2.012   3.362
 9544SOL    HW229532   6.903   2.064   3.511
 9545SOL     OW29533   6.371   5.849   4.082
 9545SOL    HW129534   6.359   5.870   4.179
 9545SOL    HW229535   6.309   5.907   4.029
 9546SOL     OW29536   3.478   2.156   5.272
 9546SOL    HW129537   3.519   2.099   5.344
 9546SOL    HW229538   3.439   2.238   5.313
 9547SOL     OW29539   2.039   6.433   4.542
 9547SOL    HW129540   2.041   6.334   4.555
 9547SOL    HW229541   1.955   6.471   4.581
 9548SOL     OW29542   6.258   5.236   6.341
 9548SOL    HW129543   6.223   5.195   6.425
 9548SOL    HW229544   6.282   5.165   6.276
 9549SOL     OW29545   2.453   2.604   1.154
 9549SOL    HW129546   2.432   2.511   1.184
 9549SOL    HW229547   2.521   2.643   1.216
 9550SOL     OW29548   0.599   1.497   0.524
 9550SOL    HW129549   0.623   1.429   0.456
 9550SOL    HW229550   0.681   1.526   0.574
 9551SOL     OW29551   5.359   1.309   4.456
 9551SOL    HW129552   5.349   1.303   4.555
 9551SOL    HW229553   5.334   1.401   4.425
 9552SOL     OW29554   1.380   0.067   3.595
 9552SOL    HW129555   1.362   0.028   3.685
 9552SOL    HW229556   1.295   0.101   3.556
 9553SOL     OW29557   6.413   3.520   6.085
 9553SOL    HW129558   6.454   3.458   6.019
 9553SOL    HW229559   6.479   3.538   6.159
 9554SOL     OW29560   1.569   6.925   0.968
 9554SOL    HW129561   1.666   6.900   0.963
 9554SOL    HW229562   1.544   6.941   1.064
 9555SOL     OW29563   1.187   0.927   3.040
 9555SOL    HW129564   1.153   0.962   2.952
 9555SOL    HW229565   1.257   0.858   3.024
 9556SOL     OW29566   1.047   3.226   1.545
 9556SOL    HW129567   0.975   3.174   1.499
 9556SOL    HW229568   1.008   3.312   1.580
 9557SOL     OW29569   0.809   6.900   2.595
 9557SOL    HW129570   0.908   6.912   2.585
 9557SOL    HW229571   0.772   6.859   2.511
 9558SOL     OW29572   6.166   6.412   4.982
 9558SOL    HW129573   6.261   6.435   5.000
 9558SOL    HW229574   6.120   6.388   5.068
 9559SOL     OW29575   6.986   4.609   0.922
 9559SOL    HW129576   6.896   4.571   0.943
 9559SOL    HW229577   0.029   4.536   0.892
 9560SOL     OW29578   1.972   1.724   3.105
 9560SOL    HW129579   1.983   1.813   3.062
 9560SOL    HW229580   1.985   1.733   3.204
 9561SOL     OW29581   1.512   6.602   0.108
 9561SOL    HW129582   1.418   6.619   0.079
 9561SOL    HW229583   1.568   6.684   0.093
 9562SOL     OW29584   2.991   0.343   5.686
 9562SOL    HW129585   2.915   0.337   5.751
 9562SOL    HW229586   2.997   0.437   5.650
 9563SOL     OW29587   5.669   6.401   0.885
 9563SOL    HW129588   5.750   6.421   0.829
 9563SOL    HW229589   5.626   6.487   0.912
 9564SOL     OW29590   3.179   6.737   0.153
 9564SOL    HW129591   3.130   6.659   0.115
 9564SOL    HW229592   3.212   6.795   0.079
 9565SOL     OW29593   4.086   0.135   4.690
 9565SOL    HW129594   4.013   0.077   4.654
 9565SOL    HW229595   4.173   0.111   4.647
 9566SOL     OW29596   1.934   5.492   0.021
 9566SOL    HW129597   1.966   5.424   6.974
 9566SOL    HW229598   1.871   5.555   6.995
 9567SOL     OW29599   5.256   4.933   0.073
 9567SOL    HW129600   5.267   4.847   0.123
 9567SOL    HW229601   5.190   4.919   7.018
 9568SOL     OW29602   4.565   2.475   6.382
 9568SOL    HW129603   4.593   2.543   6.451
 9568SOL    HW229604   4.592   2.384   6.413
 9569SOL     OW29605   0.791   1.848   3.187
 9569SOL    HW129606   0.860   1.776   3.193
 9569SOL    HW229607   0.834   1.934   3.157
 9570SOL     OW29608   0.708   3.422   2.665
 9570SOL    HW129609   0.701   3.522   2.668
 9570SOL    HW229610   0.617   3.383   2.650
 9571SOL     OW29611   3.750   4.042   6.725
 9571SOL    HW129612   3.816   4.115   6.703
 9571SOL    HW229613   3.660   4.069   6.692
 9572SOL     OW29614   1.743   5.417   2.006
 9572SOL    HW129615   1.667   5.444   2.065
 9572SOL    HW229616   1.826   5.410   2.061
 9573SOL     OW29617   1.115   1.190   6.775
 9573SOL    HW129618   1.119   1.130   6.855
 9573SOL    HW229619   1.028   1.179   6.728
 9574SOL     OW29620   4.129   3.219   4.205
 9574SOL    HW129621   4.189   3.173   4.139
 9574SOL    HW229622   4.102   3.155   4.276
 9575SOL     OW29623   6.781   1.129   1.445
 9575SOL    HW129624   6.739   1.112   1.355
 9575SOL    HW229625   6.715   1.106   1.517
 9576SOL     OW29626   2.277   0.404   1.857
 9576SOL    HW129627   2.256   0.469   1.931
 9576SOL    HW229628   2.373   0.413   1.832
 9577SOL     OW29629   1.338   0.787   5.690
 9577SOL    HW129630   1.263   0.823   5.746
 9577SOL    HW229631   1.417   0.768   5.748
 9578SOL     OW29632   0.863   3.767   3.748
 9578SOL    HW129633   0.922   3.814   3.814
 9578SOL    HW229634   0.788   3.722   3.796
 9579SOL     OW29635   1.584   5.199   3.001
 9579SOL    HW129636   1.619   5.274   3.057
 9579SOL    HW229637   1.550   5.126   3.060
 9580SOL     OW29638   3.877   3.281   0.898
 9580SOL    HW129639   3.899   3.203   0.957
 9580SOL    HW229640   3.849   3.359   0.955
 9581SOL     OW29641   0.765   5.166   6.654
 9581SOL    HW129642   0.826   5.109   6.600
 9581SOL    HW229643   0.716   5.228   6.593
 9582SOL     OW29644   5.014   5.303   5.756
 9582SOL    HW129645   4.946   5.359   5.710
 9582SOL    HW229646   5.066   5.251   5.689
 9583SOL     OW29647   4.203   4.635   1.397
 9583SOL    HW129648   4.232   4.562   1.335
 9583SOL    HW229649   4.104   4.629   1.412
 9584SOL     OW29650   6.518   6.190   6.957
 9584SOL    HW129651   6.443   6.205   6.892
 9584SOL    HW229652   6.573   6.274   6.963
 9585SOL     OW29653   6.175   0.143   4.242
 9585SOL    HW129654   6.154   0.058   4.193
 9585SOL    HW229655   6.271   0.142   4.271
 9586SOL     OW29656   6.338   4.290   2.891
 9586SOL    HW129657   6.251   4.265   2.848
 9586SOL    HW229658   6.333   4.276   2.990
 9587SOL     OW29659   0.358   1.341   2.099
 9587SOL    HW129660   0.371   1.379   2.190
 9587SOL    HW229661   0.386   1.245   2.098
 9588SOL     OW29662   0.842   1.798   2.252
 9588SOL    HW129663   0.887   1.795   2.162
 9588SOL    HW229664   0.825   1.705   2.283
 9589SOL     OW29665   2.521   5.596   5.883
 9589SOL    HW129666   2.557   5.593   5.790
 9589SOL    HW229667   2.422   5.592   5.881
 9590SOL     OW29668   0.570   3.591   2.374
 9590SOL    HW129669   0.557   3.690   2.379
 9590SOL    HW229670   0.544   3.559   2.283
 9591SOL     OW29671   3.079   6.026   6.814
 9591SOL    HW129672   3.081   6.112   6.763
 9591SOL    HW229673   2.984   6.000   6.831
 9592SOL     OW29674   3.373   4.200   1.253
 9592SOL    HW129675   3.332   4.259   1.183
 9592SOL    HW229676   3.362   4.104   1.227
 9593SOL     OW29677   6.584   0.288   4.617
 9593SOL    HW129678   6.520   0.322   4.547
 9593SOL    HW229679   6.544   0.209   4.663
 9594SOL     OW29680   1.529   6.874   2.820
 9594SOL    HW129681   1.482   6.962   2.822
 9594SOL    HW229682   1.465   6.802   2.846
 9595SOL     OW29683   1.994   4.585   5.249
 9595SOL    HW129684   2.075   4.603   5.193
 9595SOL    HW229685   2.010   4.504   5.305
 9596SOL     OW29686   0.384   6.047   0.307
 9596SOL    HW129687   0.398   6.108   0.386
 9596SOL    HW229688   0.287   6.032   0.293
 9597SOL     OW29689   0.374   4.608   0.588
 9597SOL    HW129690   0.386   4.671   0.665
 9597SOL    HW229691   0.430   4.527   0.603
 9598SOL     OW29692   1.463   3.666   4.565
 9598SOL    HW129693   1.517   3.741   4.605
 9598SOL    HW229694   1.450   3.683   4.467
 9599SOL     OW29695   3.760   0.369   5.652
 9599SOL    HW129696   3.725   0.335   5.739
 9599SOL    HW229697   3.831   0.438   5.670
 9600SOL     OW29698   2.250   0.196   0.244
 9600SOL    HW129699   2.271   0.112   0.293
 9600SOL    HW229700   2.215   0.174   0.153
 9601SOL     OW29701   6.386   3.907   0.748
 9601SOL    HW129702   6.416   3.977   0.684
 9601SOL    HW229703   6.295   3.929   0.782
 9602SOL     OW29704   6.468   4.470   6.391
 9602SOL    HW129705   6.421   4.503   6.473
 9602SOL    HW229706   6.549   4.418   6.418
 9603SOL     OW29707   3.284   1.551   5.283
 9603SOL    HW129708   3.236   1.634   5.255
 9603SOL    HW229709   3.272   1.537   5.381
 9604SOL     OW29710   4.082   0.372   7.011
 9604SOL    HW129711   4.165   0.371   0.047
 9604SOL    HW229712   4.095   0.317   6.929
 9605SOL     OW29713   0.701   4.728   4.469
 9605SOL    HW129714   0.736   4.689   4.384
 9605SOL    HW229715   0.605   4.704   4.479
 9606SOL     OW29716   1.569   6.053   5.654
 9606SOL    HW129717   1.642   5.993   5.621
 9606SOL    HW229718   1.547   6.121   5.584
 9607SOL     OW29719   1.324   1.641   1.554
 9607SOL    HW129720   1.315   1.725   1.608
 9607SOL    HW229721   1.364   1.663   1.465
 9608SOL     OW29722   6.375   6.541   2.016
 9608SOL    HW129723   6.424   6.520   1.932
 9608SOL    HW229724   6.425   6.610   2.068
 9609SOL     OW29725   2.017   3.147   6.555
 9609SOL    HW129726   1.938   3.113   6.607
 9609SOL    HW229727   2.040   3.082   6.483
 9610SOL     OW29728   1.604   5.011   4.051
 9610SOL    HW129729   1.531   4.964   4.100
 9610SOL    HW229730   1.675   5.040   4.115
 9611SOL     OW29731   0.445   6.932   0.262
 9611SOL    HW129732   0.354   6.892   0.268
 9611SOL    HW229733   0.500   6.904   0.341
 9612SOL     OW29734   0.349   3.566   1.928
 9612SOL    HW129735   0.432   3.591   1.979
 9612SOL    HW229736   0.272   3.559   1.992
 9613SOL     OW29737   3.867   6.547   2.965
 9613SOL    HW129738   3.867   6.567   3.063
 9613SOL    HW229739   3.833   6.626   2.915
 9614SOL     OW29740   3.672   2.692   0.900
 9614SOL    HW129741   3.609   2.691   0.823
 9614SOL    HW229742   3.754   2.744   0.875
 9615SOL     OW29743   0.659   6.910   2.174
 9615SOL    HW129744   0.630   6.889   2.080
 9615SOL    HW229745   0.638   7.006   2.194
 9616SOL     OW29746   4.592   3.261   1.021
 9616SOL    HW129747   4.677   3.276   0.971
 9616SOL    HW229748   4.546   3.349   1.035
 9617SOL     OW29749   1.499   3.596   4.273
 9617SOL    HW129750   1.585   3.636   4.239
 9617SOL    HW229751   1.491   3.502   4.242
 9618SOL     OW29752   3.839   6.784   6.204
 9618SOL    HW129753   3.779   6.729   6.145
 9618SOL    HW229754   3.805   6.782   6.298
 9619SOL     OW29755   0.772   0.003   0.129
 9619SOL    HW129756   0.778   0.016   0.228
 9619SOL    HW229757   0.678   6.997   0.105
 9620SOL     OW29758   5.158   2.467   6.604
 9620SOL    HW129759   5.248   2.423   6.605
 9620SOL    HW229760   5.156   2.536   6.531
 9621SOL     OW29761   1.516   1.393   2.878
 9621SOL    HW129762   1.615   1.405   2.867
 9621SOL    HW229763   1.470   1.422   2.794
 9622SOL     OW29764   5.712   0.980   0.247
 9622SOL    HW129765   5.661   0.983   0.161
 9622SOL    HW229766   5.728   0.885   0.273
 9623SOL     OW29767   4.198   4.994   5.404
 9623SOL    HW129768   4.252   5.022   5.483
 9623SOL    HW229769   4.178   5.074   5.348
 9624SOL     OW29770   6.000   4.309   3.842
 9624SOL    HW129771   6.060   4.378   3.801
 9624SOL    HW229772   6.055   4.243   3.892
 9625SOL     OW29773   5.152   5.525   6.783
 9625SOL    HW129774   5.100   5.455   6.832
 9625SOL    HW229775   5.232   5.552   6.838
 9626SOL     OW29776   2.486   6.073   6.723
 9626SOL    HW129777   2.425   6.148   6.748
 9626SOL    HW229778   2.433   5.989   6.712
 9627SOL     OW29779   6.886   4.151   4.439
 9627SOL    HW129780   6.872   4.057   4.409
 9627SOL    HW229781   6.797   4.195   4.453
 9628SOL     OW29782   6.349   4.501   0.459
 9628SOL    HW129783   6.338   4.441   0.537
 9628SOL    HW229784   6.302   4.463   0.380
 9629SOL     OW29785   7.006   6.593   3.004
 9629SOL    HW129786   6.971   6.507   2.966
 9629SOL    HW229787   0.084   6.583   3.025
 9630SOL     OW29788   6.567   6.396   5.366
 9630SOL    HW129789   6.590   6.299   5.362
 9630SOL    HW229790   6.511   6.414   5.447
 9631SOL     OW29791   5.135   1.549   0.174
 9631SOL    HW129792   5.081   1.597   0.243
 9631SOL    HW229793   5.220   1.515   0.216
 9632SOL     OW29794   2.171   5.217   2.220
 9632SOL    HW129795   2.125   5.165   2.292
 9632SOL    HW229796   2.248   5.267   2.259
 9633SOL     OW29797   3.903   4.473   0.310
 9633SOL    HW129798   3.835   4.488   0.237
 9633SOL    HW229799   3.992   4.508   0.280
 9634SOL     OW29800   6.938   6.802   4.062
 9634SOL    HW129801   6.899   6.858   3.989
 9634SOL    HW229802   6.970   6.715   4.024
 9635SOL     OW29803   2.575   4.640   5.627
 9635SOL    HW129804   2.650   4.573   5.625
 9635SOL    HW229805   2.488   4.593   5.607
 9636SOL     OW29806   4.425   2.063   6.248
 9636SOL    HW129807   4.490   1.997   6.210
 9636SOL    HW229808   4.462   2.155   6.239
 9637SOL     OW29809   3.574   2.100   0.075
 9637SOL    HW129810   3.554   2.175   0.012
 9637SOL    HW229811   3.520   2.112   0.158
 9638SOL     OW29812   0.351   3.542   6.023
 9638SOL    HW129813   0.267   3.587   6.053
 9638SOL    HW229814   0.329   3.457   5.976
 9639SOL     OW29815   4.428   1.847   1.706
 9639SOL    HW129816   4.409   1.896   1.621
 9639SOL    HW229817   4.349   1.852   1.766
 9640SOL     OW29818   3.122   0.816   2.932
 9640SOL    HW129819   3.184   0.857   2.865
 9640SOL    HW229820   3.169   0.744   2.982
 9641SOL     OW29821   5.344   5.373   1.788
 9641SOL    HW129822   5.429   5.335   1.753
 9641SOL    HW229823   5.363   5.461   1.833
 9642SOL     OW29824   2.042   5.290   4.589
 9642SOL    HW129825   2.066   5.234   4.510
 9642SOL    HW229826   2.089   5.378   4.585
 9643SOL     OW29827   5.821   4.452   3.984
 9643SOL    HW129828   5.889   4.412   3.923
 9643SOL    HW229829   5.834   4.416   4.076
 9644SOL     OW29830   0.510   5.101   5.173
 9644SOL    HW129831   0.578   5.166   5.207
 9644SOL    HW229832   0.505   5.023   5.236
 9645SOL     OW29833   2.717   4.861   4.055
 9645SOL    HW129834   2.803   4.837   4.009
 9645SOL    HW229835   2.712   4.812   4.143
 9646SOL     OW29836   2.314   4.707   2.590
 9646SOL    HW129837   2.271   4.711   2.681
 9646SOL    HW229838   2.395   4.765   2.589
 9647SOL     OW29839   0.558   5.834   2.779
 9647SOL    HW129840   0.552   5.892   2.697
 9647SOL    HW229841   0.592   5.743   2.752
 9648SOL     OW29842   3.294   1.705   0.091
 9648SOL    HW129843   3.352   1.738   0.166
 9648SOL    HW229844   3.336   1.730   0.003
 9649SOL     OW29845   2.261   4.576   6.839
 9649SOL    HW129846   2.259   4.477   6.825
 9649SOL    HW229847   2.173   4.616   6.814
 9650SOL     OW29848   4.848   4.549   2.876
 9650SOL    HW129849   4.757   4.533   2.916
 9650SOL    HW229850   4.842   4.622   2.808
 9651SOL     OW29851   5.972   1.316   0.788
 9651SOL    HW129852   5.903   1.370   0.739
 9651SOL    HW229853   6.061   1.360   0.781
 9652SOL     OW29854   1.897   4.425   1.387
 9652SOL    HW129855   1.910   4.411   1.485
 9652SOL    HW229856   1.855   4.515   1.372
 9653SOL     OW29857   4.838   5.585   5.199
 9653SOL    HW129858   4.786   5.664   5.233
 9653SOL    HW229859   4.913   5.565   5.262
 9654SOL     OW29860   3.364   3.172   2.784
 9654SOL    HW129861   3.387   3.076   2.766
 9654SOL    HW229862   3.449   3.226   2.784
 9655SOL     OW29863   0.422   1.682   0.640
 9655SOL    HW129864   0.328   1.666   0.608
 9655SOL    HW229865   0.484   1.621   0.590
 9656SOL     OW29866   4.102   1.946   0.665
 9656SOL    HW129867   4.127   1.891   0.585
 9656SOL    HW229868   4.174   1.940   0.733
 9657SOL     OW29869   6.057   3.077   3.308
 9657SOL    HW129870   6.013   3.144   3.248
 9657SOL    HW229871   6.019   2.986   3.291
 9658SOL     OW29872   5.641   2.322   2.057
 9658SOL    HW129873   5.600   2.240   2.016
 9658SOL    HW229874   5.622   2.324   2.155
 9659SOL     OW29875   0.044   3.018   0.261
 9659SOL    HW129876   0.009   2.971   0.180
 9659SOL    HW229877   0.120   2.966   0.300
 9660SOL     OW29878   0.640   0.050   2.712
 9660SOL    HW129879   0.566   7.008   2.684
 9660SOL    HW229880   0.727   0.017   2.675
 9661SOL     OW29881   3.297   5.885   0.979
 9661SOL    HW129882   3.349   5.967   1.003
 9661SOL    HW229883   3.265   5.893   0.884
 9662SOL     OW29884   4.105   3.062   5.746
 9662SOL    HW129885   4.151   3.150   5.761
 9662SOL    HW229886   4.071   3.027   5.833
 9663SOL     OW29887   6.332   6.774   2.831
 9663SOL    HW129888   6.297   6.781   2.738
 9663SOL    HW229889   6.345   6.865   2.870
 9664SOL     OW29890   5.700   5.438   4.862
 9664SOL    HW129891   5.713   5.344   4.832
 9664SOL    HW229892   5.603   5.461   4.861
 9665SOL     OW29893   5.678   6.352   6.456
 9665SOL    HW129894   5.756   6.406   6.426
 9665SOL    HW229895   5.595   6.385   6.410
 9666SOL     OW29896   6.796   3.725   2.361
 9666SOL    HW129897   6.770   3.658   2.291
 9666SOL    HW229898   6.832   3.678   2.441
 9667SOL     OW29899   4.411   3.419   6.442
 9667SOL    HW129900   4.358   3.439   6.524
 9667SOL    HW229901   4.349   3.391   6.368
 9668SOL     OW29902   6.683   0.353   6.095
 9668SOL    HW129903   6.673   0.448   6.067
 9668SOL    HW229904   6.761   0.312   6.045
 9669SOL     OW29905   1.980   6.674   2.102
 9669SOL    HW129906   1.987   6.727   2.187
 9669SOL    HW229907   1.909   6.604   2.113
 9670SOL     OW29908   6.603   5.065   6.176
 9670SOL    HW129909   6.511   5.097   6.156
 9670SOL    HW229910   6.609   5.034   6.271
 9671SOL     OW29911   6.532   4.329   0.057
 9671SOL    HW129912   6.569   4.355   6.987
 9671SOL    HW229913   6.597   4.355   0.129
 9672SOL     OW29914   1.444   5.739   3.787
 9672SOL    HW129915   1.362   5.710   3.837
 9672SOL    HW229916   1.514   5.668   3.795
 9673SOL     OW29917   4.863   3.378   1.446
 9673SOL    HW129918   4.836   3.298   1.501
 9673SOL    HW229919   4.927   3.433   1.498
 9674SOL     OW29920   2.891   6.644   3.149
 9674SOL    HW129921   2.840   6.619   3.231
 9674SOL    HW229922   2.931   6.562   3.108
 9675SOL     OW29923   5.352   2.876   6.686
 9675SOL    HW129924   5.260   2.910   6.667
 9675SOL    HW229925   5.350   2.821   6.770
 9676SOL     OW29926   1.782   3.731   5.848
 9676SOL    HW129927   1.877   3.707   5.829
 9676SOL    HW229928   1.778   3.824   5.884
 9677SOL     OW29929   0.053   5.317   4.715
 9677SOL    HW129930   0.141   5.337   4.671
 9677SOL    HW229931   0.031   5.220   4.701
 9678SOL     OW29932   3.050   3.766   3.580
 9678SOL    HW129933   3.126   3.791   3.521
 9678SOL    HW229934   3.009   3.680   3.549
 9679SOL     OW29935   3.423   0.994   3.303
 9679SOL    HW129936   3.508   0.988   3.251
 9679SOL    HW229937   3.394   1.089   3.308
 9680SOL     OW29938   4.727   1.060   2.808
 9680SOL    HW129939   4.784   1.089   2.731
 9680SOL    HW229940   4.689   0.969   2.789
 9681SOL     OW29941   2.601   1.631   0.773
 9681SOL    HW129942   2.513   1.586   0.786
 9681SOL    HW229943   2.628   1.676   0.858
 9682SOL     OW29944   4.698   4.506   3.737
 9682SOL    HW129945   4.769   4.570   3.766
 9682SOL    HW229946   4.632   4.495   3.811
 9683SOL     OW29947   2.985   5.615   1.253
 9683SOL    HW129948   3.038   5.593   1.335
 9683SOL    HW229949   3.012   5.704   1.218
 9684SOL     OW29950   0.328   3.255   6.158
 9684SOL    HW129951   0.269   3.209   6.224
 9684SOL    HW229952   0.394   3.313   6.206
 9685SOL     OW29953   3.510   4.558   1.237
 9685SOL    HW129954   3.525   4.479   1.179
 9685SOL    HW229955   3.567   4.550   1.319
 9686SOL     OW29956   0.112   2.080   0.017
 9686SOL    HW129957   0.132   2.012   6.966
 9686SOL    HW229958   0.032   2.134   7.009
 9687SOL     OW29959   1.870   1.102   4.222
 9687SOL    HW129960   1.875   1.201   4.232
 9687SOL    HW229961   1.960   1.066   4.197
 9688SOL     OW29962   0.991   3.634   2.735
 9688SOL    HW129963   0.903   3.587   2.725
 9688SOL    HW229964   1.036   3.640   2.646
 9689SOL     OW29965   0.845   4.794   5.784
 9689SOL    HW129966   0.820   4.707   5.825
 9689SOL    HW229967   0.800   4.869   5.833
 9690SOL     OW29968   6.254   5.160   6.888
 9690SOL    HW129969   6.221   5.116   6.972
 9690SOL    HW229970   6.329   5.221   6.909
 9691SOL     OW29971   3.469   5.159   1.091
 9691SOL    HW129972   3.545   5.107   1.053
 9691SOL    HW229973   3.478   5.164   1.190
 9692SOL     OW29974   3.478   5.666   2.564
 9692SOL    HW129975   3.483   5.570   2.535
 9692SOL    HW229976   3.489   5.670   2.664
 9693SOL     OW29977   5.866   4.439   2.444
 9693SOL    HW129978   5.887   4.535   2.463
 9693SOL    HW229979   5.933   4.381   2.491
 9694SOL     OW29980   2.370   0.827   0.589
 9694SOL    HW129981   2.440   0.771   0.634
 9694SOL    HW229982   2.281   0.805   0.628
 9695SOL     OW29983   6.498   3.058   3.149
 9695SOL    HW129984   6.408   3.102   3.150
 9695SOL    HW229985   6.567   3.123   3.118
 9696SOL     OW29986   5.598   3.489   1.216
 9696SOL    HW129987   5.551   3.533   1.140
 9696SOL    HW229988   5.646   3.558   1.270
 9697SOL     OW29989   0.406   5.115   0.021
 9697SOL    HW129990   0.468   5.095   6.963
 9697SOL    HW229991   0.348   5.193   7.017
 9698SOL     OW29992   4.571   1.875   6.132
 9698SOL    HW129993   4.530   1.883   6.041
 9698SOL    HW229994   4.660   1.830   6.124
 9699SOL     OW29995   6.496   5.319   6.929
 9699SOL    HW129996   6.447   5.406   6.932
 9699SOL    HW229997   6.500   5.280   0.002
 9700SOL     OW29998   4.661   5.604   4.978
 9700SOL    HW129999   4.693   5.694   4.947
 9700SOL    HW230000   4.714   5.577   5.059
 9701SOL     OW30001   4.540   5.079   5.918
 9701SOL    HW130002   4.631   5.102   5.883
 9701SOL    HW230003   4.528   4.980   5.918
 9702SOL     OW30004   4.691   0.181   6.618
 9702SOL    HW130005   4.750   0.238   6.675
 9702SOL    HW230006   4.712   0.197   6.522
 9703SOL     OW30007   4.921   3.828   3.640
 9703SOL    HW130008   4.948   3.735   3.613
 9703SOL    HW230009   4.905   3.830   3.739
 9704SOL     OW30010   3.604   0.361   2.005
 9704SOL    HW130011   3.660   0.351   1.922
 9704SOL    HW230012   3.548   0.278   2.016
 9705SOL     OW30013   5.372   4.358   5.575
 9705SOL    HW130014   5.470   4.378   5.568
 9705SOL    HW230015   5.344   4.297   5.501
 9706SOL     OW30016   1.478   3.399   0.403
 9706SOL    HW130017   1.503   3.488   0.365
 9706SOL    HW230018   1.416   3.412   0.481
 9707SOL     OW30019   6.696   4.701   2.320
 9707SOL    HW130020   6.712   4.798   2.302
 9707SOL    HW230021   6.604   4.676   2.290
 9708SOL     OW30022   1.688   1.791   4.171
 9708SOL    HW130023   1.787   1.771   4.171
 9708SOL    HW230024   1.665   1.843   4.089
 9709SOL     OW30025   5.368   6.869   2.991
 9709SOL    HW130026   5.443   6.810   2.963
 9709SOL    HW230027   5.281   6.824   2.971
 9710SOL     OW30028   6.885   1.737   1.430
 9710SOL    HW130029   6.838   1.723   1.517
 9710SOL    HW230030   6.818   1.736   1.356
 9711SOL     OW30031   3.036   5.452   5.945
 9711SOL    HW130032   2.998   5.362   5.922
 9711SOL    HW230033   3.114   5.471   5.886
 9712SOL     OW30034   5.704   3.340   6.711
 9712SOL    HW130035   5.736   3.277   6.641
 9712SOL    HW230036   5.702   3.433   6.675
 9713SOL     OW30037   0.856   4.726   3.398
 9713SOL    HW130038   0.905   4.756   3.315
 9713SOL    HW230039   0.872   4.792   3.471
 9714SOL     OW30040   4.290   6.257   6.423
 9714SOL    HW130041   4.377   6.273   6.377
 9714SOL    HW230042   4.217   6.307   6.374
 9715SOL     OW30043   5.703   3.621   6.605
 9715SOL    HW130044   5.779   3.628   6.541
 9715SOL    HW230045   5.699   3.703   6.662
 9716SOL     OW30046   3.892   4.563   6.920
 9716SOL    HW130047   3.832   4.532   6.995
 9716SOL    HW230048   3.987   4.562   6.951
 9717SOL     OW30049   5.542   5.932   5.937
 9717SOL    HW130050   5.594   5.929   6.022
 9717SOL    HW230051   5.602   5.909   5.860
 9718SOL     OW30052   4.821   3.059   0.036
 9718SOL    HW130053   4.750   3.123   0.064
 9718SOL    HW230054   4.822   2.981   0.099
 9719SOL     OW30055   5.948   1.268   5.685
 9719SOL    HW130056   5.864   1.317   5.661
 9719SOL    HW230057   5.944   1.175   5.650
 9720SOL     OW30058   6.804   5.276   1.560
 9720SOL    HW130059   6.771   5.347   1.624
 9720SOL    HW230060   6.899   5.253   1.584
 9721SOL     OW30061   6.854   1.681   0.730
 9721SOL    HW130062   6.884   1.618   0.658
 9721SOL    HW230063   6.867   1.775   0.698
 9722SOL     OW30064   5.734   1.150   4.160
 9722SOL    HW130065   5.689   1.159   4.071
 9722SOL    HW230066   5.790   1.068   4.161
 9723SOL     OW30067   2.560   6.786   2.765
 9723SOL    HW130068   2.545   6.687   2.764
 9723SOL    HW230069   2.474   6.832   2.742
 9724SOL     OW30070   1.864   4.692   0.160
 9724SOL    HW130071   1.918   4.609   0.174
 9724SOL    HW230072   1.897   4.764   0.222
 9725SOL     OW30073   3.875   4.832   6.375
 9725SOL    HW130074   3.939   4.808   6.449
 9725SOL    HW230075   3.782   4.809   6.402
 9726SOL     OW30076   5.214   1.331   4.081
 9726SOL    HW130077   5.250   1.423   4.095
 9726SOL    HW230078   5.287   1.264   4.095
 9727SOL     OW30079   1.192   2.803   6.595
 9727SOL    HW130080   1.129   2.870   6.559
 9727SOL    HW230081   1.204   2.817   6.694
 9728SOL     OW30082   0.645   0.839   5.751
 9728SOL    HW130083   0.691   0.906   5.692
 9728SOL    HW230084   0.659   0.747   5.713
 9729SOL     OW30085   1.171   4.194   3.696
 9729SOL    HW130086   1.151   4.283   3.737
 9729SOL    HW230087   1.158   4.122   3.765
 9730SOL     OW30088   1.233   4.036   3.905
 9730SOL    HW130089   1.333   4.038   3.904
 9730SOL    HW230090   1.199   4.123   3.940
 9731SOL     OW30091   4.712   4.394   0.804
 9731SOL    HW130092   4.712   4.335   0.723
 9731SOL    HW230093   4.620   4.400   0.842
 9732SOL     OW30094   6.623   5.792   3.430
 9732SOL    HW130095   6.707   5.797   3.483
 9732SOL    HW230096   6.568   5.873   3.447
 9733SOL     OW30097   5.935   4.930   0.565
 9733SOL    HW130098   5.934   5.026   0.592
 9733SOL    HW230099   6.025   4.906   0.529
 9734SOL     OW30100   6.855   1.711   1.711
 9734SOL    HW130101   6.874   1.780   1.781
 9734SOL    HW230102   6.927   1.642   1.713
 9735SOL     OW30103   1.942   4.101   4.252
 9735SOL    HW130104   1.935   4.199   4.234
 9735SOL    HW230105   2.031   4.081   4.291
 9736SOL     OW30106   6.493   1.547   6.570
 9736SOL    HW130107   6.477   1.585   6.661
 9736SOL    HW230108   6.485   1.448   6.573
 9737SOL     OW30109   5.231   2.725   3.311
 9737SOL    HW130110   5.252   2.752   3.216
 9737SOL    HW230111   5.184   2.801   3.357
 9738SOL     OW30112   1.582   0.390   1.050
 9738SOL    HW130113   1.655   0.361   1.113
 9738SOL    HW230114   1.557   0.313   0.992
 9739SOL     OW30115   5.864   5.028   2.102
 9739SOL    HW130116   5.857   4.942   2.053
 9739SOL    HW230117   5.957   5.065   2.092
 9740SOL     OW30118   6.631   1.513   3.468
 9740SOL    HW130119   6.634   1.610   3.442
 9740SOL    HW230120   6.554   1.469   3.421
 9741SOL     OW30121   4.013   0.892   2.661
 9741SOL    HW130122   4.004   0.992   2.656
 9741SOL    HW230123   4.058   0.866   2.746
 9742SOL     OW30124   4.017   0.388   0.696
 9742SOL    HW130125   4.112   0.392   0.726
 9742SOL    HW230126   3.957   0.384   0.775
 9743SOL     OW30127   6.936   2.464   4.870
 9743SOL    HW130128   6.858   2.481   4.931
 9743SOL    HW230129   6.923   2.376   4.824
 9744SOL     OW30130   1.558   6.964   2.475
 9744SOL    HW130131   1.542   6.866   2.491
 9744SOL    HW230132   1.653   6.977   2.447
 9745SOL     OW30133   5.173   3.004   6.142
 9745SOL    HW130134   5.207   2.991   6.235
 9745SOL    HW230135   5.080   3.042   6.146
 9746SOL     OW30136   6.564   0.135   5.864
 9746SOL    HW130137   6.514   0.215   5.898
 9746SOL    HW230138   6.662   0.148   5.878
 9747SOL     OW30139   2.625   0.935   1.798
 9747SOL    HW130140   2.712   0.921   1.751
 9747SOL    HW230141   2.558   0.869   1.763
 9748SOL     OW30142   0.131   1.274   3.496
 9748SOL    HW130143   0.202   1.257   3.564
 9748SOL    HW230144   0.080   1.190   3.478
 9749SOL     OW30145   2.544   0.531   4.808
 9749SOL    HW130146   2.462   0.515   4.753
 9749SOL    HW230147   2.563   0.629   4.813
 9750SOL     OW30148   5.499   4.044   3.350
 9750SOL    HW130149   5.593   4.074   3.369
 9750SOL    HW230150   5.466   3.989   3.426
 9751SOL     OW30151   1.359   0.524   1.073
 9751SOL    HW130152   1.448   0.480   1.067
 9751SOL    HW230153   1.318   0.529   0.982
 9752SOL     OW30154   4.594   2.175   5.437
 9752SOL    HW130155   4.673   2.114   5.436
 9752SOL    HW230156   4.524   2.139   5.498
 9753SOL     OW30157   5.998   5.340   6.393
 9753SOL    HW130158   5.932   5.285   6.341
 9753SOL    HW230159   6.086   5.340   6.346
 9754SOL     OW30160   1.414   1.378   6.651
 9754SOL    HW130161   1.398   1.282   6.628
 9754SOL    HW230162   1.327   1.424   6.667
 9755SOL     OW30163   3.183   3.501   4.757
 9755SOL    HW130164   3.263   3.495   4.697
 9755SOL    HW230165   3.106   3.453   4.716
 9756SOL     OW30166   6.587   3.744   0.875
 9756SOL    HW130167   6.517   3.789   0.819
 9756SOL    HW230168   6.548   3.719   0.964
 9757SOL     OW30169   5.505   3.601   4.153
 9757SOL    HW130170   5.463   3.645   4.073
 9757SOL    HW230171   5.537   3.510   4.127
 9758SOL     OW30172   2.665   6.912   0.085
 9758SOL    HW130173   2.720   6.988   0.118
 9758SOL    HW230174   2.595   6.946   0.022
 9759SOL     OW30175   1.266   0.260   0.192
 9759SOL    HW130176   1.261   0.174   0.244
 9759SOL    HW230177   1.222   0.247   0.103
 9760SOL     OW30178   4.581   2.674   4.981
 9760SOL    HW130179   4.513   2.606   4.952
 9760SOL    HW230180   4.574   2.687   5.079
 9761SOL     OW30181   6.022   1.365   2.693
 9761SOL    HW130182   6.018   1.377   2.594
 9761SOL    HW230183   5.934   1.391   2.733
 9762SOL     OW30184   3.217   0.928   4.387
 9762SOL    HW130185   3.195   0.836   4.356
 9762SOL    HW230186   3.315   0.933   4.410
 9763SOL     OW30187   5.577   2.091   1.942
 9763SOL    HW130188   5.604   2.052   1.854
 9763SOL    HW230189   5.487   2.055   1.968
 9764SOL     OW30190   0.088   2.793   2.849
 9764SOL    HW130191   0.028   2.725   2.891
 9764SOL    HW230192   0.039   2.842   2.778
 9765SOL     OW30193   6.863   0.495   3.830
 9765SOL    HW130194   6.866   0.569   3.762
 9765SOL    HW230195   6.787   0.433   3.808
 9766SOL     OW30196   3.239   6.687   2.350
 9766SOL    HW130197   3.282   6.671   2.439
 9766SOL    HW230198   3.282   6.766   2.306
 9767SOL     OW30199   4.734   0.572   4.741
 9767SOL    HW130200   4.800   0.639   4.774
 9767SOL    HW230201   4.778   0.514   4.672
 9768SOL     OW30202   5.740   1.433   2.746
 9768SOL    HW130203   5.709   1.340   2.730
 9768SOL    HW230204   5.754   1.447   2.844
 9769SOL     OW30205   3.971   0.903   3.025
 9769SOL    HW130206   3.892   0.901   2.962
 9769SOL    HW230207   3.945   0.860   3.111
 9770SOL     OW30208   5.285   0.897   6.470
 9770SOL    HW130209   5.291   0.959   6.391
 9770SOL    HW230210   5.196   0.853   6.471
 9771SOL     OW30211   2.851   5.666   0.199
 9771SOL    HW130212   2.759   5.631   0.182
 9771SOL    HW230213   2.894   5.611   0.270
 9772SOL     OW30214   1.653   6.551   2.254
 9772SOL    HW130215   1.563   6.509   2.266
 9772SOL    HW230216   1.716   6.511   2.320
 9773SOL     OW30217   5.290   5.307   4.185
 9773SOL    HW130218   5.245   5.384   4.230
 9773SOL    HW230219   5.380   5.336   4.151
 9774SOL     OW30220   0.318   5.017   2.471
 9774SOL    HW130221   0.321   5.114   2.445
 9774SOL    HW230222   0.265   4.966   2.403
 9775SOL     OW30223   2.801   0.375   3.154
 9775SOL    HW130224   2.861   0.449   3.181
 9775SOL    HW230225   2.842   0.325   3.077
 9776SOL     OW30226   1.802   4.449   4.644
 9776SOL    HW130227   1.706   4.420   4.643
 9776SOL    HW230228   1.854   4.392   4.707
 9777SOL     OW30229   6.391   5.611   6.634
 9777SOL    HW130230   6.396   5.563   6.547
 9777SOL    HW230231   6.472   5.669   6.645
 9778SOL     OW30232   0.231   0.861   3.731
 9778SOL    HW130233   0.297   0.813   3.788
 9778SOL    HW230234   0.206   0.948   3.775
 9779SOL     OW30235   1.604   1.697   4.947
 9779SOL    HW130236   1.650   1.613   4.975
 9779SOL    HW230237   1.525   1.674   4.889
 9780SOL     OW30238   2.774   1.693   1.410
 9780SOL    HW130239   2.755   1.788   1.436
 9780SOL    HW230240   2.783   1.688   1.310
 9781SOL     OW30241   1.834   4.135   4.553
 9781SOL    HW130242   1.835   4.195   4.473
 9781SOL    HW230243   1.835   4.040   4.522
 9782SOL     OW30244   6.872   1.491   1.198
 9782SOL    HW130245   6.917   1.483   1.109
 9782SOL    HW230246   6.920   1.435   1.266
 9783SOL     OW30247   4.550   2.481   3.038
 9783SOL    HW130248   4.627   2.490   2.976
 9783SOL    HW230249   4.469   2.454   2.987
 9784SOL     OW30250   3.977   0.913   4.301
 9784SOL    HW130251   3.924   0.945   4.223
 9784SOL    HW230252   3.916   0.871   4.368
 9785SOL     OW30253   0.720   3.299   5.906
 9785SOL    HW130254   0.786   3.270   5.837
 9785SOL    HW230255   0.669   3.378   5.873
 9786SOL     OW30256   2.043   4.488   0.097
 9786SOL    HW130257   2.025   4.544   0.016
 9786SOL    HW230258   2.129   4.516   0.139
 9787SOL     OW30259   4.673   4.120   1.763
 9787SOL    HW130260   4.741   4.128   1.836
 9787SOL    HW230261   4.589   4.165   1.790
 9788SOL     OW30262   0.446   0.976   3.596
 9788SOL    HW130263   0.360   0.927   3.606
 9788SOL    HW230264   0.430   1.075   3.603
 9789SOL     OW30265   0.981   5.511   1.091
 9789SOL    HW130266   1.021   5.533   1.180
 9789SOL    HW230267   0.913   5.581   1.067
 9790SOL     OW30268   6.090   4.782   6.523
 9790SOL    HW130269   6.169   4.777   6.583
 9790SOL    HW230270   6.012   4.737   6.568
 9791SOL     OW30271   0.988   1.445   2.263
 9791SOL    HW130272   1.054   1.445   2.337
 9791SOL    HW230273   1.036   1.438   2.175
 9792SOL     OW30274   4.511   4.947   0.951
 9792SOL    HW130275   4.462   4.870   0.910
 9792SOL    HW230276   4.480   4.960   1.045
 9793SOL     OW30277   4.679   6.201   3.482
 9793SOL    HW130278   4.761   6.253   3.459
 9793SOL    HW230279   4.604   6.264   3.503
 9794SOL     OW30280   0.158   4.439   0.817
 9794SOL    HW130281   0.154   4.339   0.813
 9794SOL    HW230282   0.220   4.472   0.746
 9795SOL     OW30283   2.482   1.967   4.545
 9795SOL    HW130284   2.511   1.935   4.455
 9795SOL    HW230285   2.482   1.891   4.610
 9796SOL     OW30286   3.733   2.190   1.491
 9796SOL    HW130287   3.660   2.181   1.423
 9796SOL    HW230288   3.694   2.184   1.583
 9797SOL     OW30289   2.527   5.373   6.252
 9797SOL    HW130290   2.497   5.365   6.157
 9797SOL    HW230291   2.567   5.464   6.267
 9798SOL     OW30292   3.444   0.505   1.549
 9798SOL    HW130293   3.447   0.523   1.647
 9798SOL    HW230294   3.365   0.551   1.509
 9799SOL     OW30295   4.107   3.700   4.353
 9799SOL    HW130296   4.101   3.600   4.355
 9799SOL    HW230297   4.159   3.732   4.432
 9800SOL     OW30298   3.963   6.660   4.765
 9800SOL    HW130299   4.019   6.595   4.714
 9800SOL    HW230300   3.981   6.753   4.731
 9801SOL     OW30301   5.063   3.775   6.931
 9801SOL    HW130302   5.112   3.822   6.857
 9801SOL    HW230303   5.118   3.698   6.964
 9802SOL     OW30304   0.111   3.547   1.553
 9802SOL    HW130305   0.113   3.597   1.466
 9802SOL    HW230306   0.204   3.536   1.588
 9803SOL     OW30307   1.074   2.134   6.871
 9803SOL    HW130308   1.071   2.195   6.791
 9803SOL    HW230309   1.103   2.186   6.951
 9804SOL     OW30310   1.597   0.158   2.661
 9804SOL    HW130311   1.518   0.161   2.722
 9804SOL    HW230312   1.582   0.090   2.590
 9805SOL     OW30313   1.081   0.379   4.888
 9805SOL    HW130314   1.142   0.441   4.938
 9805SOL    HW230315   1.114   0.368   4.794
 9806SOL     OW30316   1.180   1.067   0.355
 9806SOL    HW130317   1.173   0.969   0.373
 9806SOL    HW230318   1.275   1.096   0.363
 9807SOL     OW30319   2.636   3.824   0.273
 9807SOL    HW130320   2.557   3.763   0.269
 9807SOL    HW230321   2.708   3.791   0.212
 9808SOL     OW30322   4.541   0.633   5.632
 9808SOL    HW130323   4.564   0.703   5.564
 9808SOL    HW230324   4.596   0.647   5.714
 9809SOL     OW30325   0.783   2.436   6.829
 9809SOL    HW130326   0.775   2.337   6.817
 9809SOL    HW230327   0.850   2.456   6.901
 9810SOL     OW30328   2.268   3.009   3.600
 9810SOL    HW130329   2.259   3.070   3.679
 9810SOL    HW230330   2.257   3.061   3.516
 9811SOL     OW30331   5.684   4.631   3.670
 9811SOL    HW130332   5.712   4.637   3.766
 9811SOL    HW230333   5.750   4.679   3.613
 9812SOL     OW30334   3.462   2.118   5.800
 9812SOL    HW130335   3.362   2.122   5.807
 9812SOL    HW230336   3.487   2.059   5.723
 9813SOL     OW30337   5.569   1.202   0.328
 9813SOL    HW130338   5.498   1.148   0.284
 9813SOL    HW230339   5.652   1.147   0.337
 9814SOL     OW30340   0.133   0.401   0.364
 9814SOL    HW130341   0.054   0.405   0.303
 9814SOL    HW230342   0.103   0.423   0.457
 9815SOL     OW30343   5.604   3.700   3.521
 9815SOL    HW130344   5.617   3.622   3.582
 9815SOL    HW230345   5.538   3.763   3.561
 9816SOL     OW30346   0.054   0.993   6.423
 9816SOL    HW130347   0.085   1.016   6.330
 9816SOL    HW230348   0.123   1.022   6.489
 9817SOL     OW30349   2.699   6.536   2.899
 9817SOL    HW130350   2.725   6.540   2.803
 9817SOL    HW230351   2.764   6.479   2.949
 9818SOL     OW30352   1.328   1.041   5.143
 9818SOL    HW130353   1.243   1.072   5.100
 9818SOL    HW230354   1.367   1.116   5.197
 9819SOL     OW30355   4.667   2.664   4.132
 9819SOL    HW130356   4.764   2.689   4.123
 9819SOL    HW230357   4.617   2.696   4.051
 9820SOL     OW30358   4.586   3.198   6.351
 9820SOL    HW130359   4.569   3.288   6.392
 9820SOL    HW230360   4.536   3.190   6.265
 9821SOL     OW30361   5.424   0.507   0.361
 9821SOL    HW130362   5.331   0.469   0.357
 9821SOL    HW230363   5.450   0.542   0.271
 9822SOL     OW30364   2.653   5.834   3.693
 9822SOL    HW130365   2.594   5.909   3.665
 9822SOL    HW230366   2.730   5.869   3.746
 9823SOL     OW30367   2.600   0.331   0.867
 9823SOL    HW130368   2.671   0.310   0.934
 9823SOL    HW230369   2.522   0.270   0.881
 9824SOL     OW30370   1.975   5.318   3.847
 9824SOL    HW130371   1.978   5.319   3.947
 9824SOL    HW230372   2.041   5.251   3.813
 9825SOL     OW30373   5.490   6.293   4.360
 9825SOL    HW130374   5.461   6.239   4.439
 9825SOL    HW230375   5.502   6.388   4.388
 9826SOL     OW30376   3.901   5.362   5.629
 9826SOL    HW130377   3.846   5.312   5.562
 9826SOL    HW230378   3.954   5.297   5.683
 9827SOL     OW30379   1.868   4.353   3.930
 9827SOL    HW130380   1.855   4.353   3.831
 9827SOL    HW230381   1.802   4.291   3.973
 9828SOL     OW30382   2.926   2.393   5.285
 9828SOL    HW130383   3.016   2.362   5.253
 9828SOL    HW230384   2.904   2.346   5.371
 9829SOL     OW30385   4.435   5.342   6.379
 9829SOL    HW130386   4.474   5.269   6.322
 9829SOL    HW230387   4.382   5.405   6.321
 9830SOL     OW30388   5.270   1.318   2.014
 9830SOL    HW130389   5.355   1.339   1.966
 9830SOL    HW230390   5.216   1.254   1.960
 9831SOL     OW30391   1.021   5.228   2.541
 9831SOL    HW130392   0.999   5.271   2.454
 9831SOL    HW230393   1.107   5.178   2.534
 9832SOL     OW30394   5.084   5.464   2.544
 9832SOL    HW130395   5.173   5.476   2.500
 9832SOL    HW230396   5.095   5.467   2.643
 9833SOL     OW30397   3.463   3.369   4.328
 9833SOL    HW130398   3.514   3.367   4.414
 9833SOL    HW230399   3.525   3.388   4.253
 9834SOL     OW30400   2.459   4.579   5.276
 9834SOL    HW130401   2.400   4.591   5.356
 9834SOL    HW230402   2.518   4.499   5.291
 9835SOL     OW30403   3.237   3.271   4.543
 9835SOL    HW130404   3.324   3.234   4.573
 9835SOL    HW230405   3.253   3.352   4.487
 9836SOL     OW30406   0.373   3.839   3.931
 9836SOL    HW130407   0.350   3.761   3.872
 9836SOL    HW230408   0.452   3.887   3.892
 9837SOL     OW30409   4.151   0.902   2.147
 9837SOL    HW130410   4.095   0.968   2.097
 9837SOL    HW230411   4.098   0.863   2.222
 9838SOL     OW30412   1.573   6.812   0.287
 9838SOL    HW130413   1.585   6.717   0.316
 9838SOL    HW230414   1.599   6.873   0.362
 9839SOL     OW30415   5.206   6.748   3.954
 9839SOL    HW130416   5.182   6.845   3.961
 9839SOL    HW230417   5.292   6.739   3.904
 9840SOL     OW30418   5.971   1.717   0.850
 9840SOL    HW130419   5.982   1.641   0.915
 9840SOL    HW230420   6.028   1.794   0.878
 9841SOL     OW30421   1.329   4.196   5.081
 9841SOL    HW130422   1.316   4.179   5.179
 9841SOL    HW230423   1.250   4.164   5.030
 9842SOL     OW30424   3.478   3.034   1.230
 9842SOL    HW130425   3.411   3.005   1.162
 9842SOL    HW230426   3.453   3.125   1.264
 9843SOL     OW30427   6.940   0.722   3.071
 9843SOL    HW130428   6.887   0.739   3.154
 9843SOL    HW230429   6.912   0.634   3.031
 9844SOL     OW30430   6.115   1.159   3.542
 9844SOL    HW130431   6.183   1.209   3.596
 9844SOL    HW230432   6.071   1.221   3.478
 9845SOL     OW30433   2.187   2.539   3.695
 9845SOL    HW130434   2.179   2.554   3.793
 9845SOL    HW230435   2.096   2.544   3.653
 9846SOL     OW30436   3.291   2.535   1.435
 9846SOL    HW130437   3.193   2.527   1.417
 9846SOL    HW230438   3.307   2.612   1.497
 9847SOL     OW30439   3.802   2.990   2.902
 9847SOL    HW130440   3.720   2.959   2.950
 9847SOL    HW230441   3.878   2.997   2.966
 9848SOL     OW30442   4.086   3.797   5.164
 9848SOL    HW130443   4.122   3.886   5.191
 9848SOL    HW230444   4.161   3.740   5.129
 9849SOL     OW30445   1.053   0.003   6.324
 9849SOL    HW130446   0.985   6.957   6.292
 9849SOL    HW230447   1.088   0.055   6.246
 9850SOL     OW30448   6.683   0.292   3.816
 9850SOL    HW130449   6.662   0.195   3.821
 9850SOL    HW230450   6.600   0.346   3.826
 9851SOL     OW30451   1.045   0.518   3.896
 9851SOL    HW130452   0.995   0.435   3.921
 9851SOL    HW230453   0.982   0.596   3.895
 9852SOL     OW30454   2.582   1.825   4.317
 9852SOL    HW130455   2.654   1.856   4.254
 9852SOL    HW230456   2.612   1.741   4.362
 9853SOL     OW30457   5.790   3.188   5.366
 9853SOL    HW130458   5.745   3.271   5.400
 9853SOL    HW230459   5.770   3.177   5.269
 9854SOL     OW30460   0.070   6.278   4.496
 9854SOL    HW130461   0.137   6.254   4.426
 9854SOL    HW230462   0.066   6.377   4.506
 9855SOL     OW30463   1.677   3.311   1.725
 9855SOL    HW130464   1.727   3.228   1.751
 9855SOL    HW230465   1.603   3.286   1.662
 9856SOL     OW30466   4.660   4.322   4.416
 9856SOL    HW130467   4.640   4.351   4.510
 9856SOL    HW230468   4.681   4.402   4.360
 9857SOL     OW30469   4.820   2.593   2.473
 9857SOL    HW130470   4.884   2.542   2.417
 9857SOL    HW230471   4.821   2.689   2.446
 9858SOL     OW30472   6.701   6.741   1.406
 9858SOL    HW130473   6.740   6.715   1.494
 9858SOL    HW230474   6.774   6.752   1.339
 9859SOL     OW30475   6.332   5.967   3.068
 9859SOL    HW130476   6.260   5.978   2.999
 9859SOL    HW230477   6.307   6.016   3.151
 9860SOL     OW30478   2.313   2.435   4.331
 9860SOL    HW130479   2.292   2.379   4.251
 9860SOL    HW230480   2.338   2.376   4.407
 9861SOL     OW30481   2.909   0.390   2.782
 9861SOL    HW130482   2.828   0.440   2.813
 9861SOL    HW230483   2.987   0.415   2.839
 9862SOL     OW30484   2.619   3.182   0.094
 9862SOL    HW130485   2.592   3.086   0.102
 9862SOL    HW230486   2.717   3.191   0.113
 9863SOL     OW30487   3.144   5.716   1.966
 9863SOL    HW130488   3.205   5.675   2.034
 9863SOL    HW230489   3.130   5.812   1.987
 9864SOL     OW30490   3.388   0.670   4.040
 9864SOL    HW130491   3.290   0.692   4.041
 9864SOL    HW230492   3.400   0.571   4.047
 9865SOL     OW30493   1.264   0.076   4.562
 9865SOL    HW130494   1.326   0.139   4.516
 9865SOL    HW230495   1.316   7.016   4.594
 9866SOL     OW30496   5.453   5.091   6.174
 9866SOL    HW130497   5.544   5.082   6.215
 9866SOL    HW230498   5.389   5.034   6.225
 9867SOL     OW30499   6.536   1.961   1.555
 9867SOL    HW130500   6.552   2.011   1.470
 9867SOL    HW230501   6.489   1.875   1.536
 9868SOL     OW30502   0.310   2.604   4.665
 9868SOL    HW130503   0.360   2.545   4.728
 9868SOL    HW230504   0.297   2.694   4.707
 9869SOL     OW30505   0.280   2.150   1.604
 9869SOL    HW130506   0.357   2.205   1.636
 9869SOL    HW230507   0.247   2.186   1.518
 9870SOL     OW30508   3.883   5.612   3.090
 9870SOL    HW130509   3.895   5.702   3.047
 9870SOL    HW230510   3.876   5.624   3.190
 9871SOL     OW30511   6.175   4.547   5.995
 9871SOL    HW130512   6.245   4.573   6.062
 9871SOL    HW230513   6.218   4.530   5.907
 9872SOL     OW30514   3.628   5.946   4.888
 9872SOL    HW130515   3.706   5.939   4.951
 9872SOL    HW230516   3.572   5.864   4.894
 9873SOL     OW30517   2.103   2.871   0.696
 9873SOL    HW130518   2.174   2.942   0.704
 9873SOL    HW230519   2.018   2.904   0.737
 9874SOL     OW30520   6.873   2.778   5.424
 9874SOL    HW130521   6.861   2.699   5.484
 9874SOL    HW230522   6.940   2.841   5.464
 9875SOL     OW30523   6.192   5.839   2.431
 9875SOL    HW130524   6.246   5.756   2.418
 9875SOL    HW230525   6.208   5.875   2.523
 9876SOL     OW30526   5.178   6.749   4.588
 9876SOL    HW130527   5.201   6.774   4.682
 9876SOL    HW230528   5.258   6.760   4.530
 9877SOL     OW30529   0.174   4.680   4.188
 9877SOL    HW130530   0.199   4.679   4.091
 9877SOL    HW230531   0.194   4.590   4.228
 9878SOL     OW30532   3.174   3.293   6.361
 9878SOL    HW130533   3.200   3.202   6.392
 9878SOL    HW230534   3.078   3.295   6.335
 9879SOL     OW30535   5.479   5.257   5.819
 9879SOL    HW130536   5.512   5.344   5.854
 9879SOL    HW230537   5.388   5.238   5.855
 9880SOL     OW30538   2.939   1.066   0.988
 9880SOL    HW130539   2.900   1.030   1.073
 9880SOL    HW230540   3.005   1.000   0.950
 9881SOL     OW30541   6.896   1.448   4.731
 9881SOL    HW130542   6.918   1.350   4.737
 9881SOL    HW230543   6.915   1.481   4.638
 9882SOL     OW30544   2.554   3.657   5.746
 9882SOL    HW130545   2.507   3.663   5.833
 9882SOL    HW230546   2.557   3.747   5.703
 9883SOL     OW30547   0.836   6.655   0.778
 9883SOL    HW130548   0.739   6.637   0.794
 9883SOL    HW230549   0.853   6.753   0.784
 9884SOL     OW30550   4.400   1.528   0.595
 9884SOL    HW130551   4.349   1.534   0.681
 9884SOL    HW230552   4.454   1.611   0.582
 9885SOL     OW30553   0.472   2.856   4.432
 9885SOL    HW130554   0.399   2.807   4.385
 9885SOL    HW230555   0.500   2.934   4.377
 9886SOL     OW30556   0.627   5.919   1.105
 9886SOL    HW130557   0.674   5.960   1.027
 9886SOL    HW230558   0.639   5.820   1.102
 9887SOL     OW30559   3.918   6.901   6.860
 9887SOL    HW130560   3.887   6.807   6.849
 9887SOL    HW230561   3.862   6.962   6.804
 9888SOL     OW30562   5.841   4.775   3.241
 9888SOL    HW130563   5.816   4.870   3.255
 9888SOL    HW230564   5.819   4.747   3.148
 9889SOL     OW30565   6.763   4.195   2.233
 9889SOL    HW130566   6.778   4.132   2.157
 9889SOL    HW230567   6.741   4.144   2.316
 9890SOL     OW30568   0.666   2.113   1.253
 9890SOL    HW130569   0.582   2.071   1.218
 9890SOL    HW230570   0.710   2.051   1.318
 9891SOL     OW30571   6.365   3.817   1.456
 9891SOL    HW130572   6.357   3.740   1.518
 9891SOL    HW230573   6.278   3.830   1.408
 9892SOL     OW30574   1.450   5.628   3.172
 9892SOL    HW130575   1.423   5.611   3.077
 9892SOL    HW230576   1.520   5.698   3.174
 9893SOL     OW30577   6.574   0.117   2.176
 9893SOL    HW130578   6.518   0.048   2.223
 9893SOL    HW230579   6.577   0.096   2.079
 9894SOL     OW30580   2.659   1.538   6.281
 9894SOL    HW130581   2.638   1.450   6.238
 9894SOL    HW230582   2.606   1.547   6.365
 9895SOL     OW30583   5.734   2.909   5.475
 9895SOL    HW130584   5.748   3.002   5.441
 9895SOL    HW230585   5.708   2.912   5.572
 9896SOL     OW30586   5.299   2.048   0.571
 9896SOL    HW130587   5.233   1.974   0.579
 9896SOL    HW230588   5.386   2.011   0.539
 9897SOL     OW30589   4.781   6.855   2.644
 9897SOL    HW130590   4.794   6.931   2.579
 9897SOL    HW230591   4.721   6.885   2.718
 9898SOL     OW30592   0.500   4.733   5.555
 9898SOL    HW130593   0.482   4.635   5.552
 9898SOL    HW230594   0.452   4.774   5.633
 9899SOL     OW30595   6.981   5.951   2.548
 9899SOL    HW130596   6.922   6.031   2.562
 9899SOL    HW230597   6.975   5.890   2.627
 9900SOL     OW30598   1.851   3.058   2.843
 9900SOL    HW130599   1.809   3.132   2.790
 9900SOL    HW230600   1.811   3.056   2.934
 9901SOL     OW30601   2.269   1.158   0.113
 9901SOL    HW130602   2.357   1.160   0.160
 9901SOL    HW230603   2.234   1.064   0.112
 9902SOL     OW30604   4.757   3.758   0.947
 9902SOL    HW130605   4.698   3.823   0.996
 9902SOL    HW230606   4.701   3.703   0.885
 9903SOL     OW30607   5.286   0.299   1.652
 9903SOL    HW130608   5.279   0.320   1.750
 9903SOL    HW230609   5.259   0.378   1.598
 9904SOL     OW30610   0.042   3.862   6.297
 9904SOL    HW130611   0.109   3.866   6.223
 9904SOL    HW230612   7.016   3.772   6.297
 9905SOL     OW30613   1.519   0.001   6.521
 9905SOL    HW130614   1.466   0.073   6.566
 9905SOL    HW230615   1.563   0.039   6.439
 9906SOL     OW30616   2.320   3.805   6.942
 9906SOL    HW130617   2.258   3.746   6.995
 9906SOL    HW230618   2.272   3.888   6.915
 9907SOL     OW30619   1.347   0.712   2.947
 9907SOL    HW130620   1.412   0.776   2.908
 9907SOL    HW230621   1.379   0.682   3.037
 9908SOL     OW30622   0.918   3.550   5.658
 9908SOL    HW130623   0.911   3.458   5.696
 9908SOL    HW230624   1.007   3.561   5.613
 9909SOL     OW30625   3.819   0.675   2.666
 9909SOL    HW130626   3.749   0.700   2.600
 9909SOL    HW230627   3.889   0.747   2.670
 9910SOL     OW30628   1.184   5.058   1.864
 9910SOL    HW130629   1.098   5.050   1.814
 9910SOL    HW230630   1.260   5.053   1.800
 9911SOL     OW30631   4.127   5.891   1.798
 9911SOL    HW130632   4.148   5.898   1.701
 9911SOL    HW230633   4.036   5.852   1.810
 9912SOL     OW30634   4.006   1.173   1.315
 9912SOL    HW130635   4.065   1.092   1.312
 9912SOL    HW230636   3.914   1.145   1.344
 9913SOL     OW30637   6.554   3.483   1.432
 9913SOL    HW130638   6.590   3.390   1.444
 9913SOL    HW230639   6.631   3.547   1.425
 9914SOL     OW30640   0.705   0.294   5.025
 9914SOL    HW130641   0.624   0.251   5.064
 9914SOL    HW230642   0.736   0.240   4.946
 9915SOL     OW30643   5.086   2.253   3.522
 9915SOL    HW130644   5.083   2.267   3.423
 9915SOL    HW230645   5.058   2.338   3.568
 9916SOL     OW30646   2.015   2.075   3.353
 9916SOL    HW130647   2.114   2.093   3.350
 9916SOL    HW230648   1.984   2.072   3.448
 9917SOL     OW30649   3.403   3.633   4.557
 9917SOL    HW130650   3.429   3.701   4.489
 9917SOL    HW230651   3.484   3.582   4.585
 9918SOL     OW30652   1.008   2.318   1.837
 9918SOL    HW130653   1.003   2.416   1.815
 9918SOL    HW230654   1.009   2.307   1.937
 9919SOL     OW30655   2.759   6.218   1.677
 9919SOL    HW130656   2.827   6.272   1.625
 9919SOL    HW230657   2.730   6.140   1.622
 9920SOL     OW30658   3.940   6.900   2.343
 9920SOL    HW130659   3.893   6.948   2.416
 9920SOL    HW230660   4.038   6.919   2.347
 9921SOL     OW30661   4.472   6.873   4.744
 9921SOL    HW130662   4.453   6.794   4.686
 9921SOL    HW230663   4.570   6.883   4.757
 9922SOL     OW30664   4.836   4.485   1.181
 9922SOL    HW130665   4.869   4.411   1.240
 9922SOL    HW230666   4.852   4.573   1.225
 9923SOL     OW30667   7.011   3.317   0.075
 9923SOL    HW130668   6.970   3.237   0.031
 9923SOL    HW230669   0.033   3.377   0.006
 9924SOL     OW30670   4.641   1.865   3.075
 9924SOL    HW130671   4.693   1.945   3.105
 9924SOL    HW230672   4.627   1.870   2.976
 9925SOL     OW30673   1.433   4.660   3.776
 9925SOL    HW130674   1.455   4.566   3.801
 9925SOL    HW230675   1.514   4.717   3.788
 9926SOL     OW30676   3.311   2.497   0.603
 9926SOL    HW130677   3.276   2.526   0.514
 9926SOL    HW230678   3.372   2.419   0.591
 9927SOL     OW30679   1.218   1.713   1.040
 9927SOL    HW130680   1.287   1.641   1.026
 9927SOL    HW230681   1.129   1.671   1.054
 9928SOL     OW30682   5.221   3.782   2.733
 9928SOL    HW130683   5.237   3.686   2.758
 9928SOL    HW230684   5.138   3.814   2.777
 9929SOL     OW30685   3.258   4.122   4.712
 9929SOL    HW130686   3.236   4.066   4.632
 9929SOL    HW230687   3.205   4.206   4.709
 9930SOL     OW30688   0.858   0.548   6.382
 9930SOL    HW130689   0.781   0.576   6.438
 9930SOL    HW230690   0.826   0.494   6.304
 9931SOL     OW30691   6.926   5.560   4.404
 9931SOL    HW130692   6.882   5.486   4.455
 9931SOL    HW230693   6.941   5.638   4.464
 9932SOL     OW30694   2.369   1.880   6.734
 9932SOL    HW130695   2.359   1.819   6.812
 9932SOL    HW230696   2.455   1.861   6.687
 9933SOL     OW30697   1.927   1.334   4.362
 9933SOL    HW130698   1.856   1.402   4.352
 9933SOL    HW230699   1.963   1.336   4.456
 9934SOL     OW30700   6.339   1.882   0.173
 9934SOL    HW130701   6.265   1.867   0.108
 9934SOL    HW230702   6.309   1.947   0.243
 9935SOL     OW30703   2.780   0.602   0.876
 9935SOL    HW130704   2.859   0.632   0.930
 9935SOL    HW230705   2.805   0.521   0.823
 9936SOL     OW30706   6.828   5.181   0.278
 9936SOL    HW130707   6.780   5.188   0.365
 9936SOL    HW230708   6.920   5.220   0.288
 9937SOL     OW30709   1.770   1.405   2.756
 9937SOL    HW130710   1.784   1.463   2.837
 9937SOL    HW230711   1.859   1.374   2.722
 9938SOL     OW30712   5.620   6.528   4.443
 9938SOL    HW130713   5.677   6.602   4.409
 9938SOL    HW230714   5.668   6.480   4.516
 9939SOL     OW30715   2.578   2.798   0.849
 9939SOL    HW130716   2.533   2.734   0.787
 9939SOL    HW230717   2.514   2.826   0.921
 9940SOL     OW30718   1.122   0.129   2.729
 9940SOL    HW130719   1.128   0.228   2.721
 9940SOL    HW230720   1.134   0.087   2.639
 9941SOL     OW30721   2.840   5.771   5.235
 9941SOL    HW130722   2.854   5.870   5.232
 9941SOL    HW230723   2.921   5.724   5.199
 9942SOL     OW30724   4.701   5.395   2.034
 9942SOL    HW130725   4.607   5.430   2.029
 9942SOL    HW230726   4.702   5.297   2.013
 9943SOL     OW30727   1.122   3.852   6.673
 9943SOL    HW130728   1.051   3.804   6.725
 9943SOL    HW230729   1.080   3.924   6.618
 9944SOL     OW30730   0.523   4.889   6.598
 9944SOL    HW130731   0.605   4.856   6.550
 9944SOL    HW230732   0.470   4.947   6.536
 9945SOL     OW30733   5.538   4.450   6.797
 9945SOL    HW130734   5.576   4.447   6.890
 9945SOL    HW230735   5.611   4.435   6.731
 9946SOL     OW30736   6.119   0.253   3.158
 9946SOL    HW130737   6.087   0.187   3.225
 9946SOL    HW230738   6.218   0.241   3.143
 9947SOL     OW30739   2.853   1.448   4.775
 9947SOL    HW130740   2.856   1.354   4.739
 9947SOL    HW230741   2.945   1.487   4.776
 9948SOL     OW30742   7.001   5.719   5.147
 9948SOL    HW130743   6.922   5.684   5.096
 9948SOL    HW230744   6.979   5.720   5.244
 9949SOL     OW30745   0.009   5.116   3.875
 9949SOL    HW130746   6.973   5.149   3.952
 9949SOL    HW230747   0.001   5.016   3.869
 9950SOL     OW30748   0.005   5.800   5.937
 9950SOL    HW130749   0.104   5.815   5.932
 9950SOL    HW230750   6.997   5.739   5.862
 9951SOL     OW30751   1.646   2.224   3.156
 9951SOL    HW130752   1.633   2.305   3.099
 9951SOL    HW230753   1.693   2.153   3.103
 9952SOL     OW30754   1.539   3.691   0.618
 9952SOL    HW130755   1.629   3.691   0.573
 9952SOL    HW230756   1.480   3.623   0.575
 9953SOL     OW30757   5.703   2.743   4.188
 9953SOL    HW130758   5.695   2.831   4.235
 9953SOL    HW230759   5.698   2.758   4.089
 9954SOL     OW30760   1.467   0.289   4.385
 9954SOL    HW130761   1.479   0.388   4.373
 9954SOL    HW230762   1.389   0.259   4.331
 9955SOL     OW30763   3.505   3.657   6.729
 9955SOL    HW130764   3.465   3.732   6.677
 9955SOL    HW230765   3.604   3.657   6.718
 9956SOL     OW30766   0.635   3.696   2.758
 9956SOL    HW130767   0.643   3.750   2.842
 9956SOL    HW230768   0.552   3.722   2.710
 9957SOL     OW30769   5.853   0.168   2.775
 9957SOL    HW130770   5.859   0.087   2.716
 9957SOL    HW230771   5.930   0.228   2.757
 9958SOL     OW30772   3.086   5.747   6.302
 9958SOL    HW130773   3.067   5.840   6.332
 9958SOL    HW230774   3.123   5.748   6.209
 9959SOL     OW30775   4.118   3.662   2.914
 9959SOL    HW130776   4.127   3.582   2.855
 9959SOL    HW230777   4.199   3.720   2.906
 9960SOL     OW30778   0.392   6.635   1.918
 9960SOL    HW130779   0.315   6.670   1.972
 9960SOL    HW230780   0.380   6.537   1.903
 9961SOL     OW30781   1.917   5.048   3.198
 9961SOL    HW130782   1.845   5.035   3.131
 9961SOL    HW230783   1.993   4.986   3.179
 9962SOL     OW30784   4.617   0.458   2.002
 9962SOL    HW130785   4.656   0.456   1.909
 9962SOL    HW230786   4.616   0.553   2.035
 9963SOL     OW30787   2.729   2.460   5.784
 9963SOL    HW130788   2.736   2.503   5.874
 9963SOL    HW230789   2.702   2.365   5.795
 9964SOL     OW30790   4.326   5.207   5.899
 9964SOL    HW130791   4.293   5.200   5.993
 9964SOL    HW230792   4.404   5.147   5.886
 9965SOL     OW30793   3.453   4.885   5.138
 9965SOL    HW130794   3.492   4.937   5.063
 9965SOL    HW230795   3.365   4.846   5.109
 9966SOL     OW30796   1.696   5.062   1.983
 9966SOL    HW130797   1.714   5.157   2.006
 9966SOL    HW230798   1.772   5.025   1.929
 9967SOL     OW30799   5.455   5.101   2.126
 9967SOL    HW130800   5.529   5.162   2.095
 9967SOL    HW230801   5.494   5.030   2.185
 9968SOL     OW30802   3.392   5.609   6.328
 9968SOL    HW130803   3.349   5.546   6.263
 9968SOL    HW230804   3.323   5.669   6.366
 9969SOL     OW30805   1.046   2.991   3.906
 9969SOL    HW130806   1.138   2.957   3.929
 9969SOL    HW230807   1.038   3.086   3.936
 9970SOL     OW30808   6.945   4.641   2.201
 9970SOL    HW130809   6.956   4.544   2.179
 9970SOL    HW230810   6.870   4.652   2.266
 9971SOL     OW30811   2.288   4.136   0.463
 9971SOL    HW130812   2.274   4.052   0.515
 9971SOL    HW230813   2.385   4.155   0.455
 9972SOL     OW30814   3.324   4.373   1.026
 9972SOL    HW130815   3.423   4.383   1.018
 9972SOL    HW230816   3.280   4.456   0.991
 9973SOL     OW30817   4.302   1.748   4.615
 9973SOL    HW130818   4.351   1.755   4.528
 9973SOL    HW230819   4.280   1.652   4.632
 9974SOL     OW30820   6.645   3.797   3.236
 9974SOL    HW130821   6.643   3.893   3.263
 9974SOL    HW230822   6.734   3.757   3.260
 9975SOL     OW30823   6.924   4.533   6.718
 9975SOL    HW130824   6.985   4.602   6.678
 9975SOL    HW230825   6.846   4.579   6.761
 9976SOL     OW30826   6.583   4.717   5.174
 9976SOL    HW130827   6.568   4.815   5.188
 9976SOL    HW230828   6.640   4.681   5.248
 9977SOL     OW30829   6.755   4.956   5.969
 9977SOL    HW130830   6.714   4.986   6.055
 9977SOL    HW230831   6.686   4.953   5.898
 9978SOL     OW30832   5.790   1.226   4.780
 9978SOL    HW130833   5.708   1.279   4.803
 9978SOL    HW230834   5.848   1.279   4.719
 9979SOL     OW30835   6.333   4.498   5.755
 9979SOL    HW130836   6.339   4.418   5.694
 9979SOL    HW230837   6.425   4.538   5.765
 9980SOL     OW30838   1.430   1.030   0.146
 9980SOL    HW130839   1.414   1.125   0.119
 9980SOL    HW230840   1.458   1.027   0.242
 9981SOL     OW30841   2.352   1.941   0.590
 9981SOL    HW130842   2.341   2.040   0.598
 9981SOL    HW230843   2.449   1.919   0.582
 9982SOL     OW30844   1.385   1.592   3.344
 9982SOL    HW130845   1.347   1.500   3.350
 9982SOL    HW230846   1.401   1.615   3.248
 9983SOL     OW30847   1.238   1.010   1.490
 9983SOL    HW130848   1.163   0.948   1.512
 9983SOL    HW230849   1.325   0.963   1.507
 9984SOL     OW30850   0.518   0.449   0.237
 9984SOL    HW130851   0.455   0.387   0.284
 9984SOL    HW230852   0.605   0.402   0.220
 9985SOL     OW30853   3.765   6.952   1.593
 9985SOL    HW130854   3.717   6.999   1.667
 9985SOL    HW230855   3.797   0.000   1.526
 9986SOL     OW30856   5.167   4.102   6.549
 9986SOL    HW130857   5.136   4.197   6.552
 9986SOL    HW230858   5.253   4.096   6.498
 9987SOL     OW30859   6.020   1.965   2.094
 9987SOL    HW130860   5.978   2.052   2.070
 9987SOL    HW230861   6.115   1.980   2.121
 9988SOL     OW30862   0.032   5.043   4.747
 9988SOL    HW130863   0.128   5.029   4.721
 9988SOL    HW230864   0.025   5.048   4.847
 9989SOL     OW30865   5.719   3.570   3.238
 9989SOL    HW130866   5.665   3.487   3.256
 9989SOL    HW230867   5.687   3.644   3.297
 9990SOL     OW30868   2.395   0.152   3.639
 9990SOL    HW130869   2.300   0.136   3.611
 9990SOL    HW230870   2.406   0.249   3.661
 9991SOL     OW30871   1.278   2.829   4.872
 9991SOL    HW130872   1.369   2.816   4.911
 9991SOL    HW230873   1.250   2.924   4.886
 9992SOL     OW30874   4.269   3.314   0.691
 9992SOL    HW130875   4.172   3.291   0.677
 9992SOL    HW230876   4.311   3.246   0.751
 9993SOL     OW30877   3.963   6.110   2.864
 9993SOL    HW130878   3.897   6.182   2.841
 9993SOL    HW230879   4.021   6.090   2.784
 9994SOL     OW30880   6.980   4.165   3.813
 9994SOL    HW130881   6.923   4.168   3.896
 9994SOL    HW230882   0.028   4.092   3.821
 9995SOL     OW30883   3.210   0.073   3.099
 9995SOL    HW130884   3.208   0.171   3.120
 9995SOL    HW230885   3.285   0.053   3.037
 9996SOL     OW30886   2.853   2.868   0.966
 9996SOL    HW130887   2.857   2.790   0.904
 9996SOL    HW230888   2.760   2.877   1.002
 9997SOL     OW30889   4.714   1.174   0.993
 9997SOL    HW130890   4.800   1.144   0.952
 9997SOL    HW230891   4.703   1.132   1.083
 9998SOL     OW30892   5.476   3.886   3.144
 9998SOL    HW130893   5.481   3.952   3.219
 9998SOL    HW230894   5.411   3.814   3.167
 9999SOL     OW30895   6.585   5.679   4.890
 9999SOL    HW130896   6.615   5.709   4.799
 9999SOL    HW230897   6.485   5.683   4.895
10000SOL     OW30898   6.098   1.895   0.021
10000SOL    HW130899   6.018   1.955   0.027
10000SOL    HW230900   6.085   1.829   6.967
10001SOL     OW30901   4.494   0.228   1.622
10001SOL    HW130902   4.488   0.326   1.644
10001SOL    HW230903   4.562   0.185   1.680
10002SOL     OW30904   1.453   1.305   1.706
10002SOL    HW130905   1.515   1.335   1.633
10002SOL    HW230906   1.505   1.262   1.779
10003SOL     OW30907   3.816   2.110   2.883
10003SOL    HW130908   3.719   2.107   2.908
10003SOL    HW230909   3.824   2.124   2.784
10004SOL     OW30910   5.418   2.881   4.684
10004SOL    HW130911   5.361   2.831   4.749
10004SOL    HW230912   5.481   2.817   4.640
10005SOL     OW30913   4.504   5.614   2.944
10005SOL    HW130914   4.534   5.691   2.888
10005SOL    HW230915   4.453   5.550   2.888
10006SOL     OW30916   4.913   1.518   5.006
10006SOL    HW130917   4.911   1.540   5.103
10006SOL    HW230918   4.957   1.592   4.955
10007SOL     OW30919   0.447   3.793   4.725
10007SOL    HW130920   0.379   3.769   4.795
10007SOL    HW230921   0.423   3.882   4.685
10008SOL     OW30922   4.123   1.138   3.206
10008SOL    HW130923   4.187   1.144   3.282
10008SOL    HW230924   4.062   1.060   3.219
10009SOL     OW30925   1.885   4.112   1.808
10009SOL    HW130926   1.823   4.035   1.820
10009SOL    HW230927   1.979   4.082   1.822
10010SOL     OW30928   2.379   6.488   0.145
10010SOL    HW130929   2.355   6.428   0.069
10010SOL    HW230930   2.425   6.435   0.216
10011SOL     OW30931   0.731   3.556   6.287
10011SOL    HW130932   0.671   3.484   6.324
10011SOL    HW230933   0.788   3.518   6.214
10012SOL     OW30934   4.844   6.879   2.343
10012SOL    HW130935   4.848   6.975   2.372
10012SOL    HW230936   4.792   6.826   2.409
10013SOL     OW30937   2.177   2.095   4.862
10013SOL    HW130938   2.246   2.055   4.802
10013SOL    HW230939   2.210   2.181   4.899
10014SOL     OW30940   0.012   1.949   1.341
10014SOL    HW130941   0.039   1.902   1.257
10014SOL    HW230942   6.982   1.885   1.400
10015SOL     OW30943   3.664   4.543   0.636
10015SOL    HW130944   3.747   4.555   0.690
10015SOL    HW230945   3.594   4.607   0.667
10016SOL     OW30946   2.057   0.067   5.114
10016SOL    HW130947   1.959   0.073   5.096
10016SOL    HW230948   2.074   0.073   5.212
10017SOL     OW30949   2.608   1.693   2.656
10017SOL    HW130950   2.553   1.611   2.676
10017SOL    HW230951   2.656   1.680   2.569
10018SOL     OW30952   6.219   5.249   5.899
10018SOL    HW130953   6.271   5.317   5.847
10018SOL    HW230954   6.135   5.291   5.934
10019SOL     OW30955   0.478   2.031   3.268
10019SOL    HW130956   0.472   1.936   3.238
10019SOL    HW230957   0.489   2.091   3.188
10020SOL     OW30958   0.324   1.276   1.240
10020SOL    HW130959   0.275   1.191   1.262
10020SOL    HW230960   0.395   1.258   1.172
10021SOL     OW30961   1.216   2.657   2.459
10021SOL    HW130962   1.210   2.557   2.463
10021SOL    HW230963   1.307   2.686   2.488
10022SOL     OW30964   3.773   6.934   1.143
10022SOL    HW130965   3.851   6.918   1.203
10022SOL    HW230966   3.689   6.906   1.190
10023SOL     OW30967   2.206   5.479   5.445
10023SOL    HW130968   2.210   5.549   5.374
10023SOL    HW230969   2.277   5.411   5.429
10024SOL     OW30970   2.343   6.483   1.814
10024SOL    HW130971   2.292   6.563   1.781
10024SOL    HW230972   2.283   6.403   1.815
10025SOL     OW30973   1.743   1.913   1.038
10025SOL    HW130974   1.669   1.849   1.018
10025SOL    HW230975   1.830   1.863   1.040
10026SOL     OW30976   4.247   6.457   3.527
10026SOL    HW130977   4.339   6.454   3.566
10026SOL    HW230978   4.181   6.422   3.593
10027SOL     OW30979   1.079   4.621   5.053
10027SOL    HW130980   1.171   4.617   5.013
10027SOL    HW230981   1.023   4.685   5.001
10028SOL     OW30982   1.398   1.738   2.082
10028SOL    HW130983   1.421   1.643   2.102
10028SOL    HW230984   1.448   1.768   2.001
10029SOL     OW30985   2.804   1.878   4.130
10029SOL    HW130986   2.828   1.827   4.048
10029SOL    HW230987   2.876   1.946   4.150
10030SOL     OW30988   2.276   7.018   4.301
10030SOL    HW130989   2.339   6.943   4.321
10030SOL    HW230990   2.241   0.037   4.386
10031SOL     OW30991   6.019   4.657   4.205
10031SOL    HW130992   5.961   4.578   4.188
10031SOL    HW230993   6.087   4.635   4.275
10032SOL     OW30994   3.805   0.502   5.207
10032SOL    HW130995   3.871   0.577   5.204
10032SOL    HW230996   3.735   0.516   5.137
10033SOL     OW30997   4.524   1.883   4.213
10033SOL    HW130998   4.490   1.906   4.122
10033SOL    HW230999   4.468   1.809   4.252
10034SOL     OW31000   3.931   0.185   3.864
10034SOL    HW131001   3.940   0.281   3.888
10034SOL    HW231002   3.998   0.162   3.793
10035SOL     OW31003   0.025   4.805   2.669
10035SOL    HW131004   7.011   4.898   2.688
10035SOL    HW231005   0.056   4.763   2.754
10036SOL     OW31006   5.966   1.211   1.035
10036SOL    HW131007   5.950   1.231   0.939
10036SOL    HW231008   6.053   1.162   1.046
10037SOL     OW31009   6.499   1.699   1.075
10037SOL    HW131010   6.424   1.637   1.099
10037SOL    HW231011   6.462   1.778   1.026
10038SOL     OW31012   4.214   1.020   6.353
10038SOL    HW131013   4.255   0.991   6.266
10038SOL    HW231014   4.125   1.061   6.335
10039SOL     OW31015   3.649   0.335   5.010
10039SOL    HW131016   3.635   0.237   5.026
10039SOL    HW231017   3.679   0.350   4.916
10040SOL     OW31018   4.368   5.920   6.216
10040SOL    HW131019   4.436   5.860   6.260
10040SOL    HW231020   4.414   5.978   6.148
10041SOL     OW31021   4.221   5.880   6.491
10041SOL    HW131022   4.305   5.831   6.516
10041SOL    HW231023   4.243   5.955   6.428
10042SOL     OW31024   0.881   2.089   4.732
10042SOL    HW131025   0.967   2.038   4.742
10042SOL    HW231026   0.807   2.038   4.775
10043SOL     OW31027   6.560   2.097   4.430
10043SOL    HW131028   6.555   2.196   4.443
10043SOL    HW231029   6.516   2.073   4.344
10044SOL     OW31030   3.038   1.196   4.805
10044SOL    HW131031   3.110   1.128   4.798
10044SOL    HW231032   2.961   1.169   4.748
10045SOL     OW31033   4.466   6.749   3.806
10045SOL    HW131034   4.542   6.783   3.751
10045SOL    HW231035   4.380   6.785   3.769
10046SOL     OW31036   1.740   3.462   1.377
10046SOL    HW131037   1.697   3.484   1.290
10046SOL    HW231038   1.767   3.365   1.378
10047SOL     OW31039   0.015   3.621   5.433
10047SOL    HW131040   6.991   3.699   5.478
10047SOL    HW231041   0.004   3.628   5.334
10048SOL     OW31042   6.087   1.249   3.169
10048SOL    HW131043   6.044   1.159   3.176
10048SOL    HW231044   6.186   1.239   3.173
10049SOL     OW31045   0.102   0.528   6.685
10049SOL    HW131046   0.073   0.587   6.610
10049SOL    HW231047   0.075   0.433   6.665
10050SOL     OW31048   5.356   3.464   5.328
10050SOL    HW131049   5.356   3.366   5.349
10050SOL    HW231050   5.289   3.483   5.256
10051SOL     OW31051   5.452   2.835   5.149
10051SOL    HW131052   5.499   2.761   5.100
10051SOL    HW231053   5.486   2.923   5.116
10052SOL     OW31054   2.267   1.677   2.930
10052SOL    HW131055   2.341   1.738   2.901
10052SOL    HW231056   2.179   1.716   2.902
10053SOL     OW31057   3.570   5.625   2.833
10053SOL    HW131058   3.471   5.615   2.831
10053SOL    HW231059   3.608   5.573   2.910
10054SOL     OW31060   5.470   5.787   6.713
10054SOL    HW131061   5.538   5.735   6.661
10054SOL    HW231062   5.463   5.879   6.675
10055SOL     OW31063   5.397   1.835   4.907
10055SOL    HW131064   5.405   1.926   4.947
10055SOL    HW231065   5.302   1.820   4.878
10056SOL     OW31066   5.266   4.331   3.578
10056SOL    HW131067   5.242   4.255   3.638
10056SOL    HW231068   5.337   4.387   3.622
10057SOL     OW31069   4.354   2.087   5.557
10057SOL    HW131070   4.305   2.171   5.531
10057SOL    HW231071   4.290   2.011   5.557
10058SOL     OW31072   0.158   3.562   4.732
10058SOL    HW131073   0.196   3.637   4.786
10058SOL    HW231074   0.080   3.595   4.679
10059SOL     OW31075   6.866   0.392   1.175
10059SOL    HW131076   6.949   0.400   1.120
10059SOL    HW231077   6.858   0.473   1.234
10060SOL     OW31078   1.993   2.622   1.833
10060SOL    HW131079   2.023   2.542   1.885
10060SOL    HW231080   1.893   2.619   1.822
10061SOL     OW31081   4.463   0.701   3.964
10061SOL    HW131082   4.493   0.751   4.045
10061SOL    HW231083   4.538   0.643   3.931
10062SOL     OW31084   5.783   0.417   4.047
10062SOL    HW131085   5.844   0.471   3.989
10062SOL    HW231086   5.715   0.478   4.088
10063SOL     OW31087   2.372   0.889   4.036
10063SOL    HW131088   2.312   0.899   3.956
10063SOL    HW231089   2.318   0.860   4.114
10064SOL     OW31090   5.003   0.137   6.936
10064SOL    HW131091   4.956   0.087   6.862
10064SOL    HW231092   5.101   0.135   6.919
10065SOL     OW31093   3.228   0.319   2.380
10065SOL    HW131094   3.191   0.369   2.458
10065SOL    HW231095   3.315   0.360   2.352
10066SOL     OW31096   0.481   2.300   4.028
10066SOL    HW131097   0.442   2.378   3.978
10066SOL    HW231098   0.549   2.333   4.093
10067SOL     OW31099   0.089   4.079   5.142
10067SOL    HW131100   0.174   4.107   5.098
10067SOL    HW231101   0.043   4.011   5.084
10068SOL     OW31102   0.089   3.171   3.459
10068SOL    HW131103   0.105   3.073   3.468
10068SOL    HW231104   7.010   3.188   3.452
10069SOL     OW31105   2.331   5.330   2.610
10069SOL    HW131106   2.291   5.315   2.519
10069SOL    HW231107   2.341   5.428   2.626
10070SOL     OW31108   0.012   6.263   5.277
10070SOL    HW131109   0.003   6.174   5.232
10070SOL    HW231110   0.108   6.292   5.273
10071SOL     OW31111   5.986   5.981   4.792
10071SOL    HW131112   6.014   5.912   4.726
10071SOL    HW231113   6.066   6.032   4.824
10072SOL     OW31114   6.605   7.009   4.273
10072SOL    HW131115   6.597   6.911   4.292
10072SOL    HW231116   6.701   0.014   4.266
10073SOL     OW31117   6.328   4.751   5.028
10073SOL    HW131118   6.253   4.686   5.035
10073SOL    HW231119   6.411   4.710   5.065
10074SOL     OW31120   2.026   0.399   5.396
10074SOL    HW131121   1.942   0.419   5.347
10074SOL    HW231122   2.063   0.483   5.436
10075SOL     OW31123   1.480   2.695   2.558
10075SOL    HW131124   1.541   2.725   2.632
10075SOL    HW231125   1.520   2.720   2.470
10076SOL     OW31126   6.281   6.540   3.849
10076SOL    HW131127   6.359   6.525   3.910
10076SOL    HW231128   6.215   6.467   3.861
10077SOL     OW31129   4.405   3.094   6.601
10077SOL    HW131130   4.406   3.109   6.700
10077SOL    HW231131   4.487   3.135   6.560
10078SOL     OW31132   0.492   5.640   3.598
10078SOL    HW131133   0.504   5.583   3.679
10078SOL    HW231134   0.410   5.613   3.549
10079SOL     OW31135   5.786   2.988   3.541
10079SOL    HW131136   5.718   2.915   3.550
10079SOL    HW231137   5.878   2.948   3.546
10080SOL     OW31138   4.251   0.826   5.668
10080SOL    HW131139   4.171   0.840   5.609
10080SOL    HW231140   4.300   0.743   5.639
10081SOL     OW31141   6.814   0.919   0.498
10081SOL    HW131142   6.909   0.901   0.472
10081SOL    HW231143   6.811   0.997   0.561
10082SOL     OW31144   0.131   5.308   1.397
10082SOL    HW131145   0.100   5.291   1.304
10082SOL    HW231146   0.218   5.261   1.412
10083SOL     OW31147   3.442   6.932   3.272
10083SOL    HW131148   3.446   7.002   3.343
10083SOL    HW231149   3.429   6.842   3.315
10084SOL     OW31150   2.128   0.626   6.051
10084SOL    HW131151   2.196   0.579   5.995
10084SOL    HW231152   2.112   0.718   6.015
10085SOL     OW31153   2.647   5.675   1.053
10085SOL    HW131154   2.569   5.726   1.089
10085SOL    HW231155   2.701   5.638   1.129
10086SOL     OW31156   4.905   5.788   1.976
10086SOL    HW131157   4.833   5.809   1.910
10086SOL    HW231158   4.884   5.831   2.064
10087SOL     OW31159   6.802   6.662   4.258
10087SOL    HW131160   6.721   6.699   4.305
10087SOL    HW231161   6.850   6.737   4.212
10088SOL     OW31162   6.405   0.233   2.351
10088SOL    HW131163   6.477   0.207   2.287
10088SOL    HW231164   6.347   0.154   2.371
10089SOL     OW31165   2.882   1.882   3.251
10089SOL    HW131166   2.910   1.899   3.346
10089SOL    HW231167   2.963   1.879   3.192
10090SOL     OW31168   0.480   5.217   1.898
10090SOL    HW131169   0.486   5.205   1.997
10090SOL    HW231170   0.412   5.288   1.877
10091SOL     OW31171   0.095   4.743   6.649
10091SOL    HW131172   0.012   4.767   6.598
10091SOL    HW231173   0.116   4.815   6.715
10092SOL     OW31174   2.250   2.681   5.825
10092SOL    HW131175   2.291   2.718   5.741
10092SOL    HW231176   2.275   2.585   5.834
10093SOL     OW31177   5.102   3.273   5.781
10093SOL    HW131178   5.058   3.335   5.716
10093SOL    HW231179   5.200   3.292   5.784
10094SOL     OW31180   3.598   5.381   0.949
10094SOL    HW131181   3.509   5.398   0.905
10094SOL    HW231182   3.622   5.284   0.939
10095SOL     OW31183   5.637   2.052   4.236
10095SOL    HW131184   5.541   2.077   4.226
10095SOL    HW231185   5.646   1.980   4.304
10096SOL     OW31186   3.999   5.431   2.764
10096SOL    HW131187   4.083   5.385   2.794
10096SOL    HW231188   3.920   5.384   2.803
10097SOL     OW31189   1.244   1.783   0.074
10097SOL    HW131190   1.195   1.786   0.161
10097SOL    HW231191   1.181   1.800   7.018
10098SOL     OW31192   3.055   0.589   5.313
10098SOL    HW131193   3.056   0.550   5.221
10098SOL    HW231194   3.054   0.689   5.308
10099SOL     OW31195   0.599   4.801   0.996
10099SOL    HW131196   0.605   4.898   0.971
10099SOL    HW231197   0.579   4.793   1.094
10100SOL     OW31198   4.714   6.180   5.510
10100SOL    HW131199   4.769   6.197   5.592
10100SOL    HW231200   4.744   6.242   5.436
10101SOL     OW31201   6.711   3.183   2.136
10101SOL    HW131202   6.634   3.143   2.085
10101SOL    HW231203   6.779   3.217   2.071
10102SOL     OW31204   6.637   1.171   1.865
10102SOL    HW131205   6.633   1.269   1.847
10102SOL    HW231206   6.672   1.157   1.958
10103SOL     OW31207   3.711   0.698   5.461
10103SOL    HW131208   3.807   0.678   5.441
10103SOL    HW231209   3.699   0.709   5.560
10104SOL     OW31210   1.201   1.982   5.066
10104SOL    HW131211   1.221   1.899   5.013
10104SOL    HW231212   1.113   1.970   5.113
10105SOL     OW31213   1.591   0.674   6.818
10105SOL    HW131214   1.607   0.685   6.916
10105SOL    HW231215   1.598   0.577   6.794
10106SOL     OW31216   3.755   6.468   0.605
10106SOL    HW131217   3.793   6.547   0.652
10106SOL    HW231218   3.799   6.458   0.516
10107SOL     OW31219   5.434   1.470   5.543
10107SOL    HW131220   5.439   1.498   5.447
10107SOL    HW231221   5.433   1.551   5.602
10108SOL     OW31222   0.132   1.342   0.470
10108SOL    HW131223   0.227   1.359   0.441
10108SOL    HW231224   0.103   1.252   0.437
10109SOL     OW31225   6.041   1.522   0.006
10109SOL    HW131226   5.978   1.455   0.044
10109SOL    HW231227   6.132   1.507   0.043
10110SOL     OW31228   4.781   5.095   4.026
10110SOL    HW131229   4.835   5.174   4.053
10110SOL    HW231230   4.700   5.088   4.084
10111SOL     OW31231   5.816   3.658   4.090
10111SOL    HW131232   5.721   3.662   4.121
10111SOL    HW231233   5.818   3.638   3.992
10112SOL     OW31234   5.854   3.902   3.791
10112SOL    HW131235   5.910   3.906   3.708
10112SOL    HW231236   5.905   3.855   3.863
10113SOL     OW31237   4.275   6.592   6.790
10113SOL    HW131238   4.246   6.497   6.799
10113SOL    HW231239   4.234   6.647   6.863
10114SOL     OW31240   4.151   1.832   1.750
10114SOL    HW131241   4.130   1.737   1.774
10114SOL    HW231242   4.138   1.845   1.652
10115SOL     OW31243   3.920   1.065   5.110
10115SOL    HW131244   3.910   1.100   5.202
10115SOL    HW231245   3.954   1.137   5.050
10116SOL     OW31246   0.703   0.284   0.145
10116SOL    HW131247   0.673   0.219   0.076
10116SOL    HW231248   0.802   0.273   0.161
10117SOL     OW31249   6.888   6.200   6.140
10117SOL    HW131250   6.931   6.274   6.088
10117SOL    HW231251   6.956   6.160   6.202
10118SOL     OW31252   1.969   4.221   3.302
10118SOL    HW131253   1.952   4.132   3.260
10118SOL    HW231254   1.991   4.288   3.231
10119SOL     OW31255   6.691   5.177   4.676
10119SOL    HW131256   6.645   5.102   4.629
10119SOL    HW231257   6.715   5.148   4.769
10120SOL     OW31258   2.133   3.010   4.578
10120SOL    HW131259   2.196   2.971   4.645
10120SOL    HW231260   2.143   3.109   4.577
10121SOL     OW31261   5.778   3.908   6.679
10121SOL    HW131262   5.699   3.968   6.669
10121SOL    HW231263   5.861   3.957   6.652
10122SOL     OW31264   5.548   3.197   2.939
10122SOL    HW131265   5.614   3.195   2.864
10122SOL    HW231266   5.462   3.155   2.909
10123SOL     OW31267   5.736   5.733   1.353
10123SOL    HW131268   5.746   5.827   1.386
10123SOL    HW231269   5.672   5.683   1.410
10124SOL     OW31270   1.472   5.568   0.549
10124SOL    HW131271   1.565   5.549   0.581
10124SOL    HW231272   1.439   5.492   0.493
10125SOL     OW31273   1.925   1.291   1.484
10125SOL    HW131274   2.002   1.339   1.441
10125SOL    HW231275   1.959   1.211   1.534
10126SOL     OW31276   6.792   0.105   0.424
10126SOL    HW131277   6.702   0.074   0.456
10126SOL    HW231278   6.857   0.029   0.428
10127SOL     OW31279   2.836   4.047   0.057
10127SOL    HW131280   2.875   4.051   6.984
10127SOL    HW231281   2.740   4.076   0.054
10128SOL     OW31282   2.928   0.823   6.757
10128SOL    HW131283   2.896   0.877   6.679
10128SOL    HW231284   3.016   0.782   6.735
10129SOL     OW31285   6.386   1.688   3.151
10129SOL    HW131286   6.340   1.601   3.134
10129SOL    HW231287   6.321   1.763   3.141
10130SOL     OW31288   0.950   2.837   1.467
10130SOL    HW131289   1.049   2.841   1.482
10130SOL    HW231290   0.923   2.746   1.436
10131SOL     OW31291   1.585   6.630   4.069
10131SOL    HW131292   1.678   6.664   4.086
10131SOL    HW231293   1.560   6.649   3.975
10132SOL     OW31294   2.780   0.117   3.622
10132SOL    HW131295   2.779   0.082   3.528
10132SOL    HW231296   2.871   0.153   3.644
10133SOL     OW31297   4.698   6.189   0.416
10133SOL    HW131298   4.724   6.226   0.505
10133SOL    HW231299   4.666   6.262   0.357
10134SOL     OW31300   6.095   0.805   2.425
10134SOL    HW131301   6.045   0.848   2.351
10134SOL    HW231302   6.071   0.708   2.429
10135SOL     OW31303   5.101   3.125   3.523
10135SOL    HW131304   5.141   3.072   3.598
10135SOL    HW231305   5.003   3.136   3.538
10136SOL     OW31306   5.106   1.825   1.994
10136SOL    HW131307   5.115   1.726   1.982
10136SOL    HW231308   5.134   1.850   2.087
10137SOL     OW31309   0.056   4.128   4.640
10137SOL    HW131310   7.014   4.179   4.579
10137SOL    HW231311   0.128   4.084   4.587
10138SOL     OW31312   5.999   3.585   0.508
10138SOL    HW131313   6.080   3.621   0.554
10138SOL    HW231314   6.017   3.576   0.410
10139SOL     OW31315   3.012   3.479   3.512
10139SOL    HW131316   2.968   3.436   3.591
10139SOL    HW231317   3.104   3.441   3.501
10140SOL     OW31318   0.102   6.377   6.753
10140SOL    HW131319   0.165   6.391   6.830
10140SOL    HW231320   0.037   6.454   6.750
10141SOL     OW31321   4.366   1.122   5.789
10141SOL    HW131322   4.268   1.138   5.798
10141SOL    HW231323   4.394   1.136   5.694
10142SOL     OW31324   6.410   6.635   6.070
10142SOL    HW131325   6.451   6.697   6.137
10142SOL    HW231326   6.328   6.677   6.032
10143SOL     OW31327   5.873   1.657   0.587
10143SOL    HW131328   5.916   1.709   0.514
10143SOL    HW231329   5.926   1.667   0.671
10144SOL     OW31330   3.892   0.129   6.206
10144SOL    HW131331   3.883   0.127   6.306
10144SOL    HW231332   3.836   0.056   6.166
10145SOL     OW31333   3.156   5.435   3.149
10145SOL    HW131334   3.228   5.379   3.110
10145SOL    HW231335   3.082   5.376   3.183
10146SOL     OW31336   5.218   4.514   4.634
10146SOL    HW131337   5.162   4.556   4.563
10146SOL    HW231338   5.233   4.580   4.708
10147SOL     OW31339   5.238   4.141   6.189
10147SOL    HW131340   5.306   4.213   6.202
10147SOL    HW231341   5.146   4.180   6.198
10148SOL     OW31342   5.344   5.064   6.797
10148SOL    HW131343   5.350   4.988   6.861
10148SOL    HW231344   5.255   5.063   6.751
10149SOL     OW31345   5.537   3.597   1.561
10149SOL    HW131346   5.444   3.613   1.595
10149SOL    HW231347   5.565   3.503   1.580
10150SOL     OW31348   3.469   2.809   1.371
10150SOL    HW131349   3.483   2.902   1.337
10150SOL    HW231350   3.558   2.763   1.379
10151SOL     OW31351   0.753   6.200   6.883
10151SOL    HW131352   0.747   6.110   6.925
10151SOL    HW231353   0.765   6.270   6.953
10152SOL     OW31354   6.757   6.379   3.606
10152SOL    HW131355   6.691   6.371   3.681
10152SOL    HW231356   6.810   6.294   3.600
10153SOL     OW31357   4.189   5.840   3.403
10153SOL    HW131358   4.259   5.908   3.382
10153SOL    HW231359   4.108   5.859   3.348
10154SOL     OW31360   3.437   6.370   4.739
10154SOL    HW131361   3.470   6.276   4.745
10154SOL    HW231362   3.337   6.372   4.749
10155SOL     OW31363   5.009   2.030   6.486
10155SOL    HW131364   5.027   2.010   6.390
10155SOL    HW231365   4.933   2.095   6.493
10156SOL     OW31366   5.556   0.656   2.262
10156SOL    HW131367   5.493   0.654   2.340
10156SOL    HW231368   5.521   0.598   2.189
10157SOL     OW31369   0.230   1.949   0.321
10157SOL    HW131370   0.194   2.000   0.399
10157SOL    HW231371   0.204   1.995   0.236
10158SOL     OW31372   6.917   5.999   1.187
10158SOL    HW131373   6.994   5.949   1.148
10158SOL    HW231374   6.894   6.077   1.128
10159SOL     OW31375   2.829   2.339   1.273
10159SOL    HW131376   2.748   2.311   1.325
10159SOL    HW231377   2.907   2.284   1.302
10160SOL     OW31378   1.318   2.574   2.772
10160SOL    HW131379   1.230   2.618   2.788
10160SOL    HW231380   1.373   2.631   2.710
10161SOL     OW31381   3.420   3.972   0.639
10161SOL    HW131382   3.518   3.989   0.634
10161SOL    HW231383   3.383   4.014   0.721
10162SOL     OW31384   3.208   4.937   0.685
10162SOL    HW131385   3.236   5.015   0.742
10162SOL    HW231386   3.155   4.872   0.741
10163SOL     OW31387   0.133   3.792   0.052
10163SOL    HW131388   0.183   3.790   0.138
10163SOL    HW231389   0.101   3.885   0.033
10164SOL     OW31390   6.427   3.883   5.113
10164SOL    HW131391   6.475   3.970   5.123
10164SOL    HW231392   6.375   3.883   5.028
10165SOL     OW31393   6.643   1.785   3.404
10165SOL    HW131394   6.633   1.773   3.305
10165SOL    HW231395   6.586   1.862   3.434
10166SOL     OW31396   2.762   1.543   1.650
10166SOL    HW131397   2.851   1.509   1.679
10166SOL    HW231398   2.772   1.596   1.567
10167SOL     OW31399   0.820   5.514   0.439
10167SOL    HW131400   0.864   5.512   0.349
10167SOL    HW231401   0.764   5.432   0.451
10168SOL     OW31402   6.513   2.283   6.244
10168SOL    HW131403   6.438   2.253   6.185
10168SOL    HW231404   6.535   2.211   6.310
10169SOL     OW31405   0.760   4.262   4.049
10169SOL    HW131406   0.694   4.193   4.019
10169SOL    HW231407   0.742   4.348   4.001
10170SOL     OW31408   6.758   5.339   6.482
10170SOL    HW131409   6.748   5.439   6.479
10170SOL    HW231410   6.684   5.300   6.536
10171SOL     OW31411   1.043   2.922   5.126
10171SOL    HW131412   1.111   2.874   5.072
10171SOL    HW231413   1.046   2.890   5.221
10172SOL     OW31414   0.813   5.943   4.243
10172SOL    HW131415   0.854   5.872   4.300
10172SOL    HW231416   0.875   6.021   4.237
10173SOL     OW31417   1.627   1.870   0.495
10173SOL    HW131418   1.578   1.895   0.578
10173SOL    HW231419   1.703   1.933   0.480
10174SOL     OW31420   5.290   5.097   3.355
10174SOL    HW131421   5.387   5.086   3.331
10174SOL    HW231422   5.239   5.132   3.277
10175SOL     OW31423   5.139   2.668   3.006
10175SOL    HW131424   5.066   2.671   3.074
10175SOL    HW231425   5.169   2.573   2.993
10176SOL     OW31426   0.253   2.880   5.042
10176SOL    HW131427   0.175   2.881   4.979
10176SOL    HW231428   0.334   2.917   4.996
10177SOL     OW31429   1.598   0.680   1.089
10177SOL    HW131430   1.595   0.582   1.067
10177SOL    HW231431   1.658   0.726   1.023
10178SOL     OW31432   0.062   0.784   0.111
10178SOL    HW131433   7.007   0.756   0.051
10178SOL    HW231434   0.150   0.762   0.068
10179SOL     OW31435   0.146   2.578   6.673
10179SOL    HW131436   0.166   2.554   6.578
10179SOL    HW231437   0.228   2.617   6.715
10180SOL     OW31438   4.131   0.689   6.949
10180SOL    HW131439   4.083   0.602   6.937
10180SOL    HW231440   4.126   0.742   6.865
10181SOL     OW31441   6.978   2.505   1.538
10181SOL    HW131442   0.041   2.541   1.494
10181SOL    HW231443   6.995   2.411   1.569
10182SOL     OW31444   4.533   0.579   0.744
10182SOL    HW131445   4.538   0.505   0.811
10182SOL    HW231446   4.614   0.576   0.685
10183SOL     OW31447   5.670   2.305   5.589
10183SOL    HW131448   5.580   2.309   5.632
10183SOL    HW231449   5.720   2.390   5.608
10184SOL     OW31450   4.585   2.216   6.552
10184SOL    HW131451   4.494   2.175   6.538
10184SOL    HW231452   4.587   2.260   6.642
10185SOL     OW31453   6.261   6.479   2.607
10185SOL    HW131454   6.260   6.415   2.529
10185SOL    HW231455   6.305   6.435   2.685
10186SOL     OW31456   5.103   4.033   4.276
10186SOL    HW131457   5.134   3.953   4.224
10186SOL    HW231458   5.041   4.004   4.349
10187SOL     OW31459   1.197   4.197   6.731
10187SOL    HW131460   1.194   4.188   6.631
10187SOL    HW231461   1.272   4.258   6.756
10188SOL     OW31462   3.236   4.665   0.188
10188SOL    HW131463   3.168   4.738   0.182
10188SOL    HW231464   3.217   4.596   0.118
10189SOL     OW31465   0.681   1.083   6.483
10189SOL    HW131466   0.590   1.058   6.448
10189SOL    HW231467   0.670   1.149   6.557
10190SOL     OW31468   3.768   2.935   1.424
10190SOL    HW131469   3.770   2.886   1.512
10190SOL    HW231470   3.698   3.007   1.428
10191SOL     OW31471   4.535   4.956   6.361
10191SOL    HW131472   4.562   5.052   6.351
10191SOL    HW231473   4.496   4.924   6.275
10192SOL     OW31474   4.203   0.934   5.174
10192SOL    HW131475   4.103   0.931   5.175
10192SOL    HW231476   4.234   1.027   5.196
10193SOL     OW31477   3.220   3.385   2.681
10193SOL    HW131478   3.285   3.324   2.727
10193SOL    HW231479   3.241   3.388   2.583
10194SOL     OW31480   4.903   0.426   5.009
10194SOL    HW131481   4.961   0.408   4.930
10194SOL    HW231482   4.920   0.519   5.043
10195SOL     OW31483   6.521   6.601   0.549
10195SOL    HW131484   6.469   6.648   0.478
10195SOL    HW231485   6.615   6.635   0.549
10196SOL     OW31486   3.775   2.121   4.026
10196SOL    HW131487   3.729   2.151   4.110
10196SOL    HW231488   3.874   2.119   4.042
10197SOL     OW31489   5.174   1.912   4.303
10197SOL    HW131490   5.221   1.862   4.231
10197SOL    HW231491   5.173   1.857   4.387
10198SOL     OW31492   4.004   6.565   1.912
10198SOL    HW131493   3.908   6.584   1.893
10198SOL    HW231494   4.037   6.626   1.984
10199SOL     OW31495   0.822   1.921   0.824
10199SOL    HW131496   0.742   1.917   0.765
10199SOL    HW231497   0.885   1.848   0.800
10200SOL     OW31498   4.936   3.355   5.126
10200SOL    HW131499   4.912   3.275   5.181
10200SOL    HW231500   4.861   3.421   5.129
10201SOL     OW31501   0.854   6.164   0.242
10201SOL    HW131502   0.840   6.261   0.222
10201SOL    HW231503   0.928   6.154   0.308
10202SOL     OW31504   2.424   4.726   0.021
10202SOL    HW131505   2.366   4.733   6.958
10202SOL    HW231506   2.509   4.776   0.005
10203SOL     OW31507   6.849   2.800   2.647
10203SOL    HW131508   6.839   2.735   2.572
10203SOL    HW231509   6.784   2.777   2.720
10204SOL     OW31510   4.001   5.448   6.845
10204SOL    HW131511   4.061   5.462   6.767
10204SOL    HW231512   4.055   5.446   6.929
10205SOL     OW31513   3.477   1.134   2.045
10205SOL    HW131514   3.561   1.084   2.027
10205SOL    HW231515   3.492   1.232   2.027
10206SOL     OW31516   6.405   6.819   6.660
10206SOL    HW131517   6.476   6.851   6.723
10206SOL    HW231518   6.385   6.890   6.593
10207SOL     OW31519   1.478   2.049   0.232
10207SOL    HW131520   1.477   2.005   0.142
10207SOL    HW231521   1.573   2.068   0.259
10208SOL     OW31522   6.606   5.125   3.614
10208SOL    HW131523   6.687   5.184   3.622
10208SOL    HW231524   6.573   5.125   3.520
10209SOL     OW31525   6.899   0.016   6.450
10209SOL    HW131526   6.966   0.088   6.463
10209SOL    HW231527   6.854   7.015   6.537
10210SOL     OW31528   4.844   6.268   0.636
10210SOL    HW131529   4.845   6.356   0.684
10210SOL    HW231530   4.892   6.278   0.549
10211SOL     OW31531   4.189   6.266   4.960
10211SOL    HW131532   4.168   6.353   5.004
10211SOL    HW231533   4.105   6.220   4.933
10212SOL     OW31534   6.970   7.014   5.375
10212SOL    HW131535   6.957   7.000   5.473
10212SOL    HW231536   0.046   6.996   5.351
10213SOL     OW31537   5.606   3.227   2.650
10213SOL    HW131538   5.524   3.214   2.595
10213SOL    HW231539   5.660   3.302   2.613
10214SOL     OW31540   1.032   1.490   1.733
10214SOL    HW131541   0.968   1.413   1.738
10214SOL    HW231542   1.123   1.460   1.763
10215SOL     OW31543   3.189   2.971   3.494
10215SOL    HW131544   3.223   2.893   3.442
10215SOL    HW231545   3.182   3.051   3.434
10216SOL     OW31546   0.804   0.790   1.052
10216SOL    HW131547   0.728   0.777   1.116
10216SOL    HW231548   0.825   0.888   1.045
10217SOL     OW31549   1.969   2.758   3.574
10217SOL    HW131550   2.011   2.795   3.491
10217SOL    HW231551   1.948   2.662   3.560
10218SOL     OW31552   1.692   0.811   1.530
10218SOL    HW131553   1.712   0.859   1.616
10218SOL    HW231554   1.613   0.854   1.486
10219SOL     OW31555   0.643   2.792   2.733
10219SOL    HW131556   0.695   2.853   2.792
10219SOL    HW231557   0.705   2.737   2.678
10220SOL     OW31558   3.646   0.908   0.863
10220SOL    HW131559   3.697   0.990   0.888
10220SOL    HW231560   3.633   0.905   0.764
10221SOL     OW31561   2.119   3.692   4.559
10221SOL    HW131562   2.110   3.667   4.463
10221SOL    HW231563   2.166   3.780   4.567
10222SOL     OW31564   2.415   3.127   5.580
10222SOL    HW131565   2.359   3.206   5.556
10222SOL    HW231566   2.389   3.093   5.670
10223SOL     OW31567   2.025   5.695   0.204
10223SOL    HW131568   2.024   5.614   0.145
10223SOL    HW231569   1.938   5.702   0.253
10224SOL     OW31570   6.181   2.033   5.308
10224SOL    HW131571   6.098   2.082   5.335
10224SOL    HW231572   6.250   2.042   5.380
10225SOL     OW31573   2.165   6.213   6.078
10225SOL    HW131574   2.195   6.190   6.171
10225SOL    HW231575   2.236   6.188   6.013
10226SOL     OW31576   2.091   0.713   6.313
10226SOL    HW131577   2.115   0.691   6.219
10226SOL    HW231578   2.129   0.642   6.374
10227SOL     OW31579   5.020   4.114   0.682
10227SOL    HW131580   5.045   4.041   0.618
10227SOL    HW231581   4.944   4.166   0.644
10228SOL     OW31582   0.989   6.060   1.635
10228SOL    HW131583   1.001   6.054   1.734
10228SOL    HW231584   1.077   6.044   1.590
10229SOL     OW31585   1.429   1.688   4.200
10229SOL    HW131586   1.378   1.702   4.115
10229SOL    HW231587   1.518   1.733   4.193
10230SOL     OW31588   6.349   6.523   3.380
10230SOL    HW131589   6.388   6.608   3.344
10230SOL    HW231590   6.423   6.458   3.400
10231SOL     OW31591   6.240   5.481   5.536
10231SOL    HW131592   6.291   5.480   5.449
10231SOL    HW231593   6.152   5.435   5.523
10232SOL     OW31594   2.867   1.271   4.306
10232SOL    HW131595   2.813   1.344   4.265
10232SOL    HW231596   2.964   1.295   4.303
10233SOL     OW31597   4.572   3.460   5.357
10233SOL    HW131598   4.478   3.474   5.327
10233SOL    HW231599   4.635   3.478   5.282
10234SOL     OW31600   5.857   0.187   0.114
10234SOL    HW131601   5.804   0.234   0.043
10234SOL    HW231602   5.847   0.236   0.200
10235SOL     OW31603   3.342   2.213   0.533
10235SOL    HW131604   3.271   2.160   0.486
10235SOL    HW231605   3.429   2.202   0.486
10236SOL     OW31606   1.761   1.048   1.159
10236SOL    HW131607   1.754   0.952   1.132
10236SOL    HW231608   1.832   1.093   1.105
10237SOL     OW31609   6.955   4.442   6.979
10237SOL    HW131610   6.959   4.438   6.879
10237SOL    HW231611   6.947   4.537   7.008
10238SOL     OW31612   3.740   3.983   2.284
10238SOL    HW131613   3.780   4.074   2.296
10238SOL    HW231614   3.641   3.988   2.291
10239SOL     OW31615   2.313   4.163   5.802
10239SOL    HW131616   2.283   4.211   5.720
10239SOL    HW231617   2.409   4.136   5.791
10240SOL     OW31618   1.732   4.280   2.359
10240SOL    HW131619   1.821   4.311   2.328
10240SOL    HW231620   1.690   4.222   2.289
10241SOL     OW31621   6.586   6.820   2.958
10241SOL    HW131622   6.492   6.819   2.994
10241SOL    HW231623   6.596   6.895   2.893
10242SOL     OW31624   0.011   1.515   1.778
10242SOL    HW131625   0.042   1.427   1.743
10242SOL    HW231626   0.085   1.559   1.828
10243SOL     OW31627   1.134   4.732   1.953
10243SOL    HW131628   1.080   4.816   1.959
10243SOL    HW231629   1.186   4.733   1.868
10244SOL     OW31630   1.809   4.266   0.542
10244SOL    HW131631   1.778   4.180   0.583
10244SOL    HW231632   1.762   4.280   0.455
10245SOL     OW31633   2.898   4.775   0.415
10245SOL    HW131634   2.808   4.762   0.457
10245SOL    HW231635   2.969   4.735   0.473
10246SOL     OW31636   3.231   3.816   3.374
10246SOL    HW131637   3.166   3.828   3.298
10246SOL    HW231638   3.277   3.727   3.364
10247SOL     OW31639   6.817   4.751   5.687
10247SOL    HW131640   6.892   4.815   5.705
10247SOL    HW231641   6.854   4.661   5.665
10248SOL     OW31642   1.772   0.092   2.978
10248SOL    HW131643   1.857   0.083   3.029
10248SOL    HW231644   1.784   0.056   2.885
10249SOL     OW31645   2.997   6.874   6.851
10249SOL    HW131646   2.932   6.891   6.777
10249SOL    HW231647   2.981   6.782   6.889
10250SOL     OW31648   6.722   3.276   1.696
10250SOL    HW131649   6.690   3.368   1.672
10250SOL    HW231650   6.819   3.280   1.720
10251SOL     OW31651   2.479   1.397   4.795
10251SOL    HW131652   2.404   1.456   4.766
10251SOL    HW231653   2.516   1.349   4.716
10252SOL     OW31654   4.245   4.464   6.959
10252SOL    HW131655   4.192   4.423   0.014
10252SOL    HW231656   4.247   4.563   6.970
10253SOL     OW31657   2.666   5.855   0.524
10253SOL    HW131658   2.587   5.816   0.477
10253SOL    HW231659   2.732   5.782   0.544
10254SOL     OW31660   4.901   0.779   4.803
10254SOL    HW131661   4.994   0.765   4.772
10254SOL    HW231662   4.862   0.860   4.760
10255SOL     OW31663   1.795   6.566   1.199
10255SOL    HW131664   1.854   6.486   1.205
10255SOL    HW231665   1.798   6.604   1.107
10256SOL     OW31666   6.372   1.343   1.930
10256SOL    HW131667   6.449   1.380   1.878
10256SOL    HW231668   6.288   1.351   1.877
10257SOL     OW31669   2.541   5.047   4.903
10257SOL    HW131670   2.441   5.048   4.914
10257SOL    HW231671   2.563   4.999   4.818
10258SOL     OW31672   3.092   0.701   4.306
10258SOL    HW131673   3.076   0.706   4.208
10258SOL    HW231674   3.004   0.695   4.354
10259SOL     OW31675   0.977   4.275   2.859
10259SOL    HW131676   1.060   4.330   2.858
10259SOL    HW231677   0.900   4.331   2.889
10260SOL     OW31678   0.992   0.925   3.223
10260SOL    HW131679   0.939   1.006   3.198
10260SOL    HW231680   1.047   0.897   3.144
10261SOL     OW31681   6.904   6.138   3.578
10261SOL    HW131682   6.903   6.046   3.618
10261SOL    HW231683   6.996   6.176   3.585
10262SOL     OW31684   1.486   6.397   5.033
10262SOL    HW131685   1.447   6.453   4.960
10262SOL    HW231686   1.536   6.456   5.097
10263SOL     OW31687   5.240   0.851   6.140
10263SOL    HW131688   5.266   0.940   6.177
10263SOL    HW231689   5.162   0.861   6.078
10264SOL     OW31690   5.614   1.340   6.396
10264SOL    HW131691   5.648   1.248   6.377
10264SOL    HW231692   5.622   1.359   6.494
10265SOL     OW31693   2.721   2.273   2.561
10265SOL    HW131694   2.761   2.301   2.474
10265SOL    HW231695   2.713   2.173   2.563
10266SOL     OW31696   3.204   2.978   3.969
10266SOL    HW131697   3.135   3.007   3.902
10266SOL    HW231698   3.237   2.887   3.944
10267SOL     OW31699   6.422   2.233   6.652
10267SOL    HW131700   6.356   2.217   6.725
10267SOL    HW231701   6.405   2.169   6.577
10268SOL     OW31702   5.857   5.434   2.595
10268SOL    HW131703   5.819   5.511   2.543
10268SOL    HW231704   5.854   5.456   2.693
10269SOL     OW31705   0.539   3.351   0.173
10269SOL    HW131706   0.477   3.429   0.177
10269SOL    HW231707   0.592   3.345   0.257
10270SOL     OW31708   2.939   4.851   3.105
10270SOL    HW131709   2.988   4.863   3.192
10270SOL    HW231710   3.005   4.842   3.031
10271SOL     OW31711   3.459   2.386   6.502
10271SOL    HW131712   3.361   2.370   6.489
10271SOL    HW231713   3.474   2.428   6.592
10272SOL     OW31714   0.891   0.696   4.653
10272SOL    HW131715   0.919   0.716   4.559
10272SOL    HW231716   0.920   0.603   4.678
10273SOL     OW31717   3.308   5.534   2.859
10273SOL    HW131718   3.231   5.590   2.831
10273SOL    HW231719   3.317   5.456   2.796
10274SOL     OW31720   6.945   5.100   4.480
10274SOL    HW131721   7.004   5.057   4.548
10274SOL    HW231722   6.867   5.142   4.526
10275SOL     OW31723   0.723   0.178   1.942
10275SOL    HW131724   0.736   0.111   1.869
10275SOL    HW231725   0.808   0.186   1.995
10276SOL     OW31726   6.022   5.299   5.458
10276SOL    HW131727   6.026   5.325   5.362
10276SOL    HW231728   5.937   5.332   5.499
10277SOL     OW31729   2.045   5.732   3.758
10277SOL    HW131730   2.074   5.819   3.718
10277SOL    HW231731   2.078   5.727   3.853
10278SOL     OW31732   6.939   1.555   4.458
10278SOL    HW131733   6.964   1.627   4.394
10278SOL    HW231734   6.869   1.496   4.417
10279SOL     OW31735   2.979   5.082   3.849
10279SOL    HW131736   2.922   5.160   3.876
10279SOL    HW231737   3.069   5.115   3.821
10280SOL     OW31738   0.304   3.493   0.672
10280SOL    HW131739   0.335   3.475   0.765
10280SOL    HW231740   0.282   3.406   0.627
10281SOL     OW31741   5.767   1.179   2.141
10281SOL    HW131742   5.708   1.098   2.144
10281SOL    HW231743   5.820   1.179   2.056
10282SOL     OW31744   5.735   4.789   4.957
10282SOL    HW131745   5.677   4.854   5.004
10282SOL    HW231746   5.788   4.836   4.886
10283SOL     OW31747   0.995   3.902   0.869
10283SOL    HW131748   1.050   3.857   0.800
10283SOL    HW231749   1.032   3.883   0.960
10284SOL     OW31750   5.160   3.060   5.132
10284SOL    HW131751   5.089   2.991   5.150
10284SOL    HW231752   5.249   3.015   5.124
10285SOL     OW31753   5.393   0.627   1.952
10285SOL    HW131754   5.347   0.670   2.030
10285SOL    HW231755   5.369   0.530   1.949
10286SOL     OW31756   2.920   1.872   3.540
10286SOL    HW131757   2.963   1.896   3.627
10286SOL    HW231758   2.821   1.882   3.548
10287SOL     OW31759   2.437   6.726   0.969
10287SOL    HW131760   2.398   6.680   1.048
10287SOL    HW231761   2.480   6.659   0.909
10288SOL     OW31762   4.400   6.018   3.401
10288SOL    HW131763   4.446   6.089   3.455
10288SOL    HW231764   4.467   5.971   3.344
10289SOL     OW31765   1.760   0.052   1.472
10289SOL    HW131766   1.684   7.013   1.445
10289SOL    HW231767   1.805   0.014   1.553
10290SOL     OW31768   2.857   3.489   2.109
10290SOL    HW131769   2.883   3.523   2.199
10290SOL    HW231770   2.757   3.485   2.103
10291SOL     OW31771   3.901   1.475   3.177
10291SOL    HW131772   3.851   1.556   3.146
10291SOL    HW231773   3.873   1.452   3.270
10292SOL     OW31774   1.198   0.501   5.120
10292SOL    HW131775   1.128   0.449   5.169
10292SOL    HW231776   1.157   0.580   5.076
10293SOL     OW31777   1.983   4.425   3.473
10293SOL    HW131778   1.948   4.377   3.553
10293SOL    HW231779   1.976   4.366   3.393
10294SOL     OW31780   5.528   3.602   2.815
10294SOL    HW131781   5.429   3.590   2.814
10294SOL    HW231782   5.571   3.524   2.861
10295SOL     OW31783   5.624   4.807   6.190
10295SOL    HW131784   5.645   4.874   6.262
10295SOL    HW231785   5.531   4.773   6.203
10296SOL     OW31786   4.909   2.631   0.618
10296SOL    HW131787   4.930   2.544   0.574
10296SOL    HW231788   4.959   2.638   0.705
10297SOL     OW31789   2.194   6.939   6.822
10297SOL    HW131790   2.197   6.874   6.898
10297SOL    HW231791   2.156   6.895   6.741
10298SOL     OW31792   3.179   4.705   1.539
10298SOL    HW131793   3.092   4.707   1.491
10298SOL    HW231794   3.215   4.611   1.541
10299SOL     OW31795   4.693   4.924   2.876
10299SOL    HW131796   4.777   4.880   2.844
10299SOL    HW231797   4.673   4.895   2.969
10300SOL     OW31798   1.073   3.900   3.223
10300SOL    HW131799   1.065   3.803   3.243
10300SOL    HW231800   1.028   3.920   3.136
10301SOL     OW31801   5.388   2.436   4.243
10301SOL    HW131802   5.385   2.483   4.154
10301SOL    HW231803   5.467   2.469   4.295
10302SOL     OW31804   1.801   6.334   4.001
10302SOL    HW131805   1.755   6.388   3.931
10302SOL    HW231806   1.897   6.320   3.975
10303SOL     OW31807   1.700   6.125   2.519
10303SOL    HW131808   1.636   6.191   2.558
10303SOL    HW231809   1.752   6.082   2.593
10304SOL     OW31810   4.961   0.267   1.735
10304SOL    HW131811   5.010   0.345   1.772
10304SOL    HW231812   5.001   0.240   1.647
10305SOL     OW31813   0.858   4.336   0.122
10305SOL    HW131814   0.831   4.246   0.157
10305SOL    HW231815   0.913   4.325   0.040
10306SOL     OW31816   4.409   6.599   6.091
10306SOL    HW131817   4.468   6.519   6.099
10306SOL    HW231818   4.318   6.577   6.125
10307SOL     OW31819   2.338   1.937   5.382
10307SOL    HW131820   2.429   1.949   5.421
10307SOL    HW231821   2.298   2.027   5.362
10308SOL     OW31822   2.256   4.719   3.494
10308SOL    HW131823   2.263   4.622   3.471
10308SOL    HW231824   2.311   4.737   3.576
10309SOL     OW31825   5.796   1.855   4.681
10309SOL    HW131826   5.839   1.932   4.729
10309SOL    HW231827   5.763   1.886   4.592
10310SOL     OW31828   2.914   3.170   1.462
10310SOL    HW131829   2.878   3.189   1.553
10310SOL    HW231830   2.844   3.189   1.393
10311SOL     OW31831   0.792   6.424   0.086
10311SOL    HW131832   0.891   6.431   0.076
10311SOL    HW231833   0.748   6.491   0.028
10312SOL     OW31834   2.593   6.528   1.693
10312SOL    HW131835   2.651   6.538   1.774
10312SOL    HW231836   2.505   6.489   1.718
10313SOL     OW31837   5.198   0.055   1.546
10313SOL    HW131838   5.105   0.088   1.527
10313SOL    HW231839   5.259   0.133   1.560
10314SOL     OW31840   6.436   6.992   1.954
10314SOL    HW131841   6.455   6.963   1.860
10314SOL    HW231842   6.352   0.027   1.956
10315SOL     OW31843   5.760   5.930   4.543
10315SOL    HW131844   5.786   6.015   4.496
10315SOL    HW231845   5.691   5.950   4.612
10316SOL     OW31846   6.507   2.846   4.806
10316SOL    HW131847   6.588   2.898   4.834
10316SOL    HW231848   6.512   2.828   4.708
10317SOL     OW31849   3.159   6.049   5.333
10317SOL    HW131850   3.139   6.008   5.422
10317SOL    HW231851   3.073   6.067   5.285
10318SOL     OW31852   5.865   5.465   6.647
10318SOL    HW131853   5.877   5.442   6.550
10318SOL    HW231854   5.919   5.546   6.669
10319SOL     OW31855   1.227   2.183   5.614
10319SOL    HW131856   1.280   2.098   5.604
10319SOL    HW231857   1.231   2.213   5.710
10320SOL     OW31858   0.909   0.451   2.892
10320SOL    HW131859   0.956   0.435   2.979
10320SOL    HW231860   0.821   0.403   2.893
10321SOL     OW31861   4.672   0.482   2.687
10321SOL    HW131862   4.713   0.493   2.597
10321SOL    HW231863   4.640   0.387   2.697
10322SOL     OW31864   6.543   5.259   6.630
10322SOL    HW131865   6.473   5.189   6.613
10322SOL    HW231866   6.549   5.277   6.728
10323SOL     OW31867   6.743   3.807   6.060
10323SOL    HW131868   6.721   3.889   6.007
10323SOL    HW231869   6.717   3.821   6.156
10324SOL     OW31870   3.400   2.916   2.801
10324SOL    HW131871   3.337   2.932   2.877
10324SOL    HW231872   3.386   2.824   2.764
10325SOL     OW31873   0.251   3.636   3.205
10325SOL    HW131874   0.327   3.619   3.268
10325SOL    HW231875   0.226   3.733   3.208
10326SOL     OW31876   4.012   3.247   0.621
10326SOL    HW131877   3.945   3.299   0.674
10326SOL    HW231878   4.003   3.270   0.524
10327SOL     OW31879   2.647   2.453   1.979
10327SOL    HW131880   2.739   2.415   1.970
10327SOL    HW231881   2.604   2.417   2.062
10328SOL     OW31882   6.507   2.663   1.779
10328SOL    HW131883   6.421   2.698   1.817
10328SOL    HW231884   6.489   2.616   1.693
10329SOL     OW31885   3.583   0.186   2.927
10329SOL    HW131886   3.623   0.186   3.018
10329SOL    HW231887   3.653   0.208   2.859
10330SOL     OW31888   4.049   6.284   1.882
10330SOL    HW131889   4.111   6.263   1.958
10330SOL    HW231890   4.029   6.382   1.881
10331SOL     OW31891   6.864   0.888   4.244
10331SOL    HW131892   6.924   0.877   4.164
10331SOL    HW231893   6.919   0.888   4.327
10332SOL     OW31894   6.441   0.815   1.175
10332SOL    HW131895   6.445   0.891   1.240
10332SOL    HW231896   6.464   0.730   1.221
10333SOL     OW31897   6.495   4.624   4.729
10333SOL    HW131898   6.564   4.610   4.800
10333SOL    HW231899   6.461   4.535   4.699
10334SOL     OW31900   3.090   6.558   4.305
10334SOL    HW131901   3.140   6.612   4.237
10334SOL    HW231902   3.118   6.462   4.297
10335SOL     OW31903   2.967   4.482   6.526
10335SOL    HW131904   3.014   4.535   6.456
10335SOL    HW231905   2.891   4.535   6.563
10336SOL     OW31906   5.762   0.378   2.981
10336SOL    HW131907   5.791   0.313   2.912
10336SOL    HW231908   5.796   0.349   3.071
10337SOL     OW31909   6.804   6.637   5.542
10337SOL    HW131910   6.796   6.631   5.442
10337SOL    HW231911   6.882   6.583   5.573
10338SOL     OW31912   2.037   6.373   1.427
10338SOL    HW131913   1.950   6.396   1.471
10338SOL    HW231914   2.091   6.315   1.488
10339SOL     OW31915   2.376   5.324   0.277
10339SOL    HW131916   2.445   5.257   0.247
10339SOL    HW231917   2.408   5.370   0.359
10340SOL     OW31918   1.177   5.590   0.429
10340SOL    HW131919   1.081   5.596   0.456
10340SOL    HW231920   1.223   5.677   0.447
10341SOL     OW31921   1.927   3.612   1.892
10341SOL    HW131922   2.012   3.577   1.930
10341SOL    HW231923   1.852   3.551   1.918
10342SOL     OW31924   1.124   6.628   4.843
10342SOL    HW131925   1.218   6.609   4.812
10342SOL    HW231926   1.122   6.628   4.943
10343SOL     OW31927   1.945   4.825   0.733
10343SOL    HW131928   1.892   4.820   0.648
10343SOL    HW231929   1.942   4.919   0.768
10344SOL     OW31930   4.382   3.782   1.520
10344SOL    HW131931   4.436   3.700   1.539
10344SOL    HW231932   4.410   3.856   1.581
10345SOL     OW31933   1.718   0.931   6.775
10345SOL    HW131934   1.693   0.836   6.759
10345SOL    HW231935   1.789   0.958   6.710
10346SOL     OW31936   5.992   0.520   1.464
10346SOL    HW131937   6.051   0.491   1.540
10346SOL    HW231938   5.931   0.445   1.440
10347SOL     OW31939   5.283   2.486   2.460
10347SOL    HW131940   5.381   2.501   2.449
10347SOL    HW231941   5.246   2.444   2.377
10348SOL     OW31942   6.540   1.368   0.374
10348SOL    HW131943   6.511   1.427   0.449
10348SOL    HW231944   6.460   1.334   0.325
10349SOL     OW31945   6.459   1.707   1.389
10349SOL    HW131946   6.535   1.644   1.403
10349SOL    HW231947   6.446   1.723   1.291
10350SOL     OW31948   1.949   5.769   5.549
10350SOL    HW131949   1.963   5.844   5.613
10350SOL    HW231950   2.020   5.699   5.563
10351SOL     OW31951   5.103   4.974   6.703
10351SOL    HW131952   5.060   4.929   6.782
10351SOL    HW231953   5.123   4.906   6.633
10352SOL     OW31954   5.292   2.336   0.042
10352SOL    HW131955   5.198   2.301   0.050
10352SOL    HW231956   5.341   2.284   6.991
10353SOL     OW31957   6.546   2.716   5.714
10353SOL    HW131958   6.638   2.684   5.694
10353SOL    HW231959   6.538   2.813   5.690
10354SOL     OW31960   6.463   2.147   2.088
10354SOL    HW131961   6.408   2.228   2.106
10354SOL    HW231962   6.451   2.117   1.993
10355SOL     OW31963   1.899   0.291   1.482
10355SOL    HW131964   1.843   0.374   1.484
10355SOL    HW231965   1.841   0.213   1.459
10356SOL     OW31966   0.133   4.305   5.854
10356SOL    HW131967   0.168   4.384   5.904
10356SOL    HW231968   0.063   4.259   5.908
10357SOL     OW31969   3.350   2.945   6.770
10357SOL    HW131970   3.446   2.963   6.795
10357SOL    HW231971   3.318   3.016   6.708
10358SOL     OW31972   6.233   3.552   3.919
10358SOL    HW131973   6.212   3.562   4.017
10358SOL    HW231974   6.331   3.561   3.905
10359SOL     OW31975   5.820   1.827   1.854
10359SOL    HW131976   5.818   1.833   1.954
10359SOL    HW231977   5.913   1.806   1.824
10360SOL     OW31978   4.476   5.498   1.659
10360SOL    HW131979   4.386   5.459   1.679
10360SOL    HW231980   4.491   5.578   1.718
10361SOL     OW31981   3.067   1.217   2.829
10361SOL    HW131982   3.135   1.290   2.836
10361SOL    HW231983   3.047   1.199   2.733
10362SOL     OW31984   6.852   5.336   3.267
10362SOL    HW131985   6.889   5.249   3.298
10362SOL    HW231986   6.805   5.382   3.343
10363SOL     OW31987   4.664   2.607   1.111
10363SOL    HW131988   4.724   2.576   1.037
10363SOL    HW231989   4.670   2.707   1.118
10364SOL     OW31990   3.808   3.919   1.499
10364SOL    HW131991   3.880   3.983   1.524
10364SOL    HW231992   3.803   3.912   1.399
10365SOL     OW31993   4.938   4.460   5.684
10365SOL    HW131994   4.908   4.533   5.746
10365SOL    HW231995   5.036   4.446   5.694
10366SOL     OW31996   3.667   0.238   4.130
10366SOL    HW131997   3.744   0.215   4.070
10366SOL    HW231998   3.676   0.189   4.216
10367SOL     OW31999   0.220   2.204   2.065
10367SOL    HW132000   0.174   2.251   2.141
10367SOL    HW232001   0.196   2.248   1.979
10368SOL     OW32002   2.550   1.159   2.650
10368SOL    HW132003   2.519   1.154   2.745
10368SOL    HW232004   2.641   1.119   2.642
10369SOL     OW32005   2.486   0.687   5.416
10369SOL    HW132006   2.486   0.774   5.466
10369SOL    HW232007   2.408   0.684   5.354
10370SOL     OW32008   5.550   0.953   5.445
10370SOL    HW132009   5.578   0.975   5.539
10370SOL    HW232010   5.621   0.983   5.381
10371SOL     OW32011   2.026   6.120   4.505
10371SOL    HW132012   2.049   6.123   4.603
10371SOL    HW232013   1.927   6.114   4.495
10372SOL     OW32014   1.997   1.176   6.758
10372SOL    HW132015   2.090   1.173   6.793
10372SOL    HW232016   1.941   1.235   6.818
10373SOL     OW32017   1.621   6.538   5.252
10373SOL    HW132018   1.646   6.634   5.270
10373SOL    HW232019   1.703   6.481   5.258
10374SOL     OW32020   3.140   0.767   4.047
10374SOL    HW132021   3.183   0.851   4.080
10374SOL    HW232022   3.055   0.789   4.000
10375SOL     OW32023   2.136   1.920   6.275
10375SOL    HW132024   2.230   1.949   6.298
10375SOL    HW232025   2.130   1.903   6.177
10376SOL     OW32026   1.117   5.444   3.877
10376SOL    HW132027   1.132   5.346   3.866
10376SOL    HW232028   1.023   5.459   3.908
10377SOL     OW32029   6.693   0.946   3.098
10377SOL    HW132030   6.675   0.886   3.021
10377SOL    HW232031   6.775   1.000   3.080
10378SOL     OW32032   5.825   6.070   5.823
10378SOL    HW132033   5.827   6.155   5.875
10378SOL    HW232034   5.912   6.022   5.833
10379SOL     OW32035   3.260   6.695   4.141
10379SOL    HW132036   3.229   6.737   4.056
10379SOL    HW232037   3.353   6.661   4.130
10380SOL     OW32038   0.548   2.554   4.953
10380SOL    HW132039   0.543   2.456   4.971
10380SOL    HW232040   0.634   2.590   4.991
10381SOL     OW32041   4.115   4.383   0.953
10381SOL    HW132042   4.023   4.385   0.992
10381SOL    HW232043   4.131   4.294   0.910
10382SOL     OW32044   1.385   4.888   1.423
10382SOL    HW132045   1.460   4.937   1.376
10382SOL    HW232046   1.422   4.808   1.469
10383SOL     OW32047   0.894   4.047   1.185
10383SOL    HW132048   0.980   4.053   1.236
10383SOL    HW232049   0.837   3.975   1.225
10384SOL     OW32050   6.690   0.034   1.419
10384SOL    HW132051   6.611   6.992   1.412
10384SOL    HW232052   6.758   7.012   1.479
10385SOL     OW32053   4.085   5.937   6.157
10385SOL    HW132054   4.026   5.897   6.226
10385SOL    HW232055   4.179   5.903   6.169
10386SOL     OW32056   6.559   1.881   5.462
10386SOL    HW132057   6.487   1.944   5.489
10386SOL    HW232058   6.528   1.787   5.473
10387SOL     OW32059   4.274   1.729   2.492
10387SOL    HW132060   4.178   1.757   2.486
10387SOL    HW232061   4.280   1.630   2.494
10388SOL     OW32062   1.776   5.847   1.668
10388SOL    HW132063   1.839   5.770   1.683
10388SOL    HW232064   1.823   5.933   1.688
10389SOL     OW32065   6.275   5.932   1.362
10389SOL    HW132066   6.226   5.909   1.446
10389SOL    HW232067   6.364   5.885   1.361
10390SOL     OW32068   1.529   2.668   1.283
10390SOL    HW132069   1.613   2.616   1.297
10390SOL    HW232070   1.523   2.741   1.351
10391SOL     OW32071   0.137   6.667   3.647
10391SOL    HW132072   0.218   6.626   3.690
10391SOL    HW232073   0.106   6.608   3.572
10392SOL     OW32074   6.617   4.583   5.791
10392SOL    HW132075   6.688   4.522   5.754
10392SOL    HW232076   6.651   4.677   5.790
10393SOL     OW32077   2.323   2.553   3.045
10393SOL    HW132078   2.353   2.621   3.112
10393SOL    HW232079   2.311   2.465   3.091
10394SOL     OW32080   2.081   5.849   4.635
10394SOL    HW132081   2.158   5.912   4.621
10394SOL    HW232082   2.098   5.794   4.717
10395SOL     OW32083   6.737   0.785   3.309
10395SOL    HW132084   6.692   0.842   3.240
10395SOL    HW232085   6.668   0.727   3.353
10396SOL     OW32086   3.690   1.020   3.488
10396SOL    HW132087   3.602   1.032   3.442
10396SOL    HW232088   3.753   0.973   3.426
10397SOL     OW32089   2.595   1.496   4.384
10397SOL    HW132090   2.502   1.459   4.387
10397SOL    HW232091   2.642   1.462   4.302
10398SOL     OW32092   4.765   2.318   0.749
10398SOL    HW132093   4.796   2.234   0.792
10398SOL    HW232094   4.808   2.328   0.659
10399SOL     OW32095   4.728   1.969   4.344
10399SOL    HW132096   4.676   1.898   4.296
10399SOL    HW232097   4.666   2.041   4.374
10400SOL     OW32098   4.309   5.683   0.040
10400SOL    HW132099   4.213   5.702   0.059
10400SOL    HW232100   4.332   5.591   0.070
10401SOL     OW32101   0.186   6.825   2.359
10401SOL    HW132102   0.178   6.725   2.361
10401SOL    HW232103   0.099   6.866   2.383
10402SOL     OW32104   6.146   1.770   5.190
10402SOL    HW132105   6.201   1.703   5.239
10402SOL    HW232106   6.146   1.856   5.239
10403SOL     OW32107   4.615   1.641   2.651
10403SOL    HW132108   4.552   1.719   2.656
10403SOL    HW232109   4.584   1.569   2.714
10404SOL     OW32110   6.353   6.548   4.290
10404SOL    HW132111   6.269   6.545   4.237
10404SOL    HW232112   6.338   6.505   4.379
10405SOL     OW32113   1.009   6.137   4.290
10405SOL    HW132114   1.069   6.110   4.366
10405SOL    HW232115   1.057   6.202   4.231
10406SOL     OW32116   2.153   3.358   5.456
10406SOL    HW132117   2.206   3.318   5.381
10406SOL    HW232118   2.214   3.408   5.517
10407SOL     OW32119   2.516   0.551   6.790
10407SOL    HW132120   2.605   0.586   6.821
10407SOL    HW232121   2.462   0.626   6.752
10408SOL     OW32122   4.131   6.645   1.655
10408SOL    HW132123   4.220   6.686   1.634
10408SOL    HW232124   4.121   6.637   1.754
10409SOL     OW32125   0.404   4.093   0.092
10409SOL    HW132126   0.457   4.093   0.007
10409SOL    HW232127   0.461   4.126   0.167
10410SOL     OW32128   6.033   2.958   2.000
10410SOL    HW132129   6.091   2.952   1.919
10410SOL    HW232130   5.976   2.876   2.006
10411SOL     OW32131   3.247   6.314   4.323
10411SOL    HW132132   3.207   6.249   4.387
10411SOL    HW232133   3.297   6.384   4.374
10412SOL     OW32134   6.698   1.130   6.739
10412SOL    HW132135   6.766   1.204   6.742
10412SOL    HW232136   6.737   1.050   6.693
10413SOL     OW32137   6.588   2.447   1.963
10413SOL    HW132138   6.619   2.526   1.910
10413SOL    HW232139   6.493   2.463   1.993
10414SOL     OW32140   3.722   5.699   6.084
10414SOL    HW132141   3.738   5.618   6.028
10414SOL    HW232142   3.737   5.781   6.028
10415SOL     OW32143   1.955   4.386   4.231
10415SOL    HW132144   1.973   4.465   4.289
10415SOL    HW232145   1.975   4.409   4.136
10416SOL     OW32146   6.194   6.633   5.367
10416SOL    HW132147   6.136   6.696   5.316
10416SOL    HW232148   6.140   6.587   5.437
10417SOL     OW32149   4.662   5.482   4.711
10417SOL    HW132150   4.571   5.441   4.714
10417SOL    HW232151   4.676   5.538   4.793
10418SOL     OW32152   6.807   4.387   6.213
10418SOL    HW132153   6.761   4.343   6.290
10418SOL    HW232154   6.743   4.447   6.165
10419SOL     OW32155   3.187   0.060   5.979
10419SOL    HW132156   3.106   0.067   6.038
10419SOL    HW232157   3.158   0.045   5.885
10420SOL     OW32158   6.881   4.514   4.109
10420SOL    HW132159   6.909   4.598   4.157
10420SOL    HW232160   6.884   4.437   4.172
10421SOL     OW32161   1.768   3.630   4.184
10421SOL    HW132162   1.805   3.585   4.103
10421SOL    HW232163   1.768   3.729   4.171
10422SOL     OW32164   6.938   3.191   5.624
10422SOL    HW132165   6.944   3.198   5.724
10422SOL    HW232166   6.903   3.276   5.587
10423SOL     OW32167   5.266   5.537   5.575
10423SOL    HW132168   5.269   5.623   5.524
10423SOL    HW232169   5.252   5.555   5.672
10424SOL     OW32170   4.268   3.076   0.242
10424SOL    HW132171   4.198   3.140   0.210
10424SOL    HW232172   4.316   3.116   0.321
10425SOL     OW32173   0.799   6.198   2.810
10425SOL    HW132174   0.705   6.231   2.804
10425SOL    HW232175   0.809   6.116   2.753
10426SOL     OW32176   5.217   4.708   6.632
10426SOL    HW132177   5.285   4.721   6.704
10426SOL    HW232178   5.145   4.646   6.664
10427SOL     OW32179   4.863   0.610   0.122
10427SOL    HW132180   4.764   0.626   0.115
10427SOL    HW232181   4.908   0.694   0.151
10428SOL     OW32182   3.341   1.550   3.755
10428SOL    HW132183   3.354   1.627   3.816
10428SOL    HW232184   3.244   1.526   3.751
10429SOL     OW32185   0.365   4.071   2.814
10429SOL    HW132186   0.375   4.107   2.721
10429SOL    HW232187   0.293   4.121   2.862
10430SOL     OW32188   3.670   6.498   4.790
10430SOL    HW132189   3.723   6.434   4.846
10430SOL    HW232190   3.582   6.457   4.767
10431SOL     OW32191   2.625   6.571   4.164
10431SOL    HW132192   2.692   6.557   4.237
10431SOL    HW232193   2.533   6.569   4.202
10432SOL     OW32194   6.458   0.790   5.009
10432SOL    HW132195   6.446   0.765   5.106
10432SOL    HW232196   6.532   0.857   5.001
10433SOL     OW32197   0.697   6.514   2.572
10433SOL    HW132198   0.637   6.448   2.617
10433SOL    HW232199   0.750   6.564   2.641
10434SOL     OW32200   2.945   6.378   3.395
10434SOL    HW132201   2.905   6.349   3.308
10434SOL    HW232202   3.000   6.460   3.381
10435SOL     OW32203   1.824   2.125   4.996
10435SOL    HW132204   1.819   2.175   4.910
10435SOL    HW232205   1.897   2.056   4.991
10436SOL     OW32206   6.070   4.129   4.696
10436SOL    HW132207   6.034   4.221   4.715
10436SOL    HW232208   6.169   4.134   4.681
10437SOL     OW32209   5.852   4.642   6.224
10437SOL    HW132210   5.760   4.679   6.211
10437SOL    HW232211   5.878   4.591   6.142
10438SOL     OW32212   0.620   5.880   6.063
10438SOL    HW132213   0.699   5.840   6.108
10438SOL    HW232214   0.596   5.967   6.107
10439SOL     OW32215   4.519   1.086   4.738
10439SOL    HW132216   4.519   0.986   4.737
10439SOL    HW232217   4.432   1.120   4.702
10440SOL     OW32218   0.132   6.653   0.593
10440SOL    HW132219   0.137   6.753   0.593
10440SOL    HW232220   0.090   6.621   0.508
10441SOL     OW32221   3.280   1.390   1.277
10441SOL    HW132222   3.292   1.344   1.189
10441SOL    HW232223   3.197   1.446   1.274
10442SOL     OW32224   4.327   6.413   5.309
10442SOL    HW132225   4.415   6.450   5.276
10442SOL    HW232226   4.289   6.475   5.378
10443SOL     OW32227   5.083   2.270   3.238
10443SOL    HW132228   4.986   2.296   3.236
10443SOL    HW232229   5.101   2.203   3.166
10444SOL     OW32230   4.321   5.717   2.711
10444SOL    HW132231   4.361   5.671   2.632
10444SOL    HW232232   4.228   5.683   2.726
10445SOL     OW32233   0.515   4.401   3.397
10445SOL    HW132234   0.514   4.382   3.495
10445SOL    HW232235   0.429   4.373   3.356
10446SOL     OW32236   2.050   2.674   6.568
10446SOL    HW132237   1.970   2.645   6.517
10446SOL    HW232238   2.124   2.608   6.554
10447SOL     OW32239   0.327   0.770   2.954
10447SOL    HW132240   0.325   0.710   3.034
10447SOL    HW232241   0.246   0.829   2.954
10448SOL     OW32242   4.388   0.700   2.307
10448SOL    HW132243   4.359   0.687   2.402
10448SOL    HW232244   4.317   0.751   2.257
10449SOL     OW32245   1.907   5.655   6.034
10449SOL    HW132246   1.963   5.578   6.065
10449SOL    HW232247   1.814   5.623   6.013
10450SOL     OW32248   0.608   1.298   6.724
10450SOL    HW132249   0.591   1.354   6.805
10450SOL    HW232250   0.702   1.315   6.692
10451SOL     OW32251   1.956   5.815   2.673
10451SOL    HW132252   1.999   5.778   2.756
10451SOL    HW232253   2.017   5.801   2.595
10452SOL     OW32254   6.149   3.053   2.829
10452SOL    HW132255   6.182   3.084   2.919
10452SOL    HW232256   6.152   2.954   2.825
10453SOL     OW32257   5.714   6.652   1.762
10453SOL    HW132258   5.616   6.652   1.742
10453SOL    HW232259   5.762   6.597   1.693
10454SOL     OW32260   5.373   2.837   0.503
10454SOL    HW132261   5.347   2.875   0.414
10454SOL    HW232262   5.470   2.852   0.518
10455SOL     OW32263   0.321   6.455   3.616
10455SOL    HW132264   0.337   6.357   3.604
10455SOL    HW232265   0.408   6.500   3.638
10456SOL     OW32266   1.382   5.547   0.794
10456SOL    HW132267   1.400   5.564   0.698
10456SOL    HW232268   1.296   5.592   0.820
10457SOL     OW32269   3.687   2.879   0.308
10457SOL    HW132270   3.715   2.975   0.318
10457SOL    HW232271   3.610   2.873   0.245
10458SOL     OW32272   6.341   7.012   6.061
10458SOL    HW132273   6.318   0.089   6.046
10458SOL    HW232274   6.402   6.981   5.988
10459SOL     OW32275   4.316   5.884   1.499
10459SOL    HW132276   4.239   5.948   1.500
10459SOL    HW232277   4.334   5.854   1.406
10460SOL     OW32278   1.418   4.177   1.395
10460SOL    HW132279   1.506   4.214   1.363
10460SOL    HW232280   1.434   4.117   1.474
10461SOL     OW32281   6.119   5.310   5.134
10461SOL    HW132282   6.097   5.219   5.167
10461SOL    HW232283   6.040   5.349   5.087
10462SOL     OW32284   5.156   2.074   3.067
10462SOL    HW132285   5.153   2.095   2.969
10462SOL    HW232286   5.160   1.975   3.080
10463SOL     OW32287   4.197   2.368   6.259
10463SOL    HW132288   4.225   2.464   6.247
10463SOL    HW232289   4.110   2.365   6.309
10464SOL     OW32290   6.227   6.319   1.977
10464SOL    HW132291   6.287   6.394   2.001
10464SOL    HW232292   6.265   6.233   2.010
10465SOL     OW32293   6.092   5.626   0.983
10465SOL    HW132294   6.119   5.708   1.035
10465SOL    HW232295   6.140   5.627   0.894
10466SOL     OW32296   4.525   4.824   5.483
10466SOL    HW132297   4.473   4.905   5.511
10466SOL    HW232298   4.590   4.800   5.555
10467SOL     OW32299   2.247   2.058   0.229
10467SOL    HW132300   2.183   2.062   0.152
10467SOL    HW232301   2.225   1.979   0.287
10468SOL     OW32302   3.908   5.130   3.349
10468SOL    HW132303   3.850   5.050   3.335
10468SOL    HW232304   3.881   5.176   3.433
10469SOL     OW32305   3.978   4.049   5.506
10469SOL    HW132306   4.025   3.971   5.548
10469SOL    HW232307   3.907   4.016   5.444
10470SOL     OW32308   2.000   2.294   4.035
10470SOL    HW132309   2.083   2.240   4.045
10470SOL    HW232310   1.959   2.310   4.124
10471SOL     OW32311   2.666   0.400   0.619
10471SOL    HW132312   2.763   0.382   0.633
10471SOL    HW232313   2.617   0.385   0.705
10472SOL     OW32314   3.539   5.614   0.637
10472SOL    HW132315   3.631   5.583   0.613
10472SOL    HW232316   3.545   5.692   0.699
10473SOL     OW32317   6.566   0.234   6.829
10473SOL    HW132318   6.509   0.250   6.749
10473SOL    HW232319   6.549   0.305   6.898
10474SOL     OW32320   4.586   1.075   3.899
10474SOL    HW132321   4.502   1.111   3.940
10474SOL    HW232322   4.640   1.028   3.969
10475SOL     OW32323   4.424   6.643   1.149
10475SOL    HW132324   4.325   6.627   1.144
10475SOL    HW232325   4.443   6.709   1.221
10476SOL     OW32326   6.891   6.489   6.728
10476SOL    HW132327   6.908   6.543   6.645
10476SOL    HW232328   6.828   6.415   6.707
10477SOL     OW32329   6.626   0.925   4.336
10477SOL    HW132330   6.615   0.860   4.412
10477SOL    HW232331   6.717   0.915   4.297
10478SOL     OW32332   6.522   0.619   0.789
10478SOL    HW132333   6.576   0.543   0.825
10478SOL    HW232334   6.550   0.639   0.695
10479SOL     OW32335   6.681   1.449   2.851
10479SOL    HW132336   6.778   1.433   2.831
10479SOL    HW232337   6.630   1.460   2.766
10480SOL     OW32338   0.676   0.885   1.867
10480SOL    HW132339   0.618   0.817   1.911
10480SOL    HW232340   0.632   0.916   1.782
10481SOL     OW32341   1.761   6.460   4.275
10481SOL    HW132342   1.736   6.555   4.259
10481SOL    HW232343   1.780   6.414   4.188
10482SOL     OW32344   6.522   5.146   4.258
10482SOL    HW132345   6.462   5.175   4.183
10482SOL    HW232346   6.580   5.071   4.226
10483SOL     OW32347   6.687   4.794   0.281
10483SOL    HW132348   6.723   4.739   0.206
10483SOL    HW232349   6.761   4.819   0.343
10484SOL     OW32350   6.020   1.696   1.487
10484SOL    HW132351   6.064   1.619   1.439
10484SOL    HW232352   5.926   1.706   1.453
10485SOL     OW32353   3.246   3.812   0.496
10485SOL    HW132354   3.173   3.880   0.487
10485SOL    HW232355   3.310   3.841   0.568
10486SOL     OW32356   0.272   1.026   0.169
10486SOL    HW132357   0.345   0.969   0.132
10486SOL    HW232358   0.184   0.979   0.157
10487SOL     OW32359   4.435   0.895   0.958
10487SOL    HW132360   4.404   0.962   0.891
10487SOL    HW232361   4.512   0.843   0.921
10488SOL     OW32362   3.403   0.727   5.665
10488SOL    HW132363   3.436   0.760   5.577
10488SOL    HW232364   3.447   0.779   5.739
10489SOL     OW32365   0.895   6.888   5.594
10489SOL    HW132366   0.907   6.984   5.569
10489SOL    HW232367   0.852   6.883   5.684
10490SOL     OW32368   6.010   1.522   1.027
10490SOL    HW132369   5.964   1.566   1.104
10490SOL    HW232370   5.984   1.425   1.023
10491SOL     OW32371   2.071   2.437   6.831
10491SOL    HW132372   2.125   2.440   6.915
10491SOL    HW232373   1.993   2.500   6.840
10492SOL     OW32374   5.817   4.791   6.657
10492SOL    HW132375   5.828   4.872   6.598
10492SOL    HW232376   5.801   4.820   6.751
10493SOL     OW32377   3.560   0.681   2.313
10493SOL    HW132378   3.527   0.736   2.390
10493SOL    HW232379   3.649   0.716   2.283
10494SOL     OW32380   5.406   4.252   5.822
10494SOL    HW132381   5.396   4.349   5.845
10494SOL    HW232382   5.415   4.243   5.723
10495SOL     OW32383   1.639   6.960   0.505
10495SOL    HW132384   1.575   6.926   0.575
10495SOL    HW232385   1.661   0.036   0.524
10496SOL     OW32386   6.959   3.863   5.855
10496SOL    HW132387   6.909   3.790   5.903
10496SOL    HW232388   0.006   3.905   5.918
10497SOL     OW32389   1.992   6.197   2.556
10497SOL    HW132390   1.907   6.236   2.521
10497SOL    HW232391   2.006   6.227   2.650
10498SOL     OW32392   4.583   5.726   0.577
10498SOL    HW132393   4.616   5.756   0.667
10498SOL    HW232394   4.488   5.754   0.565
10499SOL     OW32395   3.895   6.817   1.780
10499SOL    HW132396   3.931   6.724   1.767
10499SOL    HW232397   3.844   6.845   1.699
10500SOL     OW32398   6.166   1.470   6.427
10500SOL    HW132399   6.088   1.472   6.489
10500SOL    HW232400   6.204   1.562   6.418
10501SOL     OW32401   2.277   5.514   2.281
10501SOL    HW132402   2.366   5.469   2.275
10501SOL    HW232403   2.272   5.587   2.213
10502SOL     OW32404   2.872   0.834   1.746
10502SOL    HW132405   2.964   0.866   1.723
10502SOL    HW232406   2.871   0.800   1.840
10503SOL     OW32407   4.141   2.478   0.971
10503SOL    HW132408   4.041   2.484   0.967
10503SOL    HW232409   4.179   2.493   0.880
10504SOL     OW32410   0.537   1.961   5.481
10504SOL    HW132411   0.443   1.976   5.449
10504SOL    HW232412   0.595   2.037   5.452
10505SOL     OW32413   5.272   5.052   0.838
10505SOL    HW132414   5.175   5.063   0.817
10505SOL    HW232415   5.322   5.133   0.809
10506SOL     OW32416   6.914   4.822   0.439
10506SOL    HW132417   7.007   4.851   0.462
10506SOL    HW232418   6.908   4.723   0.439
10507SOL     OW32419   2.321   6.973   0.402
10507SOL    HW132420   2.349   6.878   0.412
10507SOL    HW232421   2.271   7.002   0.484
10508SOL     OW32422   6.186   6.136   4.881
10508SOL    HW132423   6.244   6.141   4.963
10508SOL    HW232424   6.141   6.225   4.867
10509SOL     OW32425   0.499   5.542   4.261
10509SOL    HW132426   0.438   5.463   4.253
10509SOL    HW232427   0.476   5.593   4.344
10510SOL     OW32428   4.713   5.595   6.208
10510SOL    HW132429   4.693   5.688   6.238
10510SOL    HW232430   4.662   5.530   6.263
10511SOL     OW32431   3.888   1.070   2.259
10511SOL    HW132432   3.923   1.161   2.238
10511SOL    HW232433   3.822   1.042   2.188
10512SOL     OW32434   4.061   0.477   6.636
10512SOL    HW132435   3.985   0.474   6.700
10512SOL    HW232436   4.084   0.573   6.616
10513SOL     OW32437   5.953   2.413   4.504
10513SOL    HW132438   5.965   2.496   4.560
10513SOL    HW232439   5.962   2.437   4.407
10514SOL     OW32440   0.483   3.494   1.506
10514SOL    HW132441   0.442   3.418   1.556
10514SOL    HW232442   0.416   3.533   1.443
10515SOL     OW32443   1.027   3.657   3.573
10515SOL    HW132444   0.968   3.705   3.639
10515SOL    HW232445   1.037   3.562   3.600
10516SOL     OW32446   4.116   1.298   0.588
10516SOL    HW132447   4.029   1.331   0.552
10516SOL    HW232448   4.115   1.198   0.590
10517SOL     OW32449   0.933   3.043   2.516
10517SOL    HW132450   0.921   3.093   2.602
10517SOL    HW232451   0.848   2.997   2.492
10518SOL     OW32452   0.613   6.094   6.557
10518SOL    HW132453   0.623   6.080   6.656
10518SOL    HW232454   0.517   6.081   6.532
10519SOL     OW32455   2.592   3.655   7.013
10519SOL    HW132456   2.504   3.634   0.036
10519SOL    HW232457   2.658   3.584   0.019
10520SOL     OW32458   0.258   2.569   6.261
10520SOL    HW132459   0.312   2.644   6.224
10520SOL    HW232460   0.186   2.605   6.321
10521SOL     OW32461   5.979   5.960   1.859
10521SOL    HW132462   6.023   6.037   1.814
10521SOL    HW232463   5.987   5.970   1.959
10522SOL     OW32464   0.843   0.817   5.346
10522SOL    HW132465   0.819   0.726   5.378
10522SOL    HW232466   0.901   0.862   5.413
10523SOL     OW32467   0.591   4.810   3.541
10523SOL    HW132468   0.669   4.857   3.584
10523SOL    HW232469   0.624   4.728   3.494
10524SOL     OW32470   1.742   0.368   4.657
10524SOL    HW132471   1.810   0.356   4.584
10524SOL    HW232472   1.786   0.406   4.738
10525SOL     OW32473   3.545   6.516   6.801
10525SOL    HW132474   3.511   6.610   6.801
10525SOL    HW232475   3.566   6.487   6.894
10526SOL     OW32476   1.672   0.112   3.864
10526SOL    HW132477   1.760   0.113   3.911
10526SOL    HW232478   1.683   0.071   3.773
10527SOL     OW32479   0.466   1.579   5.335
10527SOL    HW132480   0.397   1.632   5.286
10527SOL    HW232481   0.459   1.598   5.433
10528SOL     OW32482   1.715   2.992   6.032
10528SOL    HW132483   1.717   2.985   5.932
10528SOL    HW232484   1.775   2.922   6.071
10529SOL     OW32485   3.318   5.668   3.480
10529SOL    HW132486   3.371   5.585   3.500
10529SOL    HW232487   3.374   5.749   3.499
10530SOL     OW32488   1.868   6.992   6.516
10530SOL    HW132489   1.912   0.027   6.444
10530SOL    HW232490   1.898   6.897   6.507
10531SOL     OW32491   1.315   2.492   4.444
10531SOL    HW132492   1.322   2.436   4.361
10531SOL    HW232493   1.219   2.499   4.471
10532SOL     OW32494   1.183   6.200   5.997
10532SOL    HW132495   1.137   6.287   5.982
10532SOL    HW232496   1.133   6.146   6.064
10533SOL     OW32497   2.939   0.173   4.348
10533SOL    HW132498   2.841   0.161   4.332
10533SOL    HW232499   2.990   0.127   4.275
10534SOL     OW32500   6.222   6.199   1.386
10534SOL    HW132501   6.306   6.252   1.381
10534SOL    HW232502   6.232   6.114   1.334
10535SOL     OW32503   1.368   2.415   1.631
10535SOL    HW132504   1.377   2.396   1.533
10535SOL    HW232505   1.365   2.329   1.682
10536SOL     OW32506   4.457   0.202   3.803
10536SOL    HW132507   4.406   0.260   3.867
10536SOL    HW232508   4.526   0.258   3.757
10537SOL     OW32509   3.840   5.886   3.974
10537SOL    HW132510   3.910   5.858   3.908
10537SOL    HW232511   3.799   5.972   3.944
10538SOL     OW32512   5.439   2.250   1.105
10538SOL    HW132513   5.348   2.278   1.073
10538SOL    HW232514   5.473   2.175   1.047
10539SOL     OW32515   0.704   4.678   0.113
10539SOL    HW132516   0.652   4.737   0.174
10539SOL    HW232517   0.737   4.731   0.035
10540SOL     OW32518   1.499   1.808   5.159
10540SOL    HW132519   1.530   1.753   5.081
10540SOL    HW232520   1.531   1.902   5.147
10541SOL     OW32521   3.461   3.985   2.385
10541SOL    HW132522   3.372   3.996   2.341
10541SOL    HW232523   3.464   4.037   2.470
10542SOL     OW32524   6.990   0.246   5.498
10542SOL    HW132525   6.966   0.162   5.449
10542SOL    HW232526   0.069   0.248   5.516
10543SOL     OW32527   0.469   1.103   4.109
10543SOL    HW132528   0.537   1.153   4.161
10543SOL    HW232529   0.507   1.079   4.019
10544SOL     OW32530   2.697   6.527   1.928
10544SOL    HW132531   2.674   6.603   1.989
10544SOL    HW232532   2.794   6.506   1.937
10545SOL     OW32533   6.890   2.117   2.149
10545SOL    HW132534   6.979   2.158   2.169
10545SOL    HW232535   6.843   2.172   2.080
10546SOL     OW32536   2.093   0.551   0.140
10546SOL    HW132537   2.086   0.495   0.223
10546SOL    HW232538   2.167   0.515   0.082
10547SOL     OW32539   5.668   2.928   2.627
10547SOL    HW132540   5.662   3.022   2.661
10547SOL    HW232541   5.739   2.924   2.556
10548SOL     OW32542   5.349   4.201   4.227
10548SOL    HW132543   5.369   4.293   4.263
10548SOL    HW232544   5.253   4.178   4.247
10549SOL     OW32545   0.874   6.820   2.293
10549SOL    HW132546   0.940   6.895   2.290
10549SOL    HW232547   0.802   6.836   2.226
10550SOL     OW32548   4.607   5.978   3.685
10550SOL    HW132549   4.561   6.062   3.657
10550SOL    HW232550   4.692   5.969   3.633
10551SOL     OW32551   1.109   2.593   6.840
10551SOL    HW132552   1.022   2.641   6.850
10551SOL    HW232553   1.148   2.577   6.931
10552SOL     OW32554   3.273   0.460   5.968
10552SOL    HW132555   3.309   0.552   5.986
10552SOL    HW232556   3.279   0.442   5.870
10553SOL     OW32557   0.310   4.609   2.120
10553SOL    HW132558   0.290   4.665   2.039
10553SOL    HW232559   0.358   4.665   2.187
10554SOL     OW32560   5.548   4.989   0.019
10554SOL    HW132561   5.457   4.951   0.030
10554SOL    HW232562   5.583   5.016   0.109
10555SOL     OW32563   1.796   2.923   0.489
10555SOL    HW132564   1.875   2.978   0.515
10555SOL    HW232565   1.717   2.982   0.476
10556SOL     OW32566   1.853   1.876   5.810
10556SOL    HW132567   1.816   1.828   5.730
10556SOL    HW232568   1.911   1.951   5.779
10557SOL     OW32569   2.166   2.873   3.145
10557SOL    HW132570   2.111   2.796   3.178
10557SOL    HW232571   2.218   2.845   3.065
10558SOL     OW32572   3.865   0.814   3.287
10558SOL    HW132573   3.874   0.716   3.268
10558SOL    HW232574   3.901   0.835   3.378
10559SOL     OW32575   4.813   0.700   1.226
10559SOL    HW132576   4.878   0.665   1.159
10559SOL    HW232577   4.720   0.688   1.192
10560SOL     OW32578   3.811   6.334   2.789
10560SOL    HW132579   3.823   6.401   2.863
10560SOL    HW232580   3.723   6.350   2.744
10561SOL     OW32581   3.143   4.139   1.480
10561SOL    HW132582   3.080   4.097   1.545
10561SOL    HW232583   3.214   4.074   1.454
10562SOL     OW32584   4.688   5.053   0.273
10562SOL    HW132585   4.701   5.059   0.174
10562SOL    HW232586   4.604   5.003   0.292
10563SOL     OW32587   0.582   1.806   3.486
10563SOL    HW132588   0.482   1.812   3.496
10563SOL    HW232589   0.618   1.897   3.467
10564SOL     OW32590   5.635   5.966   2.309
10564SOL    HW132591   5.536   5.976   2.323
10564SOL    HW232592   5.684   6.025   2.374
10565SOL     OW32593   0.881   0.221   5.742
10565SOL    HW132594   0.864   0.166   5.824
10565SOL    HW232595   0.799   0.272   5.718
10566SOL     OW32596   3.345   1.599   6.405
10566SOL    HW132597   3.348   1.558   6.496
10566SOL    HW232598   3.296   1.539   6.343
10567SOL     OW32599   3.492   1.929   4.333
10567SOL    HW132600   3.558   1.854   4.337
10567SOL    HW232601   3.520   2.002   4.396
10568SOL     OW32602   6.480   3.103   2.017
10568SOL    HW132603   6.501   3.084   1.921
10568SOL    HW232604   6.415   3.179   2.022
10569SOL     OW32605   5.636   1.944   1.691
10569SOL    HW132606   5.672   1.967   1.601
10569SOL    HW232607   5.707   1.899   1.745
10570SOL     OW32608   1.100   5.585   3.649
10570SOL    HW132609   1.084   5.535   3.735
10570SOL    HW232610   1.179   5.546   3.602
10571SOL     OW32611   0.183   4.493   6.012
10571SOL    HW132612   0.276   4.523   6.032
10571SOL    HW232613   0.139   4.560   5.952
10572SOL     OW32614   0.220   4.317   3.645
10572SOL    HW132615   0.132   4.288   3.684
10572SOL    HW232616   0.223   4.292   3.549
10573SOL     OW32617   4.521   0.405   4.964
10573SOL    HW132618   4.568   0.430   5.049
10573SOL    HW232619   4.576   0.340   4.912
10574SOL     OW32620   1.738   1.506   4.289
10574SOL    HW132621   1.732   1.602   4.263
10574SOL    HW232622   1.657   1.457   4.257
10575SOL     OW32623   0.289   1.266   3.229
10575SOL    HW132624   0.378   1.238   3.266
10575SOL    HW232625   0.221   1.267   3.303
10576SOL     OW32626   0.100   6.317   4.759
10576SOL    HW132627   0.084   6.290   4.664
10576SOL    HW232628   0.088   6.237   4.819
10577SOL     OW32629   1.866   4.296   0.073
10577SOL    HW132630   1.793   4.327   0.011
10577SOL    HW232631   1.939   4.364   0.076
10578SOL     OW32632   5.050   1.398   2.299
10578SOL    HW132633   5.146   1.422   2.309
10578SOL    HW232634   5.042   1.302   2.275
10579SOL     OW32635   4.420   2.718   1.484
10579SOL    HW132636   4.411   2.770   1.399
10579SOL    HW232637   4.484   2.764   1.545
10580SOL     OW32638   6.850   0.243   6.768
10580SOL    HW132639   6.757   0.243   6.806
10580SOL    HW232640   6.876   0.149   6.746
10581SOL     OW32641   6.741   0.065   3.162
10581SOL    HW132642   6.797   7.004   3.182
10581SOL    HW232643   6.680   0.083   3.239
10582SOL     OW32644   5.705   4.901   5.935
10582SOL    HW132645   5.804   4.914   5.926
10582SOL    HW232646   5.684   4.868   6.027
10583SOL     OW32647   4.137   1.111   4.067
10583SOL    HW132648   4.068   1.156   4.123
10583SOL    HW232649   4.094   1.065   3.989
10584SOL     OW32650   6.475   6.884   1.402
10584SOL    HW132651   6.536   6.809   1.377
10584SOL    HW232652   6.423   6.914   1.322
10585SOL     OW32653   1.780   2.302   5.561
10585SOL    HW132654   1.813   2.316   5.468
10585SOL    HW232655   1.680   2.297   5.559
10586SOL     OW32656   6.404   5.905   5.278
10586SOL    HW132657   6.481   5.868   5.227
10586SOL    HW232658   6.396   6.003   5.260
10587SOL     OW32659   6.382   4.619   6.999
10587SOL    HW132660   6.456   4.566   6.957
10587SOL    HW232661   6.364   4.583   0.072
10588SOL     OW32662   1.089   3.050   4.330
10588SOL    HW132663   1.063   3.102   4.411
10588SOL    HW232664   1.070   3.104   4.248
10589SOL     OW32665   5.892   1.350   4.239
10589SOL    HW132666   5.817   1.290   4.212
10589SOL    HW232667   5.973   1.295   4.259
10590SOL     OW32668   1.124   0.489   1.916
10590SOL    HW132669   1.028   0.493   1.888
10590SOL    HW232670   1.182   0.481   1.835
10591SOL     OW32671   1.656   2.234   6.719
10591SOL    HW132672   1.660   2.162   6.789
10591SOL    HW232673   1.730   2.220   6.654
10592SOL     OW32674   5.213   3.694   2.446
10592SOL    HW132675   5.276   3.617   2.438
10592SOL    HW232676   5.225   3.738   2.535
10593SOL     OW32677   2.352   5.937   0.538
10593SOL    HW132678   2.401   5.957   0.452
10593SOL    HW232679   2.340   5.838   0.546
10594SOL     OW32680   5.269   0.380   1.898
10594SOL    HW132681   5.242   0.310   1.964
10594SOL    HW232682   5.195   0.447   1.889
10595SOL     OW32683   4.996   6.128   6.505
10595SOL    HW132684   5.014   6.034   6.475
10595SOL    HW232685   5.082   6.174   6.525
10596SOL     OW32686   4.274   6.619   0.206
10596SOL    HW132687   4.200   6.624   0.273
10596SOL    HW232688   4.340   6.549   0.234
10597SOL     OW32689   3.357   0.830   5.188
10597SOL    HW132690   3.350   0.928   5.208
10597SOL    HW232691   3.406   0.817   5.102
10598SOL     OW32692   2.882   3.137   0.235
10598SOL    HW132693   2.976   3.152   0.264
10598SOL    HW232694   2.837   3.072   0.297
10599SOL     OW32695   4.937   3.021   5.746
10599SOL    HW132696   4.976   2.959   5.678
10599SOL    HW232697   4.992   3.105   5.749
10600SOL     OW32698   2.318   3.200   0.378
10600SOL    HW132699   2.370   3.271   0.331
10600SOL    HW232700   2.272   3.142   0.310
10601SOL     OW32701   2.155   4.647   5.004
10601SOL    HW132702   2.237   4.597   4.977
10601SOL    HW232703   2.102   4.671   4.922
10602SOL     OW32704   3.484   1.430   2.041
10602SOL    HW132705   3.558   1.475   1.991
10602SOL    HW232706   3.396   1.464   2.010
10603SOL     OW32707   3.726   5.838   3.265
10603SOL    HW132708   3.735   5.920   3.208
10603SOL    HW232709   3.652   5.781   3.229
10604SOL     OW32710   5.931   5.706   5.822
10604SOL    HW132711   5.907   5.768   5.897
10604SOL    HW232712   5.892   5.615   5.840
10605SOL     OW32713   1.328   6.241   0.432
10605SOL    HW132714   1.342   6.227   0.530
10605SOL    HW232715   1.417   6.250   0.387
10606SOL     OW32716   6.662   0.787   2.587
10606SOL    HW132717   6.660   0.730   2.505
10606SOL    HW232718   6.608   0.870   2.572
10607SOL     OW32719   3.786   4.891   5.194
10607SOL    HW132720   3.784   4.986   5.224
10607SOL    HW232721   3.827   4.885   5.103
10608SOL     OW32722   5.360   2.344   5.761
10608SOL    HW132723   5.329   2.427   5.714
10608SOL    HW232724   5.295   2.270   5.743
10609SOL     OW32725   2.808   6.676   0.087
10609SOL    HW132726   2.749   6.755   0.071
10609SOL    HW232727   2.815   6.659   0.186
10610SOL     OW32728   0.726   2.317   5.222
10610SOL    HW132729   0.684   2.248   5.163
10610SOL    HW232730   0.802   2.360   5.175
10611SOL     OW32731   3.467   4.112   6.582
10611SOL    HW132732   3.450   4.188   6.645
10611SOL    HW232733   3.404   4.118   6.505
10612SOL     OW32734   3.593   1.005   4.587
10612SOL    HW132735   3.643   1.079   4.542
10612SOL    HW232736   3.532   1.043   4.656
10613SOL     OW32737   5.814   6.607   5.076
10613SOL    HW132738   5.808   6.522   5.023
10613SOL    HW232739   5.850   6.587   5.167
10614SOL     OW32740   5.919   2.007   4.438
10614SOL    HW132741   5.918   1.955   4.352
10614SOL    HW232742   6.000   1.982   4.491
10615SOL     OW32743   3.667   6.787   5.492
10615SOL    HW132744   3.745   6.776   5.553
10615SOL    HW232745   3.666   6.714   5.424
10616SOL     OW32746   2.935   6.164   1.225
10616SOL    HW132747   2.920   6.236   1.157
10616SOL    HW232748   3.018   6.184   1.277
10617SOL     OW32749   2.553   2.992   1.372
10617SOL    HW132750   2.620   2.917   1.380
10617SOL    HW232751   2.548   3.041   1.459
10618SOL     OW32752   0.460   3.708   6.247
10618SOL    HW132753   0.553   3.671   6.250
10618SOL    HW232754   0.417   3.684   6.160
10619SOL     OW32755   6.955   4.378   2.135
10619SOL    HW132756   6.892   4.329   2.195
10619SOL    HW232757   6.939   4.350   2.040
10620SOL     OW32758   1.649   5.405   4.940
10620SOL    HW132759   1.575   5.340   4.956
10620SOL    HW232760   1.717   5.364   4.879
10621SOL     OW32761   0.824   5.821   1.528
10621SOL    HW132762   0.818   5.877   1.446
10621SOL    HW232763   0.869   5.873   1.601
10622SOL     OW32764   5.594   1.993   1.245
10622SOL    HW132765   5.513   2.035   1.286
10622SOL    HW232766   5.597   2.013   1.147
10623SOL     OW32767   6.671   4.581   4.953
10623SOL    HW132768   6.769   4.566   4.967
10623SOL    HW232769   6.635   4.636   5.028
10624SOL     OW32770   0.585   2.675   4.714
10624SOL    HW132771   0.558   2.645   4.805
10624SOL    HW232772   0.503   2.689   4.658
10625SOL     OW32773   0.350   4.482   0.187
10625SOL    HW132774   0.265   4.532   0.206
10625SOL    HW232775   0.330   4.403   0.129
10626SOL     OW32776   2.550   3.413   0.604
10626SOL    HW132777   2.454   3.440   0.609
10626SOL    HW232778   2.600   3.476   0.543
10627SOL     OW32779   5.379   0.366   0.709
10627SOL    HW132780   5.476   0.346   0.696
10627SOL    HW232781   5.325   0.290   0.675
10628SOL     OW32782   5.146   6.469   0.125
10628SOL    HW132783   5.071   6.530   0.099
10628SOL    HW232784   5.113   6.375   0.130
10629SOL     OW32785   2.595   5.017   5.173
10629SOL    HW132786   2.613   4.919   5.181
10629SOL    HW232787   2.573   5.040   5.078
10630SOL     OW32788   6.483   1.094   3.374
10630SOL    HW132789   6.582   1.106   3.370
10630SOL    HW232790   6.457   1.068   3.467
10631SOL     OW32791   2.617   4.912   4.691
10631SOL    HW132792   2.605   4.817   4.662
10631SOL    HW232793   2.677   4.960   4.626
10632SOL     OW32794   5.981   1.877   4.187
10632SOL    HW132795   5.982   1.777   4.182
10632SOL    HW232796   5.970   1.914   4.095
10633SOL     OW32797   3.021   3.084   0.945
10633SOL    HW132798   2.945   3.025   0.919
10633SOL    HW232799   2.990   3.179   0.949
10634SOL     OW32800   3.374   5.407   0.749
10634SOL    HW132801   3.353   5.492   0.797
10634SOL    HW232802   3.442   5.424   0.678
10635SOL     OW32803   2.547   2.275   0.711
10635SOL    HW132804   2.451   2.247   0.719
10635SOL    HW232805   2.558   2.366   0.751
10636SOL     OW32806   1.329   1.914   1.626
10636SOL    HW132807   1.392   1.958   1.563
10636SOL    HW232808   1.261   1.980   1.657
10637SOL     OW32809   2.628   4.764   6.005
10637SOL    HW132810   2.719   4.744   5.968
10637SOL    HW232811   2.619   4.722   6.095
10638SOL     OW32812   6.687   5.430   2.904
10638SOL    HW132813   6.588   5.442   2.901
10638SOL    HW232814   6.721   5.413   2.812
10639SOL     OW32815   0.885   2.952   3.692
10639SOL    HW132816   0.929   2.898   3.620
10639SOL    HW232817   0.942   2.953   3.773
10640SOL     OW32818   3.792   0.257   5.281
10640SOL    HW132819   3.818   0.195   5.208
10640SOL    HW232820   3.791   0.351   5.246
10641SOL     OW32821   2.567   1.601   1.848
10641SOL    HW132822   2.639   1.560   1.792
10641SOL    HW232823   2.529   1.680   1.800
10642SOL     OW32824   0.132   3.439   2.077
10642SOL    HW132825   0.092   3.441   2.169
10642SOL    HW232826   0.126   3.347   2.040
10643SOL     OW32827   1.675   5.094   5.410
10643SOL    HW132828   1.724   5.121   5.494
10643SOL    HW232829   1.741   5.063   5.342
10644SOL     OW32830   5.310   2.440   3.218
10644SOL    HW132831   5.294   2.527   3.266
10644SOL    HW232832   5.230   2.381   3.230
10645SOL     OW32833   1.799   2.242   4.762
10645SOL    HW132834   1.755   2.240   4.672
10645SOL    HW232835   1.798   2.336   4.798
10646SOL     OW32836   6.672   0.501   6.682
10646SOL    HW132837   6.598   0.511   6.748
10646SOL    HW232838   6.673   0.407   6.648
10647SOL     OW32839   2.858   5.488   4.920
10647SOL    HW132840   2.829   5.393   4.935
10647SOL    HW232841   2.777   5.544   4.901
10648SOL     OW32842   5.651   4.638   6.450
10648SOL    HW132843   5.692   4.557   6.492
10648SOL    HW232844   5.698   4.658   6.364
10649SOL     OW32845   0.068   4.650   2.897
10649SOL    HW132846   0.048   4.552   2.903
10649SOL    HW232847   0.156   4.669   2.941
10650SOL     OW32848   0.618   6.496   3.684
10650SOL    HW132849   0.663   6.493   3.773
10650SOL    HW232850   0.620   6.405   3.642
10651SOL     OW32851   5.060   6.509   6.279
10651SOL    HW132852   4.981   6.490   6.338
10651SOL    HW232853   5.035   6.579   6.212
10652SOL     OW32854   3.622   6.683   6.089
10652SOL    HW132855   3.594   6.612   6.154
10652SOL    HW232856   3.551   6.753   6.083
10653SOL     OW32857   4.207   4.750   4.339
10653SOL    HW132858   4.263   4.671   4.316
10653SOL    HW232859   4.121   4.746   4.286
10654SOL     OW32860   4.678   0.832   0.846
10654SOL    HW132861   4.675   0.836   0.746
10654SOL    HW232862   4.738   0.905   0.880
10655SOL     OW32863   2.672   5.398   0.359
10655SOL    HW132864   2.694   5.443   0.446
10655SOL    HW232865   2.670   5.299   0.372
10656SOL     OW32866   6.662   2.328   2.239
10656SOL    HW132867   6.752   2.287   2.226
10656SOL    HW232868   6.592   2.266   2.203
10657SOL     OW32869   6.559   6.770   6.264
10657SOL    HW132870   6.522   6.825   6.339
10657SOL    HW232871   6.602   6.830   6.196
10658SOL     OW32872   5.739   4.501   5.371
10658SOL    HW132873   5.770   4.406   5.380
10658SOL    HW232874   5.782   4.556   5.442
10659SOL     OW32875   6.528   5.461   1.326
10659SOL    HW132876   6.477   5.405   1.260
10659SOL    HW232877   6.626   5.456   1.306
10660SOL     OW32878   5.533   3.781   6.938
10660SOL    HW132879   5.632   3.794   6.932
10660SOL    HW232880   5.512   3.706   7.000
10661SOL     OW32881   1.093   0.383   2.423
10661SOL    HW132882   1.003   0.346   2.403
10661SOL    HW232883   1.101   0.400   2.521
10662SOL     OW32884   5.400   0.772   3.595
10662SOL    HW132885   5.384   0.864   3.558
10662SOL    HW232886   5.444   0.779   3.684
10663SOL     OW32887   0.836   1.216   1.531
10663SOL    HW132888   0.810   1.245   1.623
10663SOL    HW232889   0.891   1.288   1.488
10664SOL     OW32890   0.758   4.772   5.498
10664SOL    HW132891   0.658   4.763   5.500
10664SOL    HW232892   0.792   4.784   5.591
10665SOL     OW32893   1.125   0.781   0.460
10665SOL    HW132894   1.081   0.757   0.374
10665SOL    HW232895   1.061   0.768   0.536
10666SOL     OW32896   3.273   3.964   1.102
10666SOL    HW132897   3.331   3.884   1.087
10666SOL    HW232898   3.181   3.934   1.125
10667SOL     OW32899   4.075   3.374   5.534
10667SOL    HW132900   3.987   3.330   5.518
10667SOL    HW232901   4.060   3.465   5.573
10668SOL     OW32902   1.666   1.120   4.838
10668SOL    HW132903   1.574   1.100   4.872
10668SOL    HW232904   1.692   1.049   4.772
10669SOL     OW32905   5.519   6.180   0.938
10669SOL    HW132906   5.578   6.250   0.897
10669SOL    HW232907   5.522   6.098   0.882
10670SOL     OW32908   5.244   3.976   5.083
10670SOL    HW132909   5.192   3.891   5.070
10670SOL    HW232910   5.197   4.032   5.152
10671SOL     OW32911   2.721   2.410   3.290
10671SOL    HW132912   2.719   2.509   3.292
10671SOL    HW232913   2.811   2.378   3.261
10672SOL     OW32914   6.102   2.766   0.314
10672SOL    HW132915   6.097   2.708   0.233
10672SOL    HW232916   6.081   2.712   0.395
10673SOL     OW32917   1.357   1.286   0.045
10673SOL    HW132918   1.380   1.224   6.990
10673SOL    HW232919   1.353   1.380   0.010
10674SOL     OW32920   3.349   3.797   1.737
10674SOL    HW132921   3.291   3.878   1.747
10674SOL    HW232922   3.291   3.715   1.739
10675SOL     OW32923   1.925   6.674   6.628
10675SOL    HW132924   1.829   6.701   6.626
10675SOL    HW232925   1.944   6.626   6.713
10676SOL     OW32926   5.964   6.815   5.829
10676SOL    HW132927   5.968   6.827   5.928
10676SOL    HW232928   5.869   6.820   5.798
10677SOL     OW32929   0.682   0.711   2.538
10677SOL    HW132930   0.626   0.728   2.620
10677SOL    HW232931   0.630   0.738   2.457
10678SOL     OW32932   3.431   5.376   3.331
10678SOL    HW132933   3.420   5.343   3.237
10678SOL    HW232934   3.508   5.439   3.335
10679SOL     OW32935   4.940   5.700   6.693
10679SOL    HW132936   5.033   5.664   6.697
10679SOL    HW232937   4.909   5.702   6.597
10680SOL     OW32938   2.986   1.596   3.438
10680SOL    HW132939   3.004   1.694   3.441
10680SOL    HW232940   2.899   1.580   3.391
10681SOL     OW32941   0.715   3.925   0.066
10681SOL    HW132942   0.790   3.900   0.005
10681SOL    HW232943   0.752   3.977   0.143
10682SOL     OW32944   2.020   1.762   4.336
10682SOL    HW132945   1.987   1.714   4.255
10682SOL    HW232946   2.119   1.778   4.328
10683SOL     OW32947   3.390   1.692   3.992
10683SOL    HW132948   3.474   1.745   3.973
10683SOL    HW232949   3.321   1.753   4.031
10684SOL     OW32950   5.621   4.076   1.081
10684SOL    HW132951   5.550   4.008   1.066
10684SOL    HW232952   5.709   4.029   1.095
10685SOL     OW32953   0.550   5.423   3.330
10685SOL    HW132954   0.479   5.484   3.295
10685SOL    HW232955   0.514   5.370   3.407
10686SOL     OW32956   1.116   4.598   6.540
10686SOL    HW132957   1.072   4.560   6.622
10686SOL    HW232958   1.108   4.533   6.465
10687SOL     OW32959   0.295   5.381   1.808
10687SOL    HW132960   0.197   5.376   1.788
10687SOL    HW232961   0.346   5.367   1.723
10688SOL     OW32962   6.306   4.253   3.159
10688SOL    HW132963   6.221   4.257   3.212
10688SOL    HW232964   6.370   4.190   3.203
10689SOL     OW32965   0.452   0.014   3.680
10689SOL    HW132966   0.477   0.109   3.698
10689SOL    HW232967   0.357   7.018   3.709
10690SOL     OW32968   0.095   5.901   2.915
10690SOL    HW132969   0.102   5.999   2.897
10690SOL    HW232970   0.044   5.886   3.000
10691SOL     OW32971   1.437   1.454   2.066
10691SOL    HW132972   1.375   1.417   2.136
10691SOL    HW232973   1.384   1.480   1.986
10692SOL     OW32974   3.447   4.876   2.651
10692SOL    HW132975   3.353   4.852   2.626
10692SOL    HW232976   3.501   4.887   2.568
10693SOL     OW32977   2.470   0.131   1.142
10693SOL    HW132978   2.483   0.099   1.048
10693SOL    HW232979   2.379   0.170   1.152
10694SOL     OW32980   4.652   6.543   1.013
10694SOL    HW132981   4.588   6.614   1.043
10694SOL    HW232982   4.700   6.506   1.093
10695SOL     OW32983   5.587   2.212   2.773
10695SOL    HW132984   5.582   2.163   2.685
10695SOL    HW232985   5.553   2.153   2.846
10696SOL     OW32986   6.669   3.844   3.664
10696SOL    HW132987   6.748   3.827   3.605
10696SOL    HW232988   6.606   3.766   3.659
10697SOL     OW32989   0.075   5.714   4.876
10697SOL    HW132990   0.123   5.632   4.905
10697SOL    HW232991   7.007   5.721   4.924
10698SOL     OW32992   3.585   5.812   4.481
10698SOL    HW132993   3.647   5.733   4.479
10698SOL    HW232994   3.493   5.783   4.455
10699SOL     OW32995   4.304   2.272   2.116
10699SOL    HW132996   4.207   2.284   2.094
10699SOL    HW232997   4.336   2.186   2.076
10700SOL     OW32998   0.747   0.016   0.441
10700SOL    HW132999   0.732   6.940   0.466
10700SOL    HW233000   0.831   0.049   0.484
10701SOL     OW33001   2.998   5.551   0.370
10701SOL    HW133002   3.017   5.617   0.443
10701SOL    HW233003   3.032   5.461   0.397
10702SOL     OW33004   6.247   2.249   2.521
10702SOL    HW133005   6.174   2.310   2.552
10702SOL    HW233006   6.213   2.190   2.447
10703SOL     OW33007   2.968   3.427   4.172
10703SOL    HW133008   3.053   3.456   4.216
10703SOL    HW233009   2.893   3.434   4.238
10704SOL     OW33010   5.894   5.305   1.633
10704SOL    HW133011   5.877   5.212   1.598
10704SOL    HW233012   5.989   5.330   1.615
10705SOL     OW33013   6.571   4.352   2.351
10705SOL    HW133014   6.493   4.289   2.352
10705SOL    HW233015   6.641   4.316   2.289
10706SOL     OW33016   4.403   6.468   2.112
10706SOL    HW133017   4.396   6.509   2.021
10706SOL    HW233018   4.332   6.507   2.171
10707SOL     OW33019   0.739   6.952   3.760
10707SOL    HW133020   0.817   6.971   3.700
10707SOL    HW233021   0.654   6.961   3.708
10708SOL     OW33022   4.434   0.916   2.694
10708SOL    HW133023   4.519   0.873   2.723
10708SOL    HW233024   4.395   0.967   2.771
10709SOL     OW33025   6.202   0.534   5.258
10709SOL    HW133026   6.277   0.471   5.240
10709SOL    HW233027   6.237   0.627   5.265
10710SOL     OW33028   0.751   6.441   4.083
10710SOL    HW133029   0.755   6.385   4.000
10710SOL    HW233030   0.678   6.508   4.075
10711SOL     OW33031   1.671   6.549   3.500
10711SOL    HW133032   1.638   6.455   3.509
10711SOL    HW233033   1.757   6.549   3.449
10712SOL     OW33034   3.390   1.195   1.605
10712SOL    HW133035   3.447   1.269   1.571
10712SOL    HW233036   3.445   1.112   1.614
10713SOL     OW33037   0.827   4.034   1.886
10713SOL    HW133038   0.865   3.997   1.971
10713SOL    HW233039   0.775   4.117   1.906
10714SOL     OW33040   6.158   3.540   6.162
10714SOL    HW133041   6.256   3.540   6.142
10714SOL    HW233042   6.112   3.605   6.101
10715SOL     OW33043   4.903   6.898   2.957
10715SOL    HW133044   4.994   6.857   2.951
10715SOL    HW233045   4.847   6.845   3.021
10716SOL     OW33046   6.659   2.317   4.172
10716SOL    HW133047   6.614   2.329   4.260
10716SOL    HW233048   6.591   2.311   4.100
10717SOL     OW33049   0.785   2.451   0.798
10717SOL    HW133050   0.703   2.446   0.741
10717SOL    HW233051   0.774   2.391   0.877
10718SOL     OW33052   6.996   3.595   6.347
10718SOL    HW133053   0.069   3.561   6.368
10718SOL    HW233054   6.938   3.588   6.428
10719SOL     OW33055   5.031   6.237   0.169
10719SOL    HW133056   5.081   6.262   0.252
10719SOL    HW233057   4.997   6.143   0.178
10720SOL     OW33058   0.033   2.982   5.513
10720SOL    HW133059   0.081   2.994   5.426
10720SOL    HW233060   0.009   3.071   5.551
10721SOL     OW33061   6.096   3.703   5.343
10721SOL    HW133062   6.102   3.794   5.383
10721SOL    HW233063   6.008   3.662   5.366
10722SOL     OW33064   6.863   3.049   0.456
10722SOL    HW133065   6.935   3.062   0.387
10722SOL    HW233066   6.829   3.138   0.486
10723SOL     OW33067   6.544   3.848   6.908
10723SOL    HW133068   6.536   3.762   6.858
10723SOL    HW233069   6.607   3.909   6.860
10724SOL     OW33070   3.692   0.433   6.445
10724SOL    HW133071   3.634   0.464   6.520
10724SOL    HW233072   3.636   0.416   6.364
10725SOL     OW33073   6.996   5.181   4.219
10725SOL    HW133074   6.962   5.150   4.308
10725SOL    HW233075   0.028   5.107   4.176
10726SOL     OW33076   6.168   6.405   5.569
10726SOL    HW133077   6.190   6.313   5.599
10726SOL    HW233078   6.071   6.409   5.543
10727SOL     OW33079   1.298   4.577   4.064
10727SOL    HW133080   1.375   4.523   4.030
10727SOL    HW233081   1.326   4.671   4.079
10728SOL     OW33082   6.315   6.324   2.279
10728SOL    HW133083   6.264   6.359   2.201
10728SOL    HW233084   6.288   6.230   2.297
10729SOL     OW33085   6.338   1.147   3.139
10729SOL    HW133086   6.351   1.083   3.063
10729SOL    HW233087   6.393   1.118   3.217
10730SOL     OW33088   2.911   0.241   1.287
10730SOL    HW133089   2.859   0.156   1.297
10730SOL    HW233090   2.847   0.318   1.281
10731SOL     OW33091   2.203   5.977   6.426
10731SOL    HW133092   2.267   5.934   6.490
10731SOL    HW233093   2.111   5.944   6.444
10732SOL     OW33094   5.544   6.893   2.723
10732SOL    HW133095   5.642   6.876   2.709
10732SOL    HW233096   5.532   6.976   2.776
10733SOL     OW33097   5.536   2.435   6.900
10733SOL    HW133098   5.626   2.467   6.929
10733SOL    HW233099   5.487   2.395   6.978
10734SOL     OW33100   1.198   0.652   6.235
10734SOL    HW133101   1.114   0.693   6.200
10734SOL    HW233102   1.216   0.687   6.327
10735SOL     OW33103   1.219   4.846   2.252
10735SOL    HW133104   1.243   4.749   2.248
10735SOL    HW233105   1.303   4.901   2.259
10736SOL     OW33106   1.212   1.283   3.809
10736SOL    HW133107   1.220   1.222   3.730
10736SOL    HW233108   1.251   1.372   3.787
10737SOL     OW33109   1.133   2.220   0.126
10737SOL    HW133110   1.145   2.151   0.197
10737SOL    HW233111   1.206   2.288   0.133
10738SOL     OW33112   2.889   0.585   1.933
10738SOL    HW133113   2.898   0.557   1.837
10738SOL    HW233114   2.806   0.545   1.972
10739SOL     OW33115   0.964   1.179   2.540
10739SOL    HW133116   0.939   1.083   2.553
10739SOL    HW233117   0.919   1.214   2.458
10740SOL     OW33118   1.596   4.719   6.176
10740SOL    HW133119   1.636   4.627   6.175
10740SOL    HW233120   1.602   4.758   6.084
10741SOL     OW33121   1.245   1.334   3.396
10741SOL    HW133122   1.259   1.248   3.346
10741SOL    HW233123   1.151   1.365   3.382
10742SOL     OW33124   5.989   0.124   1.802
10742SOL    HW133125   5.919   0.180   1.847
10742SOL    HW233126   6.071   0.121   1.859
10743SOL     OW33127   2.452   2.531   3.602
10743SOL    HW133128   2.386   2.469   3.645
10743SOL    HW233129   2.404   2.610   3.565
10744SOL     OW33130   3.643   1.956   2.595
10744SOL    HW133131   3.602   1.965   2.504
10744SOL    HW233132   3.723   2.016   2.602
10745SOL     OW33133   1.135   4.560   0.478
10745SOL    HW133134   1.087   4.630   0.531
10745SOL    HW233135   1.198   4.605   0.414
10746SOL     OW33136   1.746   4.571   1.026
10746SOL    HW133137   1.655   4.585   0.986
10746SOL    HW233138   1.746   4.606   1.120
10747SOL     OW33139   4.830   1.677   3.635
10747SOL    HW133140   4.746   1.656   3.685
10747SOL    HW233141   4.904   1.693   3.700
10748SOL     OW33142   5.804   0.108   1.103
10748SOL    HW133143   5.819   0.205   1.123
10748SOL    HW233144   5.781   0.060   1.188
10749SOL     OW33145   0.139   4.977   3.142
10749SOL    HW133146   0.180   5.062   3.175
10749SOL    HW233147   0.208   4.904   3.143
10750SOL     OW33148   4.948   5.674   4.251
10750SOL    HW133149   4.937   5.768   4.218
10750SOL    HW233150   4.882   5.656   4.324
10751SOL     OW33151   0.965   3.930   5.178
10751SOL    HW133152   1.050   3.889   5.145
10751SOL    HW233153   0.944   4.012   5.125
10752SOL     OW33154   6.218   3.818   6.387
10752SOL    HW133155   6.188   3.727   6.417
10752SOL    HW233156   6.230   3.818   6.288
10753SOL     OW33157   5.966   0.535   3.878
10753SOL    HW133158   6.005   0.604   3.939
10753SOL    HW233159   5.922   0.579   3.800
10754SOL     OW33160   2.424   1.835   3.359
10754SOL    HW133161   2.509   1.803   3.318
10754SOL    HW233162   2.366   1.876   3.289
10755SOL     OW33163   0.355   1.386   0.819
10755SOL    HW133164   0.341   1.465   0.879
10755SOL    HW233165   0.268   1.362   0.775
10756SOL     OW33166   6.077   3.901   0.340
10756SOL    HW133167   6.119   3.810   0.337
10756SOL    HW233168   6.029   3.919   0.255
10757SOL     OW33169   6.662   3.688   0.462
10757SOL    HW133170   6.636   3.626   0.536
10757SOL    HW233171   6.641   3.645   0.374
10758SOL     OW33172   1.298   6.044   4.797
10758SOL    HW133173   1.307   6.036   4.897
10758SOL    HW233174   1.319   5.956   4.755
10759SOL     OW33175   1.692   3.420   0.041
10759SOL    HW133176   1.763   3.407   6.991
10759SOL    HW233177   1.612   3.364   0.017
10760SOL     OW33178   0.046   0.455   0.997
10760SOL    HW133179   0.141   0.485   1.012
10760SOL    HW233180   7.019   0.522   0.938
10761SOL     OW33181   0.868   1.848   6.283
10761SOL    HW133182   0.853   1.818   6.189
10761SOL    HW233183   0.917   1.935   6.283
10762SOL     OW33184   4.285   1.184   5.243
10762SOL    HW133185   4.345   1.161   5.319
10762SOL    HW233186   4.223   1.258   5.271
10763SOL     OW33187   4.504   6.114   1.311
10763SOL    HW133188   4.475   6.095   1.217
10763SOL    HW233189   4.424   6.112   1.371
10764SOL     OW33190   5.795   1.512   6.291
10764SOL    HW133191   5.736   1.574   6.239
10764SOL    HW233192   5.739   1.443   6.337
10765SOL     OW33193   5.700   2.811   1.079
10765SOL    HW133194   5.799   2.802   1.077
10765SOL    HW233195   5.675   2.908   1.086
10766SOL     OW33196   2.976   3.413   0.349
10766SOL    HW133197   3.025   3.500   0.340
10766SOL    HW233198   2.911   3.404   0.273
10767SOL     OW33199   1.391   0.454   0.790
10767SOL    HW133200   1.480   0.498   0.804
10767SOL    HW233201   1.345   0.496   0.712
10768SOL     OW33202   5.627   5.076   0.504
10768SOL    HW133203   5.698   5.146   0.513
10768SOL    HW233204   5.550   5.100   0.563
10769SOL     OW33205   2.317   5.170   4.451
10769SOL    HW133206   2.380   5.107   4.404
10769SOL    HW233207   2.230   5.172   4.402
10770SOL     OW33208   5.669   6.834   4.637
10770SOL    HW133209   5.635   6.820   4.730
10770SOL    HW233210   5.735   6.910   4.638
10771SOL     OW33211   4.668   0.118   5.341
10771SOL    HW133212   4.660   0.120   5.241
10771SOL    HW233213   4.583   0.151   5.381
10772SOL     OW33214   5.978   6.735   4.083
10772SOL    HW133215   5.930   6.821   4.100
10772SOL    HW233216   5.919   6.658   4.109
10773SOL     OW33217   6.509   4.930   6.640
10773SOL    HW133218   6.553   4.938   6.730
10773SOL    HW233219   6.441   5.003   6.631
10774SOL     OW33220   1.708   2.172   0.299
10774SOL    HW133221   1.749   2.150   0.387
10774SOL    HW233222   1.762   2.242   0.253
10775SOL     OW33223   0.882   3.829   0.574
10775SOL    HW133224   0.845   3.907   0.625
10775SOL    HW233225   0.928   3.862   0.492
10776SOL     OW33226   0.875   6.221   0.952
10776SOL    HW133227   0.822   6.217   0.867
10776SOL    HW233228   0.833   6.287   1.014
10777SOL     OW33229   3.876   6.963   4.007
10777SOL    HW133230   3.880   0.027   3.951
10777SOL    HW233231   3.902   6.985   4.101
10778SOL     OW33232   5.293   6.832   4.969
10778SOL    HW133233   5.261   6.919   4.930
10778SOL    HW233234   5.242   6.813   5.053
10779SOL     OW33235   6.671   4.669   3.419
10779SOL    HW133236   6.627   4.715   3.342
10779SOL    HW233237   6.608   4.602   3.458
10780SOL     OW33238   1.224   6.692   2.561
10780SOL    HW133239   1.290   6.743   2.504
10780SOL    HW233240   1.272   6.651   2.638
10781SOL     OW33241   3.688   1.502   3.562
10781SOL    HW133242   3.616   1.434   3.572
10781SOL    HW233243   3.692   1.559   3.644
10782SOL     OW33244   6.144   2.251   3.840
10782SOL    HW133245   6.202   2.332   3.826
10782SOL    HW233246   6.055   2.266   3.796
10783SOL     OW33247   1.349   3.097   3.226
10783SOL    HW133248   1.410   3.143   3.162
10783SOL    HW233249   1.351   2.998   3.209
10784SOL     OW33250   2.942   6.949   2.312
10784SOL    HW133251   2.883   7.003   2.373
10784SOL    HW233252   3.036   6.980   2.320
10785SOL     OW33253   0.895   4.968   1.839
10785SOL    HW133254   0.899   4.908   1.759
10785SOL    HW233255   0.858   4.916   1.916
10786SOL     OW33256   5.207   3.331   2.042
10786SOL    HW133257   5.158   3.396   1.983
10786SOL    HW233258   5.188   3.353   2.137
10787SOL     OW33259   3.534   2.159   4.526
10787SOL    HW133260   3.556   2.086   4.590
10787SOL    HW233261   3.453   2.208   4.558
10788SOL     OW33262   2.226   4.721   0.229
10788SOL    HW133263   2.299   4.781   0.195
10788SOL    HW233264   2.267   4.640   0.271
10789SOL     OW33265   5.670   1.774   0.835
10789SOL    HW133266   5.764   1.757   0.807
10789SOL    HW233267   5.635   1.696   0.887
10790SOL     OW33268   0.788   0.936   4.140
10790SOL    HW133269   0.732   0.920   4.221
10790SOL    HW233270   0.730   0.941   4.059
10791SOL     OW33271   0.591   0.903   1.557
10791SOL    HW133272   0.680   0.906   1.512
10791SOL    HW233273   0.530   0.969   1.514
10792SOL     OW33274   3.005   2.843   1.780
10792SOL    HW133275   3.011   2.748   1.750
10792SOL    HW233276   3.064   2.900   1.722
10793SOL     OW33277   5.235   2.669   4.195
10793SOL    HW133278   5.305   2.729   4.234
10793SOL    HW233279   5.220   2.591   4.256
10794SOL     OW33280   3.202   3.891   2.800
10794SOL    HW133281   3.262   3.970   2.806
10794SOL    HW233282   3.254   3.811   2.772
10795SOL     OW33283   6.200   3.926   3.932
10795SOL    HW133284   6.270   3.995   3.917
10795SOL    HW233285   6.210   3.853   3.864
10796SOL     OW33286   4.202   6.029   6.878
10796SOL    HW133287   4.280   5.977   6.842
10796SOL    HW233288   4.123   5.968   6.887
10797SOL     OW33289   4.400   2.244   0.708
10797SOL    HW133290   4.367   2.338   0.706
10797SOL    HW233291   4.446   2.223   0.622
10798SOL     OW33292   2.007   0.049   0.416
10798SOL    HW133293   1.947   0.115   0.372
10798SOL    HW233294   2.096   0.090   0.435
10799SOL     OW33295   3.870   1.678   1.820
10799SOL    HW133296   3.891   1.754   1.882
10799SOL    HW233297   3.798   1.707   1.756
10800SOL     OW33298   1.315   0.073   6.900
10800SOL    HW133299   1.325   6.993   6.894
10800SOL    HW233300   1.398   0.112   6.942
10801SOL     OW33301   1.064   6.913   5.081
10801SOL    HW133302   1.068   6.859   5.165
10801SOL    HW233303   1.100   7.004   5.098
10802SOL     OW33304   2.095   3.287   4.605
10802SOL    HW133305   1.999   3.315   4.613
10802SOL    HW233306   2.140   3.299   4.694
10803SOL     OW33307   4.634   4.666   4.985
10803SOL    HW133308   4.594   4.751   4.950
10803SOL    HW233309   4.733   4.673   4.983
10804SOL     OW33310   6.974   4.355   1.476
10804SOL    HW133311   6.978   4.285   1.405
10804SOL    HW233312   0.041   4.357   1.526
10805SOL     OW33313   3.112   6.537   6.661
10805SOL    HW133314   3.064   6.564   6.744
10805SOL    HW233315   3.208   6.516   6.683
10806SOL     OW33316   5.253   4.343   6.814
10806SOL    HW133317   5.320   4.349   6.740
10806SOL    HW233318   5.297   4.305   6.896
10807SOL     OW33319   3.217   6.787   3.215
10807SOL    HW133320   3.289   6.856   3.228
10807SOL    HW233321   3.166   6.808   3.132
10808SOL     OW33322   6.773   3.944   6.740
10808SOL    HW133323   6.863   3.983   6.761
10808SOL    HW233324   6.784   3.848   6.714
10809SOL     OW33325   2.444   6.736   3.668
10809SOL    HW133326   2.479   6.730   3.762
10809SOL    HW233327   2.501   6.798   3.615
10810SOL     OW33328   1.305   0.755   5.412
10810SOL    HW133329   1.324   0.760   5.510
10810SOL    HW233330   1.227   0.695   5.396
10811SOL     OW33331   4.893   4.967   5.519
10811SOL    HW133332   4.853   4.907   5.588
10811SOL    HW233333   4.993   4.964   5.526
10812SOL     OW33334   0.540   3.217   2.829
10812SOL    HW133335   0.607   3.167   2.885
10812SOL    HW233336   0.534   3.311   2.860
10813SOL     OW33337   2.080   6.412   0.122
10813SOL    HW133338   2.141   6.426   0.200
10813SOL    HW233339   2.084   6.490   0.061
10814SOL     OW33340   1.723   6.730   6.314
10814SOL    HW133341   1.699   6.634   6.326
10814SOL    HW233342   1.732   6.774   6.404
10815SOL     OW33343   5.055   5.095   3.175
10815SOL    HW133344   5.096   5.172   3.126
10815SOL    HW233345   5.064   5.012   3.119
10816SOL     OW33346   1.843   1.544   2.222
10816SOL    HW133347   1.856   1.620   2.159
10816SOL    HW233348   1.930   1.496   2.235
10817SOL     OW33349   5.240   0.093   2.922
10817SOL    HW133350   5.268   7.016   2.915
10817SOL    HW233351   5.265   0.128   3.013
10818SOL     OW33352   4.280   3.902   5.359
10818SOL    HW133353   4.272   3.976   5.426
10818SOL    HW233354   4.375   3.869   5.358
10819SOL     OW33355   6.746   4.683   6.852
10819SOL    HW133356   6.762   4.671   6.949
10819SOL    HW233357   6.781   4.771   6.822
10820SOL     OW33358   6.252   6.070   3.978
10820SOL    HW133359   6.178   6.026   4.030
10820SOL    HW233360   6.213   6.132   3.910
10821SOL     OW33361   5.039   6.298   1.610
10821SOL    HW133362   5.038   6.205   1.648
10821SOL    HW233363   5.029   6.364   1.684
10822SOL     OW33364   0.982   2.670   3.104
10822SOL    HW133365   0.888   2.649   3.130
10822SOL    HW233366   1.036   2.585   3.102
10823SOL     OW33367   1.355   5.076   1.625
10823SOL    HW133368   1.392   5.008   1.562
10823SOL    HW233369   1.430   5.116   1.678
10824SOL     OW33370   4.907   0.088   4.270
10824SOL    HW133371   4.913   0.183   4.240
10824SOL    HW233372   4.814   0.068   4.302
10825SOL     OW33373   2.633   0.874   0.286
10825SOL    HW133374   2.592   0.794   0.331
10825SOL    HW233375   2.731   0.875   0.303
10826SOL     OW33376   0.278   3.807   4.250
10826SOL    HW133377   0.375   3.825   4.263
10826SOL    HW233378   0.266   3.728   4.191
10827SOL     OW33379   5.304   4.227   4.957
10827SOL    HW133380   5.312   4.173   5.040
10827SOL    HW233381   5.216   4.209   4.913
10828SOL     OW33382   0.869   5.747   2.663
10828SOL    HW133383   0.866   5.682   2.739
10828SOL    HW233384   0.832   5.704   2.580
10829SOL     OW33385   3.740   2.558   0.029
10829SOL    HW133386   3.735   2.655   0.053
10829SOL    HW233387   3.651   2.526   7.016
10830SOL     OW33388   4.792   2.061   3.181
10830SOL    HW133389   4.748   2.147   3.203
10830SOL    HW233390   4.838   2.026   3.263
10831SOL     OW33391   3.854   5.808   1.836
10831SOL    HW133392   3.822   5.901   1.815
10831SOL    HW233393   3.804   5.773   1.915
10832SOL     OW33394   0.275   2.051   0.853
10832SOL    HW133395   0.294   1.954   0.869
10832SOL    HW233396   0.344   2.106   0.898
10833SOL     OW33397   1.811   0.795   4.254
10833SOL    HW133398   1.749   0.725   4.219
10833SOL    HW233399   1.777   0.886   4.228
10834SOL     OW33400   1.416   2.084   6.200
10834SOL    HW133401   1.367   2.010   6.247
10834SOL    HW233402   1.481   2.045   6.136
10835SOL     OW33403   6.014   1.945   1.278
10835SOL    HW133404   5.987   1.852   1.255
10835SOL    HW233405   6.113   1.952   1.277
10836SOL     OW33406   6.381   1.539   5.057
10836SOL    HW133407   6.331   1.551   5.143
10836SOL    HW233408   6.478   1.522   5.077
10837SOL     OW33409   0.993   4.938   0.225
10837SOL    HW133410   0.900   4.950   0.189
10837SOL    HW233411   1.054   5.006   0.183
10838SOL     OW33412   5.743   6.388   4.660
10838SOL    HW133413   5.671   6.442   4.704
10838SOL    HW233414   5.759   6.305   4.713
10839SOL     OW33415   3.168   3.212   0.284
10839SOL    HW133416   3.141   3.308   0.285
10839SOL    HW233417   3.204   3.187   0.374
10840SOL     OW33418   4.146   5.875   1.215
10840SOL    HW133419   4.142   5.779   1.242
10840SOL    HW233420   4.118   5.884   1.119
10841SOL     OW33421   3.794   6.630   6.813
10841SOL    HW133422   3.816   6.535   6.835
10841SOL    HW233423   3.695   6.643   6.817
10842SOL     OW33424   6.051   3.259   1.062
10842SOL    HW133425   6.146   3.291   1.063
10842SOL    HW233426   6.000   3.305   1.136
10843SOL     OW33427   0.937   1.899   1.992
10843SOL    HW133428   0.885   1.983   1.979
10843SOL    HW233429   0.959   1.859   1.903
10844SOL     OW33430   0.682   6.754   3.978
10844SOL    HW133431   0.619   6.792   4.045
10844SOL    HW233432   0.699   6.821   3.906
10845SOL     OW33433   2.516   1.134   0.259
10845SOL    HW133434   2.522   1.045   0.305
10845SOL    HW233435   2.521   1.207   0.327
10846SOL     OW33436   4.753   2.981   0.848
10846SOL    HW133437   4.848   2.953   0.862
10846SOL    HW233438   4.746   3.080   0.858
10847SOL     OW33439   3.008   2.034   6.624
10847SOL    HW133440   2.974   1.995   6.539
10847SOL    HW233441   3.050   2.123   6.605
10848SOL     OW33442   3.187   2.279   6.447
10848SOL    HW133443   3.183   2.184   6.415
10848SOL    HW233444   3.184   2.341   6.368
10849SOL     OW33445   3.084   4.888   3.342
10849SOL    HW133446   3.151   4.943   3.292
10849SOL    HW233447   3.112   4.881   3.438
10850SOL     OW33448   4.697   6.083   6.372
10850SOL    HW133449   4.630   6.150   6.403
10850SOL    HW233450   4.788   6.108   6.406
10851SOL     OW33451   2.923   3.012   6.401
10851SOL    HW133452   2.932   3.105   6.364
10851SOL    HW233453   2.826   2.990   6.409
10852SOL     OW33454   0.380   6.500   5.756
10852SOL    HW133455   0.373   6.447   5.671
10852SOL    HW233456   0.459   6.468   5.809
10853SOL     OW33457   3.794   1.931   5.718
10853SOL    HW133458   3.722   1.880   5.670
10853SOL    HW233459   3.762   1.955   5.810
10854SOL     OW33460   6.018   6.981   5.320
10854SOL    HW133461   5.965   6.961   5.238
10854SOL    HW233462   6.003   0.058   5.346
10855SOL     OW33463   2.952   6.253   2.267
10855SOL    HW133464   2.938   6.207   2.179
10855SOL    HW233465   3.020   6.325   2.256
10856SOL     OW33466   5.733   1.595   2.258
10856SOL    HW133467   5.753   1.610   2.355
10856SOL    HW233468   5.733   1.682   2.210
10857SOL     OW33469   5.258   3.003   3.700
10857SOL    HW133470   5.319   3.049   3.636
10857SOL    HW233471   5.290   3.018   3.793
10858SOL     OW33472   1.385   2.713   6.428
10858SOL    HW133473   1.341   2.706   6.339
10858SOL    HW233474   1.317   2.741   6.496
10859SOL     OW33475   2.261   4.179   4.182
10859SOL    HW133476   2.214   4.091   4.193
10859SOL    HW233477   2.304   4.182   4.092
10860SOL     OW33478   6.725   1.204   5.873
10860SOL    HW133479   6.764   1.128   5.925
10860SOL    HW233480   6.627   1.210   5.890
10861SOL     OW33481   3.824   3.033   2.293
10861SOL    HW133482   3.764   3.111   2.275
10861SOL    HW233483   3.909   3.066   2.335
10862SOL     OW33484   2.492   1.500   6.770
10862SOL    HW133485   2.519   1.590   6.802
10862SOL    HW233486   2.481   1.438   6.847
10863SOL     OW33487   4.093   0.302   2.178
10863SOL    HW133488   3.994   0.287   2.176
10863SOL    HW233489   4.128   0.285   2.270
10864SOL     OW33490   2.525   5.137   1.057
10864SOL    HW133491   2.553   5.048   1.092
10864SOL    HW233492   2.582   5.163   0.980
10865SOL     OW33493   5.406   2.069   3.799
10865SOL    HW133494   5.437   1.976   3.821
10865SOL    HW233495   5.485   2.130   3.796
10866SOL     OW33496   5.325   4.851   1.033
10866SOL    HW133497   5.259   4.870   1.106
10866SOL    HW233498   5.317   4.921   0.962
10867SOL     OW33499   3.070   4.160   0.640
10867SOL    HW133500   3.093   4.124   0.730
10867SOL    HW233501   3.032   4.087   0.583
10868SOL     OW33502   2.056   1.790   3.363
10868SOL    HW133503   2.045   1.771   3.461
10868SOL    HW233504   2.026   1.883   3.343
10869NA      NA33505   0.333   2.370   6.202
10870NA      NA33506   4.430   4.650   5.129
10871NA      NA33507   2.218   4.552   2.430
10872NA      NA33508   4.795   4.328   3.634
10873NA      NA33509   4.237   2.389   5.291
10874NA      NA33510   3.501   4.235   1.688
10875NA      NA33511   0.818   4.513   0.250
10876NA      NA33512   3.975   3.603   2.187
10877NA      NA33513   4.874   4.530   0.944
10878NA      NA33514   3.626   0.244   5.477
10879NA      NA33515   5.897   5.492   0.995
10880NA      NA33516   1.762   0.999   5.413
10881NA      NA33517   4.551   4.722   2.054
10882NA      NA33518   3.873   2.819   1.248
   7.01909   7.01909   7.01909
