Generated by trjconv : CNT in water t= 258.00000
33518
    1C        C    1   2.843   2.773   4.747
    1C        C    2   2.899   2.721   4.866
    1C        C    3   2.851   2.778   4.985
    1C        C    4   2.848   2.776   4.262
    1C        C    5   2.902   2.731   4.385
    1C        C    6   2.847   2.777   4.507
    1C        C    7   3.018   2.648   4.627
    1C        C    8   2.900   2.726   4.627
    1C        C    9   3.083   2.614   4.747
    1C        C   10   3.014   2.640   4.867
    1C        C   11   3.186   2.497   4.976
    1C        C   12   3.067   2.571   4.977
    1C        C   13   2.849   2.775   3.774
    1C        C   14   2.902   2.728   3.897
    1C        C   15   2.850   2.780   4.017
    1C        C   16   3.018   2.651   4.140
    1C        C   17   2.902   2.732   4.139
    1C        C   18   3.081   2.619   4.262
    1C        C   19   3.020   2.654   4.385
    1C        C   20   3.212   2.561   4.505
    1C        C   21   3.080   2.611   4.505
    1C        C   22   3.282   2.540   4.626
    1C        C   23   3.213   2.556   4.749
    1C        C   24   3.416   2.478   4.865
    1C        C   25   3.274   2.499   4.864
    1C        C   26   3.490   2.473   4.984
    1C        C   27   2.848   2.769   3.284
    1C        C   28   2.905   2.728   3.407
    1C        C   29   2.857   2.780   3.530
    1C        C   30   3.016   2.643   3.653
    1C        C   31   2.904   2.728   3.653
    1C        C   32   3.077   2.608   3.776
    1C        C   33   3.016   2.644   3.898
    1C        C   34   3.211   2.559   4.018
    1C        C   35   3.080   2.611   4.019
    1C        C   36   3.279   2.540   4.141
    1C        C   37   3.210   2.562   4.262
    1C        C   38   3.416   2.506   4.382
    1C        C   39   3.278   2.535   4.383
    1C        C   40   3.488   2.506   4.503
    1C        C   41   3.419   2.507   4.627
    1C        C   42   3.635   2.484   4.747
    1C        C   43   3.492   2.484   4.745
    1C        C   44   3.705   2.491   4.869
    1C        C   45   3.628   2.479   4.985
    1C        C   46   2.843   2.758   2.796
    1C        C   47   2.900   2.715   2.918
    1C        C   48   2.846   2.766   3.038
    1C        C   49   3.019   2.645   3.163
    1C        C   50   2.902   2.724   3.161
    1C        C   51   3.083   2.613   3.285
    1C        C   52   3.019   2.645   3.407
    1C        C   53   3.207   2.552   3.533
    1C        C   54   3.078   2.609   3.531
    1C        C   55   3.278   2.531   3.653
    1C        C   56   3.210   2.558   3.774
    1C        C   57   3.416   2.508   3.896
    1C        C   58   3.278   2.535   3.896
    1C        C   59   3.488   2.505   4.018
    1C        C   60   3.418   2.514   4.140
    1C        C   61   3.630   2.503   4.262
    1C        C   62   3.488   2.501   4.261
    1C        C   63   3.702   2.511   4.383
    1C        C   64   3.629   2.508   4.505
    1C        C   65   3.839   2.545   4.624
    1C        C   66   3.703   2.506   4.625
    1C        C   67   3.905   2.565   4.747
    1C        C   68   3.841   2.529   4.868
    1C        C   69   4.054   2.584   4.979
    1C        C   70   3.923   2.532   4.981
    1C        C   71   2.826   2.737   2.310
    1C        C   72   2.885   2.693   2.431
    1C        C   73   2.837   2.748   2.552
    1C        C   74   3.010   2.627   2.675
    1C        C   75   2.893   2.707   2.675
    1C        C   76   3.073   2.594   2.797
    1C        C   77   3.019   2.639   2.919
    1C        C   78   3.210   2.549   3.042
    1C        C   79   3.080   2.605   3.042
    1C        C   80   3.279   2.533   3.164
    1C        C   81   3.211   2.555   3.286
    1C        C   82   3.413   2.504   3.403
    1C        C   83   3.275   2.532   3.410
    1C        C   84   3.484   2.497   3.525
    1C        C   85   3.417   2.507   3.649
    1C        C   86   3.626   2.506   3.771
    1C        C   87   3.485   2.500   3.773
    1C        C   88   3.697   2.512   3.893
    1C        C   89   3.630   2.505   4.017
    1C        C   90   3.836   2.547   4.137
    1C        C   91   3.699   2.513   4.140
    1C        C   92   3.901   2.577   4.259
    1C        C   93   3.836   2.554   4.382
    1C        C   94   4.034   2.632   4.501
    1C        C   95   3.906   2.572   4.503
    1C        C   96   4.094   2.671   4.623
    1C        C   97   4.032   2.628   4.743
    1C        C   98   4.187   2.770   4.860
    1C        C   99   4.098   2.659   4.865
    1C        C  100   4.208   2.850   4.973
    1C        C  101   2.826   2.738   2.074
    1C        C  102   2.992   2.592   2.192
    1C        C  103   2.881   2.682   2.190
    1C        C  104   3.064   2.571   2.313
    1C        C  105   3.003   2.616   2.433
    1C        C  106   3.201   2.534   2.554
    1C        C  107   3.072   2.591   2.553
    1C        C  108   3.271   2.517   2.676
    1C        C  109   3.205   2.542   2.798
    1C        C  110   3.414   2.499   2.918
    1C        C  111   3.275   2.525   2.919
    1C        C  112   3.487   2.492   3.038
    1C        C  113   3.417   2.501   3.160
    1C        C  114   3.628   2.496   3.281
    1C        C  115   3.486   2.493   3.283
    1C        C  116   3.696   2.507   3.404
    1C        C  117   3.625   2.499   3.526
    1C        C  118   3.833   2.543   3.650
    1C        C  119   3.695   2.511   3.648
    1C        C  120   3.899   2.573   3.771
    1C        C  121   3.833   2.550   3.894
    1C        C  122   4.030   2.633   4.015
    1C        C  123   3.902   2.573   4.015
    1C        C  124   4.091   2.672   4.137
    1C        C  125   4.028   2.639   4.259
    1C        C  126   4.196   2.771   4.376
    1C        C  127   4.091   2.677   4.380
    1C        C  128   4.246   2.821   4.498
    1C        C  129   4.199   2.765   4.619
    1C        C  130   4.324   2.940   4.739
    1C        C  131   4.240   2.825   4.740
    1C        C  132   4.352   3.006   4.861
    1C        C  133   4.283   2.967   4.977
    1C        C  134   3.175   2.473   2.083
    1C        C  135   3.040   2.512   2.083
    1C        C  136   3.262   2.481   2.193
    1C        C  137   3.197   2.521   2.311
    1C        C  138   3.406   2.478   2.429
    1C        C  139   3.269   2.510   2.432
    1C        C  140   3.480   2.483   2.550
    1C        C  141   3.411   2.497   2.672
    1C        C  142   3.624   2.495   2.792
    1C        C  143   3.483   2.494   2.794
    1C        C  144   3.698   2.503   2.912
    1C        C  145   3.629   2.495   3.035
    1C        C  146   3.833   2.543   3.161
    1C        C  147   3.697   2.508   3.158
    1C        C  148   3.900   2.567   3.283
    1C        C  149   3.833   2.542   3.405
    1C        C  150   4.026   2.628   3.525
    1C        C  151   3.900   2.564   3.528
    1C        C  152   4.082   2.672   3.647
    1C        C  153   4.026   2.635   3.772
    1C        C  154   4.195   2.766   3.888
    1C        C  155   4.090   2.671   3.893
    1C        C  156   4.247   2.814   4.010
    1C        C  157   4.200   2.762   4.132
    1C        C  158   4.340   2.924   4.252
    1C        C  159   4.250   2.814   4.253
    1C        C  160   4.377   2.986   4.374
    1C        C  161   4.329   2.935   4.497
    1C        C  162   4.444   3.116   4.615
    1C        C  163   4.367   2.998   4.617
    1C        C  164   4.472   3.183   4.737
    1C        C  165   4.428   3.124   4.857
    1C        C  166   4.512   3.321   4.973
    1C        C  167   4.481   3.186   4.972
    1C        C  168   3.479   2.444   2.073
    1C        C  169   3.401   2.456   2.189
    1C        C  170   3.619   2.467   2.308
    1C        C  171   3.477   2.461   2.308
    1C        C  172   3.693   2.489   2.426
    1C        C  173   3.621   2.490   2.548
    1C        C  174   3.828   2.543   2.669
    1C        C  175   3.693   2.502   2.669
    1C        C  176   3.894   2.573   2.791
    1C        C  177   3.833   2.545   2.915
    1C        C  178   4.027   2.625   3.035
    1C        C  179   3.899   2.566   3.038
    1C        C  180   4.088   2.663   3.157
    1C        C  181   4.026   2.631   3.280
    1C        C  182   4.196   2.754   3.399
    1C        C  183   4.088   2.663   3.403
    1C        C  184   4.244   2.808   3.521
    1C        C  185   4.194   2.757   3.644
    1C        C  186   4.338   2.918   3.765
    1C        C  187   4.247   2.810   3.764
    1C        C  188   4.380   2.980   3.885
    1C        C  189   4.338   2.923   4.007
    1C        C  190   4.446   3.105   4.130
    1C        C  191   4.377   2.982   4.129
    1C        C  192   4.468   3.175   4.250
    1C        C  193   4.441   3.112   4.374
    1C        C  194   4.512   3.316   4.492
    1C        C  195   4.472   3.181   4.493
    1C        C  196   4.532   3.386   4.613
    1C        C  197   4.515   3.318   4.736
    1C        C  198   4.562   3.534   4.850
    1C        C  199   4.528   3.395   4.855
    1C        C  200   4.584   3.621   4.962
    1C        C  201   3.617   2.419   2.074
    1C        C  202   3.828   2.510   2.186
    1C        C  203   3.694   2.459   2.188
    1C        C  204   3.901   2.540   2.304
    1C        C  205   3.830   2.522   2.425
    1C        C  206   4.022   2.618   2.546
    1C        C  207   3.896   2.554   2.546
    1C        C  208   4.082   2.663   2.666
    1C        C  209   4.022   2.632   2.790
    1C        C  210   4.200   2.747   2.910
    1C        C  211   4.086   2.664   2.912
    1C        C  212   4.252   2.797   3.032
    1C        C  213   4.201   2.748   3.154
    1C        C  214   4.335   2.911   3.274
    1C        C  215   4.249   2.799   3.276
    1C        C  216   4.368   2.975   3.396
    1C        C  217   4.330   2.919   3.520
    1C        C  218   4.439   3.101   3.638
    1C        C  219   4.377   2.974   3.641
    1C        C  220   4.464   3.169   3.760
    1C        C  221   4.441   3.107   3.885
    1C        C  222   4.504   3.308   4.004
    1C        C  223   4.471   3.171   4.007
    1C        C  224   4.512   3.382   4.125
    1C        C  225   4.500   3.313   4.247
    1C        C  226   4.523   3.525   4.366
    1C        C  227   4.520   3.384   4.368
    1C        C  228   4.521   3.596   4.488
    1C        C  229   4.535   3.527   4.610
    1C        C  230   4.507   3.742   4.726
    1C        C  231   4.544   3.605   4.728
    1C        C  232   4.504   3.823   4.841
    1C        C  233   4.548   3.756   4.957
    1C        C  234   4.024   2.601   2.065
    1C        C  235   3.899   2.540   2.069
    1C        C  236   4.090   2.641   2.182
    1C        C  237   4.028   2.605   2.303
    1C        C  238   4.201   2.734   2.423
    1C        C  239   4.087   2.648   2.424
    1C        C  240   4.255   2.783   2.544
    1C        C  241   4.200   2.741   2.667
    1C        C  242   4.337   2.907   2.785
    1C        C  243   4.250   2.795   2.787
    1C        C  244   4.375   2.966   2.908
    1C        C  245   4.335   2.912   3.032
    1C        C  246   4.439   3.097   3.150
    1C        C  247   4.379   2.969   3.153
    1C        C  248   4.464   3.164   3.272
    1C        C  249   4.430   3.102   3.394
    1C        C  250   4.497   3.304   3.516
    1C        C  251   4.457   3.169   3.516
    1C        C  252   4.512   3.375   3.637
    1C        C  253   4.502   3.305   3.760
    1C        C  254   4.525   3.518   3.878
    1C        C  255   4.516   3.377   3.881
    1C        C  256   4.525   3.590   4.000
    1C        C  257   4.531   3.522   4.123
    1C        C  258   4.501   3.734   4.243
    1C        C  259   4.529   3.595   4.244
    1C        C  260   4.479   3.805   4.363
    1C        C  261   4.488   3.733   4.485
    1C        C  262   4.427   3.940   4.605
    1C        C  263   4.477   3.808   4.604
    1C        C  264   4.401   4.010   4.725
    1C        C  265   4.441   3.949   4.845
    1C        C  266   4.323   4.131   4.961
    1C        C  267   4.395   4.012   4.962
    1C        C  268   4.262   2.776   2.067
    1C        C  269   4.202   2.727   2.184
    1C        C  270   4.349   2.888   2.301
    1C        C  271   4.259   2.778   2.303
    1C        C  272   4.386   2.952   2.422
    1C        C  273   4.346   2.891   2.543
    1C        C  274   4.443   3.086   2.662
    1C        C  275   4.383   2.958   2.662
    1C        C  276   4.473   3.154   2.781
    1C        C  277   4.445   3.088   2.903
    1C        C  278   4.506   3.292   3.027
    1C        C  279   4.466   3.157   3.025
    1C        C  280   4.509   3.368   3.146
    1C        C  281   4.498   3.301   3.270
    1C        C  282   4.515   3.513   3.389
    1C        C  283   4.509   3.372   3.392
    1C        C  284   4.510   3.584   3.511
    1C        C  285   4.510   3.516   3.635
    1C        C  286   4.491   3.728   3.755
    1C        C  287   4.512   3.588   3.757
    1C        C  288   4.475   3.796   3.878
    1C        C  289   4.492   3.728   4.000
    1C        C  290   4.434   3.934   4.118
    1C        C  291   4.482   3.801   4.120
    1C        C  292   4.401   3.999   4.239
    1C        C  293   4.430   3.937   4.363
    1C        C  294   4.332   4.130   4.480
    1C        C  295   4.398   4.005   4.483
    1C        C  296   4.289   4.192   4.599
    1C        C  297   4.326   4.131   4.721
    1C        C  298   4.200   4.309   4.837
    1C        C  299   4.285   4.195   4.842
    1C        C  300   4.171   4.399   4.944
    1C        C  301   4.349   2.885   2.065
    1C        C  302   4.472   3.067   2.180
    1C        C  303   4.401   2.943   2.181
    1C        C  304   4.480   3.144   2.299
    1C        C  305   4.454   3.076   2.420
    1C        C  306   4.509   3.286   2.536
    1C        C  307   4.475   3.149   2.539
    1C        C  308   4.522   3.357   2.658
    1C        C  309   4.511   3.291   2.782
    1C        C  310   4.525   3.501   2.898
    1C        C  311   4.524   3.360   2.904
    1C        C  312   4.518   3.577   3.017
    1C        C  313   4.514   3.509   3.141
    1C        C  314   4.491   3.718   3.263
    1C        C  315   4.512   3.578   3.264
    1C        C  316   4.475   3.788   3.385
    1C        C  317   4.488   3.724   3.510
    1C        C  318   4.425   3.926   3.627
    1C        C  319   4.477   3.795   3.631
    1C        C  320   4.396   3.991   3.749
    1C        C  321   4.425   3.928   3.872
    1C        C  322   4.325   4.113   3.992
    1C        C  323   4.402   3.994   3.994
    1C        C  324   4.282   4.170   4.114
    1C        C  325   4.328   4.120   4.238
    1C        C  326   4.185   4.281   4.355
    1C        C  327   4.285   4.181   4.357
    1C        C  328   4.137   4.341   4.474
    1C        C  329   4.192   4.294   4.595
    1C        C  330   4.024   4.432   4.712
    1C        C  331   4.136   4.345   4.715
    1C        C  332   3.968   4.484   4.831
    1C        C  333   4.052   4.474   4.942
    1C        C  334   4.551   3.266   2.067
    1C        C  335   4.535   3.127   2.066
    1C        C  336   4.536   3.352   2.177
    1C        C  337   4.518   3.281   2.297
    1C        C  338   4.523   3.500   2.413
    1C        C  339   4.522   3.358   2.415
    1C        C  340   4.521   3.571   2.535
    1C        C  341   4.525   3.499   2.656
    1C        C  342   4.495   3.711   2.776
    1C        C  343   4.521   3.573   2.776
    1C        C  344   4.476   3.783   2.897
    1C        C  345   4.494   3.716   3.020
    1C        C  346   4.426   3.919   3.140
    1C        C  347   4.475   3.787   3.141
    1C        C  348   4.394   3.985   3.261
    1C        C  349   4.428   3.921   3.383
    1C        C  350   4.323   4.108   3.503
    1C        C  351   4.399   3.989   3.503
    1C        C  352   4.279   4.167   3.624
    1C        C  353   4.323   4.113   3.746
    1C        C  354   4.178   4.265   3.867
    1C        C  355   4.280   4.167   3.869
    1C        C  356   4.119   4.308   3.988
    1C        C  357   4.177   4.264   4.109
    1C        C  358   4.010   4.395   4.234
    1C        C  359   4.126   4.314   4.231
    1C        C  360   3.948   4.444   4.351
    1C        C  361   4.018   4.416   4.471
    1C        C  362   3.828   4.518   4.595
    1C        C  363   3.955   4.456   4.591
    1C        C  364   3.760   4.545   4.715
    1C        C  365   3.836   4.533   4.833
    1C        C  366   3.629   4.594   4.953
    1C        C  367   3.766   4.569   4.950
    1C        C  368   4.506   3.567   2.055
    1C        C  369   4.527   3.493   2.172
    1C        C  370   4.500   3.710   2.289
    1C        C  371   4.521   3.570   2.290
    1C        C  372   4.483   3.781   2.410
    1C        C  373   4.506   3.711   2.531
    1C        C  374   4.423   3.908   2.651
    1C        C  375   4.478   3.778   2.652
    1C        C  376   4.400   3.978   2.771
    1C        C  377   4.432   3.917   2.894
    1C        C  378   4.319   4.098   3.013
    1C        C  379   4.396   3.979   3.016
    1C        C  380   4.275   4.156   3.133
    1C        C  381   4.312   4.100   3.258
    1C        C  382   4.175   4.260   3.379
    1C        C  383   4.275   4.160   3.381
    1C        C  384   4.121   4.305   3.502
    1C        C  385   4.177   4.265   3.625
    1C        C  386   4.003   4.388   3.745
    1C        C  387   4.118   4.307   3.747
    1C        C  388   3.945   4.427   3.868
    1C        C  389   4.003   4.389   3.991
    1C        C  390   3.815   4.485   4.109
    1C        C  391   3.945   4.429   4.113
    1C        C  392   3.752   4.521   4.230
    1C        C  393   3.822   4.508   4.353
    1C        C  394   3.617   4.556   4.476
    1C        C  395   3.757   4.537   4.474
    1C        C  396   3.545   4.563   4.598
    1C        C  397   3.620   4.567   4.717
    1C        C  398   3.411   4.558   4.842
    1C        C  399   3.550   4.584   4.838
    1C        C  400   3.344   4.518   4.959
    1C        C  401   4.503   3.706   2.051
    1C        C  402   4.455   3.918   2.170
    1C        C  403   4.491   3.782   2.168
    1C        C  404   4.416   3.983   2.289
    1C        C  405   4.443   3.916   2.410
    1C        C  406   4.331   4.100   2.528
    1C        C  407   4.398   3.976   2.530
    1C        C  408   4.280   4.152   2.649
    1C        C  409   4.326   4.099   2.772
    1C        C  410   4.173   4.251   2.892
    1C        C  411   4.279   4.158   2.891
    1C        C  412   4.116   4.295   3.013
    1C        C  413   4.173   4.254   3.136
    1C        C  414   4.001   4.380   3.255
    1C        C  415   4.118   4.302   3.257
    1C        C  416   3.941   4.414   3.378
    1C        C  417   4.001   4.380   3.501
    1C        C  418   3.808   4.472   3.621
    1C        C  419   3.937   4.413   3.622
    1C        C  420   3.744   4.499   3.744
    1C        C  421   3.814   4.479   3.865
    1C        C  422   3.610   4.536   3.988
    1C        C  423   3.747   4.505   3.987
    1C        C  424   3.543   4.548   4.113
    1C        C  425   3.613   4.544   4.236
    1C        C  426   3.400   4.556   4.359
    1C        C  427   3.541   4.559   4.356
    1C        C  428   3.329   4.551   4.481
    1C        C  429   3.404   4.556   4.601
    1C        C  430   3.196   4.518   4.725
    1C        C  431   3.335   4.549   4.724
    1C        C  432   3.127   4.491   4.846
    1C        C  433   3.208   4.493   4.961
    1C        C  434   4.383   4.124   2.051
    1C        C  435   4.447   4.000   2.056
    1C        C  436   4.303   4.163   2.163
    1C        C  437   4.330   4.097   2.286
    1C        C  438   4.187   4.255   2.404
    1C        C  439   4.287   4.156   2.406
    1C        C  440   4.126   4.297   2.524
    1C        C  441   4.176   4.247   2.646
    1C        C  442   4.004   4.374   2.767
    1C        C  443   4.122   4.295   2.768
    1C        C  444   3.945   4.417   2.887
    1C        C  445   4.003   4.380   3.010
    1C        C  446   3.810   4.469   3.130
    1C        C  447   3.941   4.416   3.132
    1C        C  448   3.745   4.491   3.253
    1C        C  449   3.810   4.469   3.377
    1C        C  450   3.606   4.528   3.499
    1C        C  451   3.744   4.499   3.498
    1C        C  452   3.537   4.535   3.622
    1C        C  453   3.607   4.531   3.745
    1C        C  454   3.396   4.549   3.870
    1C        C  455   3.538   4.547   3.867
    1C        C  456   3.330   4.544   3.994
    1C        C  457   3.402   4.549   4.116
    1C        C  458   3.193   4.509   4.238
    1C        C  459   3.330   4.545   4.237
    1C        C  460   3.126   4.489   4.361
    1C        C  461   3.191   4.522   4.483
    1C        C  462   2.996   4.438   4.604
    1C        C  463   3.124   4.499   4.605
    1C        C  464   2.934   4.402   4.725
    1C        C  465   2.994   4.440   4.848
    1C        C  466   2.800   4.339   4.962
    1C        C  467   2.908   4.428   4.962
    1C        C  468   4.128   4.292   2.043
    1C        C  469   4.189   4.250   2.161
    1C        C  470   4.008   4.371   2.280
    1C        C  471   4.130   4.298   2.282
    1C        C  472   3.942   4.404   2.401
    1C        C  473   4.003   4.367   2.523
    1C        C  474   3.811   4.461   2.644
    1C        C  475   3.940   4.402   2.644
    1C        C  476   3.743   4.489   2.764
    1C        C  477   3.814   4.471   2.885
    1C        C  478   3.607   4.522   3.011
    1C        C  479   3.744   4.489   3.007
    1C        C  480   3.536   4.530   3.133
    1C        C  481   3.607   4.520   3.254
    1C        C  482   3.396   4.538   3.379
    1C        C  483   3.537   4.535   3.376
    1C        C  484   3.323   4.536   3.501
    1C        C  485   3.396   4.545   3.622
    1C        C  486   3.192   4.509   3.747
    1C        C  487   3.329   4.544   3.746
    1C        C  488   3.127   4.486   3.870
    1C        C  489   3.194   4.509   3.993
    1C        C  490   3.002   4.420   4.116
    1C        C  491   3.128   4.484   4.116
    1C        C  492   2.942   4.387   4.240
    1C        C  493   2.999   4.428   4.362
    1C        C  494   2.831   4.299   4.484
    1C        C  495   2.937   4.392   4.484
    1C        C  496   2.775   4.255   4.606
    1C        C  497   2.822   4.314   4.726
    1C        C  498   2.669   4.165   4.846
    1C        C  499   2.756   4.276   4.845
    1C        C  500   2.600   4.118   4.959
    1C        C  501   4.010   4.367   2.040
    1C        C  502   3.819   4.465   2.155
    1C        C  503   3.947   4.407   2.158
    1C        C  504   3.747   4.478   2.275
    1C        C  505   3.811   4.456   2.399
    1C        C  506   3.607   4.514   2.521
    1C        C  507   3.745   4.484   2.521
    1C        C  508   3.535   4.520   2.643
    1C        C  509   3.605   4.519   2.765
    1C        C  510   3.395   4.526   2.889
    1C        C  511   3.536   4.525   2.888
    1C        C  512   3.323   4.528   3.010
    1C        C  513   3.395   4.533   3.132
    1C        C  514   3.189   4.504   3.257
    1C        C  515   3.327   4.533   3.256
    1C        C  516   3.119   4.480   3.377
    1C        C  517   3.186   4.504   3.499
    1C        C  518   2.999   4.421   3.627
    1C        C  519   3.123   4.489   3.625
    1C        C  520   2.946   4.374   3.750
    1C        C  521   3.004   4.416   3.871
    1C        C  522   2.837   4.288   3.995
    1C        C  523   2.945   4.378   3.994
    1C        C  524   2.789   4.241   4.120
    1C        C  525   2.832   4.298   4.242
    1C        C  526   2.696   4.134   4.366
    1C        C  527   2.779   4.248   4.363
    1C        C  528   2.652   4.080   4.489
    1C        C  529   2.688   4.144   4.609
    1C        C  530   2.584   3.958   4.732
    1C        C  531   2.642   4.088   4.731
    1C        C  532   2.544   3.899   4.855
    1C        C  533   2.530   3.997   4.959
    1C        C  534   3.619   4.559   2.039
    1C        C  535   3.753   4.517   2.042
    1C        C  536   3.539   4.540   2.157
    1C        C  537   3.609   4.511   2.277
    1C        C  538   3.396   4.516   2.401
    1C        C  539   3.537   4.521   2.399
    1C        C  540   3.325   4.512   2.523
    1C        C  541   3.394   4.516   2.646
    1C        C  542   3.184   4.489   2.766
    1C        C  543   3.323   4.514   2.768
    1C        C  544   3.119   4.466   2.889
    1C        C  545   3.186   4.491   3.011
    1C        C  546   2.998   4.406   3.137
    1C        C  547   3.122   4.475   3.136
    1C        C  548   2.939   4.369   3.260
    1C        C  549   2.995   4.412   3.382
    1C        C  550   2.830   4.287   3.506
    1C        C  551   2.939   4.377   3.507
    1C        C  552   2.779   4.238   3.629
    1C        C  553   2.838   4.283   3.749
    1C        C  554   2.706   4.121   3.878
    1C        C  555   2.792   4.233   3.873
    1C        C  556   2.666   4.064   4.001
    1C        C  557   2.705   4.128   4.121
    1C        C  558   2.605   3.943   4.247
    1C        C  559   2.666   4.070   4.243
    1C        C  560   2.572   3.880   4.369
    1C        C  561   2.591   3.953   4.489
    1C        C  562   2.532   3.750   4.614
    1C        C  563   2.562   3.888   4.611
    1C        C  564   2.511   3.683   4.736
    1C        C  565   2.519   3.759   4.856
    1C        C  566   2.531   3.547   4.976
    1C        C  567   2.523   3.685   4.976
    1C        C  568   3.330   4.475   2.043
    1C        C  569   3.399   4.515   2.158
    1C        C  570   3.191   4.470   2.284
    1C        C  571   3.325   4.516   2.279
    1C        C  572   3.121   4.454   2.405
    1C        C  573   3.186   4.485   2.526
    1C        C  574   2.984   4.410   2.649
    1C        C  575   3.112   4.471   2.645
    1C        C  576   2.927   4.370   2.772
    1C        C  577   2.993   4.402   2.893
    1C        C  578   2.826   4.277   3.018
    1C        C  579   2.937   4.364   3.017
    1C        C  580   2.778   4.227   3.141
    1C        C  581   2.832   4.276   3.262
    1C        C  582   2.698   4.116   3.385
    1C        C  583   2.783   4.229   3.386
    1C        C  584   2.668   4.058   3.510
    1C        C  585   2.699   4.121   3.633
    1C        C  586   2.607   3.933   3.756
    1C        C  587   2.663   4.063   3.757
    1C        C  588   2.583   3.868   3.879
    1C        C  589   2.607   3.935   4.001
    1C        C  590   2.544   3.738   4.129
    1C        C  591   2.584   3.873   4.125
    1C        C  592   2.528   3.672   4.253
    1C        C  593   2.530   3.746   4.373
    1C        C  594   2.511   3.534   4.497
    1C        C  595   2.519   3.675   4.495
    1C        C  596   2.510   3.465   4.621
    1C        C  597   2.505   3.541   4.740
    1C        C  598   2.535   3.328   4.862
    1C        C  599   2.523   3.469   4.860
    1C        C  600   2.532   3.252   4.979
    1C        C  601   3.198   4.435   2.046
    1C        C  602   2.985   4.394   2.163
    1C        C  603   3.122   4.436   2.164
    1C        C  604   2.923   4.363   2.287
    1C        C  605   2.992   4.395   2.406
    1C        C  606   2.821   4.271   2.532
    1C        C  607   2.931   4.360   2.528
    1C        C  608   2.771   4.222   2.655
    1C        C  609   2.822   4.276   2.775
    1C        C  610   2.684   4.115   2.897
    1C        C  611   2.772   4.226   2.898
    1C        C  612   2.650   4.055   3.020
    1C        C  613   2.691   4.115   3.141
    1C        C  614   2.594   3.929   3.267
    1C        C  615   2.656   4.056   3.265
    1C        C  616   2.572   3.866   3.392
    1C        C  617   2.605   3.932   3.512
    1C        C  618   2.547   3.728   3.637
    1C        C  619   2.586   3.864   3.635
    1C        C  620   2.525   3.663   3.761
    1C        C  621   2.540   3.733   3.882
    1C        C  622   2.510   3.527   4.010
    1C        C  623   2.533   3.667   4.007
    1C        C  624   2.512   3.458   4.133
    1C        C  625   2.512   3.532   4.253
    1C        C  626   2.532   3.322   4.380
    1C        C  627   2.512   3.461   4.376
    1C        C  628   2.553   3.253   4.502
    1C        C  629   2.533   3.326   4.621
    1C        C  630   2.594   3.120   4.747
    1C        C  631   2.546   3.254   4.742
    1C        C  632   2.617   3.052   4.870
    1C        C  633   2.561   3.115   4.985
    1C        C  634   2.784   4.302   2.055
    1C        C  635   2.896   4.387   2.052
    1C        C  636   2.751   4.230   2.171
    1C        C  637   2.812   4.274   2.290
    1C        C  638   2.678   4.109   2.411
    1C        C  639   2.765   4.221   2.412
    1C        C  640   2.644   4.050   2.535
    1C        C  641   2.685   4.110   2.656
    1C        C  642   2.589   3.921   2.777
    1C        C  643   2.647   4.050   2.778
    1C        C  644   2.566   3.857   2.901
    1C        C  645   2.595   3.925   3.021
    1C        C  646   2.536   3.725   3.151
    1C        C  647   2.571   3.862   3.145
    1C        C  648   2.515   3.657   3.273
    1C        C  649   2.533   3.730   3.392
    1C        C  650   2.513   3.519   3.519
    1C        C  651   2.530   3.659   3.515
    1C        C  652   2.513   3.451   3.643
    1C        C  653   2.517   3.522   3.765
    1C        C  654   2.531   3.316   3.891
    1C        C  655   2.507   3.455   3.889
    1C        C  656   2.551   3.250   4.015
    1C        C  657   2.532   3.318   4.137
    1C        C  658   2.606   3.120   4.262
    1C        C  659   2.553   3.251   4.260
    1C        C  660   2.627   3.052   4.384
    1C        C  661   2.596   3.118   4.505
    1C        C  662   2.713   2.941   4.628
    1C        C  663   2.628   3.055   4.627
    1C        C  664   2.748   2.879   4.749
    1C        C  665   2.700   2.935   4.871
    1C        C  666   2.751   2.874   4.986
    1C        C  667   2.690   4.023   2.057
    1C        C  668   2.687   4.104   2.172
    1C        C  669   2.589   3.912   2.295
    1C        C  670   2.644   4.043   2.291
    1C        C  671   2.559   3.850   2.418
    1C        C  672   2.588   3.920   2.537
    1C        C  673   2.522   3.716   2.661
    1C        C  674   2.559   3.852   2.657
    1C        C  675   2.508   3.649   2.785
    1C        C  676   2.527   3.721   2.905
    1C        C  677   2.506   3.513   3.031
    1C        C  678   2.523   3.654   3.029
    1C        C  679   2.511   3.442   3.153
    1C        C  680   2.507   3.515   3.274
    1C        C  681   2.532   3.307   3.400
    1C        C  682   2.512   3.447   3.397
    1C        C  683   2.548   3.241   3.524
    1C        C  684   2.532   3.311   3.645
    1C        C  685   2.596   3.113   3.773
    1C        C  686   2.551   3.247   3.770
    1C        C  687   2.630   3.051   3.895
    1C        C  688   2.602   3.118   4.017
    1C        C  689   2.710   2.937   4.141
    1C        C  690   2.635   3.056   4.140
    1C        C  691   2.753   2.881   4.263
    1C        C  692   2.705   2.934   4.385
    1C        C  693   2.749   2.879   4.507
    1C        C  694   2.636   3.894   2.059
    1C        C  695   2.532   3.705   2.177
    1C        C  696   2.586   3.835   2.176
    1C        C  697   2.507   3.640   2.300
    1C        C  698   2.519   3.714   2.419
    1C        C  699   2.488   3.505   2.544
    1C        C  700   2.498   3.646   2.541
    1C        C  701   2.496   3.435   2.667
    1C        C  702   2.501   3.508   2.788
    1C        C  703   2.517   3.298   2.913
    1C        C  704   2.501   3.439   2.911
    1C        C  705   2.539   3.228   3.033
    1C        C  706   2.532   3.302   3.153
    1C        C  707   2.602   3.107   3.278
    1C        C  708   2.551   3.239   3.278
    1C        C  709   2.630   3.047   3.403
    1C        C  710   2.603   3.111   3.526
    1C        C  711   2.704   2.930   3.650
    1C        C  712   2.630   3.051   3.651
    1C        C  713   2.748   2.874   3.772
    1C        C  714   2.708   2.933   3.894
    1C        C  715   2.750   2.880   4.018
    1C        C  716   2.453   3.503   2.064
    1C        C  717   2.499   3.636   2.060
    1C        C  718   2.468   3.424   2.182
    1C        C  719   2.484   3.499   2.301
    1C        C  720   2.508   3.290   2.426
    1C        C  721   2.486   3.429   2.424
    1C        C  722   2.535   3.224   2.548
    1C        C  723   2.521   3.296   2.669
    1C        C  724   2.586   3.096   2.792
    1C        C  725   2.532   3.227   2.792
    1C        C  726   2.611   3.028   2.913
    1C        C  727   2.583   3.093   3.036
    1C        C  728   2.709   2.922   3.161
    1C        C  729   2.627   3.037   3.158
    1C        C  730   2.748   2.868   3.286
    1C        C  731   2.707   2.928   3.407
    1C        C  732   2.752   2.874   3.529
    1C        C  733   2.497   3.199   2.073
    1C        C  734   2.490   3.282   2.185
    1C        C  735   2.579   3.086   2.308
    1C        C  736   2.521   3.216   2.307
    1C        C  737   2.613   3.021   2.429
    1C        C  738   2.584   3.092   2.548
    1C        C  739   2.694   2.911   2.672
    1C        C  740   2.619   3.031   2.671
    1C        C  741   2.742   2.857   2.793
    1C        C  742   2.699   2.918   2.914
    1C        C  743   2.752   2.871   3.037
    1C        C  744   2.552   3.071   2.072
    1C        C  745   2.686   2.899   2.189
    1C        C  746   2.608   3.017   2.188
    1C        C  747   2.732   2.843   2.310
    1C        C  748   2.691   2.904   2.431
    1C        C  749   2.741   2.852   2.553
    1C        C  750   2.745   2.851   2.071
    1C        C  751   3.655   2.293   2.005
    1C        O  752   3.684   2.196   2.080
    1C        O  753   3.683   2.286   1.868
    1C        C  754   4.643   3.051   2.000
    1C        O  755   4.636   3.027   1.877
    1C        O  756   4.754   2.990   2.062
    1C        C  757   4.445   4.213   1.950
    1C        O  758   4.528   4.303   1.982
    1C        O  759   4.391   4.250   1.826
    1C        C  760   3.592   4.667   1.942
    1C        O  761   3.638   4.779   1.979
    1C        O  762   3.619   4.648   1.806
    1C        C  763   2.899   4.472   1.931
    1C        O  764   2.927   4.425   1.817
    1C        O  765   2.840   4.600   1.931
    1C        C  766   2.360   3.481   1.951
    1C        O  767   2.393   3.431   1.840
    1C        O  768   2.222   3.482   1.973
    1C        C  769   4.675   3.583   5.072
    1C        O  770   4.627   3.596   5.187
    1C        O  771   4.813   3.598   5.054
    1C        C  772   4.276   4.449   5.035
    1C        O  773   4.275   4.436   5.161
    1C        O  774   4.399   4.498   4.988
    1C        C  775   4.147   2.515   5.071
    1C        O  776   4.220   2.424   5.024
    1C        O  777   4.112   2.501   5.206
    1C        C  778   2.892   4.547   5.048
    1C        O  779   2.814   4.638   5.008
    1C        O  780   2.899   4.545   5.188
    1C        C  781   2.495   3.044   5.098
    1C        O  782   2.378   3.002   5.083
    1C        O  783   2.536   3.068   5.228
    1C        C  784   2.408   3.994   5.042
    1C        O  785   2.293   4.026   5.001
    1C        O  786   2.427   3.973   5.179
    1C        C  787   2.957   2.434   1.989
    1C        O  788   2.957   2.457   1.865
    1C        O  789   2.908   2.305   2.004
    1C        C  790   3.190   2.388   5.076
    1C        O  791   3.129   2.279   5.055
    1C        O  792   3.222   2.410   5.210
    1C        H  793   4.321   2.996   5.073
    1C        H  794   4.188   2.806   5.068
    1C        H  795   4.546   3.131   5.037
    1C        H  796   4.535   3.364   5.068
    1C        H  797   4.592   3.822   5.028
    1C        H  798   4.424   3.978   5.059
    1C        H  799   4.252   4.142   5.040
    1C        H  800   4.009   4.490   5.039
    1C        H  801   3.814   4.571   5.045
    1C        H  802   3.590   4.631   5.045
    1C        H  803   3.402   4.468   5.034
    1C        H  804   3.162   4.497   5.057
    1C        H  805   3.889   2.479   5.067
    1C        H  806   3.672   2.431   5.071
    1C        H  807   2.991   2.521   5.033
    1C        H  808   3.438   2.507   5.071
    1C        H  809   2.867   2.731   5.080
    1C        H  810   2.683   2.866   5.069
    1C        H  811   2.456   3.281   5.049
    1C        H  812   2.512   3.500   5.071
    1C        H  813   2.534   3.735   5.070
    1C        H  814   2.569   4.186   5.035
    1C        H  815   2.763   4.306   5.057
    1C        H  816   2.764   2.917   1.989
    1C        H  817   2.807   2.673   1.991
    1C        H  818   3.217   2.467   1.985
    1C        H  819   3.440   2.482   1.982
    1C        H  820   3.846   2.545   1.976
    1C        H  821   4.083   2.567   1.982
    1C        H  822   4.249   2.715   1.980
    1C        H  823   4.407   2.899   1.976
    1C        H  824   4.565   3.309   1.970
    1C        H  825   4.461   3.521   1.969
    1C        H  826   4.562   3.751   1.974
    1C        H  827   3.804   4.520   1.949
    1C        H  828   3.960   4.365   1.945
    1C        H  829   4.152   4.240   1.952
    1C        H  830   4.527   3.981   1.988
    1C        H  831   2.645   3.845   1.965
    1C        H  832   2.759   4.047   1.979
    1C        H  833   2.710   4.322   1.980
    1C        H  834   3.392   4.426   1.971
    1C        H  835   3.178   4.352   1.981
    1C        H  836   2.497   3.001   2.012
    1C        H  837   2.418   3.214   2.002
    1C        H  838   2.521   3.681   1.965
    2V3OU   H29  839   2.806   3.551   2.502
    2V3OU   C27  840   2.789   3.504   2.602
    2V3OU   H27  841   2.736   3.574   2.671
    2V3OU   H28  842   2.736   3.407   2.586
    2V3OU   O11  843   2.914   3.482   2.670
    2V3OU   C15  844   2.928   3.400   2.780
    2V3OU   C13  845   3.056   3.383   2.835
    2V3OU   C14  846   3.078   3.275   2.921
    2V3OU   C16  847   2.978   3.190   2.968
    2V3OU    H6  848   2.996   3.101   3.030
    2V3OU   C12  849   3.212   3.234   2.969
    2V3OU    O2  850   3.238   3.126   3.027
    2V3OU   C10  851   3.323   3.313   2.913
    2V3OU    C8  852   3.454   3.273   2.933
    2V3OU   O10  853   3.490   3.155   2.992
    2V3OU   H26  854   3.408   3.121   3.032
    2V3OU    C6  855   3.566   3.351   2.891
    2V3OU    C5  856   3.540   3.467   2.820
    2V3OU    C4  857   3.705   3.296   2.898
    2V3OU    H4  858   3.722   3.227   2.985
    2V3OU    H5  859   3.712   3.228   2.808
    2V3OU    C2  860   3.820   3.396   2.900
    2V3OU    O6  861   3.811   3.479   3.016
    2V3OU   H21  862   3.766   3.557   2.978
    2V3OU    C3  863   3.785   3.495   2.788
    2V3OU    H2  864   3.865   3.573   2.788
    2V3OU    H3  865   3.785   3.443   2.688
    2V3OU   C25  866   3.955   3.328   2.872
    2V3OU    O7  867   3.999   3.298   2.762
    2V3OU   C26  868   4.037   3.292   2.995
    2V3OU   H22  869   4.073   3.381   3.053
    2V3OU   H23  870   4.124   3.228   2.965
    2V3OU    O8  871   3.965   3.208   3.082
    2V3OU   H24  872   3.927   3.262   3.153
    2V3OU    C1  873   3.651   3.566   2.799
    2V3OU    H1  874   3.628   3.622   2.703
    2V3OU    O3  875   3.658   3.657   2.909
    2V3OU   C19  876   3.621   3.794   2.888
    2V3OU    H9  877   3.525   3.805   2.831
    2V3OU    O4  878   3.713   3.852   2.799
    2V3OU   C20  879   3.846   3.874   2.848
    2V3OU   H10  880   3.904   3.779   2.869
    2V3OU   C24  881   3.612   3.862   3.025
    2V3OU   H16  882   3.544   3.797   3.086
    2V3OU   H17  883   3.561   3.961   3.011
    2V3OU   C23  884   3.752   3.879   3.086
    2V3OU   H15  885   3.791   3.776   3.116
    2V3OU    N1  886   3.743   3.960   3.205
    2V3OU   H19  887   3.812   3.918   3.264
    2V3OU   H20  888   3.657   3.939   3.253
    2V3OU   C21  889   3.846   3.947   2.982
    2V3OU   H11  890   3.953   3.926   3.015
    2V3OU    O5  891   3.826   4.088   2.978
    2V3OU   H18  892   3.782   4.107   3.063
    2V3OU   C22  893   3.914   3.951   2.736
    2V3OU   H12  894   3.863   4.048   2.717
    2V3OU   H13  895   3.907   3.892   2.641
    2V3OU   H14  896   4.022   3.970   2.762
    2V3OU   C11  897   3.163   3.473   2.789
    2V3OU    O1  898   3.140   3.584   2.738
    2V3OU    C9  899   3.296   3.430   2.838
    2V3OU    C7  900   3.405   3.503   2.791
    2V3OU    O9  901   3.388   3.622   2.723
    2V3OU   H25  902   3.293   3.624   2.706
    2V3OU   C17  903   2.825   3.315   2.826
    2V3OU    H7  904   2.729   3.347   2.785
    2V3OU   C18  905   2.850   3.217   2.920
    2V3OU    H8  906   2.780   3.168   2.990
    3SOL     OW  907   2.457   5.406   0.329
    3SOL    HW1  908   2.495   5.421   0.420
    3SOL    HW2  909   2.434   5.494   0.287
    4SOL     OW  910   6.718   0.330   2.287
    4SOL    HW1  911   6.637   0.313   2.231
    4SOL    HW2  912   6.698   0.313   2.383
    5SOL     OW  913   4.314   1.658   2.521
    5SOL    HW1  914   4.364   1.707   2.450
    5SOL    HW2  915   4.236   1.712   2.552
    6SOL     OW  916   4.049   0.902   1.627
    6SOL    HW1  917   4.098   0.884   1.712
    6SOL    HW2  918   4.077   0.837   1.557
    7SOL     OW  919   0.119   4.192   3.033
    7SOL    HW1  920   0.118   4.291   3.023
    7SOL    HW2  921   0.027   4.156   3.016
    8SOL     OW  922   3.420   0.998   6.305
    8SOL    HW1  923   3.323   1.000   6.279
    8SOL    HW2  924   3.427   0.994   6.405
    9SOL     OW  925   4.784   0.863   5.592
    9SOL    HW1  926   4.825   0.774   5.571
    9SOL    HW2  927   4.736   0.897   5.512
   10SOL     OW  928   2.025   4.764   5.241
   10SOL    HW1  929   1.959   4.749   5.315
   10SOL    HW2  930   2.117   4.746   5.275
   11SOL     OW  931   2.796   0.676   5.770
   11SOL    HW1  932   2.713   0.627   5.798
   11SOL    HW2  933   2.782   0.715   5.679
   12SOL     OW  934   3.241   5.881   3.563
   12SOL    HW1  935   3.161   5.868   3.505
   12SOL    HW2  936   3.252   5.802   3.623
   13SOL     OW  937   4.005   6.246   3.496
   13SOL    HW1  938   4.059   6.180   3.445
   13SOL    HW2  939   3.945   6.197   3.560
   14SOL     OW  940   3.906   5.352   6.363
   14SOL    HW1  941   3.976   5.421   6.377
   14SOL    HW2  942   3.949   5.262   6.352
   15SOL     OW  943   0.954   6.628   2.012
   15SOL    HW1  944   0.983   6.587   1.925
   15SOL    HW2  945   0.889   6.567   2.057
   16SOL     OW  946   5.678   2.473   6.089
   16SOL    HW1  947   5.708   2.485   6.184
   16SOL    HW2  948   5.712   2.550   6.035
   17SOL     OW  949   5.635   6.093   6.794
   17SOL    HW1  950   5.621   6.084   6.696
   17SOL    HW2  951   5.720   6.047   6.820
   18SOL     OW  952   3.169   0.973   5.304
   18SOL    HW1  953   3.251   1.028   5.321
   18SOL    HW2  954   3.163   0.901   5.373
   19SOL     OW  955   0.069   1.258   2.993
   19SOL    HW1  956   0.075   1.212   3.082
   19SOL    HW2  957   0.089   1.193   2.920
   20SOL     OW  958   5.270   1.595   4.041
   20SOL    HW1  959   5.292   1.577   4.137
   20SOL    HW2  960   5.244   1.691   4.031
   21SOL     OW  961   3.237   1.328   2.550
   21SOL    HW1  962   3.239   1.293   2.456
   21SOL    HW2  963   3.265   1.255   2.613
   22SOL     OW  964   1.222   6.256   6.919
   22SOL    HW1  965   1.153   6.190   6.948
   22SOL    HW2  966   1.204   6.282   6.824
   23SOL     OW  967   6.029   5.313   2.616
   23SOL    HW1  968   6.081   5.247   2.670
   23SOL    HW2  969   5.933   5.286   2.613
   24SOL     OW  970   3.434   0.224   3.309
   24SOL    HW1  971   3.445   0.172   3.394
   24SOL    HW2  972   3.417   0.321   3.331
   25SOL     OW  973   3.718   0.494   4.537
   25SOL    HW1  974   3.667   0.431   4.595
   25SOL    HW2  975   3.750   0.445   4.455
   26SOL     OW  976   6.816   0.547   0.564
   26SOL    HW1  977   6.816   0.479   0.637
   26SOL    HW2  978   6.725   0.589   0.558
   27SOL     OW  979   1.904   1.800   2.876
   27SOL    HW1  980   1.894   1.872   2.945
   27SOL    HW2  981   2.000   1.794   2.848
   28SOL     OW  982   2.526   1.012   5.934
   28SOL    HW1  983   2.513   0.935   5.997
   28SOL    HW2  984   2.496   0.985   5.842
   29SOL     OW  985   6.224   2.032   2.082
   29SOL    HW1  986   6.153   2.102   2.086
   29SOL    HW2  987   6.233   1.988   2.172
   30SOL     OW  988   3.685   1.138   3.755
   30SOL    HW1  989   3.592   1.160   3.784
   30SOL    HW2  990   3.717   1.207   3.689
   31SOL     OW  991   0.695   2.397   6.412
   31SOL    HW1  992   0.705   2.356   6.321
   31SOL    HW2  993   0.634   2.476   6.407
   32SOL     OW  994   6.811   1.831   2.868
   32SOL    HW1  995   6.756   1.748   2.865
   32SOL    HW2  996   6.760   1.906   2.825
   33SOL     OW  997   1.171   4.861   5.470
   33SOL    HW1  998   1.137   4.882   5.379
   33SOL    HW2  999   1.139   4.770   5.498
   34SOL     OW 1000   2.644   6.875   4.940
   34SOL    HW1 1001   2.700   6.822   5.003
   34SOL    HW2 1002   2.564   6.822   4.913
   35SOL     OW 1003   4.387   3.270   6.641
   35SOL    HW1 1004   4.399   3.299   6.546
   35SOL    HW2 1005   4.374   3.350   6.699
   36SOL     OW 1006   5.673   0.874   4.960
   36SOL    HW1 1007   5.651   0.956   5.013
   36SOL    HW2 1008   5.679   0.795   5.021
   37SOL     OW 1009   1.260   1.988   6.527
   37SOL    HW1 1010   1.193   2.061   6.531
   37SOL    HW2 1011   1.329   2.002   6.598
   38SOL     OW 1012   0.707   5.436   2.408
   38SOL    HW1 1013   0.613   5.403   2.396
   38SOL    HW2 1014   0.733   5.427   2.504
   39SOL     OW 1015   6.889   4.111   6.659
   39SOL    HW1 1016   6.975   4.146   6.693
   39SOL    HW2 1017   6.827   4.186   6.640
   40SOL     OW 1018   4.532   1.637   0.625
   40SOL    HW1 1019   4.499   1.656   0.533
   40SOL    HW2 1020   4.599   1.707   0.651
   41SOL     OW 1021   6.871   4.746   3.541
   41SOL    HW1 1022   6.803   4.751   3.614
   41SOL    HW2 1023   6.826   4.725   3.454
   42SOL     OW 1024   3.044   5.129   4.246
   42SOL    HW1 1025   2.979   5.058   4.220
   42SOL    HW2 1026   2.995   5.210   4.278
   43SOL     OW 1027   4.667   6.770   5.665
   43SOL    HW1 1028   4.639   6.866   5.670
   43SOL    HW2 1029   4.616   6.725   5.592
   44SOL     OW 1030   4.416   2.069   6.293
   44SOL    HW1 1031   4.353   2.135   6.333
   44SOL    HW2 1032   4.421   2.084   6.194
   45SOL     OW 1033   4.896   6.049   1.639
   45SOL    HW1 1034   4.833   5.973   1.656
   45SOL    HW2 1035   4.860   6.132   1.681
   46SOL     OW 1036   0.978   3.357   3.261
   46SOL    HW1 1037   0.971   3.456   3.249
   46SOL    HW2 1038   0.950   3.332   3.354
   47SOL     OW 1039   4.517   4.447   0.871
   47SOL    HW1 1040   4.491   4.527   0.927
   47SOL    HW2 1041   4.464   4.367   0.901
   48SOL     OW 1042   6.575   3.019   6.511
   48SOL    HW1 1043   6.604   3.115   6.520
   48SOL    HW2 1044   6.488   3.006   6.558
   49SOL     OW 1045   5.729   3.279   1.445
   49SOL    HW1 1046   5.769   3.337   1.516
   49SOL    HW2 1047   5.757   3.314   1.355
   50SOL     OW 1048   5.752   1.231   4.832
   50SOL    HW1 1049   5.764   1.328   4.812
   50SOL    HW2 1050   5.669   1.197   4.787
   51SOL     OW 1051   2.243   6.589   3.509
   51SOL    HW1 1052   2.228   6.680   3.470
   51SOL    HW2 1053   2.155   6.544   3.524
   52SOL     OW 1054   6.060   3.373   2.558
   52SOL    HW1 1055   5.972   3.374   2.511
   52SOL    HW2 1056   6.100   3.281   2.551
   53SOL     OW 1057   4.767   6.701   3.655
   53SOL    HW1 1058   4.799   6.698   3.750
   53SOL    HW2 1059   4.667   6.697   3.654
   54SOL     OW 1060   4.394   5.257   1.199
   54SOL    HW1 1061   4.363   5.346   1.234
   54SOL    HW2 1062   4.453   5.271   1.119
   55SOL     OW 1063   1.728   2.942   6.247
   55SOL    HW1 1064   1.742   3.039   6.228
   55SOL    HW2 1065   1.645   2.910   6.201
   56SOL     OW 1066   0.414   0.977   0.989
   56SOL    HW1 1067   0.320   1.006   1.008
   56SOL    HW2 1068   0.421   0.878   1.000
   57SOL     OW 1069   4.546   0.791   1.286
   57SOL    HW1 1070   4.470   0.814   1.347
   57SOL    HW2 1071   4.513   0.730   1.215
   58SOL     OW 1072   0.424   0.034   5.358
   58SOL    HW1 1073   0.330   0.019   5.326
   58SOL    HW2 1074   0.488   7.018   5.294
   59SOL     OW 1075   0.630   2.670   6.047
   59SOL    HW1 1076   0.723   2.706   6.049
   59SOL    HW2 1077   0.568   2.736   6.091
   60SOL     OW 1078   5.368   2.852   4.383
   60SOL    HW1 1079   5.454   2.868   4.334
   60SOL    HW2 1080   5.340   2.935   4.430
   61SOL     OW 1081   6.878   2.036   3.913
   61SOL    HW1 1082   6.911   1.964   3.852
   61SOL    HW2 1083   6.937   2.041   3.994
   62SOL     OW 1084   0.995   0.735   1.433
   62SOL    HW1 1085   0.993   0.692   1.523
   62SOL    HW2 1086   1.039   0.673   1.367
   63SOL     OW 1087   5.451   1.442   3.840
   63SOL    HW1 1088   5.451   1.363   3.902
   63SOL    HW2 1089   5.358   1.477   3.832
   64SOL     OW 1090   0.330   2.986   6.311
   64SOL    HW1 1091   0.312   2.956   6.405
   64SOL    HW2 1092   0.425   2.965   6.288
   65SOL     OW 1093   0.869   4.438   6.197
   65SOL    HW1 1094   0.942   4.414   6.261
   65SOL    HW2 1095   0.781   4.407   6.235
   66SOL     OW 1096   4.156   1.089   4.963
   66SOL    HW1 1097   4.223   1.017   4.984
   66SOL    HW2 1098   4.069   1.046   4.938
   67SOL     OW 1099   0.298   2.842   5.480
   67SOL    HW1 1100   0.309   2.915   5.547
   67SOL    HW2 1101   0.207   2.848   5.438
   68SOL     OW 1102   6.332   1.385   0.188
   68SOL    HW1 1103   6.378   1.323   0.252
   68SOL    HW2 1104   6.266   1.333   0.133
   69SOL     OW 1105   0.764   3.336   6.186
   69SOL    HW1 1106   0.740   3.265   6.119
   69SOL    HW2 1107   0.837   3.394   6.148
   70SOL     OW 1108   5.498   4.207   5.171
   70SOL    HW1 1109   5.445   4.240   5.249
   70SOL    HW2 1110   5.577   4.155   5.204
   71SOL     OW 1111   3.691   1.741   3.518
   71SOL    HW1 1112   3.670   1.828   3.562
   71SOL    HW2 1113   3.738   1.757   3.432
   72SOL     OW 1114   1.535   0.375   3.996
   72SOL    HW1 1115   1.619   0.405   3.950
   72SOL    HW2 1116   1.556   0.353   4.091
   73SOL     OW 1117   3.832   0.575   1.208
   73SOL    HW1 1118   3.884   0.496   1.239
   73SOL    HW2 1119   3.761   0.597   1.276
   74SOL     OW 1120   4.291   0.642   0.346
   74SOL    HW1 1121   4.193   0.624   0.353
   74SOL    HW2 1122   4.335   0.568   0.295
   75SOL     OW 1123   4.287   0.955   1.055
   75SOL    HW1 1124   4.191   0.969   1.030
   75SOL    HW2 1125   4.297   0.866   1.099
   76SOL     OW 1126   2.716   3.481   1.226
   76SOL    HW1 1127   2.801   3.432   1.249
   76SOL    HW2 1128   2.638   3.426   1.254
   77SOL     OW 1129   0.799   0.446   3.547
   77SOL    HW1 1130   0.821   0.358   3.505
   77SOL    HW2 1131   0.863   0.464   3.622
   78SOL     OW 1132   5.389   1.625   0.409
   78SOL    HW1 1133   5.481   1.584   0.412
   78SOL    HW2 1134   5.321   1.553   0.418
   79SOL     OW 1135   3.163   5.676   1.353
   79SOL    HW1 1136   3.163   5.585   1.312
   79SOL    HW2 1137   3.119   5.741   1.290
   80SOL     OW 1138   4.375   1.407   3.905
   80SOL    HW1 1139   4.399   1.327   3.852
   80SOL    HW2 1140   4.416   1.489   3.865
   81SOL     OW 1141   2.512   0.161   2.297
   81SOL    HW1 1142   2.440   0.150   2.365
   81SOL    HW2 1143   2.476   0.143   2.206
   82SOL     OW 1144   5.801   4.867   0.928
   82SOL    HW1 1145   5.737   4.811   0.981
   82SOL    HW2 1146   5.838   4.812   0.853
   83SOL     OW 1147   0.163   0.098   0.630
   83SOL    HW1 1148   0.168   0.077   0.532
   83SOL    HW2 1149   0.081   0.056   0.669
   84SOL     OW 1150   5.993   3.168   2.815
   84SOL    HW1 1151   6.055   3.146   2.740
   84SOL    HW2 1152   5.974   3.085   2.868
   85SOL     OW 1153   1.544   1.272   4.024
   85SOL    HW1 1154   1.590   1.188   4.053
   85SOL    HW2 1155   1.501   1.315   4.104
   86SOL     OW 1156   0.655   1.343   6.756
   86SOL    HW1 1157   0.597   1.408   6.804
   86SOL    HW2 1158   0.726   1.391   6.706
   87SOL     OW 1159   5.152   4.463   0.862
   87SOL    HW1 1160   5.143   4.364   0.873
   87SOL    HW2 1161   5.244   4.491   0.891
   88SOL     OW 1162   3.105   1.380   6.297
   88SOL    HW1 1163   3.107   1.462   6.240
   88SOL    HW2 1164   3.071   1.303   6.244
   89SOL     OW 1165   2.264   2.242   6.926
   89SOL    HW1 1166   2.362   2.251   6.943
   89SOL    HW2 1167   2.236   2.307   6.855
   90SOL     OW 1168   4.224   5.056   1.947
   90SOL    HW1 1169   4.169   5.054   1.863
   90SOL    HW2 1170   4.164   5.054   2.026
   91SOL     OW 1171   5.886   3.810   6.303
   91SOL    HW1 1172   5.937   3.882   6.352
   91SOL    HW2 1173   5.939   3.779   6.225
   92SOL     OW 1174   4.452   4.644   1.210
   92SOL    HW1 1175   4.376   4.635   1.276
   92SOL    HW2 1176   4.415   4.644   1.117
   93SOL     OW 1177   3.596   3.691   0.883
   93SOL    HW1 1178   3.548   3.721   0.801
   93SOL    HW2 1179   3.656   3.765   0.915
   94SOL     OW 1180   2.325   5.735   6.196
   94SOL    HW1 1181   2.356   5.640   6.194
   94SOL    HW2 1182   2.301   5.761   6.289
   95SOL     OW 1183   1.167   0.237   2.682
   95SOL    HW1 1184   1.228   0.281   2.748
   95SOL    HW2 1185   1.091   0.195   2.730
   96SOL     OW 1186   3.542   0.049   5.016
   96SOL    HW1 1187   3.515   0.079   5.107
   96SOL    HW2 1188   3.565   0.129   4.960
   97SOL     OW 1189   2.187   3.171   6.024
   97SOL    HW1 1190   2.143   3.215   6.102
   97SOL    HW2 1191   2.150   3.078   6.012
   98SOL     OW 1192   1.374   3.020   0.773
   98SOL    HW1 1193   1.356   2.925   0.798
   98SOL    HW2 1194   1.472   3.033   0.758
   99SOL     OW 1195   3.925   2.698   1.602
   99SOL    HW1 1196   3.903   2.794   1.621
   99SOL    HW2 1197   3.880   2.639   1.670
  100SOL     OW 1198   0.966   6.209   4.412
  100SOL    HW1 1199   0.893   6.171   4.356
  100SOL    HW2 1200   0.949   6.306   4.428
  101SOL     OW 1201   2.107   4.838   2.037
  101SOL    HW1 1202   2.146   4.794   2.118
  101SOL    HW2 1203   2.164   4.916   2.011
  102SOL     OW 1204   3.508   5.573   1.162
  102SOL    HW1 1205   3.438   5.643   1.145
  102SOL    HW2 1206   3.470   5.483   1.145
  103SOL     OW 1207   2.468   2.102   1.748
  103SOL    HW1 1208   2.412   2.103   1.665
  103SOL    HW2 1209   2.530   2.024   1.745
  104SOL     OW 1210   1.551   5.872   3.241
  104SOL    HW1 1211   1.467   5.915   3.209
  104SOL    HW2 1212   1.530   5.784   3.283
  105SOL     OW 1213   6.443   1.173   6.597
  105SOL    HW1 1214   6.435   1.177   6.696
  105SOL    HW2 1215   6.381   1.102   6.562
  106SOL     OW 1216   3.728   6.348   4.529
  106SOL    HW1 1217   3.786   6.303   4.597
  106SOL    HW2 1218   3.636   6.309   4.533
  107SOL     OW 1219   0.978   1.309   0.310
  107SOL    HW1 1220   1.041   1.253   0.363
  107SOL    HW2 1221   1.030   1.372   0.252
  108SOL     OW 1222   3.399   0.029   5.740
  108SOL    HW1 1223   3.427   0.012   5.834
  108SOL    HW2 1224   3.299   0.025   5.734
  109SOL     OW 1225   1.575   1.093   2.379
  109SOL    HW1 1226   1.512   1.169   2.363
  109SOL    HW2 1227   1.527   1.007   2.367
  110SOL     OW 1228   2.592   5.418   4.365
  110SOL    HW1 1229   2.626   5.510   4.347
  110SOL    HW2 1230   2.544   5.383   4.284
  111SOL     OW 1231   1.979   1.089   3.964
  111SOL    HW1 1232   2.033   1.004   3.960
  111SOL    HW2 1233   2.019   1.156   3.902
  112SOL     OW 1234   3.184   5.717   6.512
  112SOL    HW1 1235   3.277   5.713   6.477
  112SOL    HW2 1236   3.141   5.802   6.483
  113SOL     OW 1237   1.104   5.894   2.545
  113SOL    HW1 1238   1.014   5.857   2.526
  113SOL    HW2 1239   1.095   5.980   2.596
  114SOL     OW 1240   0.730   6.484   2.097
  114SOL    HW1 1241   0.671   6.490   2.177
  114SOL    HW2 1242   0.773   6.394   2.095
  115SOL     OW 1243   4.884   1.385   3.081
  115SOL    HW1 1244   4.902   1.295   3.119
  115SOL    HW2 1245   4.903   1.384   2.983
  116SOL     OW 1246   6.279   5.905   1.486
  116SOL    HW1 1247   6.370   5.880   1.453
  116SOL    HW2 1248   6.268   5.875   1.581
  117SOL     OW 1249   1.266   1.590   1.265
  117SOL    HW1 1250   1.332   1.655   1.303
  117SOL    HW2 1251   1.206   1.557   1.337
  118SOL     OW 1252   1.250   1.151   2.146
  118SOL    HW1 1253   1.205   1.099   2.074
  118SOL    HW2 1254   1.187   1.163   2.223
  119SOL     OW 1255   0.116   0.364   0.662
  119SOL    HW1 1256   0.118   0.265   0.670
  119SOL    HW2 1257   0.203   0.396   0.624
  120SOL     OW 1258   5.078   1.339   5.659
  120SOL    HW1 1259   5.013   1.413   5.675
  120SOL    HW2 1260   5.047   1.257   5.707
  121SOL     OW 1261   1.911   2.785   0.202
  121SOL    HW1 1262   1.915   2.685   0.202
  121SOL    HW2 1263   1.998   2.822   0.233
  122SOL     OW 1264   1.531   3.597   6.660
  122SOL    HW1 1265   1.577   3.534   6.722
  122SOL    HW2 1266   1.439   3.563   6.640
  123SOL     OW 1267   0.807   1.405   2.800
  123SOL    HW1 1268   0.776   1.334   2.863
  123SOL    HW2 1269   0.906   1.415   2.805
  124SOL     OW 1270   3.970   2.442   0.918
  124SOL    HW1 1271   4.026   2.503   0.862
  124SOL    HW2 1272   3.975   2.349   0.880
  125SOL     OW 1273   3.743   2.161   0.513
  125SOL    HW1 1274   3.739   2.232   0.584
  125SOL    HW2 1275   3.731   2.203   0.423
  126SOL     OW 1276   3.087   4.090   1.515
  126SOL    HW1 1277   3.031   4.165   1.479
  126SOL    HW2 1278   3.077   4.085   1.614
  127SOL     OW 1279   0.896   4.871   6.808
  127SOL    HW1 1280   0.923   4.893   6.901
  127SOL    HW2 1281   0.921   4.776   6.787
  128SOL     OW 1282   4.476   2.789   1.240
  128SOL    HW1 1283   4.473   2.798   1.340
  128SOL    HW2 1284   4.530   2.864   1.202
  129SOL     OW 1285   3.321   3.478   6.185
  129SOL    HW1 1286   3.228   3.484   6.150
  129SOL    HW2 1287   3.319   3.454   6.282
  130SOL     OW 1288   1.554   1.851   4.392
  130SOL    HW1 1289   1.583   1.773   4.446
  130SOL    HW2 1290   1.488   1.822   4.323
  131SOL     OW 1291   4.244   0.723   3.179
  131SOL    HW1 1292   4.185   0.705   3.258
  131SOL    HW2 1293   4.315   0.653   3.173
  132SOL     OW 1294   2.999   2.768   1.728
  132SOL    HW1 1295   3.091   2.748   1.762
  132SOL    HW2 1296   2.937   2.694   1.754
  133SOL     OW 1297   5.112   0.630   4.359
  133SOL    HW1 1298   5.059   0.715   4.367
  133SOL    HW2 1299   5.140   0.617   4.265
  134SOL     OW 1300   6.937   1.299   2.567
  134SOL    HW1 1301   6.936   1.201   2.588
  134SOL    HW2 1302   6.971   1.313   2.474
  135SOL     OW 1303   5.162   3.726   3.640
  135SOL    HW1 1304   5.160   3.629   3.618
  135SOL    HW2 1305   5.252   3.763   3.619
  136SOL     OW 1306   1.576   5.267   5.026
  136SOL    HW1 1307   1.603   5.283   5.121
  136SOL    HW2 1308   1.646   5.211   4.980
  137SOL     OW 1309   5.089   1.819   2.903
  137SOL    HW1 1310   5.012   1.782   2.955
  137SOL    HW2 1311   5.115   1.908   2.939
  138SOL     OW 1312   0.944   3.864   3.007
  138SOL    HW1 1313   0.937   3.952   2.961
  138SOL    HW2 1314   1.003   3.874   3.087
  139SOL     OW 1315   1.580   6.845   5.268
  139SOL    HW1 1316   1.550   6.749   5.267
  139SOL    HW2 1317   1.508   6.901   5.309
  140SOL     OW 1318   1.685   6.749   4.078
  140SOL    HW1 1319   1.613   6.755   4.009
  140SOL    HW2 1320   1.761   6.809   4.053
  141SOL     OW 1321   0.352   2.610   4.786
  141SOL    HW1 1322   0.327   2.698   4.743
  141SOL    HW2 1323   0.424   2.566   4.733
  142SOL     OW 1324   1.479   4.375   1.639
  142SOL    HW1 1325   1.570   4.365   1.679
  142SOL    HW2 1326   1.482   4.354   1.542
  143SOL     OW 1327   6.157   4.553   0.079
  143SOL    HW1 1328   6.099   4.505   0.145
  143SOL    HW2 1329   6.100   4.612   0.021
  144SOL     OW 1330   1.481   4.455   5.833
  144SOL    HW1 1331   1.382   4.466   5.831
  144SOL    HW2 1332   1.507   4.375   5.780
  145SOL     OW 1333   1.819   4.919   1.510
  145SOL    HW1 1334   1.852   5.004   1.551
  145SOL    HW2 1335   1.720   4.912   1.522
  146SOL     OW 1336   5.112   0.021   5.735
  146SOL    HW1 1337   5.047   6.974   5.716
  146SOL    HW2 1338   5.067   0.109   5.722
  147SOL     OW 1339   5.415   2.568   6.145
  147SOL    HW1 1340   5.503   2.521   6.153
  147SOL    HW2 1341   5.358   2.521   6.078
  148SOL     OW 1342   7.017   5.212   0.654
  148SOL    HW1 1343   0.044   5.134   0.622
  148SOL    HW2 1344   7.015   5.212   0.754
  149SOL     OW 1345   3.464   2.128   4.164
  149SOL    HW1 1346   3.439   2.114   4.068
  149SOL    HW2 1347   3.563   2.121   4.174
  150SOL     OW 1348   5.314   6.715   0.115
  150SOL    HW1 1349   5.272   6.732   0.026
  150SOL    HW2 1350   5.407   6.753   0.116
  151SOL     OW 1351   3.119   1.290   2.039
  151SOL    HW1 1352   3.178   1.350   1.985
  151SOL    HW2 1353   3.028   1.331   2.045
  152SOL     OW 1354   6.895   0.961   1.575
  152SOL    HW1 1355   6.944   0.883   1.535
  152SOL    HW2 1356   6.922   1.045   1.528
  153SOL     OW 1357   2.830   0.259   3.644
  153SOL    HW1 1358   2.734   0.242   3.666
  153SOL    HW2 1359   2.879   0.287   3.727
  154SOL     OW 1360   1.149   3.374   1.197
  154SOL    HW1 1361   1.119   3.441   1.265
  154SOL    HW2 1362   1.236   3.334   1.227
  155SOL     OW 1363   0.951   1.527   5.336
  155SOL    HW1 1364   0.997   1.616   5.346
  155SOL    HW2 1365   0.913   1.519   5.245
  156SOL     OW 1366   6.834   0.581   1.102
  156SOL    HW1 1367   6.828   0.668   1.153
  156SOL    HW2 1368   6.844   0.506   1.167
  157SOL     OW 1369   5.702   2.896   1.313
  157SOL    HW1 1370   5.627   2.905   1.379
  157SOL    HW2 1371   5.789   2.887   1.361
  158SOL     OW 1372   1.224   3.025   1.918
  158SOL    HW1 1373   1.200   2.933   1.949
  158SOL    HW2 1374   1.293   3.063   1.979
  159SOL     OW 1375   4.470   5.064   2.187
  159SOL    HW1 1376   4.477   5.063   2.087
  159SOL    HW2 1377   4.470   5.159   2.219
  160SOL     OW 1378   5.413   6.661   0.960
  160SOL    HW1 1379   5.346   6.721   0.914
  160SOL    HW2 1380   5.375   6.569   0.967
  161SOL     OW 1381   1.092   6.344   3.524
  161SOL    HW1 1382   1.110   6.255   3.566
  161SOL    HW2 1383   1.133   6.348   3.434
  162SOL     OW 1384   3.916   6.207   6.970
  162SOL    HW1 1385   3.829   6.164   6.996
  162SOL    HW2 1386   3.992   6.145   6.991
  163SOL     OW 1387   6.504   5.955   2.234
  163SOL    HW1 1388   6.555   5.949   2.148
  163SOL    HW2 1389   6.521   5.873   2.289
  164SOL     OW 1390   0.726   4.248   2.887
  164SOL    HW1 1391   0.691   4.162   2.924
  164SOL    HW2 1392   0.652   4.315   2.883
  165SOL     OW 1393   4.841   4.070   1.095
  165SOL    HW1 1394   4.748   4.036   1.109
  165SOL    HW2 1395   4.852   4.099   1.000
  166SOL     OW 1396   1.627   3.210   2.343
  166SOL    HW1 1397   1.643   3.161   2.258
  166SOL    HW2 1398   1.645   3.150   2.421
  167SOL     OW 1399   5.454   2.483   6.915
  167SOL    HW1 1400   5.476   2.395   6.958
  167SOL    HW2 1401   5.539   2.527   6.884
  168SOL     OW 1402   3.492   2.636   0.545
  168SOL    HW1 1403   3.525   2.549   0.582
  168SOL    HW2 1404   3.392   2.638   0.550
  169SOL     OW 1405   6.677   2.045   1.351
  169SOL    HW1 1406   6.718   1.956   1.331
  169SOL    HW2 1407   6.603   2.063   1.286
  170SOL     OW 1408   0.210   6.918   2.529
  170SOL    HW1 1409   0.141   6.989   2.517
  170SOL    HW2 1410   0.279   6.926   2.457
  171SOL     OW 1411   2.638   3.985   6.567
  171SOL    HW1 1412   2.707   3.940   6.510
  171SOL    HW2 1413   2.551   3.990   6.516
  172SOL     OW 1414   6.125   1.079   2.507
  172SOL    HW1 1415   6.103   1.088   2.604
  172SOL    HW2 1416   6.095   1.160   2.458
  173SOL     OW 1417   6.388   1.384   3.834
  173SOL    HW1 1418   6.447   1.449   3.786
  173SOL    HW2 1419   6.292   1.406   3.815
  174SOL     OW 1420   4.067   5.272   3.519
  174SOL    HW1 1421   4.061   5.273   3.619
  174SOL    HW2 1422   4.009   5.198   3.483
  175SOL     OW 1423   2.907   0.295   1.599
  175SOL    HW1 1424   2.965   0.342   1.666
  175SOL    HW2 1425   2.957   0.219   1.558
  176SOL     OW 1426   6.861   4.710   1.130
  176SOL    HW1 1427   6.916   4.652   1.070
  176SOL    HW2 1428   6.857   4.669   1.221
  177SOL     OW 1429   5.706   3.447   4.035
  177SOL    HW1 1430   5.685   3.390   4.114
  177SOL    HW2 1431   5.752   3.531   4.064
  178SOL     OW 1432   3.638   4.453   5.629
  178SOL    HW1 1433   3.580   4.385   5.675
  178SOL    HW2 1434   3.592   4.485   5.546
  179SOL     OW 1435   4.252   1.423   5.813
  179SOL    HW1 1436   4.345   1.456   5.822
  179SOL    HW2 1437   4.249   1.347   5.748
  180SOL     OW 1438   2.237   6.920   0.575
  180SOL    HW1 1439   2.324   6.870   0.576
  180SOL    HW2 1440   2.168   6.868   0.625
  181SOL     OW 1441   3.632   3.722   6.018
  181SOL    HW1 1442   3.584   3.644   5.977
  181SOL    HW2 1443   3.672   3.695   6.105
  182SOL     OW 1444   3.695   1.941   5.657
  182SOL    HW1 1445   3.641   2.007   5.708
  182SOL    HW2 1446   3.790   1.974   5.650
  183SOL     OW 1447   3.156   1.799   3.813
  183SOL    HW1 1448   3.243   1.815   3.860
  183SOL    HW2 1449   3.164   1.825   3.717
  184SOL     OW 1450   0.827   6.476   4.321
  184SOL    HW1 1451   0.742   6.517   4.353
  184SOL    HW2 1452   0.809   6.422   4.238
  185SOL     OW 1453   0.894   0.885   5.379
  185SOL    HW1 1454   0.968   0.929   5.430
  185SOL    HW2 1455   0.809   0.892   5.431
  186SOL     OW 1456   6.258   1.182   4.020
  186SOL    HW1 1457   6.314   1.251   3.973
  186SOL    HW2 1458   6.175   1.225   4.055
  187SOL     OW 1459   5.063   6.708   2.447
  187SOL    HW1 1460   4.974   6.689   2.406
  187SOL    HW2 1461   5.123   6.629   2.435
  188SOL     OW 1462   1.618   3.152   3.201
  188SOL    HW1 1463   1.581   3.216   3.133
  188SOL    HW2 1464   1.553   3.142   3.276
  189SOL     OW 1465   2.386   5.699   0.436
  189SOL    HW1 1466   2.307   5.689   0.497
  189SOL    HW2 1467   2.470   5.680   0.488
  190SOL     OW 1468   5.782   3.253   5.493
  190SOL    HW1 1469   5.771   3.251   5.393
  190SOL    HW2 1470   5.693   3.239   5.536
  191SOL     OW 1471   5.460   0.356   6.563
  191SOL    HW1 1472   5.481   0.428   6.630
  191SOL    HW2 1473   5.530   0.285   6.567
  192SOL     OW 1474   0.789   5.011   2.458
  192SOL    HW1 1475   0.743   4.931   2.422
  192SOL    HW2 1476   0.753   5.032   2.550
  193SOL     OW 1477   4.396   3.586   5.285
  193SOL    HW1 1478   4.414   3.569   5.382
  193SOL    HW2 1479   4.483   3.588   5.235
  194SOL     OW 1480   3.884   0.024   2.654
  194SOL    HW1 1481   3.809   0.079   2.690
  194SOL    HW2 1482   3.849   6.963   2.621
  195SOL     OW 1483   1.554   0.291   4.277
  195SOL    HW1 1484   1.458   0.261   4.279
  195SOL    HW2 1485   1.591   0.289   4.370
  196SOL     OW 1486   2.776   0.249   0.572
  196SOL    HW1 1487   2.864   0.252   0.525
  196SOL    HW2 1488   2.740   0.342   0.580
  197SOL     OW 1489   2.438   0.232   1.487
  197SOL    HW1 1490   2.381   0.164   1.534
  197SOL    HW2 1491   2.498   0.277   1.553
  198SOL     OW 1492   4.963   6.837   2.021
  198SOL    HW1 1493   4.978   6.790   2.109
  198SOL    HW2 1494   4.906   6.779   1.962
  199SOL     OW 1495   6.715   1.468   3.443
  199SOL    HW1 1496   6.643   1.452   3.375
  199SOL    HW2 1497   6.674   1.474   3.534
  200SOL     OW 1498   1.195   4.249   1.465
  200SOL    HW1 1499   1.192   4.313   1.542
  200SOL    HW2 1500   1.284   4.204   1.462
  201SOL     OW 1501   6.850   6.969   6.189
  201SOL    HW1 1502   6.881   0.006   6.260
  201SOL    HW2 1503   6.754   6.985   6.170
  202SOL     OW 1504   4.835   0.606   5.755
  202SOL    HW1 1505   4.807   0.577   5.664
  202SOL    HW2 1506   4.776   0.681   5.786
  203SOL     OW 1507   4.260   2.260   4.062
  203SOL    HW1 1508   4.162   2.245   4.049
  203SOL    HW2 1509   4.276   2.289   4.156
  204SOL     OW 1510   0.276   0.982   6.264
  204SOL    HW1 1511   0.288   1.019   6.356
  204SOL    HW2 1512   0.182   0.948   6.254
  205SOL     OW 1513   0.700   0.951   3.587
  205SOL    HW1 1514   0.729   0.922   3.678
  205SOL    HW2 1515   0.638   1.030   3.595
  206SOL     OW 1516   0.331   4.868   1.873
  206SOL    HW1 1517   0.283   4.955   1.865
  206SOL    HW2 1518   0.394   4.871   1.951
  207SOL     OW 1519   4.976   1.067   3.722
  207SOL    HW1 1520   4.928   0.984   3.750
  207SOL    HW2 1521   4.933   1.146   3.766
  208SOL     OW 1522   5.667   3.016   5.316
  208SOL    HW1 1523   5.602   3.031   5.241
  208SOL    HW2 1524   5.745   2.963   5.284
  209SOL     OW 1525   0.502   4.610   4.785
  209SOL    HW1 1526   0.531   4.516   4.799
  209SOL    HW2 1527   0.422   4.630   4.841
  210SOL     OW 1528   4.510   2.273   0.774
  210SOL    HW1 1529   4.596   2.320   0.789
  210SOL    HW2 1530   4.434   2.331   0.804
  211SOL     OW 1531   2.519   6.194   3.477
  211SOL    HW1 1532   2.546   6.098   3.469
  211SOL    HW2 1533   2.590   6.253   3.439
  212SOL     OW 1534   2.008   4.162   1.326
  212SOL    HW1 1535   2.099   4.177   1.364
  212SOL    HW2 1536   1.947   4.237   1.354
  213SOL     OW 1537   3.258   0.695   6.261
  213SOL    HW1 1538   3.249   0.766   6.191
  213SOL    HW2 1539   3.269   0.606   6.217
  214SOL     OW 1540   4.717   5.528   2.113
  214SOL    HW1 1541   4.804   5.551   2.070
  214SOL    HW2 1542   4.734   5.487   2.203
  215SOL     OW 1543   2.375   3.621   0.814
  215SOL    HW1 1544   2.362   3.715   0.845
  215SOL    HW2 1545   2.435   3.573   0.879
  216SOL     OW 1546   2.244   5.781   4.577
  216SOL    HW1 1547   2.177   5.788   4.504
  216SOL    HW2 1548   2.302   5.701   4.562
  217SOL     OW 1549   2.065   2.534   3.881
  217SOL    HW1 1550   2.014   2.517   3.797
  217SOL    HW2 1551   2.152   2.485   3.878
  218SOL     OW 1552   1.134   3.047   4.734
  218SOL    HW1 1553   1.142   3.022   4.637
  218SOL    HW2 1554   1.074   2.982   4.780
  219SOL     OW 1555   3.993   6.538   5.786
  219SOL    HW1 1556   3.908   6.527   5.734
  219SOL    HW2 1557   4.040   6.621   5.754
  220SOL     OW 1558   3.751   6.640   0.545
  220SOL    HW1 1559   3.665   6.641   0.597
  220SOL    HW2 1560   3.807   6.718   0.573
  221SOL     OW 1561   6.379   3.197   2.160
  221SOL    HW1 1562   6.455   3.252   2.127
  221SOL    HW2 1563   6.294   3.251   2.155
  222SOL     OW 1564   2.757   5.061   5.862
  222SOL    HW1 1565   2.670   5.071   5.909
  222SOL    HW2 1566   2.748   4.996   5.786
  223SOL     OW 1567   5.877   3.108   0.875
  223SOL    HW1 1568   5.930   3.080   0.955
  223SOL    HW2 1569   5.799   3.164   0.905
  224SOL     OW 1570   2.065   2.123   4.501
  224SOL    HW1 1571   2.079   2.078   4.413
  224SOL    HW2 1572   2.147   2.111   4.558
  225SOL     OW 1573   5.117   2.820   6.127
  225SOL    HW1 1574   5.022   2.791   6.116
  225SOL    HW2 1575   5.158   2.835   6.037
  226SOL     OW 1576   1.328   0.664   6.351
  226SOL    HW1 1577   1.413   0.654   6.403
  226SOL    HW2 1578   1.266   0.588   6.373
  227SOL     OW 1579   1.477   3.385   3.074
  227SOL    HW1 1580   1.439   3.421   2.989
  227SOL    HW2 1581   1.403   3.351   3.132
  228SOL     OW 1582   3.286   6.392   3.648
  228SOL    HW1 1583   3.334   6.450   3.582
  228SOL    HW2 1584   3.263   6.304   3.606
  229SOL     OW 1585   4.919   5.921   6.989
  229SOL    HW1 1586   4.938   5.907   6.891
  229SOL    HW2 1587   4.963   6.005   7.019
  230SOL     OW 1588   2.831   5.080   3.070
  230SOL    HW1 1589   2.845   5.019   2.992
  230SOL    HW2 1590   2.733   5.097   3.082
  231SOL     OW 1591   5.889   1.682   6.529
  231SOL    HW1 1592   5.827   1.733   6.589
  231SOL    HW2 1593   5.940   1.615   6.584
  232SOL     OW 1594   1.546   3.878   6.226
  232SOL    HW1 1595   1.645   3.874   6.235
  232SOL    HW2 1596   1.506   3.790   6.252
  233SOL     OW 1597   2.491   1.999   4.073
  233SOL    HW1 1598   2.445   1.911   4.063
  233SOL    HW2 1599   2.442   2.069   4.021
  234SOL     OW 1600   4.438   6.619   5.066
  234SOL    HW1 1601   4.518   6.590   5.015
  234SOL    HW2 1602   4.411   6.711   5.037
  235SOL     OW 1603   3.619   3.065   1.636
  235SOL    HW1 1604   3.626   2.973   1.597
  235SOL    HW2 1605   3.536   3.110   1.602
  236SOL     OW 1606   5.338   2.869   6.780
  236SOL    HW1 1607   5.359   2.802   6.709
  236SOL    HW2 1608   5.312   2.821   6.864
  237SOL     OW 1609   6.211   5.401   2.204
  237SOL    HW1 1610   6.243   5.452   2.124
  237SOL    HW2 1611   6.112   5.406   2.209
  238SOL     OW 1612   5.556   2.227   0.001
  238SOL    HW1 1613   5.572   2.281   0.083
  238SOL    HW2 1614   5.471   2.175   0.012
  239SOL     OW 1615   0.171   5.749   6.113
  239SOL    HW1 1616   0.220   5.742   6.200
  239SOL    HW2 1617   0.133   5.659   6.090
  240SOL     OW 1618   0.640   2.663   4.108
  240SOL    HW1 1619   0.561   2.610   4.139
  240SOL    HW2 1620   0.672   2.722   4.183
  241SOL     OW 1621   1.764   0.154   5.018
  241SOL    HW1 1622   1.724   0.173   5.108
  241SOL    HW2 1623   1.864   0.155   5.026
  242SOL     OW 1624   2.643   3.173   5.613
  242SOL    HW1 1625   2.612   3.078   5.602
  242SOL    HW2 1626   2.743   3.176   5.605
  243SOL     OW 1627   4.691   0.628   6.072
  243SOL    HW1 1628   4.628   0.656   6.000
  243SOL    HW2 1629   4.673   0.532   6.097
  244SOL     OW 1630   5.476   2.740   4.834
  244SOL    HW1 1631   5.390   2.687   4.835
  244SOL    HW2 1632   5.481   2.794   4.750
  245SOL     OW 1633   6.677   3.680   5.013
  245SOL    HW1 1634   6.728   3.608   4.965
  245SOL    HW2 1635   6.667   3.655   5.109
  246SOL     OW 1636   5.345   2.704   3.264
  246SOL    HW1 1637   5.423   2.764   3.283
  246SOL    HW2 1638   5.263   2.743   3.305
  247SOL     OW 1639   2.960   1.333   1.694
  247SOL    HW1 1640   3.049   1.377   1.706
  247SOL    HW2 1641   2.926   1.301   1.783
  248SOL     OW 1642   3.904   2.073   2.962
  248SOL    HW1 1643   3.884   2.141   3.033
  248SOL    HW2 1644   3.907   1.982   3.002
  249SOL     OW 1645   4.516   0.022   6.240
  249SOL    HW1 1646   4.490   0.006   6.335
  249SOL    HW2 1647   4.462   0.097   6.202
  250SOL     OW 1648   5.722   2.743   0.938
  250SOL    HW1 1649   5.757   2.707   0.852
  250SOL    HW2 1650   5.668   2.825   0.919
  251SOL     OW 1651   4.775   3.793   5.725
  251SOL    HW1 1652   4.823   3.706   5.737
  251SOL    HW2 1653   4.821   3.846   5.654
  252SOL     OW 1654   6.497   0.108   6.448
  252SOL    HW1 1655   6.515   0.097   6.546
  252SOL    HW2 1656   6.475   0.018   6.409
  253SOL     OW 1657   2.284   4.269   6.532
  253SOL    HW1 1658   2.287   4.169   6.529
  253SOL    HW2 1659   2.201   4.301   6.487
  254SOL     OW 1660   5.115   3.125   3.205
  254SOL    HW1 1661   5.111   3.141   3.106
  254SOL    HW2 1662   5.031   3.081   3.235
  255SOL     OW 1663   2.114   3.337   4.644
  255SOL    HW1 1664   2.152   3.277   4.715
  255SOL    HW2 1665   2.104   3.430   4.681
  256SOL     OW 1666   5.935   4.321   6.544
  256SOL    HW1 1667   5.860   4.383   6.520
  256SOL    HW2 1668   5.955   4.327   6.641
  257SOL     OW 1669   4.614   6.948   4.016
  257SOL    HW1 1670   4.605   6.889   4.097
  257SOL    HW2 1671   4.544   6.924   3.950
  258SOL     OW 1672   0.248   4.704   4.939
  258SOL    HW1 1673   0.240   4.795   4.981
  258SOL    HW2 1674   0.229   4.711   4.841
  259SOL     OW 1675   1.723   1.985   2.217
  259SOL    HW1 1676   1.718   2.021   2.123
  259SOL    HW2 1677   1.693   2.056   2.281
  260SOL     OW 1678   4.622   1.198   0.838
  260SOL    HW1 1679   4.551   1.269   0.834
  260SOL    HW2 1680   4.612   1.137   0.760
  261SOL     OW 1681   6.884   3.969   0.538
  261SOL    HW1 1682   6.871   3.967   0.439
  261SOL    HW2 1683   6.804   4.011   0.581
  262SOL     OW 1684   0.243   4.383   0.392
  262SOL    HW1 1685   0.311   4.334   0.446
  262SOL    HW2 1686   0.157   4.390   0.444
  263SOL     OW 1687   0.497   0.856   4.129
  263SOL    HW1 1688   0.589   0.891   4.109
  263SOL    HW2 1689   0.504   0.766   4.170
  264SOL     OW 1690   4.792   2.976   5.944
  264SOL    HW1 1691   4.786   2.931   5.855
  264SOL    HW2 1692   4.700   3.001   5.975
  265SOL     OW 1693   4.885   4.786   3.292
  265SOL    HW1 1694   4.835   4.740   3.218
  265SOL    HW2 1695   4.820   4.832   3.352
  266SOL     OW 1696   3.786   3.523   5.816
  266SOL    HW1 1697   3.717   3.551   5.883
  266SOL    HW2 1698   3.741   3.477   5.740
  267SOL     OW 1699   6.020   2.285   6.059
  267SOL    HW1 1700   6.114   2.303   6.087
  267SOL    HW2 1701   5.963   2.271   6.140
  268SOL     OW 1702   4.117   0.076   4.894
  268SOL    HW1 1703   4.168   0.157   4.923
  268SOL    HW2 1704   4.089   0.085   4.799
  269SOL     OW 1705   1.748   3.405   1.249
  269SOL    HW1 1706   1.709   3.377   1.161
  269SOL    HW2 1707   1.775   3.501   1.244
  270SOL     OW 1708   6.893   0.242   0.976
  270SOL    HW1 1709   6.900   0.288   1.065
  270SOL    HW2 1710   6.905   0.143   0.988
  271SOL     OW 1711   3.008   1.196   0.765
  271SOL    HW1 1712   2.967   1.280   0.729
  271SOL    HW2 1713   2.975   1.118   0.712
  272SOL     OW 1714   3.243   4.921   4.184
  272SOL    HW1 1715   3.221   4.958   4.094
  272SOL    HW2 1716   3.178   4.955   4.252
  273SOL     OW 1717   2.149   5.221   4.557
  273SOL    HW1 1718   2.151   5.175   4.646
  273SOL    HW2 1719   2.241   5.253   4.534
  274SOL     OW 1720   4.923   2.557   3.503
  274SOL    HW1 1721   4.854   2.506   3.451
  274SOL    HW2 1722   4.998   2.496   3.525
  275SOL     OW 1723   6.244   5.113   5.969
  275SOL    HW1 1724   6.203   5.068   6.048
  275SOL    HW2 1725   6.311   5.181   5.999
  276SOL     OW 1726   0.329   5.086   2.835
  276SOL    HW1 1727   0.346   5.016   2.765
  276SOL    HW2 1728   0.406   5.150   2.837
  277SOL     OW 1729   2.366   3.482   0.414
  277SOL    HW1 1730   2.278   3.477   0.462
  277SOL    HW2 1731   2.433   3.426   0.462
  278SOL     OW 1732   0.260   5.365   1.892
  278SOL    HW1 1733   0.312   5.444   1.923
  278SOL    HW2 1734   0.170   5.394   1.859
  279SOL     OW 1735   0.017   3.514   4.143
  279SOL    HW1 1736   0.001   3.598   4.091
  279SOL    HW2 1737   7.021   3.435   4.086
  280SOL     OW 1738   1.756   6.870   3.047
  280SOL    HW1 1739   1.809   6.799   3.000
  280SOL    HW2 1740   1.671   6.830   3.082
  281SOL     OW 1741   3.480   4.911   2.136
  281SOL    HW1 1742   3.419   4.972   2.086
  281SOL    HW2 1743   3.533   4.856   2.072
  282SOL     OW 1744   3.758   1.671   5.344
  282SOL    HW1 1745   3.737   1.742   5.276
  282SOL    HW2 1746   3.709   1.692   5.429
  283SOL     OW 1747   6.550   1.260   6.034
  283SOL    HW1 1748   6.490   1.283   5.957
  283SOL    HW2 1749   6.503   1.195   6.094
  284SOL     OW 1750   0.553   4.253   4.593
  284SOL    HW1 1751   0.543   4.328   4.529
  284SOL    HW2 1752   0.584   4.171   4.544
  285SOL     OW 1753   5.549   5.199   6.194
  285SOL    HW1 1754   5.600   5.113   6.186
  285SOL    HW2 1755   5.465   5.192   6.140
  286SOL     OW 1756   3.315   5.141   5.303
  286SOL    HW1 1757   3.353   5.218   5.353
  286SOL    HW2 1758   3.215   5.145   5.306
  287SOL     OW 1759   0.610   4.522   6.731
  287SOL    HW1 1760   0.540   4.472   6.783
  287SOL    HW2 1761   0.699   4.482   6.748
  288SOL     OW 1762   4.432   2.479   6.914
  288SOL    HW1 1763   4.375   2.419   6.857
  288SOL    HW2 1764   4.384   2.499   6.999
  289SOL     OW 1765   6.919   5.449   5.515
  289SOL    HW1 1766   6.964   5.436   5.426
  289SOL    HW2 1767   6.976   5.508   5.573
  290SOL     OW 1768   4.877   1.485   3.657
  290SOL    HW1 1769   4.916   1.407   3.608
  290SOL    HW2 1770   4.948   1.528   3.712
  291SOL     OW 1771   2.696   1.528   4.921
  291SOL    HW1 1772   2.660   1.620   4.937
  291SOL    HW2 1773   2.795   1.531   4.913
  292SOL     OW 1774   2.504   1.834   2.652
  292SOL    HW1 1775   2.460   1.899   2.590
  292SOL    HW2 1776   2.516   1.746   2.605
  293SOL     OW 1777   5.139   4.976   1.840
  293SOL    HW1 1778   5.078   4.970   1.761
  293SOL    HW2 1779   5.208   4.904   1.835
  294SOL     OW 1780   6.420   5.491   6.492
  294SOL    HW1 1781   6.403   5.402   6.450
  294SOL    HW2 1782   6.334   5.542   6.497
  295SOL     OW 1783   3.199   1.545   4.670
  295SOL    HW1 1784   3.260   1.476   4.707
  295SOL    HW2 1785   3.195   1.624   4.731
  296SOL     OW 1786   6.180   1.976   2.362
  296SOL    HW1 1787   6.081   1.989   2.373
  296SOL    HW2 1788   6.208   1.895   2.414
  297SOL     OW 1789   2.863   4.967   2.826
  297SOL    HW1 1790   2.961   4.988   2.827
  297SOL    HW2 1791   2.814   5.036   2.773
  298SOL     OW 1792   3.216   6.001   0.603
  298SOL    HW1 1793   3.177   6.050   0.681
  298SOL    HW2 1794   3.153   5.928   0.575
  299SOL     OW 1795   3.940   3.155   6.512
  299SOL    HW1 1796   3.944   3.056   6.525
  299SOL    HW2 1797   3.855   3.190   6.553
  300SOL     OW 1798   5.396   0.798   2.009
  300SOL    HW1 1799   5.336   0.819   2.086
  300SOL    HW2 1800   5.441   0.882   1.978
  301SOL     OW 1801   5.864   3.086   0.590
  301SOL    HW1 1802   5.821   3.112   0.676
  301SOL    HW2 1803   5.811   3.014   0.546
  302SOL     OW 1804   0.041   0.713   3.821
  302SOL    HW1 1805   0.055   0.719   3.920
  302SOL    HW2 1806   0.077   0.795   3.778
  303SOL     OW 1807   6.737   6.725   2.244
  303SOL    HW1 1808   6.775   6.744   2.335
  303SOL    HW2 1809   6.727   6.626   2.233
  304SOL     OW 1810   1.374   6.559   5.576
  304SOL    HW1 1811   1.416   6.484   5.525
  304SOL    HW2 1812   1.275   6.560   5.559
  305SOL     OW 1813   1.302   3.199   6.973
  305SOL    HW1 1814   1.337   3.156   6.890
  305SOL    HW2 1815   1.237   3.137   7.018
  306SOL     OW 1816   1.656   0.112   3.665
  306SOL    HW1 1817   1.639   0.136   3.569
  306SOL    HW2 1818   1.679   0.015   3.672
  307SOL     OW 1819   4.907   5.728   0.724
  307SOL    HW1 1820   4.999   5.735   0.685
  307SOL    HW2 1821   4.839   5.745   0.653
  308SOL     OW 1822   5.876   3.541   4.332
  308SOL    HW1 1823   5.801   3.482   4.362
  308SOL    HW2 1824   5.937   3.559   4.409
  309SOL     OW 1825   2.418   5.926   7.024
  309SOL    HW1 1826   2.501   5.871   0.011
  309SOL    HW2 1827   2.438   6.002   6.962
  310SOL     OW 1828   5.487   6.594   5.378
  310SOL    HW1 1829   5.480   6.692   5.400
  310SOL    HW2 1830   5.420   6.543   5.432
  311SOL     OW 1831   4.321   5.092   2.911
  311SOL    HW1 1832   4.323   5.177   2.859
  311SOL    HW2 1833   4.324   5.014   2.847
  312SOL     OW 1834   4.021   1.286   4.780
  312SOL    HW1 1835   4.018   1.238   4.692
  312SOL    HW2 1836   4.060   1.225   4.849
  313SOL     OW 1837   3.016   3.695   2.253
  313SOL    HW1 1838   2.925   3.662   2.275
  313SOL    HW2 1839   3.038   3.673   2.158
  314SOL     OW 1840   2.879   5.116   6.703
  314SOL    HW1 1841   2.895   5.051   6.777
  314SOL    HW2 1842   2.880   5.068   6.616
  315SOL     OW 1843   1.067   3.275   3.896
  315SOL    HW1 1844   1.154   3.322   3.911
  315SOL    HW2 1845   1.043   3.224   3.979
  316SOL     OW 1846   2.819   1.216   4.422
  316SOL    HW1 1847   2.856   1.235   4.513
  316SOL    HW2 1848   2.883   1.160   4.371
  317SOL     OW 1849   6.990   1.366   0.830
  317SOL    HW1 1850   6.958   1.337   0.920
  317SOL    HW2 1851   6.920   1.345   0.762
  318SOL     OW 1852   0.891   5.724   6.650
  318SOL    HW1 1853   0.853   5.743   6.559
  318SOL    HW2 1854   0.824   5.750   6.720
  319SOL     OW 1855   6.421   1.232   3.385
  319SOL    HW1 1856   6.382   1.324   3.381
  319SOL    HW2 1857   6.362   1.168   3.336
  320SOL     OW 1858   6.830   2.418   1.377
  320SOL    HW1 1859   6.756   2.435   1.442
  320SOL    HW2 1860   6.910   2.472   1.401
  321SOL     OW 1861   4.000   1.704   6.888
  321SOL    HW1 1862   4.000   1.604   6.901
  321SOL    HW2 1863   4.014   1.749   6.977
  322SOL     OW 1864   3.568   2.894   4.310
  322SOL    HW1 1865   3.530   2.872   4.220
  322SOL    HW2 1866   3.493   2.914   4.373
  323SOL     OW 1867   0.966   3.023   6.611
  323SOL    HW1 1868   0.935   3.037   6.518
  323SOL    HW2 1869   0.912   3.078   6.674
  324SOL     OW 1870   2.678   1.240   4.862
  324SOL    HW1 1871   2.688   1.334   4.892
  324SOL    HW2 1872   2.678   1.179   4.942
  325SOL     OW 1873   0.718   2.765   1.876
  325SOL    HW1 1874   0.744   2.834   1.809
  325SOL    HW2 1875   0.630   2.725   1.851
  326SOL     OW 1876   1.025   5.051   6.671
  326SOL    HW1 1877   0.975   4.983   6.724
  326SOL    HW2 1878   1.085   5.104   6.732
  327SOL     OW 1879   1.473   4.700   3.193
  327SOL    HW1 1880   1.425   4.671   3.110
  327SOL    HW2 1881   1.571   4.706   3.175
  328SOL     OW 1882   1.420   5.864   1.597
  328SOL    HW1 1883   1.451   5.803   1.670
  328SOL    HW2 1884   1.331   5.903   1.621
  329SOL     OW 1885   3.692   3.317   4.973
  329SOL    HW1 1886   3.695   3.287   5.068
  329SOL    HW2 1887   3.773   3.373   4.953
  330SOL     OW 1888   3.849   6.833   1.492
  330SOL    HW1 1889   3.796   6.777   1.428
  330SOL    HW2 1890   3.786   6.875   1.558
  331SOL     OW 1891   3.561   5.376   0.118
  331SOL    HW1 1892   3.646   5.324   0.108
  331SOL    HW2 1893   3.573   5.467   0.076
  332SOL     OW 1894   4.441   1.713   5.174
  332SOL    HW1 1895   4.366   1.647   5.167
  332SOL    HW2 1896   4.415   1.787   5.236
  333SOL     OW 1897   3.004   0.420   6.096
  333SOL    HW1 1898   2.996   0.447   6.000
  333SOL    HW2 1899   2.948   0.481   6.153
  334SOL     OW 1900   3.469   0.472   1.503
  334SOL    HW1 1901   3.509   0.556   1.538
  334SOL    HW2 1902   3.426   0.421   1.578
  335SOL     OW 1903   3.928   0.097   5.647
  335SOL    HW1 1904   3.985   0.165   5.694
  335SOL    HW2 1905   3.985   0.021   5.617
  336SOL     OW 1906   1.594   0.755   3.515
  336SOL    HW1 1907   1.578   0.839   3.464
  336SOL    HW2 1908   1.585   0.773   3.613
  337SOL     OW 1909   0.210   2.956   0.180
  337SOL    HW1 1910   0.137   2.925   0.119
  337SOL    HW2 1911   0.174   2.965   0.273
  338SOL     OW 1912   2.930   2.529   1.396
  338SOL    HW1 1913   2.986   2.492   1.471
  338SOL    HW2 1914   2.834   2.525   1.422
  339SOL     OW 1915   3.339   6.272   3.901
  339SOL    HW1 1916   3.431   6.264   3.940
  339SOL    HW2 1917   3.342   6.334   3.822
  340SOL     OW 1918   4.971   4.227   5.407
  340SOL    HW1 1919   5.022   4.284   5.343
  340SOL    HW2 1920   5.033   4.188   5.474
  341SOL     OW 1921   6.521   0.668   4.746
  341SOL    HW1 1922   6.556   0.759   4.770
  341SOL    HW2 1923   6.424   0.675   4.725
  342SOL     OW 1924   6.219   3.649   0.255
  342SOL    HW1 1925   6.164   3.567   0.271
  342SOL    HW2 1926   6.201   3.683   0.162
  343SOL     OW 1927   1.786   5.597   0.606
  343SOL    HW1 1928   1.823   5.518   0.559
  343SOL    HW2 1929   1.788   5.581   0.705
  344SOL     OW 1930   1.595   4.041   2.074
  344SOL    HW1 1931   1.638   3.957   2.040
  344SOL    HW2 1932   1.502   4.048   2.037
  345SOL     OW 1933   3.978   1.603   3.235
  345SOL    HW1 1934   4.054   1.603   3.171
  345SOL    HW2 1935   3.944   1.509   3.247
  346SOL     OW 1936   2.063   0.732   2.785
  346SOL    HW1 1937   1.966   0.742   2.764
  346SOL    HW2 1938   2.105   0.671   2.718
  347SOL     OW 1939   2.791   5.644   6.402
  347SOL    HW1 1940   2.847   5.564   6.377
  347SOL    HW2 1941   2.713   5.614   6.457
  348SOL     OW 1942   5.277   3.982   2.246
  348SOL    HW1 1943   5.334   3.992   2.165
  348SOL    HW2 1944   5.213   3.907   2.233
  349SOL     OW 1945   6.733   5.482   0.895
  349SOL    HW1 1946   6.740   5.383   0.906
  349SOL    HW2 1947   6.740   5.506   0.798
  350SOL     OW 1948   3.555   3.698   1.186
  350SOL    HW1 1949   3.533   3.658   1.097
  350SOL    HW2 1950   3.532   3.795   1.185
  351SOL     OW 1951   1.892   2.927   1.223
  351SOL    HW1 1952   1.967   2.914   1.287
  351SOL    HW2 1953   1.882   3.025   1.203
  352SOL     OW 1954   2.777   0.775   4.808
  352SOL    HW1 1955   2.748   0.865   4.775
  352SOL    HW2 1956   2.856   0.744   4.756
  353SOL     OW 1957   2.421   0.016   0.883
  353SOL    HW1 1958   2.373   6.957   0.906
  353SOL    HW2 1959   2.428   0.023   0.784
  354SOL     OW 1960   3.579   2.730   0.964
  354SOL    HW1 1961   3.542   2.773   1.046
  354SOL    HW2 1962   3.547   2.635   0.959
  355SOL     OW 1963   1.017   3.732   2.603
  355SOL    HW1 1964   1.025   3.638   2.636
  355SOL    HW2 1965   0.930   3.743   2.555
  356SOL     OW 1966   2.879   0.204   5.961
  356SOL    HW1 1967   2.892   0.291   6.008
  356SOL    HW2 1968   2.967   0.158   5.951
  357SOL     OW 1969   6.683   6.392   5.540
  357SOL    HW1 1970   6.636   6.337   5.471
  357SOL    HW2 1971   6.624   6.468   5.568
  358SOL     OW 1972   4.210   6.651   0.346
  358SOL    HW1 1973   4.173   6.703   0.423
  358SOL    HW2 1974   4.141   6.588   0.311
  359SOL     OW 1975   1.744   2.625   2.094
  359SOL    HW1 1976   1.792   2.551   2.142
  359SOL    HW2 1977   1.801   2.707   2.093
  360SOL     OW 1978   0.816   5.229   6.547
  360SOL    HW1 1979   0.748   5.175   6.597
  360SOL    HW2 1980   0.905   5.220   6.592
  361SOL     OW 1981   5.815   5.774   3.058
  361SOL    HW1 1982   5.903   5.751   3.017
  361SOL    HW2 1983   5.804   5.874   3.059
  362SOL     OW 1984   3.882   3.988   1.503
  362SOL    HW1 1985   3.958   3.929   1.477
  362SOL    HW2 1986   3.824   3.940   1.570
  363SOL     OW 1987   5.450   4.349   3.295
  363SOL    HW1 1988   5.472   4.423   3.358
  363SOL    HW2 1989   5.394   4.384   3.220
  364SOL     OW 1990   6.702   5.476   6.398
  364SOL    HW1 1991   6.612   5.504   6.431
  364SOL    HW2 1992   6.773   5.507   6.462
  365SOL     OW 1993   6.172   6.257   2.439
  365SOL    HW1 1994   6.235   6.182   2.418
  365SOL    HW2 1995   6.196   6.298   2.527
  366SOL     OW 1996   6.182   0.769   6.185
  366SOL    HW1 1997   6.124   0.779   6.265
  366SOL    HW2 1998   6.256   0.705   6.204
  367SOL     OW 1999   5.016   2.911   0.872
  367SOL    HW1 2000   5.070   2.884   0.792
  367SOL    HW2 2001   5.056   2.992   0.913
  368SOL     OW 2002   0.184   4.094   4.797
  368SOL    HW1 2003   0.223   4.179   4.760
  368SOL    HW2 2004   0.209   4.086   4.894
  369SOL     OW 2005   6.559   5.613   2.080
  369SOL    HW1 2006   6.461   5.631   2.088
  369SOL    HW2 2007   6.605   5.694   2.044
  370SOL     OW 2008   2.754   1.102   5.790
  370SOL    HW1 2009   2.666   1.073   5.828
  370SOL    HW2 2010   2.740   1.180   5.729
  371SOL     OW 2011   2.471   3.613   6.323
  371SOL    HW1 2012   2.446   3.565   6.407
  371SOL    HW2 2013   2.394   3.610   6.259
  372SOL     OW 2014   0.928   6.281   6.172
  372SOL    HW1 2015   0.958   6.367   6.213
  372SOL    HW2 2016   1.009   6.227   6.146
  373SOL     OW 2017   6.633   6.949   4.569
  373SOL    HW1 2018   6.697   6.904   4.632
  373SOL    HW2 2019   6.682   6.975   4.485
  374SOL     OW 2020   2.526   1.746   3.227
  374SOL    HW1 2021   2.602   1.766   3.164
  374SOL    HW2 2022   2.541   1.796   3.312
  375SOL     OW 2023   1.242   4.077   3.830
  375SOL    HW1 2024   1.220   4.116   3.920
  375SOL    HW2 2025   1.200   3.987   3.822
  376SOL     OW 2026   2.467   1.476   5.017
  376SOL    HW1 2027   2.448   1.554   5.078
  376SOL    HW2 2028   2.565   1.460   5.015
  377SOL     OW 2029   1.209   1.982   1.278
  377SOL    HW1 2030   1.278   1.911   1.264
  377SOL    HW2 2031   1.156   1.994   1.194
  378SOL     OW 2032   3.585   2.150   5.815
  378SOL    HW1 2033   3.491   2.168   5.787
  378SOL    HW2 2034   3.635   2.237   5.822
  379SOL     OW 2035   5.995   3.929   0.936
  379SOL    HW1 2036   6.035   3.998   0.996
  379SOL    HW2 2037   5.912   3.965   0.895
  380SOL     OW 2038   2.602   1.596   1.388
  380SOL    HW1 2039   2.583   1.582   1.290
  380SOL    HW2 2040   2.610   1.507   1.433
  381SOL     OW 2041   1.412   3.976   2.857
  381SOL    HW1 2042   1.353   3.913   2.907
  381SOL    HW2 2043   1.497   3.930   2.831
  382SOL     OW 2044   5.851   6.531   6.254
  382SOL    HW1 2045   5.936   6.582   6.240
  382SOL    HW2 2046   5.773   6.592   6.242
  383SOL     OW 2047   4.516   3.390   5.750
  383SOL    HW1 2048   4.503   3.335   5.668
  383SOL    HW2 2049   4.614   3.407   5.764
  384SOL     OW 2050   7.015   5.667   4.570
  384SOL    HW1 2051   0.043   5.693   4.651
  384SOL    HW2 2052   6.918   5.673   4.592
  385SOL     OW 2053   4.098   5.870   4.753
  385SOL    HW1 2054   4.149   5.955   4.766
  385SOL    HW2 2055   4.001   5.886   4.773
  386SOL     OW 2056   2.476   6.482   5.567
  386SOL    HW1 2057   2.456   6.456   5.473
  386SOL    HW2 2058   2.538   6.415   5.608
  387SOL     OW 2059   0.857   6.776   3.735
  387SOL    HW1 2060   0.862   6.692   3.682
  387SOL    HW2 2061   0.771   6.824   3.715
  388SOL     OW 2062   1.689   1.580   4.208
  388SOL    HW1 2063   1.742   1.570   4.125
  388SOL    HW2 2064   1.672   1.490   4.248
  389SOL     OW 2065   3.792   4.593   0.884
  389SOL    HW1 2066   3.822   4.568   0.792
  389SOL    HW2 2067   3.862   4.648   0.929
  390SOL     OW 2068   3.288   1.639   0.086
  390SOL    HW1 2069   3.259   1.661   7.019
  390SOL    HW2 2070   3.388   1.636   0.089
  391SOL     OW 2071   2.409   3.873   5.523
  391SOL    HW1 2072   2.365   3.830   5.444
  391SOL    HW2 2073   2.465   3.806   5.571
  392SOL     OW 2074   2.192   4.290   1.077
  392SOL    HW1 2075   2.207   4.221   1.148
  392SOL    HW2 2076   2.144   4.249   1.000
  393SOL     OW 2077   1.273   4.675   6.724
  393SOL    HW1 2078   1.245   4.681   6.629
  393SOL    HW2 2079   1.328   4.592   6.737
  394SOL     OW 2080   7.023   2.514   0.608
  394SOL    HW1 2081   0.071   2.454   0.637
  394SOL    HW2 2082   0.028   2.609   0.609
  395SOL     OW 2083   4.653   4.934   3.437
  395SOL    HW1 2084   4.641   4.836   3.454
  395SOL    HW2 2085   4.570   4.983   3.463
  396SOL     OW 2086   2.793   3.439   2.145
  396SOL    HW1 2087   2.694   3.451   2.139
  396SOL    HW2 2088   2.833   3.448   2.054
  397SOL     OW 2089   5.624   1.525   5.952
  397SOL    HW1 2090   5.641   1.503   5.856
  397SOL    HW2 2091   5.538   1.576   5.960
  398SOL     OW 2092   1.079   6.911   3.870
  398SOL    HW1 2093   1.026   6.845   3.816
  398SOL    HW2 2094   1.051   6.905   3.966
  399SOL     OW 2095   5.323   6.789   3.851
  399SOL    HW1 2096   5.252   6.758   3.788
  399SOL    HW2 2097   5.299   6.879   3.887
  400SOL     OW 2098   6.264   6.619   5.484
  400SOL    HW1 2099   6.227   6.527   5.497
  400SOL    HW2 2100   6.252   6.671   5.568
  401SOL     OW 2101   4.970   0.092   6.518
  401SOL    HW1 2102   4.921   0.009   6.492
  401SOL    HW2 2103   5.064   0.087   6.486
  402SOL     OW 2104   6.329   0.826   3.293
  402SOL    HW1 2105   6.332   0.779   3.381
  402SOL    HW2 2106   6.420   0.862   3.271
  403SOL     OW 2107   3.702   1.073   4.888
  403SOL    HW1 2108   3.762   1.009   4.935
  403SOL    HW2 2109   3.756   1.150   4.853
  404SOL     OW 2110   1.675   4.318   3.720
  404SOL    HW1 2111   1.737   4.251   3.759
  404SOL    HW2 2112   1.597   4.332   3.782
  405SOL     OW 2113   2.068   2.997   3.166
  405SOL    HW1 2114   2.132   2.966   3.236
  405SOL    HW2 2115   2.092   3.090   3.138
  406SOL     OW 2116   0.521   4.341   4.855
  406SOL    HW1 2117   0.424   4.334   4.877
  406SOL    HW2 2118   0.538   4.299   4.766
  407SOL     OW 2119   1.132   1.737   5.364
  407SOL    HW1 2120   1.191   1.656   5.358
  407SOL    HW2 2121   1.189   1.819   5.372
  408SOL     OW 2122   2.963   2.241   2.973
  408SOL    HW1 2123   2.925   2.302   3.042
  408SOL    HW2 2124   2.905   2.241   2.892
  409SOL     OW 2125   6.150   3.339   2.107
  409SOL    HW1 2126   6.073   3.281   2.078
  409SOL    HW2 2127   6.150   3.423   2.054
  410SOL     OW 2128   1.040   1.539   1.082
  410SOL    HW1 2129   1.108   1.552   1.154
  410SOL    HW2 2130   1.080   1.561   0.994
  411SOL     OW 2131   6.831   0.816   1.308
  411SOL    HW1 2132   6.748   0.841   1.358
  411SOL    HW2 2133   6.873   0.899   1.270
  412SOL     OW 2134   3.545   5.640   2.990
  412SOL    HW1 2135   3.577   5.546   2.999
  412SOL    HW2 2136   3.472   5.645   2.922
  413SOL     OW 2137   5.899   4.138   2.016
  413SOL    HW1 2138   5.832   4.119   2.088
  413SOL    HW2 2139   5.873   4.090   1.932
  414SOL     OW 2140   3.850   6.032   3.144
  414SOL    HW1 2141   3.781   5.992   3.083
  414SOL    HW2 2142   3.810   6.045   3.235
  415SOL     OW 2143   0.008   0.394   0.155
  415SOL    HW1 2144   0.032   0.438   0.241
  415SOL    HW2 2145   6.949   0.342   0.167
  416SOL     OW 2146   5.061   6.015   5.246
  416SOL    HW1 2147   5.109   5.943   5.195
  416SOL    HW2 2148   4.987   6.051   5.189
  417SOL     OW 2149   2.098   6.704   5.691
  417SOL    HW1 2150   2.077   6.608   5.708
  417SOL    HW2 2151   2.179   6.730   5.744
  418SOL     OW 2152   3.269   6.642   6.563
  418SOL    HW1 2153   3.241   6.556   6.519
  418SOL    HW2 2154   3.362   6.632   6.598
  419SOL     OW 2155   1.196   6.719   2.951
  419SOL    HW1 2156   1.252   6.728   3.034
  419SOL    HW2 2157   1.247   6.756   2.873
  420SOL     OW 2158   5.762   1.307   6.601
  420SOL    HW1 2159   5.791   1.312   6.697
  420SOL    HW2 2160   5.835   1.344   6.543
  421SOL     OW 2161   5.795   4.094   4.990
  421SOL    HW1 2162   5.742   4.179   4.987
  421SOL    HW2 2163   5.890   4.115   5.013
  422SOL     OW 2164   5.134   3.639   1.468
  422SOL    HW1 2165   5.228   3.625   1.436
  422SOL    HW2 2166   5.071   3.631   1.390
  423SOL     OW 2167   1.124   2.376   6.813
  423SOL    HW1 2168   1.044   2.420   6.853
  423SOL    HW2 2169   1.104   2.350   6.718
  424SOL     OW 2170   1.814   5.062   2.099
  424SOL    HW1 2171   1.742   5.132   2.095
  424SOL    HW2 2172   1.776   4.975   2.069
  425SOL     OW 2173   4.930   1.972   3.907
  425SOL    HW1 2174   4.911   1.883   3.865
  425SOL    HW2 2175   4.867   1.988   3.983
  426SOL     OW 2176   2.554   1.709   4.684
  426SOL    HW1 2177   2.628   1.757   4.731
  426SOL    HW2 2178   2.591   1.631   4.634
  427SOL     OW 2179   6.474   6.705   3.998
  427SOL    HW1 2180   6.404   6.776   4.010
  427SOL    HW2 2181   6.554   6.745   3.954
  428SOL     OW 2182   3.672   0.215   3.514
  428SOL    HW1 2183   3.647   0.302   3.557
  428SOL    HW2 2184   3.770   0.199   3.527
  429SOL     OW 2185   0.705   4.668   3.262
  429SOL    HW1 2186   0.718   4.730   3.339
  429SOL    HW2 2187   0.608   4.654   3.245
  430SOL     OW 2188   1.206   6.404   4.408
  430SOL    HW1 2189   1.268   6.377   4.334
  430SOL    HW2 2190   1.251   6.389   4.496
  431SOL     OW 2191   3.089   0.533   1.421
  431SOL    HW1 2192   3.001   0.501   1.385
  431SOL    HW2 2193   3.101   0.498   1.514
  432SOL     OW 2194   6.905   2.178   1.254
  432SOL    HW1 2195   6.815   2.136   1.263
  432SOL    HW2 2196   6.899   2.275   1.276
  433SOL     OW 2197   2.071   6.317   6.036
  433SOL    HW1 2198   2.113   6.336   6.124
  433SOL    HW2 2199   2.048   6.403   5.990
  434SOL     OW 2200   4.221   5.865   3.565
  434SOL    HW1 2201   4.311   5.862   3.523
  434SOL    HW2 2202   4.157   5.813   3.508
  435SOL     OW 2203   3.875   2.047   6.131
  435SOL    HW1 2204   3.833   2.032   6.220
  435SOL    HW2 2205   3.957   2.104   6.141
  436SOL     OW 2206   3.090   5.567   1.947
  436SOL    HW1 2207   3.067   5.580   1.850
  436SOL    HW2 2208   3.160   5.497   1.955
  437SOL     OW 2209   0.832   0.876   6.731
  437SOL    HW1 2210   0.751   0.878   6.790
  437SOL    HW2 2211   0.899   0.942   6.764
  438SOL     OW 2212   1.585   3.441   4.211
  438SOL    HW1 2213   1.676   3.448   4.170
  438SOL    HW2 2214   1.554   3.532   4.239
  439SOL     OW 2215   5.732   5.991   2.622
  439SOL    HW1 2216   5.762   6.080   2.655
  439SOL    HW2 2217   5.686   5.941   2.696
  440SOL     OW 2218   2.969   2.030   5.695
  440SOL    HW1 2219   2.922   2.116   5.718
  440SOL    HW2 2220   2.979   1.974   5.777
  441SOL     OW 2221   6.985   3.751   3.022
  441SOL    HW1 2222   7.016   3.672   3.075
  441SOL    HW2 2223   0.037   3.806   2.994
  442SOL     OW 2224   4.353   5.608   5.371
  442SOL    HW1 2225   4.433   5.656   5.407
  442SOL    HW2 2226   4.285   5.675   5.339
  443SOL     OW 2227   5.598   4.064   4.422
  443SOL    HW1 2228   5.615   4.051   4.519
  443SOL    HW2 2229   5.627   3.983   4.371
  444SOL     OW 2230   4.945   6.810   5.748
  444SOL    HW1 2231   4.868   6.751   5.721
  444SOL    HW2 2232   4.933   6.840   5.842
  445SOL     OW 2233   1.935   6.121   3.192
  445SOL    HW1 2234   1.937   6.219   3.216
  445SOL    HW2 2235   1.971   6.108   3.100
  446SOL     OW 2236   4.438   5.563   2.717
  446SOL    HW1 2237   4.536   5.542   2.708
  446SOL    HW2 2238   4.421   5.655   2.684
  447SOL     OW 2239   6.142   3.996   5.209
  447SOL    HW1 2240   6.114   3.900   5.210
  447SOL    HW2 2241   6.167   4.024   5.302
  448SOL     OW 2242   2.350   0.806   3.084
  448SOL    HW1 2243   2.394   0.802   2.995
  448SOL    HW2 2244   2.252   0.820   3.073
  449SOL     OW 2245   2.971   1.040   4.279
  449SOL    HW1 2246   2.953   0.948   4.243
  449SOL    HW2 2247   3.052   1.078   4.234
  450SOL     OW 2248   1.889   4.518   3.288
  450SOL    HW1 2249   1.902   4.425   3.254
  450SOL    HW2 2250   1.894   4.518   3.388
  451SOL     OW 2251   1.741   1.993   4.280
  451SOL    HW1 2252   1.669   1.950   4.334
  451SOL    HW2 2253   1.791   1.923   4.229
  452SOL     OW 2254   4.655   6.456   1.335
  452SOL    HW1 2255   4.741   6.505   1.349
  452SOL    HW2 2256   4.673   6.370   1.288
  453SOL     OW 2257   3.564   0.076   6.622
  453SOL    HW1 2258   3.653   0.068   6.578
  453SOL    HW2 2259   3.554   0.167   6.663
  454SOL     OW 2260   0.013   3.340   6.722
  454SOL    HW1 2261   6.962   3.283   6.694
  454SOL    HW2 2262   0.086   3.331   6.654
  455SOL     OW 2263   5.201   2.431   4.774
  455SOL    HW1 2264   5.146   2.472   4.702
  455SOL    HW2 2265   5.218   2.335   4.752
  456SOL     OW 2266   0.782   0.440   4.673
  456SOL    HW1 2267   0.766   0.436   4.772
  456SOL    HW2 2268   0.790   0.347   4.637
  457SOL     OW 2269   1.872   4.424   4.368
  457SOL    HW1 2270   1.881   4.392   4.462
  457SOL    HW2 2271   1.909   4.516   4.360
  458SOL     OW 2272   2.830   6.962   3.078
  458SOL    HW1 2273   2.904   6.973   3.144
  458SOL    HW2 2274   2.836   0.007   3.008
  459SOL     OW 2275   1.665   6.997   5.908
  459SOL    HW1 2276   1.661   6.984   5.809
  459SOL    HW2 2277   1.710   0.057   5.929
  460SOL     OW 2278   1.544   0.190   4.862
  460SOL    HW1 2279   1.629   0.177   4.915
  460SOL    HW2 2280   1.541   0.123   4.788
  461SOL     OW 2281   6.538   4.687   6.007
  461SOL    HW1 2282   6.456   4.629   6.004
  461SOL    HW2 2283   6.611   4.638   6.055
  462SOL     OW 2284   3.970   3.408   6.138
  462SOL    HW1 2285   3.873   3.402   6.161
  462SOL    HW2 2286   3.995   3.504   6.122
  463SOL     OW 2287   0.034   0.252   3.760
  463SOL    HW1 2288   0.045   0.348   3.735
  463SOL    HW2 2289   0.125   0.210   3.770
  464SOL     OW 2290   2.274   0.644   5.720
  464SOL    HW1 2291   2.298   0.572   5.655
  464SOL    HW2 2292   2.292   0.612   5.813
  465SOL     OW 2293   0.360   2.118   0.110
  465SOL    HW1 2294   0.322   2.201   0.070
  465SOL    HW2 2295   0.349   2.121   0.209
  466SOL     OW 2296   2.695   6.507   4.224
  466SOL    HW1 2297   2.732   6.455   4.147
  466SOL    HW2 2298   2.624   6.452   4.269
  467SOL     OW 2299   1.391   1.315   2.383
  467SOL    HW1 2300   1.299   1.285   2.358
  467SOL    HW2 2301   1.391   1.347   2.478
  468SOL     OW 2302   3.905   5.348   5.052
  468SOL    HW1 2303   3.959   5.423   5.015
  468SOL    HW2 2304   3.857   5.301   4.978
  469SOL     OW 2305   2.963   3.307   5.903
  469SOL    HW1 2306   2.869   3.330   5.928
  469SOL    HW2 2307   2.968   3.287   5.806
  470SOL     OW 2308   4.262   5.818   1.218
  470SOL    HW1 2309   4.235   5.729   1.181
  470SOL    HW2 2310   4.244   5.889   1.150
  471SOL     OW 2311   2.529   2.541   4.199
  471SOL    HW1 2312   2.593   2.534   4.276
  471SOL    HW2 2313   2.462   2.613   4.217
  472SOL     OW 2314   5.940   4.702   6.921
  472SOL    HW1 2315   5.958   4.793   6.959
  472SOL    HW2 2316   5.984   4.694   6.832
  473SOL     OW 2317   1.124   1.579   2.349
  473SOL    HW1 2318   1.182   1.585   2.268
  473SOL    HW2 2319   1.030   1.602   2.325
  474SOL     OW 2320   5.208   5.290   4.824
  474SOL    HW1 2321   5.112   5.311   4.845
  474SOL    HW2 2322   5.212   5.238   4.739
  475SOL     OW 2323   6.277   2.532   0.614
  475SOL    HW1 2324   6.271   2.610   0.677
  475SOL    HW2 2325   6.302   2.565   0.523
  476SOL     OW 2326   0.036   3.939   1.778
  476SOL    HW1 2327   7.009   4.008   1.730
  476SOL    HW2 2328   0.129   3.971   1.790
  477SOL     OW 2329   2.869   6.054   3.274
  477SOL    HW1 2330   2.802   6.081   3.206
  477SOL    HW2 2331   2.911   6.136   3.314
  478SOL     OW 2332   4.125   5.950   3.147
  478SOL    HW1 2333   4.033   5.988   3.134
  478SOL    HW2 2334   4.161   5.979   3.236
  479SOL     OW 2335   3.891   3.089   5.031
  479SOL    HW1 2336   3.852   3.053   4.946
  479SOL    HW2 2337   3.962   3.156   5.009
  480SOL     OW 2338   3.335   0.547   0.975
  480SOL    HW1 2339   3.239   0.551   1.001
  480SOL    HW2 2340   3.345   0.490   0.894
  481SOL     OW 2341   0.706   6.812   1.717
  481SOL    HW1 2342   0.647   6.768   1.785
  481SOL    HW2 2343   0.801   6.807   1.748
  482SOL     OW 2344   4.857   4.896   2.102
  482SOL    HW1 2345   4.826   4.958   2.029
  482SOL    HW2 2346   4.778   4.851   2.143
  483SOL     OW 2347   6.858   2.458   2.709
  483SOL    HW1 2348   6.873   2.532   2.775
  483SOL    HW2 2349   6.827   2.376   2.757
  484SOL     OW 2350   1.544   4.012   4.598
  484SOL    HW1 2351   1.551   3.912   4.591
  484SOL    HW2 2352   1.619   4.054   4.548
  485SOL     OW 2353   4.815   4.524   2.395
  485SOL    HW1 2354   4.803   4.497   2.300
  485SOL    HW2 2355   4.845   4.619   2.400
  486SOL     OW 2356   5.738   1.810   6.706
  486SOL    HW1 2357   5.638   1.800   6.698
  486SOL    HW2 2358   5.759   1.873   6.780
  487SOL     OW 2359   0.613   0.785   3.369
  487SOL    HW1 2360   0.622   0.854   3.442
  487SOL    HW2 2361   0.625   0.694   3.409
  488SOL     OW 2362   0.743   6.785   2.413
  488SOL    HW1 2363   0.745   6.698   2.462
  488SOL    HW2 2364   0.837   6.811   2.390
  489SOL     OW 2365   5.875   6.013   5.771
  489SOL    HW1 2366   5.789   6.002   5.820
  489SOL    HW2 2367   5.895   5.929   5.720
  490SOL     OW 2368   2.256   6.002   3.833
  490SOL    HW1 2369   2.307   6.063   3.772
  490SOL    HW2 2370   2.319   5.954   3.893
  491SOL     OW 2371   1.395   3.321   1.294
  491SOL    HW1 2372   1.432   3.279   1.211
  491SOL    HW2 2373   1.434   3.276   1.374
  492SOL     OW 2374   1.331   1.197   5.569
  492SOL    HW1 2375   1.235   1.215   5.548
  492SOL    HW2 2376   1.365   1.265   5.634
  493SOL     OW 2377   3.027   6.712   5.631
  493SOL    HW1 2378   3.119   6.693   5.664
  493SOL    HW2 2379   3.019   6.810   5.608
  494SOL     OW 2380   1.534   6.742   6.637
  494SOL    HW1 2381   1.546   6.724   6.735
  494SOL    HW2 2382   1.450   6.794   6.624
  495SOL     OW 2383   3.472   6.148   4.259
  495SOL    HW1 2384   3.448   6.239   4.225
  495SOL    HW2 2385   3.540   6.107   4.199
  496SOL     OW 2386   6.360   2.718   1.872
  496SOL    HW1 2387   6.330   2.808   1.904
  496SOL    HW2 2388   6.383   2.723   1.775
  497SOL     OW 2389   3.300   1.245   4.629
  497SOL    HW1 2390   3.258   1.154   4.628
  497SOL    HW2 2391   3.369   1.252   4.557
  498SOL     OW 2392   0.555   4.561   2.481
  498SOL    HW1 2393   0.486   4.503   2.525
  498SOL    HW2 2394   0.600   4.617   2.551
  499SOL     OW 2395   1.528   5.135   4.482
  499SOL    HW1 2396   1.523   5.235   4.474
  499SOL    HW2 2397   1.499   5.093   4.396
  500SOL     OW 2398   5.737   2.487   0.020
  500SOL    HW1 2399   5.751   2.554   0.093
  500SOL    HW2 2400   5.727   2.534   6.959
  501SOL     OW 2401   4.223   6.930   0.606
  501SOL    HW1 2402   4.172   6.986   0.671
  501SOL    HW2 2403   4.188   6.947   0.513
  502SOL     OW 2404   0.691   4.590   5.906
  502SOL    HW1 2405   0.702   4.678   5.952
  502SOL    HW2 2406   0.594   4.567   5.899
  503SOL     OW 2407   1.663   4.810   5.959
  503SOL    HW1 2408   1.629   4.869   5.886
  503SOL    HW2 2409   1.732   4.748   5.923
  504SOL     OW 2410   1.272   5.593   2.229
  504SOL    HW1 2411   1.330   5.512   2.233
  504SOL    HW2 2412   1.308   5.657   2.161
  505SOL     OW 2413   4.182   6.681   4.880
  505SOL    HW1 2414   4.126   6.619   4.826
  505SOL    HW2 2415   4.129   6.713   4.959
  506SOL     OW 2416   2.920   6.189   2.620
  506SOL    HW1 2417   2.840   6.220   2.570
  506SOL    HW2 2418   2.985   6.265   2.630
  507SOL     OW 2419   3.160   6.468   3.019
  507SOL    HW1 2420   3.076   6.495   2.971
  507SOL    HW2 2421   3.239   6.490   2.962
  508SOL     OW 2422   0.142   3.371   1.902
  508SOL    HW1 2423   0.159   3.466   1.929
  508SOL    HW2 2424   0.045   3.350   1.912
  509SOL     OW 2425   3.439   1.426   1.277
  509SOL    HW1 2426   3.499   1.465   1.207
  509SOL    HW2 2427   3.465   1.330   1.294
  510SOL     OW 2428   6.903   4.166   6.318
  510SOL    HW1 2429   6.821   4.187   6.265
  510SOL    HW2 2430   6.914   4.067   6.324
  511SOL     OW 2431   1.070   2.185   6.581
  511SOL    HW1 2432   1.009   2.157   6.655
  511SOL    HW2 2433   1.022   2.248   6.520
  512SOL     OW 2434   6.445   2.263   6.989
  512SOL    HW1 2435   6.379   2.226   6.924
  512SOL    HW2 2436   6.405   2.263   0.055
  513SOL     OW 2437   5.171   6.963   3.297
  513SOL    HW1 2438   5.146   0.025   3.257
  513SOL    HW2 2439   5.262   6.970   3.338
  514SOL     OW 2440   6.783   0.687   4.459
  514SOL    HW1 2441   6.749   0.600   4.496
  514SOL    HW2 2442   6.780   0.757   4.531
  515SOL     OW 2443   1.859   0.622   0.331
  515SOL    HW1 2444   1.768   0.629   0.289
  515SOL    HW2 2445   1.927   0.608   0.259
  516SOL     OW 2446   2.899   4.845   1.876
  516SOL    HW1 2447   2.871   4.751   1.890
  516SOL    HW2 2448   2.819   4.904   1.875
  517SOL     OW 2449   3.389   4.739   1.706
  517SOL    HW1 2450   3.470   4.697   1.747
  517SOL    HW2 2451   3.310   4.726   1.766
  518SOL     OW 2452   2.426   2.203   3.169
  518SOL    HW1 2453   2.518   2.195   3.208
  518SOL    HW2 2454   2.404   2.300   3.156
  519SOL     OW 2455   0.232   6.648   3.400
  519SOL    HW1 2456   0.177   6.720   3.358
  519SOL    HW2 2457   0.329   6.673   3.397
  520SOL     OW 2458   6.200   3.563   6.571
  520SOL    HW1 2459   6.120   3.503   6.566
  520SOL    HW2 2460   6.253   3.555   6.487
  521SOL     OW 2461   5.798   5.775   5.539
  521SOL    HW1 2462   5.877   5.835   5.547
  521SOL    HW2 2463   5.767   5.772   5.444
  522SOL     OW 2464   4.137   3.616   3.095
  522SOL    HW1 2465   4.229   3.602   3.132
  522SOL    HW2 2466   4.072   3.625   3.170
  523SOL     OW 2467   0.318   5.952   1.302
  523SOL    HW1 2468   0.272   5.920   1.385
  523SOL    HW2 2469   0.304   6.051   1.293
  524SOL     OW 2470   1.564   2.544   2.788
  524SOL    HW1 2471   1.519   2.595   2.861
  524SOL    HW2 2472   1.521   2.454   2.778
  525SOL     OW 2473   1.872   4.435   5.680
  525SOL    HW1 2474   1.969   4.448   5.657
  525SOL    HW2 2475   1.826   4.387   5.606
  526SOL     OW 2476   3.383   6.693   3.891
  526SOL    HW1 2477   3.449   6.639   3.840
  526SOL    HW2 2478   3.328   6.633   3.949
  527SOL     OW 2479   6.809   2.779   0.820
  527SOL    HW1 2480   6.790   2.816   0.911
  527SOL    HW2 2481   6.902   2.741   0.818
  528SOL     OW 2482   1.887   2.500   3.645
  528SOL    HW1 2483   1.928   2.571   3.588
  528SOL    HW2 2484   1.815   2.541   3.702
  529SOL     OW 2485   1.722   6.592   5.081
  529SOL    HW1 2486   1.662   6.572   5.158
  529SOL    HW2 2487   1.760   6.684   5.091
  530SOL     OW 2488   4.101   3.625   2.802
  530SOL    HW1 2489   4.163   3.548   2.786
  530SOL    HW2 2490   4.105   3.652   2.898
  531SOL     OW 2491   1.009   1.271   3.031
  531SOL    HW1 2492   0.999   1.179   3.070
  531SOL    HW2 2493   0.973   1.338   3.095
  532SOL     OW 2494   1.258   2.844   0.317
  532SOL    HW1 2495   1.219   2.894   0.395
  532SOL    HW2 2496   1.206   2.760   0.302
  533SOL     OW 2497   4.177   6.920   3.291
  533SOL    HW1 2498   4.141   7.000   3.244
  533SOL    HW2 2499   4.155   6.926   3.389
  534SOL     OW 2500   5.553   5.825   2.770
  534SOL    HW1 2501   5.522   5.742   2.817
  534SOL    HW2 2502   5.525   5.905   2.823
  535SOL     OW 2503   6.828   4.235   3.440
  535SOL    HW1 2504   6.829   4.284   3.353
  535SOL    HW2 2505   6.778   4.289   3.508
  536SOL     OW 2506   6.685   5.117   2.876
  536SOL    HW1 2507   6.666   5.042   2.813
  536SOL    HW2 2508   6.634   5.199   2.848
  537SOL     OW 2509   2.988   6.756   4.812
  537SOL    HW1 2510   2.924   6.720   4.880
  537SOL    HW2 2511   2.950   6.840   4.773
  538SOL     OW 2512   0.500   4.578   3.850
  538SOL    HW1 2513   0.536   4.530   3.930
  538SOL    HW2 2514   0.563   4.652   3.825
  539SOL     OW 2515   2.138   4.625   1.877
  539SOL    HW1 2516   2.126   4.614   1.779
  539SOL    HW2 2517   2.140   4.722   1.900
  540SOL     OW 2518   1.344   1.491   3.005
  540SOL    HW1 2519   1.437   1.517   2.977
  540SOL    HW2 2520   1.349   1.423   3.078
  541SOL     OW 2521   5.266   5.540   4.036
  541SOL    HW1 2522   5.211   5.492   4.104
  541SOL    HW2 2523   5.231   5.522   3.945
  542SOL     OW 2524   4.571   5.980   6.745
  542SOL    HW1 2525   4.584   6.004   6.841
  542SOL    HW2 2526   4.594   5.884   6.731
  543SOL     OW 2527   6.109   3.975   3.829
  543SOL    HW1 2528   6.083   3.880   3.819
  543SOL    HW2 2529   6.036   4.026   3.873
  544SOL     OW 2530   1.051   4.950   7.017
  544SOL    HW1 2531   1.087   4.859   0.010
  544SOL    HW2 2532   1.126   5.010   6.989
  545SOL     OW 2533   3.688   0.565   0.987
  545SOL    HW1 2534   3.771   0.554   1.042
  545SOL    HW2 2535   3.610   0.578   1.048
  546SOL     OW 2536   1.033   3.976   1.089
  546SOL    HW1 2537   1.109   3.911   1.093
  546SOL    HW2 2538   0.978   3.969   1.173
  547SOL     OW 2539   3.640   2.206   0.865
  547SOL    HW1 2540   3.622   2.219   0.963
  547SOL    HW2 2541   3.691   2.122   0.851
  548SOL     OW 2542   3.170   3.281   1.314
  548SOL    HW1 2543   3.217   3.216   1.373
  548SOL    HW2 2544   3.096   3.325   1.365
  549SOL     OW 2545   5.431   2.538   2.347
  549SOL    HW1 2546   5.391   2.617   2.393
  549SOL    HW2 2547   5.374   2.512   2.270
  550SOL     OW 2548   1.086   5.609   3.431
  550SOL    HW1 2549   1.180   5.613   3.465
  550SOL    HW2 2550   1.023   5.632   3.505
  551SOL     OW 2551   0.454   6.963   1.812
  551SOL    HW1 2552   0.520   0.000   1.852
  551SOL    HW2 2553   0.482   6.869   1.832
  552SOL     OW 2554   5.950   4.002   7.025
  552SOL    HW1 2555   5.880   3.999   0.070
  552SOL    HW2 2556   5.912   4.044   6.942
  553SOL     OW 2557   2.620   6.790   4.417
  553SOL    HW1 2558   2.579   6.771   4.328
  553SOL    HW2 2559   2.706   6.840   4.404
  554SOL     OW 2560   5.796   0.077   0.013
  554SOL    HW1 2561   5.882   0.027   0.010
  554SOL    HW2 2562   5.734   0.031   0.077
  555SOL     OW 2563   3.522   4.985   4.656
  555SOL    HW1 2564   3.537   4.895   4.616
  555SOL    HW2 2565   3.606   5.039   4.650
  556SOL     OW 2566   5.016   2.185   3.722
  556SOL    HW1 2567   4.963   2.123   3.781
  556SOL    HW2 2568   5.004   2.159   3.627
  557SOL     OW 2569   6.740   5.590   0.609
  557SOL    HW1 2570   6.821   5.621   0.558
  557SOL    HW2 2571   6.668   5.658   0.600
  558SOL     OW 2572   3.433   3.221   3.347
  558SOL    HW1 2573   3.411   3.254   3.438
  558SOL    HW2 2574   3.487   3.137   3.354
  559SOL     OW 2575   6.892   5.582   6.084
  559SOL    HW1 2576   6.923   5.505   6.029
  559SOL    HW2 2577   6.905   5.560   6.181
  560SOL     OW 2578   6.545   3.739   3.672
  560SOL    HW1 2579   6.626   3.794   3.650
  560SOL    HW2 2580   6.492   3.785   3.743
  561SOL     OW 2581   0.541   2.401   0.939
  561SOL    HW1 2582   0.615   2.349   0.981
  561SOL    HW2 2583   0.579   2.464   0.871
  562SOL     OW 2584   4.161   0.067   6.341
  562SOL    HW1 2585   4.198   0.160   6.339
  562SOL    HW2 2586   4.074   0.066   6.291
  563SOL     OW 2587   2.894   0.396   3.884
  563SOL    HW1 2588   2.812   0.401   3.941
  563SOL    HW2 2589   2.975   0.389   3.942
  564SOL     OW 2590   0.979   2.852   0.211
  564SOL    HW1 2591   1.050   2.902   0.161
  564SOL    HW2 2592   0.921   2.916   0.260
  565SOL     OW 2593   3.655   3.866   4.642
  565SOL    HW1 2594   3.563   3.862   4.603
  565SOL    HW2 2595   3.661   3.942   4.707
  566SOL     OW 2596   0.461   4.258   3.286
  566SOL    HW1 2597   0.382   4.301   3.242
  566SOL    HW2 2598   0.430   4.185   3.347
  567SOL     OW 2599   2.871   2.999   1.658
  567SOL    HW1 2600   2.911   2.912   1.688
  567SOL    HW2 2601   2.861   2.999   1.559
  568SOL     OW 2602   4.904   6.985   6.948
  568SOL    HW1 2603   4.864   6.971   0.012
  568SOL    HW2 2604   5.003   6.996   6.956
  569SOL     OW 2605   1.183   2.996   0.102
  569SOL    HW1 2606   1.242   2.983   0.183
  569SOL    HW2 2607   1.184   2.912   0.048
  570SOL     OW 2608   3.691   0.005   6.393
  570SOL    HW1 2609   3.681   6.933   6.383
  570SOL    HW2 2610   3.615   0.051   6.347
  571SOL     OW 2611   3.200   4.909   2.747
  571SOL    HW1 2612   3.153   4.866   2.670
  571SOL    HW2 2613   3.296   4.927   2.722
  572SOL     OW 2614   2.713   4.975   5.596
  572SOL    HW1 2615   2.663   5.060   5.613
  572SOL    HW2 2616   2.649   4.898   5.601
  573SOL     OW 2617   5.302   0.507   5.786
  573SOL    HW1 2618   5.360   0.585   5.810
  573SOL    HW2 2619   5.332   0.426   5.836
  574SOL     OW 2620   3.601   1.614   4.662
  574SOL    HW1 2621   3.540   1.543   4.696
  574SOL    HW2 2622   3.694   1.577   4.655
  575SOL     OW 2623   5.074   3.891   1.613
  575SOL    HW1 2624   5.073   3.943   1.527
  575SOL    HW2 2625   5.143   3.819   1.607
  576SOL     OW 2626   1.455   2.335   2.911
  576SOL    HW1 2627   1.400   2.276   2.852
  576SOL    HW2 2628   1.528   2.283   2.953
  577SOL     OW 2629   1.092   1.359   2.788
  577SOL    HW1 2630   1.112   1.457   2.792
  577SOL    HW2 2631   1.059   1.327   2.876
  578SOL     OW 2632   6.510   5.318   4.746
  578SOL    HW1 2633   6.522   5.304   4.648
  578SOL    HW2 2634   6.499   5.416   4.764
  579SOL     OW 2635   1.842   3.430   4.088
  579SOL    HW1 2636   1.928   3.453   4.134
  579SOL    HW2 2637   1.853   3.443   3.989
  580SOL     OW 2638   4.764   4.905   5.303
  580SOL    HW1 2639   4.695   4.921   5.233
  580SOL    HW2 2640   4.854   4.893   5.260
  581SOL     OW 2641   1.499   2.487   1.834
  581SOL    HW1 2642   1.490   2.404   1.779
  581SOL    HW2 2643   1.581   2.537   1.807
  582SOL     OW 2644   4.775   6.011   2.495
  582SOL    HW1 2645   4.752   5.914   2.494
  582SOL    HW2 2646   4.835   6.032   2.418
  583SOL     OW 2647   2.676   6.006   5.122
  583SOL    HW1 2648   2.770   6.006   5.087
  583SOL    HW2 2649   2.613   6.024   5.046
  584SOL     OW 2650   2.516   5.683   6.694
  584SOL    HW1 2651   2.521   5.779   6.665
  584SOL    HW2 2652   2.426   5.646   6.672
  585SOL     OW 2653   4.566   1.427   6.498
  585SOL    HW1 2654   4.650   1.461   6.457
  585SOL    HW2 2655   4.572   1.432   6.597
  586SOL     OW 2656   3.381   0.258   6.016
  586SOL    HW1 2657   3.403   0.199   6.093
  586SOL    HW2 2658   3.379   0.353   6.047
  587SOL     OW 2659   4.627   2.355   3.900
  587SOL    HW1 2660   4.666   2.311   3.819
  587SOL    HW2 2661   4.676   2.324   3.982
  588SOL     OW 2662   2.413   5.297   1.092
  588SOL    HW1 2663   2.329   5.340   1.060
  588SOL    HW2 2664   2.391   5.217   1.149
  589SOL     OW 2665   3.589   4.849   1.525
  589SOL    HW1 2666   3.514   4.802   1.572
  589SOL    HW2 2667   3.666   4.859   1.588
  590SOL     OW 2668   5.302   2.917   2.118
  590SOL    HW1 2669   5.223   2.858   2.105
  590SOL    HW2 2670   5.271   3.005   2.155
  591SOL     OW 2671   3.491   5.863   3.407
  591SOL    HW1 2672   3.394   5.863   3.434
  591SOL    HW2 2673   3.503   5.801   3.329
  592SOL     OW 2674   3.904   1.169   1.302
  592SOL    HW1 2675   3.886   1.266   1.287
  592SOL    HW2 2676   3.939   1.128   1.218
  593SOL     OW 2677   4.062   2.125   4.311
  593SOL    HW1 2678   4.140   2.178   4.344
  593SOL    HW2 2679   4.002   2.102   4.388
  594SOL     OW 2680   6.361   1.357   0.568
  594SOL    HW1 2681   6.418   1.424   0.615
  594SOL    HW2 2682   6.416   1.307   0.501
  595SOL     OW 2683   5.320   0.641   3.559
  595SOL    HW1 2684   5.371   0.652   3.645
  595SOL    HW2 2685   5.266   0.724   3.542
  596SOL     OW 2686   0.489   5.363   3.677
  596SOL    HW1 2687   0.524   5.455   3.693
  596SOL    HW2 2688   0.409   5.368   3.617
  597SOL     OW 2689   2.211   0.076   0.011
  597SOL    HW1 2690   2.265   0.011   0.065
  597SOL    HW2 2691   2.247   0.168   0.024
  598SOL     OW 2692   3.807   3.639   5.207
  598SOL    HW1 2693   3.875   3.711   5.212
  598SOL    HW2 2694   3.757   3.634   5.294
  599SOL     OW 2695   2.748   6.312   2.164
  599SOL    HW1 2696   2.714   6.230   2.117
  599SOL    HW2 2697   2.698   6.392   2.131
  600SOL     OW 2698   6.033   1.374   6.606
  600SOL    HW1 2699   6.114   1.349   6.553
  600SOL    HW2 2700   6.059   1.434   6.682
  601SOL     OW 2701   1.261   0.538   4.621
  601SOL    HW1 2702   1.179   0.553   4.565
  601SOL    HW2 2703   1.337   0.590   4.585
  602SOL     OW 2704   1.330   1.165   6.321
  602SOL    HW1 2705   1.253   1.202   6.373
  602SOL    HW2 2706   1.382   1.103   6.379
  603SOL     OW 2707   2.914   2.611   5.309
  603SOL    HW1 2708   2.992   2.558   5.341
  603SOL    HW2 2709   2.881   2.670   5.383
  604SOL     OW 2710   1.243   2.057   1.535
  604SOL    HW1 2711   1.209   2.041   1.443
  604SOL    HW2 2712   1.171   2.039   1.602
  605SOL     OW 2713   6.655   5.348   0.090
  605SOL    HW1 2714   6.744   5.353   0.043
  605SOL    HW2 2715   6.656   5.409   0.169
  606SOL     OW 2716   5.110   6.529   6.460
  606SOL    HW1 2717   5.055   6.610   6.438
  606SOL    HW2 2718   5.164   6.503   6.379
  607SOL     OW 2719   5.919   5.113   5.037
  607SOL    HW1 2720   5.857   5.132   5.113
  607SOL    HW2 2721   6.013   5.135   5.065
  608SOL     OW 2722   3.712   6.452   6.586
  608SOL    HW1 2723   3.671   6.381   6.643
  608SOL    HW2 2724   3.803   6.474   6.621
  609SOL     OW 2725   3.897   3.168   2.542
  609SOL    HW1 2726   3.873   3.079   2.580
  609SOL    HW2 2727   3.945   3.222   2.611
  610SOL     OW 2728   5.832   3.808   2.053
  610SOL    HW1 2729   5.780   3.807   2.138
  610SOL    HW2 2730   5.799   3.881   1.994
  611SOL     OW 2731   4.112   6.993   1.977
  611SOL    HW1 2732   4.141   0.040   2.038
  611SOL    HW2 2733   4.170   6.993   1.895
  612SOL     OW 2734   4.007   6.518   4.686
  612SOL    HW1 2735   4.051   6.489   4.602
  612SOL    HW2 2736   3.967   6.439   4.732
  613SOL     OW 2737   4.912   6.078   5.511
  613SOL    HW1 2738   4.930   5.984   5.480
  613SOL    HW2 2739   4.979   6.103   5.581
  614SOL     OW 2740   5.134   5.694   6.997
  614SOL    HW1 2741   5.143   5.652   0.061
  614SOL    HW2 2742   5.083   5.779   7.005
  615SOL     OW 2743   6.885   2.368   2.118
  615SOL    HW1 2744   6.960   2.384   2.181
  615SOL    HW2 2745   6.808   2.428   2.142
  616SOL     OW 2746   0.852   3.330   3.515
  616SOL    HW1 2747   0.851   3.425   3.548
  616SOL    HW2 2748   0.874   3.269   3.591
  617SOL     OW 2749   0.563   4.507   6.202
  617SOL    HW1 2750   0.632   4.563   6.158
  617SOL    HW2 2751   0.545   4.541   6.294
  618SOL     OW 2752   6.626   2.388   0.651
  618SOL    HW1 2753   6.530   2.370   0.675
  618SOL    HW2 2754   6.639   2.486   0.639
  619SOL     OW 2755   4.342   1.091   0.196
  619SOL    HW1 2756   4.317   1.133   0.283
  619SOL    HW2 2757   4.346   1.162   0.125
  620SOL     OW 2758   3.938   2.317   1.528
  620SOL    HW1 2759   4.006   2.322   1.455
  620SOL    HW2 2760   3.983   2.331   1.616
  621SOL     OW 2761   2.272   6.528   6.931
  621SOL    HW1 2762   2.256   6.467   7.009
  621SOL    HW2 2763   2.370   6.535   6.915
  622SOL     OW 2764   1.149   0.497   6.524
  622SOL    HW1 2765   1.106   0.550   6.596
  622SOL    HW2 2766   1.215   0.433   6.563
  623SOL     OW 2767   0.495   5.526   5.474
  623SOL    HW1 2768   0.584   5.487   5.450
  623SOL    HW2 2769   0.506   5.620   5.506
  624SOL     OW 2770   0.040   2.712   0.847
  624SOL    HW1 2771   0.052   2.616   0.872
  624SOL    HW2 2772   0.074   2.770   0.921
  625SOL     OW 2773   2.087   1.880   1.556
  625SOL    HW1 2774   2.028   1.807   1.520
  625SOL    HW2 2775   2.117   1.856   1.649
  626SOL     OW 2776   2.014   6.333   3.362
  626SOL    HW1 2777   2.083   6.406   3.367
  626SOL    HW2 2778   2.040   6.259   3.423
  627SOL     OW 2779   5.494   6.468   6.843
  627SOL    HW1 2780   5.463   6.552   6.889
  627SOL    HW2 2781   5.419   6.402   6.840
  628SOL     OW 2782   6.416   5.680   6.185
  628SOL    HW1 2783   6.382   5.714   6.097
  628SOL    HW2 2784   6.340   5.670   6.249
  629SOL     OW 2785   6.514   6.473   0.514
  629SOL    HW1 2786   6.605   6.472   0.472
  629SOL    HW2 2787   6.523   6.491   0.612
  630SOL     OW 2788   6.607   1.863   2.351
  630SOL    HW1 2789   6.686   1.801   2.356
  630SOL    HW2 2790   6.638   1.958   2.360
  631SOL     OW 2791   3.205   6.668   5.387
  631SOL    HW1 2792   3.120   6.638   5.431
  631SOL    HW2 2793   3.279   6.608   5.415
  632SOL     OW 2794   2.518   1.237   0.759
  632SOL    HW1 2795   2.556   1.328   0.746
  632SOL    HW2 2796   2.582   1.169   0.725
  633SOL     OW 2797   4.798   4.159   0.277
  633SOL    HW1 2798   4.722   4.185   0.337
  633SOL    HW2 2799   4.850   4.241   0.253
  634SOL     OW 2800   4.589   4.950   1.261
  634SOL    HW1 2801   4.500   4.964   1.217
  634SOL    HW2 2802   4.588   4.865   1.313
  635SOL     OW 2803   4.723   5.081   1.057
  635SOL    HW1 2804   4.670   5.036   1.129
  635SOL    HW2 2805   4.676   5.164   1.029
  636SOL     OW 2806   4.183   5.573   6.648
  636SOL    HW1 2807   4.148   5.480   6.651
  636SOL    HW2 2808   4.119   5.634   6.694
  637SOL     OW 2809   6.816   3.992   2.743
  637SOL    HW1 2810   6.779   4.051   2.671
  637SOL    HW2 2811   6.772   3.902   2.737
  638SOL     OW 2812   5.501   2.192   3.071
  638SOL    HW1 2813   5.550   2.263   3.122
  638SOL    HW2 2814   5.456   2.232   2.992
  639SOL     OW 2815   4.886   3.731   2.740
  639SOL    HW1 2816   4.868   3.681   2.656
  639SOL    HW2 2817   4.975   3.776   2.734
  640SOL     OW 2818   0.215   5.078   4.134
  640SOL    HW1 2819   0.158   5.039   4.062
  640SOL    HW2 2820   0.301   5.111   4.095
  641SOL     OW 2821   6.605   6.068   4.784
  641SOL    HW1 2822   6.665   6.148   4.777
  641SOL    HW2 2823   6.578   6.055   4.879
  642SOL     OW 2824   0.426   3.214   4.628
  642SOL    HW1 2825   0.503   3.205   4.691
  642SOL    HW2 2826   0.459   3.206   4.533
  643SOL     OW 2827   4.854   5.380   4.833
  643SOL    HW1 2828   4.860   5.416   4.740
  643SOL    HW2 2829   4.830   5.283   4.830
  644SOL     OW 2830   1.037   5.762   4.313
  644SOL    HW1 2831   0.996   5.756   4.404
  644SOL    HW2 2832   1.063   5.856   4.294
  645SOL     OW 2833   4.769   1.554   4.662
  645SOL    HW1 2834   4.726   1.464   4.649
  645SOL    HW2 2835   4.868   1.543   4.673
  646SOL     OW 2836   3.474   1.254   4.441
  646SOL    HW1 2837   3.457   1.343   4.399
  646SOL    HW2 2838   3.455   1.182   4.374
  647SOL     OW 2839   5.698   2.018   4.965
  647SOL    HW1 2840   5.641   2.088   5.009
  647SOL    HW2 2841   5.759   1.977   5.033
  648SOL     OW 2842   0.272   4.051   4.213
  648SOL    HW1 2843   0.371   4.064   4.220
  648SOL    HW2 2844   0.241   3.988   4.284
  649SOL     OW 2845   3.387   4.107   0.816
  649SOL    HW1 2846   3.480   4.075   0.834
  649SOL    HW2 2847   3.332   4.095   0.898
  650SOL     OW 2848   6.139   4.558   0.990
  650SOL    HW1 2849   6.134   4.565   0.890
  650SOL    HW2 2850   6.100   4.471   1.019
  651SOL     OW 2851   6.682   6.575   5.876
  651SOL    HW1 2852   6.672   6.582   5.975
  651SOL    HW2 2853   6.593   6.581   5.832
  652SOL     OW 2854   5.431   6.171   3.437
  652SOL    HW1 2855   5.336   6.193   3.455
  652SOL    HW2 2856   5.479   6.253   3.406
  653SOL     OW 2857   2.890   6.009   4.933
  653SOL    HW1 2858   2.880   5.984   4.837
  653SOL    HW2 2859   2.847   6.098   4.950
  654SOL     OW 2860   0.334   4.094   6.015
  654SOL    HW1 2861   0.344   4.079   6.114
  654SOL    HW2 2862   0.290   4.013   5.975
  655SOL     OW 2863   0.722   6.158   1.829
  655SOL    HW1 2864   0.637   6.136   1.876
  655SOL    HW2 2865   0.741   6.088   1.760
  656SOL     OW 2866   1.970   5.792   1.880
  656SOL    HW1 2867   1.879   5.827   1.855
  656SOL    HW2 2868   1.971   5.692   1.870
  657SOL     OW 2869   1.618   2.293   1.453
  657SOL    HW1 2870   1.566   2.230   1.511
  657SOL    HW2 2871   1.561   2.320   1.375
  658SOL     OW 2872   3.036   3.478   6.103
  658SOL    HW1 2873   3.056   3.421   6.024
  658SOL    HW2 2874   2.962   3.541   6.081
  659SOL     OW 2875   2.470   5.926   5.817
  659SOL    HW1 2876   2.517   5.898   5.733
  659SOL    HW2 2877   2.505   6.015   5.846
  660SOL     OW 2878   5.300   4.231   2.394
  660SOL    HW1 2879   5.235   4.156   2.383
  660SOL    HW2 2880   5.365   4.230   2.318
  661SOL     OW 2881   4.147   5.645   3.214
  661SOL    HW1 2882   4.112   5.633   3.120
  661SOL    HW2 2883   4.069   5.655   3.276
  662SOL     OW 2884   3.959   0.583   5.708
  662SOL    HW1 2885   4.016   0.637   5.771
  662SOL    HW2 2886   3.863   0.592   5.735
  663SOL     OW 2887   2.524   3.873   6.239
  663SOL    HW1 2888   2.481   3.791   6.277
  663SOL    HW2 2889   2.588   3.847   6.167
  664SOL     OW 2890   6.987   5.214   6.202
  664SOL    HW1 2891   7.017   5.291   6.258
  664SOL    HW2 2892   6.985   5.131   6.258
  665SOL     OW 2893   5.556   5.394   2.031
  665SOL    HW1 2894   5.618   5.317   2.017
  665SOL    HW2 2895   5.480   5.365   2.089
  666SOL     OW 2896   5.192   1.821   2.639
  666SOL    HW1 2897   5.145   1.748   2.589
  666SOL    HW2 2898   5.171   1.813   2.737
  667SOL     OW 2899   1.129   4.816   3.162
  667SOL    HW1 2900   1.116   4.805   3.261
  667SOL    HW2 2901   1.181   4.739   3.127
  668SOL     OW 2902   5.368   6.714   5.961
  668SOL    HW1 2903   5.365   6.622   6.000
  668SOL    HW2 2904   5.310   6.717   5.879
  669SOL     OW 2905   4.063   0.350   2.682
  669SOL    HW1 2906   4.138   0.308   2.631
  669SOL    HW2 2907   4.000   0.395   2.619
  670SOL     OW 2908   3.195   2.763   1.188
  670SOL    HW1 2909   3.288   2.731   1.208
  670SOL    HW2 2910   3.146   2.693   1.135
  671SOL     OW 2911   1.442   6.490   0.120
  671SOL    HW1 2912   1.459   6.456   0.212
  671SOL    HW2 2913   1.452   6.415   0.055
  672SOL     OW 2914   0.411   5.575   2.279
  672SOL    HW1 2915   0.429   5.477   2.281
  672SOL    HW2 2916   0.418   5.613   2.371
  673SOL     OW 2917   6.732   6.594   1.658
  673SOL    HW1 2918   6.817   6.557   1.696
  673SOL    HW2 2919   6.750   6.682   1.615
  674SOL     OW 2920   1.323   1.613   5.081
  674SOL    HW1 2921   1.298   1.701   5.039
  674SOL    HW2 2922   1.420   1.595   5.066
  675SOL     OW 2923   0.724   0.874   3.112
  675SOL    HW1 2924   0.809   0.827   3.090
  675SOL    HW2 2925   0.694   0.847   3.204
  676SOL     OW 2926   3.190   5.974   2.407
  676SOL    HW1 2927   3.121   5.929   2.350
  676SOL    HW2 2928   3.255   6.022   2.348
  677SOL     OW 2929   5.669   2.135   0.710
  677SOL    HW1 2930   5.581   2.133   0.758
  677SOL    HW2 2931   5.667   2.070   0.634
  678SOL     OW 2932   2.201   0.182   5.513
  678SOL    HW1 2933   2.152   0.185   5.426
  678SOL    HW2 2934   2.140   0.147   5.584
  679SOL     OW 2935   4.728   2.041   3.200
  679SOL    HW1 2936   4.638   2.062   3.238
  679SOL    HW2 2937   4.740   1.942   3.195
  680SOL     OW 2938   5.670   5.539   5.924
  680SOL    HW1 2939   5.578   5.539   5.964
  680SOL    HW2 2940   5.738   5.533   5.996
  681SOL     OW 2941   5.554   4.612   1.825
  681SOL    HW1 2942   5.600   4.680   1.768
  681SOL    HW2 2943   5.498   4.552   1.767
  682SOL     OW 2944   6.611   1.478   1.165
  682SOL    HW1 2945   6.617   1.503   1.068
  682SOL    HW2 2946   6.518   1.447   1.185
  683SOL     OW 2947   5.023   3.458   0.587
  683SOL    HW1 2948   4.927   3.473   0.567
  683SOL    HW2 2949   5.035   3.369   0.631
  684SOL     OW 2950   6.808   1.288   0.115
  684SOL    HW1 2951   6.809   1.260   0.019
  684SOL    HW2 2952   6.782   1.209   0.172
  685SOL     OW 2953   3.734   1.303   3.531
  685SOL    HW1 2954   3.772   1.318   3.439
  685SOL    HW2 2955   3.679   1.381   3.558
  686SOL     OW 2956   4.894   3.146   3.925
  686SOL    HW1 2957   4.935   3.101   4.004
  686SOL    HW2 2958   4.900   3.087   3.845
  687SOL     OW 2959   0.323   2.080   4.498
  687SOL    HW1 2960   0.409   2.029   4.503
  687SOL    HW2 2961   0.246   2.018   4.509
  688SOL     OW 2962   0.463   1.448   6.952
  688SOL    HW1 2963   0.509   1.536   6.941
  688SOL    HW2 2964   0.519   1.388   7.010
  689SOL     OW 2965   0.462   4.840   6.598
  689SOL    HW1 2966   0.398   4.766   6.618
  689SOL    HW2 2967   0.416   4.909   6.542
  690SOL     OW 2968   0.839   4.032   2.450
  690SOL    HW1 2969   0.811   3.992   2.538
  690SOL    HW2 2970   0.770   4.014   2.381
  691SOL     OW 2971   2.508   0.059   0.332
  691SOL    HW1 2972   2.546   6.997   0.304
  691SOL    HW2 2973   2.569   0.132   0.304
  692SOL     OW 2974   3.607   0.558   3.879
  692SOL    HW1 2975   3.563   0.647   3.875
  692SOL    HW2 2976   3.553   0.497   3.937
  693SOL     OW 2977   5.322   0.670   3.903
  693SOL    HW1 2978   5.386   0.747   3.896
  693SOL    HW2 2979   5.373   0.586   3.922
  694SOL     OW 2980   4.011   6.198   2.985
  694SOL    HW1 2981   4.102   6.163   3.008
  694SOL    HW2 2982   3.941   6.141   3.028
  695SOL     OW 2983   4.289   6.849   4.111
  695SOL    HW1 2984   4.291   6.750   4.108
  695SOL    HW2 2985   4.288   6.881   4.206
  696SOL     OW 2986   4.669   4.895   2.664
  696SOL    HW1 2987   4.618   4.932   2.586
  696SOL    HW2 2988   4.613   4.825   2.709
  697SOL     OW 2989   1.743   3.868   3.472
  697SOL    HW1 2990   1.823   3.856   3.530
  697SOL    HW2 2991   1.766   3.845   3.378
  698SOL     OW 2992   4.696   6.863   0.752
  698SOL    HW1 2993   4.711   6.813   0.667
  698SOL    HW2 2994   4.777   6.917   0.774
  699SOL     OW 2995   2.083   3.438   6.454
  699SOL    HW1 2996   2.056   3.353   6.407
  699SOL    HW2 2997   2.075   3.515   6.391
  700SOL     OW 2998   2.790   0.644   2.062
  700SOL    HW1 2999   2.696   0.651   2.095
  700SOL    HW2 3000   2.847   0.710   2.110
  701SOL     OW 3001   6.318   3.857   6.114
  701SOL    HW1 3002   6.326   3.952   6.143
  701SOL    HW2 3003   6.224   3.839   6.085
  702SOL     OW 3004   1.455   5.927   4.695
  702SOL    HW1 3005   1.369   5.912   4.646
  702SOL    HW2 3006   1.507   5.842   4.697
  703SOL     OW 3007   3.759   3.790   6.803
  703SOL    HW1 3008   3.750   3.889   6.818
  703SOL    HW2 3009   3.728   3.768   6.711
  704SOL     OW 3010   1.445   2.630   0.529
  704SOL    HW1 3011   1.454   2.688   0.448
  704SOL    HW2 3012   1.378   2.558   0.512
  705SOL     OW 3013   6.277   5.310   2.755
  705SOL    HW1 3014   6.309   5.325   2.849
  705SOL    HW2 3015   6.231   5.393   2.722
  706SOL     OW 3016   4.485   2.045   4.868
  706SOL    HW1 3017   4.584   2.042   4.859
  706SOL    HW2 3018   4.453   2.139   4.862
  707SOL     OW 3019   4.557   5.002   2.438
  707SOL    HW1 3020   4.504   5.074   2.484
  707SOL    HW2 3021   4.549   5.012   2.339
  708SOL     OW 3022   3.812   0.409   2.231
  708SOL    HW1 3023   3.888   0.380   2.289
  708SOL    HW2 3024   3.803   0.346   2.154
  709SOL     OW 3025   0.445   6.061   0.924
  709SOL    HW1 3026   0.449   6.004   1.006
  709SOL    HW2 3027   0.532   6.056   0.875
  710SOL     OW 3028   3.842   2.586   1.095
  710SOL    HW1 3029   3.892   2.524   1.034
  710SOL    HW2 3030   3.768   2.536   1.140
  711SOL     OW 3031   0.053   3.087   5.686
  711SOL    HW1 3032   0.012   3.167   5.643
  711SOL    HW2 3033   0.151   3.083   5.663
  712SOL     OW 3034   4.158   2.365   1.377
  712SOL    HW1 3035   4.184   2.449   1.330
  712SOL    HW2 3036   4.239   2.321   1.414
  713SOL     OW 3037   4.166   2.439   5.733
  713SOL    HW1 3038   4.190   2.488   5.816
  713SOL    HW2 3039   4.248   2.421   5.679
  714SOL     OW 3040   0.103   4.620   3.514
  714SOL    HW1 3041   0.023   4.680   3.516
  714SOL    HW2 3042   0.108   4.574   3.426
  715SOL     OW 3043   5.091   5.960   6.591
  715SOL    HW1 3044   5.162   5.968   6.660
  715SOL    HW2 3045   5.085   6.045   6.539
  716SOL     OW 3046   0.596   0.823   2.048
  716SOL    HW1 3047   0.540   0.746   2.016
  716SOL    HW2 3048   0.607   0.889   1.974
  717SOL     OW 3049   6.780   4.307   4.185
  717SOL    HW1 3050   6.814   4.269   4.099
  717SOL    HW2 3051   6.850   4.366   4.225
  718SOL     OW 3052   4.546   3.048   6.057
  718SOL    HW1 3053   4.498   2.967   6.023
  718SOL    HW2 3054   4.550   3.045   6.157
  719SOL     OW 3055   6.525   1.180   2.575
  719SOL    HW1 3056   6.599   1.136   2.626
  719SOL    HW2 3057   6.509   1.130   2.490
  720SOL     OW 3058   2.150   0.436   6.069
  720SOL    HW1 3059   2.080   0.507   6.062
  720SOL    HW2 3060   2.120   0.366   6.133
  721SOL     OW 3061   2.411   1.518   2.689
  721SOL    HW1 3062   2.384   1.550   2.599
  721SOL    HW2 3063   2.330   1.511   2.748
  722SOL     OW 3064   2.761   0.338   5.350
  722SOL    HW1 3065   2.698   0.260   5.344
  722SOL    HW2 3066   2.715   0.420   5.314
  723SOL     OW 3067   1.449   4.503   3.433
  723SOL    HW1 3068   1.457   4.568   3.357
  723SOL    HW2 3069   1.491   4.542   3.515
  724SOL     OW 3070   1.408   2.372   4.042
  724SOL    HW1 3071   1.498   2.409   4.066
  724SOL    HW2 3072   1.343   2.447   4.033
  725SOL     OW 3073   2.399   5.555   1.284
  725SOL    HW1 3074   2.490   5.531   1.248
  725SOL    HW2 3075   2.369   5.485   1.348
  726SOL     OW 3076   3.638   4.774   1.276
  726SOL    HW1 3077   3.566   4.799   1.212
  726SOL    HW2 3078   3.617   4.810   1.367
  727SOL     OW 3079   6.298   4.712   5.788
  727SOL    HW1 3080   6.336   4.707   5.696
  727SOL    HW2 3081   6.330   4.635   5.842
  728SOL     OW 3082   6.484   3.190   3.966
  728SOL    HW1 3083   6.496   3.172   3.869
  728SOL    HW2 3084   6.522   3.280   3.989
  729SOL     OW 3085   0.369   1.916   1.755
  729SOL    HW1 3086   0.325   2.005   1.763
  729SOL    HW2 3087   0.439   1.906   1.826
  730SOL     OW 3088   5.648   0.281   4.185
  730SOL    HW1 3089   5.701   0.300   4.268
  730SOL    HW2 3090   5.550   0.280   4.208
  731SOL     OW 3091   4.764   4.844   6.385
  731SOL    HW1 3092   4.704   4.764   6.393
  731SOL    HW2 3093   4.801   4.867   6.475
  732SOL     OW 3094   5.498   2.886   1.497
  732SOL    HW1 3095   5.515   2.983   1.512
  732SOL    HW2 3096   5.509   2.836   1.583
  733SOL     OW 3097   5.287   6.892   4.755
  733SOL    HW1 3098   5.336   6.895   4.842
  733SOL    HW2 3099   5.254   6.983   4.732
  734SOL     OW 3100   6.317   4.823   3.060
  734SOL    HW1 3101   6.346   4.802   2.966
  734SOL    HW2 3102   6.275   4.914   3.061
  735SOL     OW 3103   4.453   1.802   0.337
  735SOL    HW1 3104   4.394   1.743   0.282
  735SOL    HW2 3105   4.397   1.874   0.379
  736SOL     OW 3106   6.982   1.788   3.270
  736SOL    HW1 3107   6.956   1.734   3.349
  736SOL    HW2 3108   0.001   1.872   3.300
  737SOL     OW 3109   5.329   1.818   4.823
  737SOL    HW1 3110   5.333   1.805   4.922
  737SOL    HW2 3111   5.401   1.881   4.795
  738SOL     OW 3112   2.678   3.753   1.222
  738SOL    HW1 3113   2.716   3.663   1.206
  738SOL    HW2 3114   2.619   3.751   1.303
  739SOL     OW 3115   4.544   1.194   4.010
  739SOL    HW1 3116   4.462   1.157   3.966
  739SOL    HW2 3117   4.538   1.294   4.012
  740SOL     OW 3118   6.493   1.355   1.604
  740SOL    HW1 3119   6.561   1.314   1.543
  740SOL    HW2 3120   6.454   1.436   1.559
  741SOL     OW 3121   1.443   0.495   3.554
  741SOL    HW1 3122   1.430   0.513   3.651
  741SOL    HW2 3123   1.498   0.568   3.514
  742SOL     OW 3124   2.695   6.566   1.503
  742SOL    HW1 3125   2.634   6.547   1.426
  742SOL    HW2 3126   2.701   6.665   1.518
  743SOL     OW 3127   0.975   4.973   3.555
  743SOL    HW1 3128   1.036   4.894   3.558
  743SOL    HW2 3129   1.024   5.055   3.584
  744SOL     OW 3130   5.383   0.226   1.220
  744SOL    HW1 3131   5.419   0.136   1.197
  744SOL    HW2 3132   5.404   0.247   1.315
  745SOL     OW 3133   1.232   5.198   4.441
  745SOL    HW1 3134   1.176   5.247   4.375
  745SOL    HW2 3135   1.322   5.242   4.447
  746SOL     OW 3136   6.496   3.965   6.927
  746SOL    HW1 3137   6.489   4.064   6.915
  746SOL    HW2 3138   6.592   3.939   6.939
  747SOL     OW 3139   3.778   6.607   4.486
  747SOL    HW1 3140   3.806   6.653   4.570
  747SOL    HW2 3141   3.765   6.509   4.505
  748SOL     OW 3142   4.130   4.760   2.079
  748SOL    HW1 3143   4.181   4.773   1.994
  748SOL    HW2 3144   4.033   4.777   2.062
  749SOL     OW 3145   5.767   3.730   4.555
  749SOL    HW1 3146   5.763   3.690   4.464
  749SOL    HW2 3147   5.828   3.809   4.554
  750SOL     OW 3148   2.349   2.023   1.296
  750SOL    HW1 3149   2.385   1.992   1.384
  750SOL    HW2 3150   2.304   2.111   1.308
  751SOL     OW 3151   4.132   1.406   0.078
  751SOL    HW1 3152   4.052   1.429   0.022
  751SOL    HW2 3153   4.207   1.377   0.018
  752SOL     OW 3154   3.432   1.212   1.749
  752SOL    HW1 3155   3.490   1.271   1.693
  752SOL    HW2 3156   3.351   1.186   1.697
  753SOL     OW 3157   1.432   3.524   5.803
  753SOL    HW1 3158   1.465   3.618   5.810
  753SOL    HW2 3159   1.434   3.495   5.707
  754SOL     OW 3160   4.601   1.880   5.482
  754SOL    HW1 3161   4.509   1.880   5.442
  754SOL    HW2 3162   4.621   1.790   5.519
  755SOL     OW 3163   1.878   4.900   5.017
  755SOL    HW1 3164   1.915   4.810   4.991
  755SOL    HW2 3165   1.920   4.930   5.102
  756SOL     OW 3166   3.148   6.221   6.750
  756SOL    HW1 3167   3.073   6.156   6.735
  756SOL    HW2 3168   3.129   6.277   6.830
  757SOL     OW 3169   0.269   0.235   4.036
  757SOL    HW1 3170   0.184   0.191   4.064
  757SOL    HW2 3171   0.287   0.215   3.939
  758SOL     OW 3172   3.075   0.585   3.007
  758SOL    HW1 3173   2.994   0.538   2.972
  758SOL    HW2 3174   3.048   0.655   3.073
  759SOL     OW 3175   0.570   2.423   2.007
  759SOL    HW1 3176   0.537   2.388   1.919
  759SOL    HW2 3177   0.492   2.452   2.063
  760SOL     OW 3178   6.194   6.810   4.133
  760SOL    HW1 3179   6.115   6.769   4.089
  760SOL    HW2 3180   6.173   6.903   4.161
  761SOL     OW 3181   5.687   3.953   6.137
  761SOL    HW1 3182   5.730   3.880   6.190
  761SOL    HW2 3183   5.595   3.970   6.172
  762SOL     OW 3184   2.457   6.686   4.859
  762SOL    HW1 3185   2.425   6.601   4.901
  762SOL    HW2 3186   2.468   6.673   4.760
  763SOL     OW 3187   4.456   5.381   6.532
  763SOL    HW1 3188   4.439   5.400   6.435
  763SOL    HW2 3189   4.375   5.337   6.572
  764SOL     OW 3190   5.723   0.768   5.223
  764SOL    HW1 3191   5.780   0.846   5.200
  764SOL    HW2 3192   5.731   0.749   5.321
  765SOL     OW 3193   1.336   5.669   1.415
  765SOL    HW1 3194   1.240   5.694   1.401
  765SOL    HW2 3195   1.384   5.747   1.456
  766SOL     OW 3196   2.405   2.216   6.328
  766SOL    HW1 3197   2.501   2.214   6.356
  766SOL    HW2 3198   2.374   2.311   6.322
  767SOL     OW 3199   6.564   5.929   3.250
  767SOL    HW1 3200   6.618   5.877   3.316
  767SOL    HW2 3201   6.604   6.020   3.238
  768SOL     OW 3202   2.592   6.047   2.678
  768SOL    HW1 3203   2.535   5.966   2.686
  768SOL    HW2 3204   2.667   6.029   2.614
  769SOL     OW 3205   2.685   1.254   5.515
  769SOL    HW1 3206   2.776   1.222   5.489
  769SOL    HW2 3207   2.663   1.337   5.463
  770SOL     OW 3208   1.721   4.731   3.085
  770SOL    HW1 3209   1.742   4.747   2.989
  770SOL    HW2 3210   1.775   4.653   3.118
  771SOL     OW 3211   1.060   4.921   2.430
  771SOL    HW1 3212   0.960   4.930   2.432
  771SOL    HW2 3213   1.100   4.985   2.495
  772SOL     OW 3214   5.609   4.710   6.727
  772SOL    HW1 3215   5.592   4.623   6.681
  772SOL    HW2 3216   5.603   4.697   6.826
  773SOL     OW 3217   0.310   4.732   4.012
  773SOL    HW1 3218   0.407   4.712   4.007
  773SOL    HW2 3219   0.263   4.690   3.934
  774SOL     OW 3220   1.823   1.471   1.144
  774SOL    HW1 3221   1.761   1.434   1.074
  774SOL    HW2 3222   1.772   1.529   1.207
  775SOL     OW 3223   1.852   2.241   3.969
  775SOL    HW1 3224   1.823   2.335   3.986
  775SOL    HW2 3225   1.931   2.220   4.027
  776SOL     OW 3226   0.824   0.475   5.490
  776SOL    HW1 3227   0.867   0.515   5.410
  776SOL    HW2 3228   0.850   0.526   5.572
  777SOL     OW 3229   1.783   4.454   1.688
  777SOL    HW1 3230   1.818   4.547   1.679
  777SOL    HW2 3231   1.852   4.388   1.656
  778SOL     OW 3232   2.108   1.376   2.122
  778SOL    HW1 3233   2.026   1.366   2.178
  778SOL    HW2 3234   2.175   1.433   2.170
  779SOL     OW 3235   6.999   2.672   2.812
  779SOL    HW1 3236   0.019   2.718   2.736
  779SOL    HW2 3237   7.019   2.721   2.898
  780SOL     OW 3238   0.686   3.035   3.975
  780SOL    HW1 3239   0.760   3.077   4.029
  780SOL    HW2 3240   0.598   3.057   4.018
  781SOL     OW 3241   5.802   6.864   0.286
  781SOL    HW1 3242   5.897   6.844   0.265
  781SOL    HW2 3243   5.796   6.906   0.377
  782SOL     OW 3244   1.462   3.623   6.306
  782SOL    HW1 3245   1.539   3.562   6.286
  782SOL    HW2 3246   1.376   3.574   6.291
  783SOL     OW 3247   5.334   4.953   2.131
  783SOL    HW1 3248   5.390   4.870   2.128
  783SOL    HW2 3249   5.364   5.010   2.208
  784SOL     OW 3250   4.489   4.909   0.710
  784SOL    HW1 3251   4.466   4.894   0.806
  784SOL    HW2 3252   4.587   4.894   0.697
  785SOL     OW 3253   0.844   2.106   3.681
  785SOL    HW1 3254   0.825   2.187   3.626
  785SOL    HW2 3255   0.765   2.087   3.740
  786SOL     OW 3256   0.653   0.348   3.252
  786SOL    HW1 3257   0.556   0.344   3.232
  786SOL    HW2 3258   0.696   0.418   3.195
  787SOL     OW 3259   1.501   0.499   0.076
  787SOL    HW1 3260   1.495   0.446   0.161
  787SOL    HW2 3261   1.431   0.466   0.012
  788SOL     OW 3262   3.896   1.429   0.440
  788SOL    HW1 3263   3.805   1.389   0.454
  788SOL    HW2 3264   3.896   1.524   0.470
  789SOL     OW 3265   3.893   4.450   1.334
  789SOL    HW1 3266   3.960   4.424   1.404
  789SOL    HW2 3267   3.802   4.455   1.376
  790SOL     OW 3268   1.774   1.616   3.073
  790SOL    HW1 3269   1.714   1.675   3.126
  790SOL    HW2 3270   1.816   1.668   2.998
  791SOL     OW 3271   1.387   5.460   4.692
  791SOL    HW1 3272   1.463   5.521   4.710
  791SOL    HW2 3273   1.384   5.389   4.763
  792SOL     OW 3274   0.323   0.983   1.322
  792SOL    HW1 3275   0.344   0.976   1.225
  792SOL    HW2 3276   0.280   1.071   1.341
  793SOL     OW 3277   5.227   4.999   4.030
  793SOL    HW1 3278   5.276   5.055   4.097
  793SOL    HW2 3279   5.232   5.042   3.940
  794SOL     OW 3280   3.080   3.779   6.045
  794SOL    HW1 3281   3.004   3.714   6.054
  794SOL    HW2 3282   3.164   3.730   6.021
  795SOL     OW 3283   3.593   6.932   4.752
  795SOL    HW1 3284   3.681   6.884   4.748
  795SOL    HW2 3285   3.518   6.867   4.749
  796SOL     OW 3286   0.853   2.567   5.822
  796SOL    HW1 3287   0.928   2.561   5.756
  796SOL    HW2 3288   0.766   2.577   5.773
  797SOL     OW 3289   5.641   2.167   1.020
  797SOL    HW1 3290   5.645   2.264   0.997
  797SOL    HW2 3291   5.547   2.144   1.047
  798SOL     OW 3292   3.370   6.565   1.812
  798SOL    HW1 3293   3.319   6.483   1.788
  798SOL    HW2 3294   3.368   6.578   1.911
  799SOL     OW 3295   0.426   7.005   6.411
  799SOL    HW1 3296   0.514   7.018   6.364
  799SOL    HW2 3297   0.440   7.008   6.510
  800SOL     OW 3298   5.453   1.320   2.438
  800SOL    HW1 3299   5.521   1.337   2.367
  800SOL    HW2 3300   5.453   1.223   2.462
  801SOL     OW 3301   2.387   4.328   4.422
  801SOL    HW1 3302   2.422   4.265   4.352
  801SOL    HW2 3303   2.288   4.321   4.426
  802SOL     OW 3304   2.977   1.576   0.920
  802SOL    HW1 3305   2.924   1.660   0.909
  802SOL    HW2 3306   2.971   1.521   0.837
  803SOL     OW 3307   1.087   0.112   6.242
  803SOL    HW1 3308   1.156   0.071   6.182
  803SOL    HW2 3309   1.008   0.140   6.187
  804SOL     OW 3310   5.782   6.486   0.136
  804SOL    HW1 3311   5.754   6.401   0.091
  804SOL    HW2 3312   5.783   6.560   0.069
  805SOL     OW 3313   2.796   0.837   3.956
  805SOL    HW1 3314   2.850   0.827   3.872
  805SOL    HW2 3315   2.699   0.827   3.934
  806SOL     OW 3316   5.285   1.130   4.552
  806SOL    HW1 3317   5.285   1.079   4.466
  806SOL    HW2 3318   5.192   1.138   4.586
  807SOL     OW 3319   0.819   0.857   5.067
  807SOL    HW1 3320   0.789   0.764   5.084
  807SOL    HW2 3321   0.898   0.878   5.124
  808SOL     OW 3322   3.951   4.215   6.210
  808SOL    HW1 3323   3.876   4.232   6.147
  808SOL    HW2 3324   3.923   4.147   6.278
  809SOL     OW 3325   0.522   5.129   1.528
  809SOL    HW1 3326   0.492   5.131   1.433
  809SOL    HW2 3327   0.487   5.209   1.577
  810SOL     OW 3328   3.471   4.277   1.066
  810SOL    HW1 3329   3.381   4.247   1.097
  810SOL    HW2 3330   3.525   4.197   1.038
  811SOL     OW 3331   5.243   6.156   5.413
  811SOL    HW1 3332   5.333   6.162   5.369
  811SOL    HW2 3333   5.176   6.119   5.348
  812SOL     OW 3334   6.940   0.603   2.609
  812SOL    HW1 3335   6.988   0.552   2.538
  812SOL    HW2 3336   6.867   0.547   2.648
  813SOL     OW 3337   4.295   6.560   4.095
  813SOL    HW1 3338   4.284   6.490   4.166
  813SOL    HW2 3339   4.258   6.526   4.009
  814SOL     OW 3340   5.797   6.038   3.084
  814SOL    HW1 3341   5.850   6.084   3.156
  814SOL    HW2 3342   5.701   6.035   3.111
  815SOL     OW 3343   6.872   3.636   3.525
  815SOL    HW1 3344   6.818   3.720   3.518
  815SOL    HW2 3345   6.882   3.611   3.622
  816SOL     OW 3346   6.112   5.810   0.368
  816SOL    HW1 3347   6.083   5.905   0.355
  816SOL    HW2 3348   6.103   5.786   0.464
  817SOL     OW 3349   1.898   5.431   1.589
  817SOL    HW1 3350   1.869   5.336   1.600
  817SOL    HW2 3351   1.862   5.466   1.503
  818SOL     OW 3352   6.170   2.384   3.074
  818SOL    HW1 3353   6.078   2.342   3.074
  818SOL    HW2 3354   6.166   2.471   3.123
  819SOL     OW 3355   5.755   2.922   2.259
  819SOL    HW1 3356   5.700   2.846   2.293
  819SOL    HW2 3357   5.809   2.891   2.181
  820SOL     OW 3358   3.248   2.100   4.913
  820SOL    HW1 3359   3.192   2.177   4.940
  820SOL    HW2 3360   3.309   2.075   4.988
  821SOL     OW 3361   6.671   4.115   0.252
  821SOL    HW1 3362   6.611   4.156   0.321
  821SOL    HW2 3363   6.733   4.185   0.216
  822SOL     OW 3364   0.688   3.667   3.495
  822SOL    HW1 3365   0.753   3.716   3.438
  822SOL    HW2 3366   0.606   3.646   3.442
  823SOL     OW 3367   5.682   3.874   6.474
  823SOL    HW1 3368   5.757   3.826   6.429
  823SOL    HW2 3369   5.598   3.820   6.466
  824SOL     OW 3370   4.808   1.551   6.159
  824SOL    HW1 3371   4.746   1.489   6.111
  824SOL    HW2 3372   4.900   1.542   6.122
  825SOL     OW 3373   0.124   4.992   1.307
  825SOL    HW1 3374   0.211   5.040   1.315
  825SOL    HW2 3375   0.075   5.024   1.226
  826SOL     OW 3376   3.915   2.270   5.738
  826SOL    HW1 3377   3.989   2.292   5.801
  826SOL    HW2 3378   3.830   2.312   5.769
  827SOL     OW 3379   2.755   4.609   5.476
  827SOL    HW1 3380   2.830   4.559   5.432
  827SOL    HW2 3381   2.719   4.555   5.552
  828SOL     OW 3382   5.084   6.172   6.369
  828SOL    HW1 3383   5.141   6.197   6.290
  828SOL    HW2 3384   5.023   6.248   6.392
  829SOL     OW 3385   4.014   3.818   2.416
  829SOL    HW1 3386   3.935   3.758   2.422
  829SOL    HW2 3387   3.983   3.913   2.411
  830SOL     OW 3388   5.953   4.733   6.362
  830SOL    HW1 3389   5.907   4.818   6.337
  830SOL    HW2 3390   6.036   4.754   6.413
  831SOL     OW 3391   5.868   0.475   6.778
  831SOL    HW1 3392   5.899   0.474   6.683
  831SOL    HW2 3393   5.947   0.475   6.839
  832SOL     OW 3394   4.141   0.965   2.995
  832SOL    HW1 3395   4.120   0.944   2.900
  832SOL    HW2 3396   4.152   0.880   3.047
  833SOL     OW 3397   1.846   3.438   6.583
  833SOL    HW1 3398   1.931   3.457   6.534
  833SOL    HW2 3399   1.857   3.460   6.680
  834SOL     OW 3400   4.409   4.186   0.936
  834SOL    HW1 3401   4.491   4.150   0.980
  834SOL    HW2 3402   4.338   4.116   0.935
  835SOL     OW 3403   3.104   0.138   5.471
  835SOL    HW1 3404   3.103   0.069   5.399
  835SOL    HW2 3405   3.106   0.093   5.560
  836SOL     OW 3406   3.611   6.871   5.273
  836SOL    HW1 3407   3.636   6.941   5.340
  836SOL    HW2 3408   3.659   6.888   5.187
  837SOL     OW 3409   6.254   0.076   1.015
  837SOL    HW1 3410   6.305   0.085   0.930
  837SOL    HW2 3411   6.214   7.011   1.021
  838SOL     OW 3412   2.220   0.861   4.386
  838SOL    HW1 3413   2.304   0.902   4.351
  838SOL    HW2 3414   2.226   0.853   4.485
  839SOL     OW 3415   1.076   1.702   1.979
  839SOL    HW1 3416   1.167   1.699   2.021
  839SOL    HW2 3417   1.038   1.609   1.975
  840SOL     OW 3418   6.248   5.622   6.861
  840SOL    HW1 3419   6.228   5.559   6.936
  840SOL    HW2 3420   6.165   5.634   6.806
  841SOL     OW 3421   2.886   5.475   6.137
  841SOL    HW1 3422   2.984   5.452   6.144
  841SOL    HW2 3423   2.868   5.521   6.051
  842SOL     OW 3424   3.585   0.380   4.745
  842SOL    HW1 3425   3.523   0.399   4.821
  842SOL    HW2 3426   3.667   0.336   4.779
  843SOL     OW 3427   0.804   1.498   1.241
  843SOL    HW1 3428   0.866   1.519   1.166
  843SOL    HW2 3429   0.789   1.581   1.295
  844SOL     OW 3430   5.885   0.100   0.636
  844SOL    HW1 3431   5.817   0.084   0.565
  844SOL    HW2 3432   5.933   0.015   0.657
  845SOL     OW 3433   4.781   4.075   4.050
  845SOL    HW1 3434   4.749   4.129   4.127
  845SOL    HW2 3435   4.780   3.978   4.074
  846SOL     OW 3436   2.125   1.030   5.844
  846SOL    HW1 3437   2.184   1.040   5.924
  846SOL    HW2 3438   2.054   1.100   5.846
  847SOL     OW 3439   1.510   3.596   0.866
  847SOL    HW1 3440   1.492   3.694   0.858
  847SOL    HW2 3441   1.428   3.550   0.899
  848SOL     OW 3442   6.958   6.900   5.957
  848SOL    HW1 3443   0.013   6.849   5.984
  848SOL    HW2 3444   6.911   6.933   6.039
  849SOL     OW 3445   6.058   3.751   6.075
  849SOL    HW1 3446   6.113   3.671   6.100
  849SOL    HW2 3447   6.005   3.731   5.993
  850SOL     OW 3448   4.625   1.480   4.134
  850SOL    HW1 3449   4.583   1.455   4.221
  850SOL    HW2 3450   4.604   1.575   4.113
  851SOL     OW 3451   6.933   2.898   1.420
  851SOL    HW1 3452   6.951   2.995   1.433
  851SOL    HW2 3453   6.835   2.880   1.427
  852SOL     OW 3454   1.616   3.977   0.230
  852SOL    HW1 3455   1.672   4.006   0.308
  852SOL    HW2 3456   1.534   3.931   0.263
  853SOL     OW 3457   0.701   4.750   1.227
  853SOL    HW1 3458   0.714   4.651   1.224
  853SOL    HW2 3459   0.780   4.792   1.273
  854SOL     OW 3460   5.278   5.265   0.749
  854SOL    HW1 3461   5.206   5.196   0.745
  854SOL    HW2 3462   5.343   5.241   0.821
  855SOL     OW 3463   6.988   7.011   1.633
  855SOL    HW1 3464   7.011   0.055   1.566
  855SOL    HW2 3465   0.038   6.999   1.696
  856SOL     OW 3466   1.439   2.007   6.325
  856SOL    HW1 3467   1.368   1.982   6.389
  856SOL    HW2 3468   1.460   2.105   6.335
  857SOL     OW 3469   6.127   5.137   1.901
  857SOL    HW1 3470   6.124   5.219   1.843
  857SOL    HW2 3471   6.204   5.080   1.873
  858SOL     OW 3472   3.385   3.951   1.274
  858SOL    HW1 3473   3.345   3.958   1.365
  858SOL    HW2 3474   3.484   3.965   1.280
  859SOL     OW 3475   5.765   0.189   4.542
  859SOL    HW1 3476   5.782   0.114   4.478
  859SOL    HW2 3477   5.817   0.269   4.513
  860SOL     OW 3478   6.359   2.298   0.699
  860SOL    HW1 3479   6.338   2.389   0.664
  860SOL    HW2 3480   6.316   2.229   0.642
  861SOL     OW 3481   2.432   5.548   3.978
  861SOL    HW1 3482   2.445   5.460   3.933
  861SOL    HW2 3483   2.334   5.563   3.994
  862SOL     OW 3484   1.315   3.652   4.104
  862SOL    HW1 3485   1.402   3.654   4.054
  862SOL    HW2 3486   1.239   3.652   4.039
  863SOL     OW 3487   5.775   1.359   6.865
  863SOL    HW1 3488   5.751   1.297   6.940
  863SOL    HW2 3489   5.745   1.452   6.889
  864SOL     OW 3490   3.976   5.714   4.153
  864SOL    HW1 3491   4.048   5.777   4.124
  864SOL    HW2 3492   3.904   5.710   4.084
  865SOL     OW 3493   1.605   6.374   5.879
  865SOL    HW1 3494   1.572   6.292   5.833
  865SOL    HW2 3495   1.530   6.437   5.893
  866SOL     OW 3496   2.039   1.676   1.248
  866SOL    HW1 3497   2.071   1.581   1.251
  866SOL    HW2 3498   1.940   1.677   1.232
  867SOL     OW 3499   5.397   3.779   0.326
  867SOL    HW1 3500   5.347   3.732   0.399
  867SOL    HW2 3501   5.348   3.767   0.240
  868SOL     OW 3502   6.137   1.255   0.666
  868SOL    HW1 3503   6.054   1.311   0.663
  868SOL    HW2 3504   6.211   1.303   0.619
  869SOL     OW 3505   0.374   4.183   2.848
  869SOL    HW1 3506   0.324   4.136   2.775
  869SOL    HW2 3507   0.354   4.139   2.935
  870SOL     OW 3508   3.948   3.433   6.983
  870SOL    HW1 3509   4.026   3.484   6.946
  870SOL    HW2 3510   3.866   3.491   6.979
  871SOL     OW 3511   4.980   2.034   2.614
  871SOL    HW1 3512   5.054   1.974   2.643
  871SOL    HW2 3513   4.971   2.109   2.679
  872SOL     OW 3514   5.361   3.580   3.824
  872SOL    HW1 3515   5.263   3.563   3.814
  872SOL    HW2 3516   5.396   3.528   3.902
  873SOL     OW 3517   6.092   6.319   5.039
  873SOL    HW1 3518   6.095   6.238   4.980
  873SOL    HW2 3519   6.036   6.390   4.995
  874SOL     OW 3520   0.969   3.715   5.909
  874SOL    HW1 3521   0.940   3.737   5.816
  874SOL    HW2 3522   0.930   3.782   5.972
  875SOL     OW 3523   5.439   4.239   0.670
  875SOL    HW1 3524   5.383   4.293   0.608
  875SOL    HW2 3525   5.490   4.170   0.618
  876SOL     OW 3526   1.152   4.475   2.078
  876SOL    HW1 3527   1.084   4.471   2.152
  876SOL    HW2 3528   1.126   4.546   2.013
  877SOL     OW 3529   3.824   4.941   5.722
  877SOL    HW1 3530   3.835   5.002   5.801
  877SOL    HW2 3531   3.822   4.846   5.754
  878SOL     OW 3532   3.771   5.685   4.783
  878SOL    HW1 3533   3.675   5.671   4.808
  878SOL    HW2 3534   3.783   5.672   4.685
  879SOL     OW 3535   3.539   1.877   1.088
  879SOL    HW1 3536   3.606   1.951   1.084
  879SOL    HW2 3537   3.567   1.803   1.027
  880SOL     OW 3538   2.882   3.640   4.712
  880SOL    HW1 3539   2.948   3.668   4.643
  880SOL    HW2 3540   2.792   3.628   4.670
  881SOL     OW 3541   5.980   3.402   5.691
  881SOL    HW1 3542   6.054   3.336   5.702
  881SOL    HW2 3543   5.900   3.356   5.653
  882SOL     OW 3544   0.889   2.585   4.704
  882SOL    HW1 3545   0.875   2.624   4.795
  882SOL    HW2 3546   0.976   2.617   4.667
  883SOL     OW 3547   3.615   0.579   0.528
  883SOL    HW1 3548   3.592   0.586   0.625
  883SOL    HW2 3549   3.696   0.521   0.517
  884SOL     OW 3550   6.849   4.304   0.155
  884SOL    HW1 3551   6.788   4.382   0.141
  884SOL    HW2 3552   6.944   4.336   0.160
  885SOL     OW 3553   4.360   6.482   5.611
  885SOL    HW1 3554   4.270   6.525   5.604
  885SOL    HW2 3555   4.353   6.385   5.592
  886SOL     OW 3556   4.595   0.934   1.001
  886SOL    HW1 3557   4.512   0.936   1.057
  886SOL    HW2 3558   4.589   1.004   0.930
  887SOL     OW 3559   3.892   5.473   3.498
  887SOL    HW1 3560   3.956   5.396   3.504
  887SOL    HW2 3561   3.818   5.449   3.435
  888SOL     OW 3562   0.379   6.628   2.849
  888SOL    HW1 3563   0.398   6.726   2.844
  888SOL    HW2 3564   0.306   6.611   2.915
  889SOL     OW 3565   6.921   1.112   6.299
  889SOL    HW1 3566   6.905   1.014   6.305
  889SOL    HW2 3567   7.003   1.129   6.245
  890SOL     OW 3568   2.314   5.018   2.013
  890SOL    HW1 3569   2.344   5.013   2.108
  890SOL    HW2 3570   2.381   4.972   1.955
  891SOL     OW 3571   0.039   3.703   0.393
  891SOL    HW1 3572   7.017   3.616   0.398
  891SOL    HW2 3573   7.004   3.777   0.417
  892SOL     OW 3574   3.394   3.624   5.231
  892SOL    HW1 3575   3.335   3.545   5.244
  892SOL    HW2 3576   3.429   3.624   5.137
  893SOL     OW 3577   1.475   0.375   2.915
  893SOL    HW1 3578   1.471   0.281   2.949
  893SOL    HW2 3579   1.383   0.410   2.902
  894SOL     OW 3580   1.165   2.728   3.028
  894SOL    HW1 3581   1.182   2.683   3.116
  894SOL    HW2 3582   1.165   2.827   3.040
  895SOL     OW 3583   1.279   5.002   3.694
  895SOL    HW1 3584   1.285   4.905   3.719
  895SOL    HW2 3585   1.325   5.017   3.607
  896SOL     OW 3586   6.222   5.590   1.546
  896SOL    HW1 3587   6.258   5.622   1.634
  896SOL    HW2 3588   6.168   5.507   1.560
  897SOL     OW 3589   4.201   0.314   6.603
  897SOL    HW1 3590   4.261   0.321   6.524
  897SOL    HW2 3591   4.255   0.287   6.683
  898SOL     OW 3592   3.867   5.578   2.272
  898SOL    HW1 3593   3.801   5.575   2.196
  898SOL    HW2 3594   3.896   5.673   2.285
  899SOL     OW 3595   0.286   5.512   0.308
  899SOL    HW1 3596   0.362   5.463   0.265
  899SOL    HW2 3597   0.286   5.495   0.407
  900SOL     OW 3598   4.802   6.110   6.706
  900SOL    HW1 3599   4.864   6.033   6.721
  900SOL    HW2 3600   4.708   6.078   6.702
  901SOL     OW 3601   0.914   0.894   4.345
  901SOL    HW1 3602   0.908   0.815   4.406
  901SOL    HW2 3603   0.882   0.976   4.392
  902SOL     OW 3604   1.315   2.616   1.124
  902SOL    HW1 3605   1.224   2.582   1.150
  902SOL    HW2 3606   1.360   2.548   1.066
  903SOL     OW 3607   0.080   2.995   6.774
  903SOL    HW1 3608   0.030   3.024   6.856
  903SOL    HW2 3609   0.169   2.958   6.801
  904SOL     OW 3610   2.182   2.778   2.635
  904SOL    HW1 3611   2.208   2.831   2.554
  904SOL    HW2 3612   2.246   2.702   2.646
  905SOL     OW 3613   5.011   4.364   6.184
  905SOL    HW1 3614   5.050   4.282   6.142
  905SOL    HW2 3615   4.972   4.423   6.113
  906SOL     OW 3616   0.838   2.699   6.386
  906SOL    HW1 3617   0.847   2.793   6.419
  906SOL    HW2 3618   0.877   2.692   6.294
  907SOL     OW 3619   5.370   2.819   1.874
  907SOL    HW1 3620   5.381   2.853   1.967
  907SOL    HW2 3621   5.272   2.815   1.851
  908SOL     OW 3622   2.368   4.980   3.054
  908SOL    HW1 3623   2.388   4.975   2.956
  908SOL    HW2 3624   2.269   4.976   3.068
  909SOL     OW 3625   3.601   5.730   2.332
  909SOL    HW1 3626   3.671   5.699   2.396
  909SOL    HW2 3627   3.519   5.757   2.383
  910SOL     OW 3628   3.087   0.858   0.836
  910SOL    HW1 3629   3.059   0.939   0.888
  910SOL    HW2 3630   3.052   0.776   0.882
  911SOL     OW 3631   0.570   5.631   6.794
  911SOL    HW1 3632   0.595   5.719   6.833
  911SOL    HW2 3633   0.503   5.644   6.721
  912SOL     OW 3634   4.615   0.337   3.292
  912SOL    HW1 3635   4.636   0.248   3.250
  912SOL    HW2 3636   4.625   0.330   3.392
  913SOL     OW 3637   2.144   0.468   3.964
  913SOL    HW1 3638   2.150   0.487   3.866
  913SOL    HW2 3639   2.048   0.458   3.991
  914SOL     OW 3640   2.586   6.115   5.354
  914SOL    HW1 3641   2.615   6.062   5.275
  914SOL    HW2 3642   2.647   6.193   5.367
  915SOL     OW 3643   7.000   3.338   0.733
  915SOL    HW1 3644   7.011   3.435   0.713
  915SOL    HW2 3645   0.047   3.308   0.793
  916SOL     OW 3646   2.202   2.904   2.868
  916SOL    HW1 3647   2.204   3.004   2.859
  916SOL    HW2 3648   2.207   2.863   2.777
  917SOL     OW 3649   6.143   0.655   2.518
  917SOL    HW1 3650   6.181   0.639   2.427
  917SOL    HW2 3651   6.206   0.711   2.571
  918SOL     OW 3652   3.456   7.009   1.074
  918SOL    HW1 3653   3.378   0.040   1.050
  918SOL    HW2 3654   3.453   6.925   1.019
  919SOL     OW 3655   6.860   6.840   3.398
  919SOL    HW1 3656   6.834   6.765   3.458
  919SOL    HW2 3657   6.828   6.926   3.437
  920SOL     OW 3658   2.703   5.129   2.155
  920SOL    HW1 3659   2.656   5.042   2.167
  920SOL    HW2 3660   2.636   5.203   2.150
  921SOL     OW 3661   4.029   4.796   2.986
  921SOL    HW1 3662   4.017   4.785   2.887
  921SOL    HW2 3663   4.126   4.811   3.005
  922SOL     OW 3664   3.268   3.530   4.912
  922SOL    HW1 3665   3.330   3.456   4.886
  922SOL    HW2 3666   3.317   3.596   4.969
  923SOL     OW 3667   2.622   4.022   5.659
  923SOL    HW1 3668   2.584   3.992   5.572
  923SOL    HW2 3669   2.549   4.030   5.727
  924SOL     OW 3670   6.355   2.846   3.156
  924SOL    HW1 3671   6.341   2.763   3.210
  924SOL    HW2 3672   6.376   2.821   3.062
  925SOL     OW 3673   7.008   1.930   6.586
  925SOL    HW1 3674   6.953   1.982   6.521
  925SOL    HW2 3675   6.953   1.856   6.625
  926SOL     OW 3676   6.519   1.224   0.900
  926SOL    HW1 3677   6.524   1.312   0.853
  926SOL    HW2 3678   6.448   1.168   0.858
  927SOL     OW 3679   5.430   4.088   2.939
  927SOL    HW1 3680   5.443   3.996   2.901
  927SOL    HW2 3681   5.488   4.099   3.020
  928SOL     OW 3682   1.185   6.647   0.290
  928SOL    HW1 3683   1.282   6.654   0.267
  928SOL    HW2 3684   1.175   6.621   0.386
  929SOL     OW 3685   0.342   0.145   0.840
  929SOL    HW1 3686   0.425   0.124   0.789
  929SOL    HW2 3687   0.262   0.133   0.781
  930SOL     OW 3688   5.380   5.879   4.173
  930SOL    HW1 3689   5.458   5.823   4.145
  930SOL    HW2 3690   5.324   5.899   4.092
  931SOL     OW 3691   5.754   1.483   4.566
  931SOL    HW1 3692   5.846   1.452   4.541
  931SOL    HW2 3693   5.761   1.558   4.631
  932SOL     OW 3694   3.002   0.045   3.537
  932SOL    HW1 3695   3.053   7.004   3.590
  932SOL    HW2 3696   2.930   0.085   3.593
  933SOL     OW 3697   1.751   5.889   3.622
  933SOL    HW1 3698   1.809   5.906   3.701
  933SOL    HW2 3699   1.765   5.962   3.554
  934SOL     OW 3700   1.401   0.267   6.335
  934SOL    HW1 3701   1.430   0.171   6.332
  934SOL    HW2 3702   1.346   0.287   6.255
  935SOL     OW 3703   5.039   3.931   3.863
  935SOL    HW1 3704   5.095   3.975   3.792
  935SOL    HW2 3705   5.012   3.840   3.832
  936SOL     OW 3706   0.555   0.569   6.346
  936SOL    HW1 3707   0.573   0.511   6.267
  936SOL    HW2 3708   0.456   0.581   6.357
  937SOL     OW 3709   5.244   1.710   5.173
  937SOL    HW1 3710   5.196   1.680   5.255
  937SOL    HW2 3711   5.186   1.774   5.122
  938SOL     OW 3712   6.665   5.266   6.241
  938SOL    HW1 3713   6.735   5.282   6.172
  938SOL    HW2 3714   6.663   5.344   6.304
  939SOL     OW 3715   6.643   6.758   5.170
  939SOL    HW1 3716   6.673   6.667   5.197
  939SOL    HW2 3717   6.623   6.758   5.072
  940SOL     OW 3718   1.541   3.675   1.766
  940SOL    HW1 3719   1.566   3.588   1.724
  940SOL    HW2 3720   1.447   3.698   1.742
  941SOL     OW 3721   5.125   1.229   6.100
  941SOL    HW1 3722   5.186   1.153   6.124
  941SOL    HW2 3723   5.068   1.252   6.179
  942SOL     OW 3724   5.220   6.528   2.986
  942SOL    HW1 3725   5.237   6.592   3.061
  942SOL    HW2 3726   5.284   6.546   2.911
  943SOL     OW 3727   2.112   4.033   3.960
  943SOL    HW1 3728   2.012   4.039   3.962
  943SOL    HW2 3729   2.139   3.937   3.963
  944SOL     OW 3730   0.424   5.053   6.399
  944SOL    HW1 3731   0.514   5.055   6.357
  944SOL    HW2 3732   0.360   5.004   6.340
  945SOL     OW 3733   6.691   3.780   5.879
  945SOL    HW1 3734   6.693   3.874   5.846
  945SOL    HW2 3735   6.741   3.721   5.815
  946SOL     OW 3736   5.225   3.344   5.855
  946SOL    HW1 3737   5.145   3.400   5.832
  946SOL    HW2 3738   5.262   3.374   5.943
  947SOL     OW 3739   3.696   2.902   3.639
  947SOL    HW1 3740   3.734   2.811   3.655
  947SOL    HW2 3741   3.742   2.944   3.561
  948SOL     OW 3742   3.612   0.949   2.883
  948SOL    HW1 3743   3.659   0.941   2.971
  948SOL    HW2 3744   3.543   1.022   2.889
  949SOL     OW 3745   0.910   6.193   6.494
  949SOL    HW1 3746   0.831   6.255   6.494
  949SOL    HW2 3747   0.898   6.126   6.421
  950SOL     OW 3748   5.198   5.674   2.054
  950SOL    HW1 3749   5.229   5.589   2.012
  950SOL    HW2 3750   5.248   5.690   2.139
  951SOL     OW 3751   1.917   0.732   4.027
  951SOL    HW1 3752   1.970   0.661   4.073
  951SOL    HW2 3753   1.960   0.821   4.042
  952SOL     OW 3754   4.651   2.110   2.929
  952SOL    HW1 3755   4.647   2.078   3.024
  952SOL    HW2 3756   4.641   2.032   2.867
  953SOL     OW 3757   5.417   4.765   4.018
  953SOL    HW1 3758   5.444   4.765   3.921
  953SOL    HW2 3759   5.355   4.842   4.035
  954SOL     OW 3760   3.796   5.648   1.552
  954SOL    HW1 3761   3.774   5.654   1.454
  954SOL    HW2 3762   3.750   5.568   1.591
  955SOL     OW 3763   0.405   3.504   2.235
  955SOL    HW1 3764   0.498   3.534   2.255
  955SOL    HW2 3765   0.401   3.404   2.238
  956SOL     OW 3766   6.593   0.582   2.528
  956SOL    HW1 3767   6.639   0.671   2.528
  956SOL    HW2 3768   6.578   0.553   2.623
  957SOL     OW 3769   6.174   3.312   4.346
  957SOL    HW1 3770   6.117   3.295   4.265
  957SOL    HW2 3771   6.229   3.395   4.332
  958SOL     OW 3772   3.954   2.028   1.613
  958SOL    HW1 3773   3.867   2.070   1.638
  958SOL    HW2 3774   4.028   2.074   1.662
  959SOL     OW 3775   4.317   6.157   2.937
  959SOL    HW1 3776   4.369   6.076   2.911
  959SOL    HW2 3777   4.269   6.193   2.856
  960SOL     OW 3778   0.520   6.424   2.566
  960SOL    HW1 3779   0.551   6.435   2.472
  960SOL    HW2 3780   0.576   6.354   2.611
  961SOL     OW 3781   4.325   6.452   3.304
  961SOL    HW1 3782   4.272   6.438   3.388
  961SOL    HW2 3783   4.335   6.365   3.256
  962SOL     OW 3784   0.513   1.760   5.478
  962SOL    HW1 3785   0.550   1.853   5.479
  962SOL    HW2 3786   0.422   1.762   5.436
  963SOL     OW 3787   5.798   1.356   6.247
  963SOL    HW1 3788   5.769   1.435   6.192
  963SOL    HW2 3789   5.877   1.381   6.302
  964SOL     OW 3790   5.803   4.318   7.019
  964SOL    HW1 3791   5.798   4.412   0.025
  964SOL    HW2 3792   5.746   4.260   0.050
  965SOL     OW 3793   5.417   2.326   1.597
  965SOL    HW1 3794   5.408   2.314   1.498
  965SOL    HW2 3795   5.398   2.421   1.621
  966SOL     OW 3796   5.866   1.942   2.717
  966SOL    HW1 3797   5.905   1.850   2.723
  966SOL    HW2 3798   5.780   1.945   2.768
  967SOL     OW 3799   2.663   4.855   1.043
  967SOL    HW1 3800   2.730   4.807   0.985
  967SOL    HW2 3801   2.571   4.832   1.013
  968SOL     OW 3802   3.532   0.271   2.053
  968SOL    HW1 3803   3.510   0.299   2.146
  968SOL    HW2 3804   3.631   0.281   2.038
  969SOL     OW 3805   2.533   5.527   5.933
  969SOL    HW1 3806   2.462   5.597   5.939
  969SOL    HW2 3807   2.533   5.487   5.842
  970SOL     OW 3808   5.279   0.997   6.231
  970SOL    HW1 3809   5.303   1.024   6.324
  970SOL    HW2 3810   5.267   0.898   6.227
  971SOL     OW 3811   0.186   2.545   3.107
  971SOL    HW1 3812   0.197   2.451   3.073
  971SOL    HW2 3813   0.225   2.609   3.041
  972SOL     OW 3814   5.638   2.796   1.864
  972SOL    HW1 3815   5.669   2.709   1.824
  972SOL    HW2 3816   5.546   2.785   1.901
  973SOL     OW 3817   0.296   5.075   6.692
  973SOL    HW1 3818   0.304   5.080   6.791
  973SOL    HW2 3819   0.311   5.166   6.652
  974SOL     OW 3820   5.251   6.104   2.228
  974SOL    HW1 3821   5.297   6.180   2.274
  974SOL    HW2 3822   5.255   6.022   2.285
  975SOL     OW 3823   1.767   0.327   6.399
  975SOL    HW1 3824   1.732   0.266   6.329
  975SOL    HW2 3825   1.731   0.300   6.489
  976SOL     OW 3826   6.990   3.673   2.434
  976SOL    HW1 3827   0.009   3.588   2.408
  976SOL    HW2 3828   6.994   3.684   2.534
  977SOL     OW 3829   0.894   6.873   1.909
  977SOL    HW1 3830   0.885   6.785   1.956
  977SOL    HW2 3831   0.842   6.943   1.958
  978SOL     OW 3832   5.114   3.081   5.861
  978SOL    HW1 3833   5.154   3.157   5.808
  978SOL    HW2 3834   5.134   2.995   5.815
  979SOL     OW 3835   0.376   2.094   0.381
  979SOL    HW1 3836   0.468   2.093   0.420
  979SOL    HW2 3837   0.320   2.025   0.428
  980SOL     OW 3838   4.355   2.357   3.545
  980SOL    HW1 3839   4.336   2.334   3.641
  980SOL    HW2 3840   4.400   2.446   3.540
  981SOL     OW 3841   0.469   1.991   4.799
  981SOL    HW1 3842   0.417   1.960   4.879
  981SOL    HW2 3843   0.552   1.936   4.791
  982SOL     OW 3844   2.041   1.768   4.730
  982SOL    HW1 3845   2.135   1.802   4.726
  982SOL    HW2 3846   1.981   1.841   4.759
  983SOL     OW 3847   6.020   3.209   3.914
  983SOL    HW1 3848   6.074   3.177   3.837
  983SOL    HW2 3849   5.925   3.222   3.885
  984SOL     OW 3850   2.690   1.824   4.938
  984SOL    HW1 3851   2.702   1.914   4.897
  984SOL    HW2 3852   2.730   1.822   5.029
  985SOL     OW 3853   6.299   3.448   5.100
  985SOL    HW1 3854   6.378   3.447   5.038
  985SOL    HW2 3855   6.322   3.500   5.181
  986SOL     OW 3856   5.533   4.781   1.366
  986SOL    HW1 3857   5.602   4.852   1.378
  986SOL    HW2 3858   5.532   4.752   1.271
  987SOL     OW 3859   4.661   0.126   2.566
  987SOL    HW1 3860   4.737   0.182   2.600
  987SOL    HW2 3861   4.678   0.030   2.587
  988SOL     OW 3862   3.436   3.575   1.736
  988SOL    HW1 3863   3.441   3.669   1.771
  988SOL    HW2 3864   3.528   3.538   1.725
  989SOL     OW 3865   6.360   1.407   6.464
  989SOL    HW1 3866   6.405   1.319   6.477
  989SOL    HW2 3867   6.329   1.415   6.369
  990SOL     OW 3868   4.243   0.929   2.267
  990SOL    HW1 3869   4.303   0.917   2.188
  990SOL    HW2 3870   4.191   1.013   2.257
  991SOL     OW 3871   0.961   3.889   4.875
  991SOL    HW1 3872   0.902   3.940   4.812
  991SOL    HW2 3873   0.920   3.889   4.966
  992SOL     OW 3874   0.251   3.532   1.289
  992SOL    HW1 3875   0.297   3.462   1.343
  992SOL    HW2 3876   0.279   3.523   1.193
  993SOL     OW 3877   0.213   5.070   0.586
  993SOL    HW1 3878   0.180   5.127   0.511
  993SOL    HW2 3879   0.211   4.974   0.558
  994SOL     OW 3880   4.109   5.174   1.272
  994SOL    HW1 3881   4.070   5.185   1.181
  994SOL    HW2 3882   4.198   5.219   1.276
  995SOL     OW 3883   3.529   3.045   5.424
  995SOL    HW1 3884   3.614   3.070   5.471
  995SOL    HW2 3885   3.546   2.968   5.363
  996SOL     OW 3886   3.801   5.017   4.580
  996SOL    HW1 3887   3.805   4.994   4.483
  996SOL    HW2 3888   3.885   4.984   4.625
  997SOL     OW 3889   1.110   0.188   3.789
  997SOL    HW1 3890   1.166   0.128   3.732
  997SOL    HW2 3891   1.036   0.135   3.830
  998SOL     OW 3892   5.117   0.423   5.181
  998SOL    HW1 3893   5.055   0.360   5.136
  998SOL    HW2 3894   5.211   0.394   5.167
  999SOL     OW 3895   5.177   4.406   2.796
  999SOL    HW1 3896   5.180   4.499   2.834
  999SOL    HW2 3897   5.246   4.397   2.724
 1000SOL     OW 3898   2.839   1.217   1.462
 1000SOL    HW1 3899   2.741   1.238   1.470
 1000SOL    HW2 3900   2.886   1.245   1.545
 1001SOL     OW 3901   5.059   5.736   1.238
 1001SOL    HW1 3902   5.037   5.816   1.294
 1001SOL    HW2 3903   5.038   5.757   1.142
 1002SOL     OW 3904   6.030   2.223   1.645
 1002SOL    HW1 3905   6.071   2.132   1.643
 1002SOL    HW2 3906   6.012   2.253   1.551
 1003SOL     OW 3907   1.686   6.331   2.426
 1003SOL    HW1 3908   1.602   6.385   2.422
 1003SOL    HW2 3909   1.663   6.234   2.440
 1004SOL     OW 3910   0.169   0.566   1.682
 1004SOL    HW1 3911   0.179   0.585   1.584
 1004SOL    HW2 3912   0.259   0.555   1.724
 1005SOL     OW 3913   2.124   3.049   4.301
 1005SOL    HW1 3914   2.024   3.052   4.302
 1005SOL    HW2 3915   2.156   3.042   4.206
 1006SOL     OW 3916   1.417   4.460   1.112
 1006SOL    HW1 3917   1.488   4.530   1.101
 1006SOL    HW2 3918   1.432   4.387   1.045
 1007SOL     OW 3919   4.195   0.319   4.997
 1007SOL    HW1 3920   4.282   0.326   5.044
 1007SOL    HW2 3921   4.131   0.386   5.035
 1008SOL     OW 3922   0.802   3.259   5.895
 1008SOL    HW1 3923   0.763   3.271   5.803
 1008SOL    HW2 3924   0.870   3.330   5.912
 1009SOL     OW 3925   0.468   4.856   5.478
 1009SOL    HW1 3926   0.421   4.767   5.479
 1009SOL    HW2 3927   0.558   4.845   5.435
 1010SOL     OW 3928   3.772   1.827   6.988
 1010SOL    HW1 3929   3.833   1.839   6.909
 1010SOL    HW2 3930   3.733   1.735   6.985
 1011SOL     OW 3931   1.693   5.210   2.491
 1011SOL    HW1 3932   1.593   5.200   2.484
 1011SOL    HW2 3933   1.725   5.274   2.422
 1012SOL     OW 3934   7.012   6.917   2.217
 1012SOL    HW1 3935   6.969   6.872   2.296
 1012SOL    HW2 3936   6.976   7.010   2.209
 1013SOL     OW 3937   1.315   1.520   5.943
 1013SOL    HW1 3938   1.347   1.605   5.983
 1013SOL    HW2 3939   1.218   1.529   5.918
 1014SOL     OW 3940   6.610   4.778   5.740
 1014SOL    HW1 3941   6.587   4.874   5.755
 1014SOL    HW2 3942   6.596   4.727   5.825
 1015SOL     OW 3943   2.636   6.692   6.009
 1015SOL    HW1 3944   2.714   6.730   6.060
 1015SOL    HW2 3945   2.669   6.637   5.933
 1016SOL     OW 3946   4.152   3.694   7.016
 1016SOL    HW1 3947   4.226   3.760   7.026
 1016SOL    HW2 3948   4.079   3.735   6.961
 1017SOL     OW 3949   4.178   2.854   1.415
 1017SOL    HW1 3950   4.125   2.923   1.465
 1017SOL    HW2 3951   4.118   2.810   1.347
 1018SOL     OW 3952   0.608   4.472   4.103
 1018SOL    HW1 3953   0.645   4.410   4.173
 1018SOL    HW2 3954   0.668   4.552   4.094
 1019SOL     OW 3955   6.981   6.617   1.027
 1019SOL    HW1 3956   0.013   6.671   0.967
 1019SOL    HW2 3957   6.981   6.521   0.998
 1020SOL     OW 3958   6.333   1.486   1.207
 1020SOL    HW1 3959   6.258   1.476   1.141
 1020SOL    HW2 3960   6.336   1.581   1.240
 1021SOL     OW 3961   5.521   0.082   1.509
 1021SOL    HW1 3962   5.511   0.074   1.608
 1021SOL    HW2 3963   5.532   0.178   1.484
 1022SOL     OW 3964   3.057   4.498   5.468
 1022SOL    HW1 3965   3.080   4.566   5.398
 1022SOL    HW2 3966   3.010   4.421   5.425
 1023SOL     OW 3967   0.264   0.459   2.949
 1023SOL    HW1 3968   0.273   0.416   2.859
 1023SOL    HW2 3969   0.307   0.549   2.947
 1024SOL     OW 3970   0.456   3.096   4.124
 1024SOL    HW1 3971   0.400   3.014   4.118
 1024SOL    HW2 3972   0.398   3.177   4.118
 1025SOL     OW 3973   3.695   3.834   1.621
 1025SOL    HW1 3974   3.651   3.752   1.585
 1025SOL    HW2 3975   3.685   3.837   1.721
 1026SOL     OW 3976   2.495   2.638   1.055
 1026SOL    HW1 3977   2.497   2.630   0.956
 1026SOL    HW2 3978   2.478   2.548   1.096
 1027SOL     OW 3979   3.239   6.194   1.990
 1027SOL    HW1 3980   3.329   6.198   2.034
 1027SOL    HW2 3981   3.171   6.237   2.049
 1028SOL     OW 3982   2.387   6.731   1.867
 1028SOL    HW1 3983   2.435   6.806   1.822
 1028SOL    HW2 3984   2.289   6.738   1.848
 1029SOL     OW 3985   1.648   0.230   6.146
 1029SOL    HW1 3986   1.637   0.323   6.110
 1029SOL    HW2 3987   1.563   0.199   6.187
 1030SOL     OW 3988   3.316   2.727   1.825
 1030SOL    HW1 3989   3.317   2.634   1.790
 1030SOL    HW2 3990   3.410   2.757   1.844
 1031SOL     OW 3991   4.530   4.253   1.374
 1031SOL    HW1 3992   4.441   4.290   1.348
 1031SOL    HW2 3993   4.529   4.230   1.472
 1032SOL     OW 3994   2.470   2.038   5.919
 1032SOL    HW1 3995   2.398   2.107   5.923
 1032SOL    HW2 3996   2.434   1.954   5.879
 1033SOL     OW 3997   1.270   6.428   1.941
 1033SOL    HW1 3998   1.228   6.362   2.004
 1033SOL    HW2 3999   1.200   6.466   1.880
 1034SOL     OW 4000   0.106   5.197   4.428
 1034SOL    HW1 4001   0.142   5.143   4.352
 1034SOL    HW2 4002   0.034   5.258   4.394
 1035SOL     OW 4003   0.291   1.712   5.323
 1035SOL    HW1 4004   0.354   1.672   5.256
 1035SOL    HW2 4005   0.239   1.786   5.280
 1036SOL     OW 4006   4.093   0.037   1.579
 1036SOL    HW1 4007   4.146   6.992   1.625
 1036SOL    HW2 4008   4.023   0.072   1.641
 1037SOL     OW 4009   1.455   1.091   1.786
 1037SOL    HW1 4010   1.467   1.067   1.882
 1037SOL    HW2 4011   1.539   1.069   1.735
 1038SOL     OW 4012   1.809   0.955   5.229
 1038SOL    HW1 4013   1.832   0.974   5.324
 1038SOL    HW2 4014   1.893   0.931   5.179
 1039SOL     OW 4015   3.704   3.898   4.138
 1039SOL    HW1 4016   3.799   3.883   4.165
 1039SOL    HW2 4017   3.671   3.984   4.178
 1040SOL     OW 4018   4.922   1.204   2.594
 1040SOL    HW1 4019   4.857   1.128   2.587
 1040SOL    HW2 4020   4.905   1.255   2.678
 1041SOL     OW 4021   0.535   6.573   3.869
 1041SOL    HW1 4022   0.461   6.569   3.936
 1041SOL    HW2 4023   0.577   6.663   3.871
 1042SOL     OW 4024   4.486   5.323   2.165
 1042SOL    HW1 4025   4.422   5.399   2.152
 1042SOL    HW2 4026   4.560   5.353   2.225
 1043SOL     OW 4027   2.993   2.238   4.438
 1043SOL    HW1 4028   3.083   2.271   4.407
 1043SOL    HW2 4029   3.005   2.186   4.522
 1044SOL     OW 4030   5.755   5.255   2.599
 1044SOL    HW1 4031   5.707   5.316   2.662
 1044SOL    HW2 4032   5.709   5.166   2.596
 1045SOL     OW 4033   4.045   0.264   2.956
 1045SOL    HW1 4034   4.016   0.311   2.873
 1045SOL    HW2 4035   4.009   0.171   2.957
 1046SOL     OW 4036   1.942   0.546   0.602
 1046SOL    HW1 4037   1.885   0.477   0.646
 1046SOL    HW2 4038   1.897   0.581   0.520
 1047SOL     OW 4039   1.765   0.115   4.176
 1047SOL    HW1 4040   1.677   0.155   4.202
 1047SOL    HW2 4041   1.750   0.034   4.119
 1048SOL     OW 4042   4.387   6.211   3.188
 1048SOL    HW1 4043   4.333   6.193   3.106
 1048SOL    HW2 4044   4.484   6.211   3.165
 1049SOL     OW 4045   6.758   6.521   4.005
 1049SOL    HW1 4046   6.709   6.448   4.051
 1049SOL    HW2 4047   6.804   6.484   3.924
 1050SOL     OW 4048   3.903   4.772   1.375
 1050SOL    HW1 4049   3.863   4.736   1.459
 1050SOL    HW2 4050   3.850   4.741   1.296
 1051SOL     OW 4051   1.062   5.772   0.391
 1051SOL    HW1 4052   1.136   5.750   0.327
 1051SOL    HW2 4053   1.028   5.688   0.433
 1052SOL     OW 4054   3.985   0.503   5.059
 1052SOL    HW1 4055   3.960   0.487   4.963
 1052SOL    HW2 4056   3.980   0.601   5.079
 1053SOL     OW 4057   5.928   4.765   2.989
 1053SOL    HW1 4058   5.950   4.806   2.901
 1053SOL    HW2 4059   5.829   4.769   3.004
 1054SOL     OW 4060   3.593   3.435   0.364
 1054SOL    HW1 4061   3.525   3.456   0.293
 1054SOL    HW2 4062   3.679   3.407   0.321
 1055SOL     OW 4063   3.774   6.368   5.079
 1055SOL    HW1 4064   3.745   6.273   5.067
 1055SOL    HW2 4065   3.698   6.429   5.057
 1056SOL     OW 4066   2.497   4.191   6.738
 1056SOL    HW1 4067   2.418   4.212   6.680
 1056SOL    HW2 4068   2.565   4.140   6.685
 1057SOL     OW 4069   2.985   3.529   1.282
 1057SOL    HW1 4070   2.980   3.476   1.198
 1057SOL    HW2 4071   2.963   3.471   1.360
 1058SOL     OW 4072   4.717   2.417   3.311
 1058SOL    HW1 4073   4.776   2.366   3.248
 1058SOL    HW2 4074   4.622   2.395   3.291
 1059SOL     OW 4075   2.807   0.552   1.781
 1059SOL    HW1 4076   2.803   0.581   1.876
 1059SOL    HW2 4077   2.898   0.517   1.760
 1060SOL     OW 4078   0.267   4.828   4.259
 1060SOL    HW1 4079   0.283   4.919   4.220
 1060SOL    HW2 4080   0.267   4.760   4.186
 1061SOL     OW 4081   6.714   3.281   0.814
 1061SOL    HW1 4082   6.710   3.342   0.893
 1061SOL    HW2 4083   6.806   3.284   0.774
 1062SOL     OW 4084   5.419   4.763   6.087
 1062SOL    HW1 4085   5.320   4.767   6.104
 1062SOL    HW2 4086   5.437   4.781   5.991
 1063SOL     OW 4087   1.473   5.263   1.241
 1063SOL    HW1 4088   1.511   5.355   1.243
 1063SOL    HW2 4089   1.380   5.265   1.204
 1064SOL     OW 4090   1.747   4.412   2.813
 1064SOL    HW1 4091   1.681   4.422   2.738
 1064SOL    HW2 4092   1.716   4.340   2.876
 1065SOL     OW 4093   4.108   0.681   3.792
 1065SOL    HW1 4094   4.033   0.745   3.812
 1065SOL    HW2 4095   4.176   0.727   3.734
 1066SOL     OW 4096   5.059   6.893   2.684
 1066SOL    HW1 4097   5.046   6.835   2.603
 1066SOL    HW2 4098   4.982   6.880   2.747
 1067SOL     OW 4099   0.955   3.175   1.238
 1067SOL    HW1 4100   1.031   3.238   1.224
 1067SOL    HW2 4101   0.969   3.093   1.182
 1068SOL     OW 4102   6.524   4.896   2.765
 1068SOL    HW1 4103   6.466   4.971   2.733
 1068SOL    HW2 4104   6.467   4.823   2.803
 1069SOL     OW 4105   4.587   5.314   0.955
 1069SOL    HW1 4106   4.666   5.367   0.923
 1069SOL    HW2 4107   4.507   5.337   0.899
 1070SOL     OW 4108   0.051   0.481   1.984
 1070SOL    HW1 4109   0.049   0.431   1.898
 1070SOL    HW2 4110   6.984   0.503   2.012
 1071SOL     OW 4111   1.307   0.930   4.461
 1071SOL    HW1 4112   1.387   0.921   4.401
 1071SOL    HW2 4113   1.231   0.969   4.409
 1072SOL     OW 4114   1.811   1.048   0.726
 1072SOL    HW1 4115   1.765   1.130   0.760
 1072SOL    HW2 4116   1.889   1.075   0.669
 1073SOL     OW 4117   4.391   0.361   2.714
 1073SOL    HW1 4118   4.414   0.378   2.618
 1073SOL    HW2 4119   4.471   0.323   2.761
 1074SOL     OW 4120   2.149   5.188   1.597
 1074SOL    HW1 4121   2.226   5.132   1.625
 1074SOL    HW2 4122   2.180   5.256   1.530
 1075SOL     OW 4123   5.359   0.693   3.281
 1075SOL    HW1 4124   5.396   0.785   3.268
 1075SOL    HW2 4125   5.347   0.675   3.379
 1076SOL     OW 4126   0.413   2.296   5.458
 1076SOL    HW1 4127   0.322   2.304   5.418
 1076SOL    HW2 4128   0.481   2.328   5.392
 1077SOL     OW 4129   5.561   0.029   1.175
 1077SOL    HW1 4130   5.656   0.053   1.154
 1077SOL    HW2 4131   5.556   6.959   1.201
 1078SOL     OW 4132   0.408   0.833   2.324
 1078SOL    HW1 4133   0.399   0.773   2.244
 1078SOL    HW2 4134   0.465   0.912   2.301
 1079SOL     OW 4135   1.565   0.085   2.359
 1079SOL    HW1 4136   1.482   0.140   2.370
 1079SOL    HW2 4137   1.553   0.022   2.283
 1080SOL     OW 4138   1.726   5.441   3.421
 1080SOL    HW1 4139   1.824   5.462   3.419
 1080SOL    HW2 4140   1.710   5.353   3.376
 1081SOL     OW 4141   0.035   5.096   5.976
 1081SOL    HW1 4142   0.033   5.116   6.074
 1081SOL    HW2 4143   6.968   5.081   5.943
 1082SOL     OW 4144   5.530   2.013   4.625
 1082SOL    HW1 4145   5.471   1.996   4.546
 1082SOL    HW2 4146   5.586   1.933   4.642
 1083SOL     OW 4147   4.753   4.197   0.588
 1083SOL    HW1 4148   4.799   4.269   0.536
 1083SOL    HW2 4149   4.673   4.166   0.537
 1084SOL     OW 4150   6.225   6.348   6.692
 1084SOL    HW1 4151   6.234   6.253   6.721
 1084SOL    HW2 4152   6.141   6.358   6.639
 1085SOL     OW 4153   2.104   3.596   4.741
 1085SOL    HW1 4154   2.097   3.613   4.643
 1085SOL    HW2 4155   2.145   3.676   4.786
 1086SOL     OW 4156   0.919   5.199   0.735
 1086SOL    HW1 4157   0.924   5.099   0.740
 1086SOL    HW2 4158   0.846   5.226   0.673
 1087SOL     OW 4159   5.837   2.307   5.225
 1087SOL    HW1 4160   5.846   2.285   5.322
 1087SOL    HW2 4161   5.922   2.282   5.178
 1088SOL     OW 4162   0.575   3.756   2.860
 1088SOL    HW1 4163   0.637   3.829   2.833
 1088SOL    HW2 4164   0.597   3.726   2.953
 1089SOL     OW 4165   0.772   5.828   4.712
 1089SOL    HW1 4166   0.852   5.777   4.682
 1089SOL    HW2 4167   0.773   5.836   4.812
 1090SOL     OW 4168   2.724   2.406   2.986
 1090SOL    HW1 4169   2.710   2.328   2.924
 1090SOL    HW2 4170   2.650   2.472   2.974
 1091SOL     OW 4171   2.698   2.089   4.828
 1091SOL    HW1 4172   2.742   2.089   4.918
 1091SOL    HW2 4173   2.749   2.028   4.766
 1092SOL     OW 4174   1.046   4.454   1.023
 1092SOL    HW1 4175   1.113   4.455   1.098
 1092SOL    HW2 4176   0.979   4.381   1.038
 1093SOL     OW 4177   1.746   1.348   1.702
 1093SOL    HW1 4178   1.704   1.336   1.612
 1093SOL    HW2 4179   1.845   1.349   1.693
 1094SOL     OW 4180   0.512   0.066   2.456
 1094SOL    HW1 4181   0.432   0.070   2.516
 1094SOL    HW2 4182   0.575   0.141   2.480
 1095SOL     OW 4183   0.844   2.960   6.370
 1095SOL    HW1 4184   0.881   2.964   6.277
 1095SOL    HW2 4185   0.767   3.023   6.378
 1096SOL     OW 4186   3.525   4.367   1.750
 1096SOL    HW1 4187   3.543   4.446   1.808
 1096SOL    HW2 4188   3.438   4.325   1.776
 1097SOL     OW 4189   2.459   4.592   4.361
 1097SOL    HW1 4190   2.388   4.659   4.337
 1097SOL    HW2 4191   2.415   4.508   4.394
 1098SOL     OW 4192   4.662   3.723   6.465
 1098SOL    HW1 4193   4.629   3.817   6.468
 1098SOL    HW2 4194   4.597   3.663   6.511
 1099SOL     OW 4195   3.360   0.848   5.780
 1099SOL    HW1 4196   3.317   0.932   5.748
 1099SOL    HW2 4197   3.458   0.864   5.794
 1100SOL     OW 4198   4.207   1.926   4.189
 1100SOL    HW1 4199   4.178   2.000   4.249
 1100SOL    HW2 4200   4.133   1.903   4.126
 1101SOL     OW 4201   5.509   2.989   6.288
 1101SOL    HW1 4202   5.605   2.974   6.264
 1101SOL    HW2 4203   5.467   2.902   6.313
 1102SOL     OW 4204   0.622   6.949   4.615
 1102SOL    HW1 4205   0.685   6.930   4.540
 1102SOL    HW2 4206   0.613   6.866   4.671
 1103SOL     OW 4207   4.245   1.646   0.216
 1103SOL    HW1 4208   4.248   1.548   0.193
 1103SOL    HW2 4209   4.162   1.687   0.178
 1104SOL     OW 4210   2.212   3.417   5.899
 1104SOL    HW1 4211   2.204   3.325   5.937
 1104SOL    HW2 4212   2.295   3.461   5.933
 1105SOL     OW 4213   6.205   4.020   4.817
 1105SOL    HW1 4214   6.208   4.110   4.774
 1105SOL    HW2 4215   6.221   4.029   4.915
 1106SOL     OW 4216   0.426   2.239   1.354
 1106SOL    HW1 4217   0.417   2.326   1.401
 1106SOL    HW2 4218   0.503   2.188   1.392
 1107SOL     OW 4219   0.606   0.638   0.035
 1107SOL    HW1 4220   0.677   0.580   0.074
 1107SOL    HW2 4221   0.649   0.712   7.009
 1108SOL     OW 4222   3.209   0.045   5.131
 1108SOL    HW1 4223   3.248   0.012   5.217
 1108SOL    HW2 4224   3.265   0.012   5.055
 1109SOL     OW 4225   4.717   0.984   4.013
 1109SOL    HW1 4226   4.696   1.081   4.002
 1109SOL    HW2 4227   4.712   0.937   3.925
 1110SOL     OW 4228   3.471   2.002   3.366
 1110SOL    HW1 4229   3.437   1.912   3.338
 1110SOL    HW2 4230   3.534   2.036   3.296
 1111SOL     OW 4231   4.710   5.310   6.463
 1111SOL    HW1 4232   4.760   5.255   6.530
 1111SOL    HW2 4233   4.626   5.345   6.505
 1112SOL     OW 4234   5.277   0.907   2.509
 1112SOL    HW1 4235   5.250   0.938   2.600
 1112SOL    HW2 4236   5.370   0.870   2.513
 1113SOL     OW 4237   5.967   4.657   1.691
 1113SOL    HW1 4238   5.879   4.641   1.646
 1113SOL    HW2 4239   5.973   4.601   1.774
 1114SOL     OW 4240   3.313   1.751   6.063
 1114SOL    HW1 4241   3.294   1.796   5.976
 1114SOL    HW2 4242   3.240   1.771   6.128
 1115SOL     OW 4243   3.921   3.246   5.889
 1115SOL    HW1 4244   3.927   3.315   5.961
 1115SOL    HW2 4245   4.012   3.211   5.869
 1116SOL     OW 4246   4.952   6.843   6.023
 1116SOL    HW1 4247   5.016   6.769   6.045
 1116SOL    HW2 4248   4.892   6.859   6.101
 1117SOL     OW 4249   2.337   2.460   2.031
 1117SOL    HW1 4250   2.259   2.405   2.062
 1117SOL    HW2 4251   2.355   2.532   2.098
 1118SOL     OW 4252   2.858   4.618   0.034
 1118SOL    HW1 4253   2.930   4.679   0.067
 1118SOL    HW2 4254   2.896   4.527   0.019
 1119SOL     OW 4255   4.230   4.763   1.815
 1119SOL    HW1 4256   4.328   4.782   1.811
 1119SOL    HW2 4257   4.209   4.685   1.756
 1120SOL     OW 4258   6.081   6.076   0.001
 1120SOL    HW1 4259   6.063   6.089   0.098
 1120SOL    HW2 4260   6.148   6.002   7.015
 1121SOL     OW 4261   6.027   4.349   4.305
 1121SOL    HW1 4262   6.121   4.348   4.340
 1121SOL    HW2 4263   5.975   4.274   4.347
 1122SOL     OW 4264   5.500   2.465   0.963
 1122SOL    HW1 4265   5.506   2.417   0.875
 1122SOL    HW2 4266   5.443   2.547   0.952
 1123SOL     OW 4267   5.185   2.063   3.323
 1123SOL    HW1 4268   5.112   2.009   3.365
 1123SOL    HW2 4269   5.260   2.002   3.295
 1124SOL     OW 4270   6.926   3.777   5.175
 1124SOL    HW1 4271   6.989   3.702   5.158
 1124SOL    HW2 4272   6.862   3.786   5.099
 1125SOL     OW 4273   2.586   2.318   3.705
 1125SOL    HW1 4274   2.489   2.302   3.686
 1125SOL    HW2 4275   2.595   2.382   3.782
 1126SOL     OW 4276   5.451   4.834   0.387
 1126SOL    HW1 4277   5.422   4.739   0.377
 1126SOL    HW2 4278   5.397   4.892   0.326
 1127SOL     OW 4279   5.265   5.400   4.377
 1127SOL    HW1 4280   5.340   5.384   4.442
 1127SOL    HW2 4281   5.258   5.498   4.359
 1128SOL     OW 4282   5.971   1.520   5.369
 1128SOL    HW1 4283   5.875   1.495   5.358
 1128SOL    HW2 4284   6.011   1.468   5.444
 1129SOL     OW 4285   1.535   0.061   0.723
 1129SOL    HW1 4286   1.457   0.003   0.745
 1129SOL    HW2 4287   1.616   0.004   0.709
 1130SOL     OW 4288   2.805   4.860   0.383
 1130SOL    HW1 4289   2.871   4.786   0.388
 1130SOL    HW2 4290   2.799   4.895   0.290
 1131SOL     OW 4291   1.119   5.767   5.773
 1131SOL    HW1 4292   1.147   5.671   5.779
 1131SOL    HW2 4293   1.021   5.774   5.793
 1132SOL     OW 4294   5.262   0.038   2.341
 1132SOL    HW1 4295   5.168   0.066   2.356
 1132SOL    HW2 4296   5.277   0.020   2.244
 1133SOL     OW 4297   0.634   1.251   0.737
 1133SOL    HW1 4298   0.537   1.274   0.746
 1133SOL    HW2 4299   0.689   1.321   0.784
 1134SOL     OW 4300   5.225   0.299   2.457
 1134SOL    HW1 4301   5.271   0.246   2.528
 1134SOL    HW2 4302   5.143   0.249   2.426
 1135SOL     OW 4303   2.193   0.137   3.179
 1135SOL    HW1 4304   2.143   0.211   3.224
 1135SOL    HW2 4305   2.129   0.075   3.135
 1136SOL     OW 4306   4.373   4.626   3.229
 1136SOL    HW1 4307   4.352   4.722   3.212
 1136SOL    HW2 4308   4.417   4.587   3.148
 1137SOL     OW 4309   1.197   0.007   0.153
 1137SOL    HW1 4310   1.274   6.974   0.179
 1137SOL    HW2 4311   1.114   7.001   0.198
 1138SOL     OW 4312   6.812   0.865   5.999
 1138SOL    HW1 4313   6.741   0.817   6.051
 1138SOL    HW2 4314   6.847   0.941   6.054
 1139SOL     OW 4315   3.291   4.933   2.348
 1139SOL    HW1 4316   3.303   4.883   2.263
 1139SOL    HW2 4317   3.373   4.987   2.368
 1140SOL     OW 4318   2.970   1.079   2.232
 1140SOL    HW1 4319   2.942   1.115   2.321
 1140SOL    HW2 4320   3.044   1.135   2.195
 1141SOL     OW 4321   0.690   6.596   6.894
 1141SOL    HW1 4322   0.649   6.505   6.887
 1141SOL    HW2 4323   0.619   6.665   6.889
 1142SOL     OW 4324   2.935   6.640   4.531
 1142SOL    HW1 4325   2.879   6.718   4.502
 1142SOL    HW2 4326   3.016   6.674   4.579
 1143SOL     OW 4327   2.305   2.920   3.323
 1143SOL    HW1 4328   2.354   2.849   3.373
 1143SOL    HW2 4329   2.274   2.991   3.387
 1144SOL     OW 4330   6.016   4.717   4.365
 1144SOL    HW1 4331   5.943   4.649   4.366
 1144SOL    HW2 4332   6.082   4.696   4.438
 1145SOL     OW 4333   6.656   3.898   1.792
 1145SOL    HW1 4334   6.664   3.867   1.887
 1145SOL    HW2 4335   6.630   3.995   1.791
 1146SOL     OW 4336   6.799   0.886   2.932
 1146SOL    HW1 4337   6.790   0.906   3.030
 1146SOL    HW2 4338   6.888   0.844   2.914
 1147SOL     OW 4339   2.613   5.703   1.452
 1147SOL    HW1 4340   2.661   5.699   1.539
 1147SOL    HW2 4341   2.516   5.681   1.466
 1148SOL     OW 4342   4.451   6.058   0.314
 1148SOL    HW1 4343   4.415   5.969   0.286
 1148SOL    HW2 4344   4.399   6.092   0.393
 1149SOL     OW 4345   5.996   3.661   2.723
 1149SOL    HW1 4346   5.962   3.715   2.800
 1149SOL    HW2 4347   6.001   3.565   2.750
 1150SOL     OW 4348   1.194   3.639   0.360
 1150SOL    HW1 4349   1.267   3.624   0.426
 1150SOL    HW2 4350   1.110   3.663   0.408
 1151SOL     OW 4351   5.116   4.490   6.653
 1151SOL    HW1 4352   5.166   4.442   6.581
 1151SOL    HW2 4353   5.019   4.493   6.629
 1152SOL     OW 4354   5.351   5.438   6.980
 1152SOL    HW1 4355   5.257   5.436   6.947
 1152SOL    HW2 4356   5.410   5.388   6.916
 1153SOL     OW 4357   0.539   0.637   1.608
 1153SOL    HW1 4358   0.583   0.583   1.537
 1153SOL    HW2 4359   0.510   0.577   1.683
 1154SOL     OW 4360   6.540   4.209   1.500
 1154SOL    HW1 4361   6.602   4.136   1.473
 1154SOL    HW2 4362   6.580   4.297   1.476
 1155SOL     OW 4363   2.273   4.802   5.990
 1155SOL    HW1 4364   2.368   4.805   6.020
 1155SOL    HW2 4365   2.234   4.712   6.010
 1156SOL     OW 4366   4.547   1.698   4.707
 1156SOL    HW1 4367   4.637   1.660   4.689
 1156SOL    HW2 4368   4.512   1.660   4.793
 1157SOL     OW 4369   4.944   1.964   5.920
 1157SOL    HW1 4370   4.873   1.943   5.988
 1157SOL    HW2 4371   5.034   1.942   5.958
 1158SOL     OW 4372   0.008   4.759   5.691
 1158SOL    HW1 4373   0.085   4.757   5.627
 1158SOL    HW2 4374   6.965   4.823   5.657
 1159SOL     OW 4375   6.689   6.926   3.849
 1159SOL    HW1 4376   6.604   6.910   3.800
 1159SOL    HW2 4377   6.715   7.023   3.840
 1160SOL     OW 4378   5.242   4.546   1.238
 1160SOL    HW1 4379   5.312   4.550   1.166
 1160SOL    HW2 4380   5.216   4.639   1.265
 1161SOL     OW 4381   6.180   5.987   5.895
 1161SOL    HW1 4382   6.267   5.947   5.925
 1161SOL    HW2 4383   6.195   6.040   5.811
 1162SOL     OW 4384   3.536   2.811   6.591
 1162SOL    HW1 4385   3.445   2.801   6.551
 1162SOL    HW2 4386   3.528   2.851   6.683
 1163SOL     OW 4387   6.914   3.971   1.432
 1163SOL    HW1 4388   6.978   3.904   1.468
 1163SOL    HW2 4389   6.893   4.038   1.503
 1164SOL     OW 4390   6.209   2.969   4.209
 1164SOL    HW1 4391   6.148   3.047   4.217
 1164SOL    HW2 4392   6.207   2.934   4.115
 1165SOL     OW 4393   3.625   4.889   3.762
 1165SOL    HW1 4394   3.600   4.802   3.720
 1165SOL    HW2 4395   3.553   4.917   3.826
 1166SOL     OW 4396   3.607   6.981   6.869
 1166SOL    HW1 4397   3.689   6.926   6.853
 1166SOL    HW2 4398   3.584   0.005   6.785
 1167SOL     OW 4399   4.651   6.061   6.982
 1167SOL    HW1 4400   4.743   6.024   6.995
 1167SOL    HW2 4401   4.647   6.155   7.018
 1168SOL     OW 4402   5.322   2.267   2.591
 1168SOL    HW1 4403   5.346   2.274   2.494
 1168SOL    HW2 4404   5.237   2.316   2.607
 1169SOL     OW 4405   4.559   2.779   5.943
 1169SOL    HW1 4406   4.578   2.739   6.033
 1169SOL    HW2 4407   4.603   2.724   5.873
 1170SOL     OW 4408   5.112   0.078   2.836
 1170SOL    HW1 4409   5.184   0.042   2.895
 1170SOL    HW2 4410   5.096   0.015   2.761
 1171SOL     OW 4411   2.239   6.707   0.326
 1171SOL    HW1 4412   2.212   6.762   0.247
 1171SOL    HW2 4413   2.321   6.746   0.367
 1172SOL     OW 4414   3.509   4.075   1.573
 1172SOL    HW1 4415   3.562   3.991   1.576
 1172SOL    HW2 4416   3.436   4.071   1.641
 1173SOL     OW 4417   3.056   0.843   0.235
 1173SOL    HW1 4418   3.121   0.919   0.243
 1173SOL    HW2 4419   2.981   0.870   0.176
 1174SOL     OW 4420   2.632   5.046   1.556
 1174SOL    HW1 4421   2.671   5.018   1.468
 1174SOL    HW2 4422   2.606   5.143   1.552
 1175SOL     OW 4423   4.523   4.668   6.813
 1175SOL    HW1 4424   4.567   4.754   6.788
 1175SOL    HW2 4425   4.445   4.650   6.752
 1176SOL     OW 4426   6.037   3.909   6.695
 1176SOL    HW1 4427   5.966   3.842   6.717
 1176SOL    HW2 4428   6.125   3.862   6.683
 1177SOL     OW 4429   0.369   3.486   5.063
 1177SOL    HW1 4430   0.401   3.562   5.120
 1177SOL    HW2 4431   0.433   3.410   5.071
 1178SOL     OW 4432   3.841   4.276   0.853
 1178SOL    HW1 4433   3.867   4.372   0.857
 1178SOL    HW2 4434   3.884   4.233   0.773
 1179SOL     OW 4435   2.396   6.255   1.039
 1179SOL    HW1 4436   2.308   6.208   1.044
 1179SOL    HW2 4437   2.386   6.339   0.986
 1180SOL     OW 4438   2.687   6.017   4.711
 1180SOL    HW1 4439   2.636   5.961   4.775
 1180SOL    HW2 4440   2.702   5.967   4.626
 1181SOL     OW 4441   0.341   4.007   6.287
 1181SOL    HW1 4442   0.249   3.975   6.309
 1181SOL    HW2 4443   0.347   4.105   6.302
 1182SOL     OW 4444   3.899   5.333   3.233
 1182SOL    HW1 4445   3.944   5.371   3.152
 1182SOL    HW2 4446   3.968   5.312   3.302
 1183SOL     OW 4447   3.088   4.949   1.669
 1183SOL    HW1 4448   3.164   4.886   1.655
 1183SOL    HW2 4449   3.044   4.928   1.757
 1184SOL     OW 4450   0.162   1.457   5.269
 1184SOL    HW1 4451   0.220   1.375   5.278
 1184SOL    HW2 4452   0.198   1.528   5.330
 1185SOL     OW 4453   1.472   0.782   0.436
 1185SOL    HW1 4454   1.420   0.698   0.449
 1185SOL    HW2 4455   1.533   0.772   0.357
 1186SOL     OW 4456   4.924   6.362   5.362
 1186SOL    HW1 4457   4.891   6.268   5.356
 1186SOL    HW2 4458   4.911   6.397   5.454
 1187SOL     OW 4459   5.280   0.156   5.016
 1187SOL    HW1 4460   5.329   0.240   5.038
 1187SOL    HW2 4461   5.325   0.078   5.060
 1188SOL     OW 4462   2.495   5.292   6.068
 1188SOL    HW1 4463   2.585   5.263   6.099
 1188SOL    HW2 4464   2.501   5.383   6.027
 1189SOL     OW 4465   6.507   2.099   1.743
 1189SOL    HW1 4466   6.509   2.183   1.798
 1189SOL    HW2 4467   6.597   2.084   1.703
 1190SOL     OW 4468   2.887   5.761   2.801
 1190SOL    HW1 4469   2.863   5.780   2.896
 1190SOL    HW2 4470   2.940   5.838   2.765
 1191SOL     OW 4471   4.468   5.979   4.402
 1191SOL    HW1 4472   4.408   6.006   4.327
 1191SOL    HW2 4473   4.545   6.042   4.408
 1192SOL     OW 4474   5.496   5.140   3.351
 1192SOL    HW1 4475   5.466   5.153   3.445
 1192SOL    HW2 4476   5.585   5.184   3.339
 1193SOL     OW 4477   6.778   2.210   5.616
 1193SOL    HW1 4478   6.720   2.145   5.568
 1193SOL    HW2 4479   6.810   2.280   5.552
 1194SOL     OW 4480   6.318   1.089   1.493
 1194SOL    HW1 4481   6.395   1.041   1.452
 1194SOL    HW2 4482   6.347   1.179   1.525
 1195SOL     OW 4483   0.272   3.644   0.282
 1195SOL    HW1 4484   0.300   3.561   0.331
 1195SOL    HW2 4485   0.181   3.672   0.314
 1196SOL     OW 4486   6.894   5.025   3.533
 1196SOL    HW1 4487   6.856   4.933   3.525
 1196SOL    HW2 4488   6.831   5.084   3.584
 1197SOL     OW 4489   4.663   6.341   4.198
 1197SOL    HW1 4490   4.760   6.342   4.225
 1197SOL    HW2 4491   4.657   6.342   4.098
 1198SOL     OW 4492   1.860   3.543   2.179
 1198SOL    HW1 4493   1.820   3.507   2.094
 1198SOL    HW2 4494   1.959   3.546   2.170
 1199SOL     OW 4495   3.411   3.848   2.531
 1199SOL    HW1 4496   3.371   3.819   2.444
 1199SOL    HW2 4497   3.389   3.781   2.602
 1200SOL     OW 4498   3.309   4.127   4.752
 1200SOL    HW1 4499   3.237   4.062   4.778
 1200SOL    HW2 4500   3.273   4.190   4.683
 1201SOL     OW 4501   0.537   1.335   4.297
 1201SOL    HW1 4502   0.576   1.302   4.384
 1201SOL    HW2 4503   0.461   1.276   4.270
 1202SOL     OW 4504   0.234   5.818   5.536
 1202SOL    HW1 4505   0.249   5.894   5.472
 1202SOL    HW2 4506   0.236   5.854   5.630
 1203SOL     OW 4507   0.667   5.293   0.911
 1203SOL    HW1 4508   0.579   5.302   0.865
 1203SOL    HW2 4509   0.734   5.255   0.846
 1204SOL     OW 4510   4.497   1.733   1.220
 1204SOL    HW1 4511   4.520   1.642   1.184
 1204SOL    HW2 4512   4.411   1.727   1.272
 1205SOL     OW 4513   4.115   3.920   0.566
 1205SOL    HW1 4514   4.123   3.999   0.505
 1205SOL    HW2 4515   4.204   3.877   0.578
 1206SOL     OW 4516   2.425   2.663   5.557
 1206SOL    HW1 4517   2.407   2.574   5.514
 1206SOL    HW2 4518   2.366   2.732   5.516
 1207SOL     OW 4519   1.078   0.353   1.023
 1207SOL    HW1 4520   1.071   0.448   1.053
 1207SOL    HW2 4521   1.116   0.349   0.931
 1208SOL     OW 4522   3.261   3.583   1.537
 1208SOL    HW1 4523   3.279   3.507   1.475
 1208SOL    HW2 4524   3.327   3.582   1.612
 1209SOL     OW 4525   4.688   0.606   4.132
 1209SOL    HW1 4526   4.712   0.516   4.166
 1209SOL    HW2 4527   4.757   0.673   4.160
 1210SOL     OW 4528   3.813   6.663   3.424
 1210SOL    HW1 4529   3.779   6.687   3.334
 1210SOL    HW2 4530   3.780   6.729   3.492
 1211SOL     OW 4531   1.399   2.830   3.219
 1211SOL    HW1 4532   1.436   2.741   3.194
 1211SOL    HW2 4533   1.400   2.890   3.139
 1212SOL     OW 4534   6.599   0.245   6.079
 1212SOL    HW1 4535   6.560   0.331   6.044
 1212SOL    HW2 4536   6.658   0.265   6.157
 1213SOL     OW 4537   6.111   2.618   1.430
 1213SOL    HW1 4538   6.200   2.647   1.396
 1213SOL    HW2 4539   6.090   2.527   1.396
 1214SOL     OW 4540   0.984   3.183   0.109
 1214SOL    HW1 4541   1.015   3.269   0.067
 1214SOL    HW2 4542   1.062   3.134   0.147
 1215SOL     OW 4543   0.740   4.861   3.444
 1215SOL    HW1 4544   0.678   4.936   3.466
 1215SOL    HW2 4545   0.834   4.889   3.465
 1216SOL     OW 4546   5.510   0.921   0.644
 1216SOL    HW1 4547   5.519   0.847   0.577
 1216SOL    HW2 4548   5.429   0.905   0.700
 1217SOL     OW 4549   2.863   4.499   1.059
 1217SOL    HW1 4550   2.946   4.458   1.021
 1217SOL    HW2 4551   2.877   4.518   1.156
 1218SOL     OW 4552   1.442   3.056   4.960
 1218SOL    HW1 4553   1.489   3.144   4.963
 1218SOL    HW2 4554   1.507   2.982   4.979
 1219SOL     OW 4555   6.047   6.156   1.673
 1219SOL    HW1 4556   6.076   6.185   1.765
 1219SOL    HW2 4557   6.113   6.190   1.606
 1220SOL     OW 4558   0.931   4.619   2.441
 1220SOL    HW1 4559   1.013   4.656   2.398
 1220SOL    HW2 4560   0.955   4.572   2.525
 1221SOL     OW 4561   4.113   3.799   6.421
 1221SOL    HW1 4562   4.180   3.790   6.347
 1221SOL    HW2 4563   4.137   3.737   6.496
 1222SOL     OW 4564   6.766   1.155   6.906
 1222SOL    HW1 4565   6.745   1.064   6.872
 1222SOL    HW2 4566   6.780   1.218   6.830
 1223SOL     OW 4567   4.209   1.444   0.785
 1223SOL    HW1 4568   4.187   1.529   0.736
 1223SOL    HW2 4569   4.307   1.427   0.781
 1224SOL     OW 4570   3.361   5.853   0.280
 1224SOL    HW1 4571   3.324   5.782   0.339
 1224SOL    HW2 4572   3.420   5.914   0.334
 1225SOL     OW 4573   3.266   3.042   6.606
 1225SOL    HW1 4574   3.239   3.096   6.686
 1225SOL    HW2 4575   3.189   3.035   6.543
 1226SOL     OW 4576   2.775   6.842   1.500
 1226SOL    HW1 4577   2.828   6.841   1.584
 1226SOL    HW2 4578   2.835   6.867   1.423
 1227SOL     OW 4579   5.180   4.595   5.855
 1227SOL    HW1 4580   5.168   4.588   5.756
 1227SOL    HW2 4581   5.150   4.686   5.885
 1228SOL     OW 4582   2.669   2.419   6.256
 1228SOL    HW1 4583   2.759   2.448   6.291
 1228SOL    HW2 4584   2.657   2.455   6.163
 1229SOL     OW 4585   3.099   5.709   6.219
 1229SOL    HW1 4586   3.090   5.618   6.258
 1229SOL    HW2 4587   3.122   5.775   6.291
 1230SOL     OW 4588   5.239   6.678   2.056
 1230SOL    HW1 4589   5.335   6.666   2.030
 1230SOL    HW2 4590   5.215   6.775   2.045
 1231SOL     OW 4591   1.679   2.002   5.437
 1231SOL    HW1 4592   1.658   1.908   5.463
 1231SOL    HW2 4593   1.763   2.031   5.482
 1232SOL     OW 4594   0.272   2.056   5.722
 1232SOL    HW1 4595   0.179   2.019   5.715
 1232SOL    HW2 4596   0.338   1.983   5.708
 1233SOL     OW 4597   0.764   4.978   5.177
 1233SOL    HW1 4598   0.767   4.933   5.266
 1233SOL    HW2 4599   0.773   4.911   5.104
 1234SOL     OW 4600   6.326   2.816   5.980
 1234SOL    HW1 4601   6.280   2.802   5.892
 1234SOL    HW2 4602   6.386   2.896   5.973
 1235SOL     OW 4603   6.093   5.642   3.084
 1235SOL    HW1 4604   6.182   5.687   3.088
 1235SOL    HW2 4605   6.093   5.576   3.008
 1236SOL     OW 4606   4.637   1.134   0.417
 1236SOL    HW1 4607   4.609   1.225   0.446
 1236SOL    HW2 4608   4.616   1.122   0.320
 1237SOL     OW 4609   2.136   4.541   6.118
 1237SOL    HW1 4610   2.048   4.587   6.130
 1237SOL    HW2 4611   2.121   4.451   6.077
 1238SOL     OW 4612   0.995   0.893   0.290
 1238SOL    HW1 4613   1.086   0.918   0.324
 1238SOL    HW2 4614   0.955   0.969   0.240
 1239SOL     OW 4615   6.893   6.755   6.506
 1239SOL    HW1 4616   6.987   6.752   6.472
 1239SOL    HW2 4617   6.868   6.665   6.543
 1240SOL     OW 4618   5.312   6.412   0.975
 1240SOL    HW1 4619   5.374   6.365   0.912
 1240SOL    HW2 4620   5.314   6.366   1.064
 1241SOL     OW 4621   5.321   3.788   4.269
 1241SOL    HW1 4622   5.400   3.727   4.275
 1241SOL    HW2 4623   5.291   3.795   4.174
 1242SOL     OW 4624   0.759   3.607   1.364
 1242SOL    HW1 4625   0.830   3.546   1.330
 1242SOL    HW2 4626   0.799   3.672   1.429
 1243SOL     OW 4627   0.239   6.988   5.156
 1243SOL    HW1 4628   0.286   6.990   5.068
 1243SOL    HW2 4629   0.154   6.937   5.147
 1244SOL     OW 4630   5.778   6.797   4.644
 1244SOL    HW1 4631   5.714   6.780   4.719
 1244SOL    HW2 4632   5.871   6.776   4.673
 1245SOL     OW 4633   5.752   4.339   0.769
 1245SOL    HW1 4634   5.739   4.265   0.702
 1245SOL    HW2 4635   5.730   4.427   0.727
 1246SOL     OW 4636   2.902   0.454   1.186
 1246SOL    HW1 4637   2.815   0.437   1.232
 1246SOL    HW2 4638   2.894   0.427   1.090
 1247SOL     OW 4639   0.720   6.900   6.341
 1247SOL    HW1 4640   0.818   6.918   6.356
 1247SOL    HW2 4641   0.696   6.924   6.247
 1248SOL     OW 4642   2.061   0.238   5.284
 1248SOL    HW1 4643   1.986   0.271   5.341
 1248SOL    HW2 4644   2.035   0.150   5.243
 1249SOL     OW 4645   6.359   2.137   2.498
 1249SOL    HW1 4646   6.430   2.130   2.428
 1249SOL    HW2 4647   6.275   2.093   2.465
 1250SOL     OW 4648   6.052   5.366   3.631
 1250SOL    HW1 4649   5.966   5.340   3.676
 1250SOL    HW2 4650   6.113   5.407   3.698
 1251SOL     OW 4651   2.351   0.430   3.526
 1251SOL    HW1 4652   2.373   0.352   3.467
 1251SOL    HW2 4653   2.436   0.470   3.561
 1252SOL     OW 4654   4.862   3.108   6.211
 1252SOL    HW1 4655   4.867   3.038   6.282
 1252SOL    HW2 4656   4.828   3.068   6.126
 1253SOL     OW 4657   2.632   6.097   2.025
 1253SOL    HW1 4658   2.664   6.119   1.933
 1253SOL    HW2 4659   2.643   5.999   2.042
 1254SOL     OW 4660   1.121   2.626   2.655
 1254SOL    HW1 4661   1.182   2.586   2.722
 1254SOL    HW2 4662   1.174   2.679   2.589
 1255SOL     OW 4663   5.536   1.251   5.943
 1255SOL    HW1 4664   5.561   1.347   5.951
 1255SOL    HW2 4665   5.528   1.210   6.034
 1256SOL     OW 4666   0.065   6.841   3.277
 1256SOL    HW1 4667   0.074   6.796   3.188
 1256SOL    HW2 4668   6.996   6.837   3.307
 1257SOL     OW 4669   6.654   6.094   5.319
 1257SOL    HW1 4670   6.738   6.055   5.356
 1257SOL    HW2 4671   6.575   6.053   5.364
 1258SOL     OW 4672   2.109   4.977   3.008
 1258SOL    HW1 4673   2.013   4.999   3.027
 1258SOL    HW2 4674   2.136   5.019   2.922
 1259SOL     OW 4675   3.692   0.850   4.020
 1259SOL    HW1 4676   3.614   0.848   3.958
 1259SOL    HW2 4677   3.707   0.758   4.058
 1260SOL     OW 4678   2.348   1.751   6.944
 1260SOL    HW1 4679   2.340   1.685   7.019
 1260SOL    HW2 4680   2.436   1.740   6.899
 1261SOL     OW 4681   0.134   6.072   6.924
 1261SOL    HW1 4682   0.077   6.038   6.850
 1261SOL    HW2 4683   0.169   6.163   6.900
 1262SOL     OW 4684   6.177   4.543   1.448
 1262SOL    HW1 4685   6.233   4.489   1.386
 1262SOL    HW2 4686   6.134   4.483   1.515
 1263SOL     OW 4687   0.150   2.392   1.502
 1263SOL    HW1 4688   0.244   2.416   1.478
 1263SOL    HW2 4689   0.097   2.476   1.513
 1264SOL     OW 4690   7.025   4.531   0.989
 1264SOL    HW1 4691   7.014   4.542   0.890
 1264SOL    HW2 4692   0.093   4.550   1.014
 1265SOL     OW 4693   5.492   5.301   4.519
 1265SOL    HW1 4694   5.488   5.210   4.477
 1265SOL    HW2 4695   5.489   5.291   4.619
 1266SOL     OW 4696   0.662   1.605   4.306
 1266SOL    HW1 4697   0.725   1.610   4.229
 1266SOL    HW2 4698   0.607   1.521   4.299
 1267SOL     OW 4699   4.707   0.013   1.226
 1267SOL    HW1 4700   4.736   0.062   1.309
 1267SOL    HW2 4701   4.607   0.014   1.220
 1268SOL     OW 4702   2.556   2.242   0.643
 1268SOL    HW1 4703   2.602   2.256   0.731
 1268SOL    HW2 4704   2.613   2.278   0.569
 1269SOL     OW 4705   5.719   4.115   5.299
 1269SOL    HW1 4706   5.799   4.086   5.353
 1269SOL    HW2 4707   5.674   4.191   5.345
 1270SOL     OW 4708   1.291   2.964   3.836
 1270SOL    HW1 4709   1.326   2.872   3.820
 1270SOL    HW2 4710   1.346   3.008   3.908
 1271SOL     OW 4711   2.653   2.095   3.301
 1271SOL    HW1 4712   2.663   2.020   3.236
 1271SOL    HW2 4713   2.712   2.171   3.273
 1272SOL     OW 4714   6.237   4.306   6.797
 1272SOL    HW1 4715   6.151   4.357   6.802
 1272SOL    HW2 4716   6.227   4.219   6.846
 1273SOL     OW 4717   0.433   2.893   7.011
 1273SOL    HW1 4718   0.373   2.932   0.055
 1273SOL    HW2 4719   0.490   2.822   0.025
 1274SOL     OW 4720   6.598   4.161   1.770
 1274SOL    HW1 4721   6.550   4.158   1.682
 1274SOL    HW2 4722   6.670   4.230   1.766
 1275SOL     OW 4723   3.460   1.479   4.327
 1275SOL    HW1 4724   3.552   1.513   4.305
 1275SOL    HW2 4725   3.417   1.541   4.394
 1276SOL     OW 4726   6.529   5.222   5.481
 1276SOL    HW1 4727   6.616   5.244   5.526
 1276SOL    HW2 4728   6.525   5.268   5.393
 1277SOL     OW 4729   1.491   5.481   5.880
 1277SOL    HW1 4730   1.534   5.408   5.827
 1277SOL    HW2 4731   1.553   5.560   5.885
 1278SOL     OW 4732   0.898   6.768   4.968
 1278SOL    HW1 4733   0.955   6.712   5.028
 1278SOL    HW2 4734   0.885   6.720   4.881
 1279SOL     OW 4735   2.107   5.042   0.269
 1279SOL    HW1 4736   2.111   5.133   0.227
 1279SOL    HW2 4737   2.192   4.992   0.251
 1280SOL     OW 4738   4.274   6.032   4.215
 1280SOL    HW1 4739   4.176   6.020   4.199
 1280SOL    HW2 4740   4.321   6.043   4.128
 1281SOL     OW 4741   2.126   6.700   3.130
 1281SOL    HW1 4742   2.070   6.623   3.161
 1281SOL    HW2 4743   2.214   6.666   3.096
 1282SOL     OW 4744   6.567   2.201   0.380
 1282SOL    HW1 4745   6.563   2.102   0.392
 1282SOL    HW2 4746   6.601   2.243   0.464
 1283SOL     OW 4747   6.714   3.608   5.289
 1283SOL    HW1 4748   6.804   3.646   5.308
 1283SOL    HW2 4749   6.700   3.525   5.343
 1284SOL     OW 4750   5.030   2.274   1.389
 1284SOL    HW1 4751   4.996   2.343   1.453
 1284SOL    HW2 4752   5.051   2.190   1.439
 1285SOL     OW 4753   4.235   1.937   5.977
 1285SOL    HW1 4754   4.177   1.863   6.009
 1285SOL    HW2 4755   4.234   1.939   5.877
 1286SOL     OW 4756   4.166   3.912   1.711
 1286SOL    HW1 4757   4.093   3.952   1.766
 1286SOL    HW2 4758   4.196   3.826   1.753
 1287SOL     OW 4759   5.773   4.850   5.113
 1287SOL    HW1 4760   5.722   4.925   5.072
 1287SOL    HW2 4761   5.837   4.887   5.181
 1288SOL     OW 4762   3.921   3.177   6.866
 1288SOL    HW1 4763   3.914   3.271   6.898
 1288SOL    HW2 4764   3.843   3.156   6.807
 1289SOL     OW 4765   6.609   6.795   1.226
 1289SOL    HW1 4766   6.523   6.747   1.211
 1289SOL    HW2 4767   6.662   6.796   1.140
 1290SOL     OW 4768   0.888   6.701   7.017
 1290SOL    HW1 4769   0.920   6.635   0.058
 1290SOL    HW2 4770   0.806   6.665   6.972
 1291SOL     OW 4771   0.759   4.331   4.279
 1291SOL    HW1 4772   0.704   4.273   4.340
 1291SOL    HW2 4773   0.856   4.315   4.296
 1292SOL     OW 4774   0.601   6.086   2.274
 1292SOL    HW1 4775   0.568   6.123   2.361
 1292SOL    HW2 4776   0.560   5.997   2.258
 1293SOL     OW 4777   1.461   2.048   0.382
 1293SOL    HW1 4778   1.560   2.056   0.400
 1293SOL    HW2 4779   1.442   1.960   0.339
 1294SOL     OW 4780   0.642   3.366   6.537
 1294SOL    HW1 4781   0.694   3.427   6.597
 1294SOL    HW2 4782   0.550   3.355   6.573
 1295SOL     OW 4783   0.364   3.820   1.467
 1295SOL    HW1 4784   0.435   3.855   1.528
 1295SOL    HW2 4785   0.406   3.779   1.386
 1296SOL     OW 4786   3.835   6.475   5.459
 1296SOL    HW1 4787   3.771   6.464   5.536
 1296SOL    HW2 4788   3.895   6.395   5.454
 1297SOL     OW 4789   6.758   0.299   1.686
 1297SOL    HW1 4790   6.690   0.225   1.678
 1297SOL    HW2 4791   6.727   0.378   1.633
 1298SOL     OW 4792   5.549   5.494   3.454
 1298SOL    HW1 4793   5.473   5.479   3.391
 1298SOL    HW2 4794   5.589   5.584   3.438
 1299SOL     OW 4795   2.189   3.059   3.576
 1299SOL    HW1 4796   2.090   3.042   3.579
 1299SOL    HW2 4797   2.237   2.987   3.626
 1300SOL     OW 4798   1.662   3.033   0.711
 1300SOL    HW1 4799   1.694   2.981   0.633
 1300SOL    HW2 4800   1.737   3.046   0.776
 1301SOL     OW 4801   0.342   6.564   1.116
 1301SOL    HW1 4802   0.419   6.576   1.053
 1301SOL    HW2 4803   0.257   6.576   1.066
 1302SOL     OW 4804   4.400   0.352   5.887
 1302SOL    HW1 4805   4.495   0.341   5.918
 1302SOL    HW2 4806   4.398   0.355   5.787
 1303SOL     OW 4807   3.719   2.089   1.714
 1303SOL    HW1 4808   3.700   2.178   1.756
 1303SOL    HW2 4809   3.636   2.033   1.718
 1304SOL     OW 4810   1.939   0.789   6.982
 1304SOL    HW1 4811   1.942   0.766   6.885
 1304SOL    HW2 4812   1.952   0.707   0.010
 1305SOL     OW 4813   5.321   3.359   0.944
 1305SOL    HW1 4814   5.389   3.377   1.014
 1305SOL    HW2 4815   5.366   3.339   0.857
 1306SOL     OW 4816   1.027   5.438   3.866
 1306SOL    HW1 4817   0.960   5.434   3.940
 1306SOL    HW2 4818   1.022   5.353   3.812
 1307SOL     OW 4819   1.841   4.058   4.008
 1307SOL    HW1 4820   1.830   4.147   4.052
 1307SOL    HW2 4821   1.753   4.010   4.007
 1308SOL     OW 4822   6.686   0.233   5.210
 1308SOL    HW1 4823   6.699   0.136   5.227
 1308SOL    HW2 4824   6.745   0.287   5.270
 1309SOL     OW 4825   5.982   4.962   5.297
 1309SOL    HW1 4826   6.005   5.059   5.301
 1309SOL    HW2 4827   5.979   4.925   5.390
 1310SOL     OW 4828   6.543   4.055   4.217
 1310SOL    HW1 4829   6.578   4.004   4.295
 1310SOL    HW2 4830   6.480   4.126   4.249
 1311SOL     OW 4831   0.544   5.711   5.860
 1311SOL    HW1 4832   0.542   5.811   5.869
 1311SOL    HW2 4833   0.631   5.684   5.819
 1312SOL     OW 4834   0.896   6.542   6.583
 1312SOL    HW1 4835   0.984   6.544   6.536
 1312SOL    HW2 4836   0.892   6.614   6.652
 1313SOL     OW 4837   0.320   4.774   2.866
 1313SOL    HW1 4838   0.353   4.783   2.772
 1313SOL    HW2 4839   0.364   4.696   2.910
 1314SOL     OW 4840   4.324   1.247   5.116
 1314SOL    HW1 4841   4.247   1.209   5.065
 1314SOL    HW2 4842   4.289   1.294   5.198
 1315SOL     OW 4843   0.247   1.617   2.679
 1315SOL    HW1 4844   0.165   1.585   2.726
 1315SOL    HW2 4845   0.328   1.579   2.724
 1316SOL     OW 4846   2.805   6.537   6.291
 1316SOL    HW1 4847   2.780   6.576   6.379
 1316SOL    HW2 4848   2.793   6.606   6.219
 1317SOL     OW 4849   2.190   4.267   6.040
 1317SOL    HW1 4850   2.260   4.230   6.101
 1317SOL    HW2 4851   2.112   4.204   6.036
 1318SOL     OW 4852   1.020   2.334   0.976
 1318SOL    HW1 4853   1.036   2.422   0.932
 1318SOL    HW2 4854   1.102   2.305   1.024
 1319SOL     OW 4855   6.709   6.327   0.158
 1319SOL    HW1 4856   6.703   6.305   0.256
 1319SOL    HW2 4857   6.728   6.425   0.147
 1320SOL     OW 4858   3.904   4.437   6.850
 1320SOL    HW1 4859   3.934   4.343   6.864
 1320SOL    HW2 4860   3.891   4.453   6.752
 1321SOL     OW 4861   5.881   2.227   6.284
 1321SOL    HW1 4862   5.836   2.177   6.357
 1321SOL    HW2 4863   5.907   2.318   6.317
 1322SOL     OW 4864   3.589   1.502   3.623
 1322SOL    HW1 4865   3.493   1.524   3.639
 1322SOL    HW2 4866   3.635   1.583   3.585
 1323SOL     OW 4867   3.946   0.262   6.070
 1323SOL    HW1 4868   3.953   0.167   6.100
 1323SOL    HW2 4869   3.908   0.265   5.977
 1324SOL     OW 4870   1.035   4.020   6.972
 1324SOL    HW1 4871   0.999   4.019   6.879
 1324SOL    HW2 4872   1.134   4.037   6.970
 1325SOL     OW 4873   2.531   6.711   4.168
 1325SOL    HW1 4874   2.582   6.630   4.195
 1325SOL    HW2 4875   2.486   6.695   4.081
 1326SOL     OW 4876   4.743   3.364   5.349
 1326SOL    HW1 4877   4.720   3.286   5.291
 1326SOL    HW2 4878   4.701   3.447   5.312
 1327SOL     OW 4879   1.000   6.140   1.316
 1327SOL    HW1 4880   0.951   6.200   1.379
 1327SOL    HW2 4881   1.091   6.121   1.353
 1328SOL     OW 4882   2.314   3.262   1.425
 1328SOL    HW1 4883   2.251   3.324   1.378
 1328SOL    HW2 4884   2.265   3.179   1.452
 1329SOL     OW 4885   0.496   2.344   2.324
 1329SOL    HW1 4886   0.431   2.399   2.272
 1329SOL    HW2 4887   0.589   2.375   2.304
 1330SOL     OW 4888   0.798   1.197   2.031
 1330SOL    HW1 4889   0.734   1.271   2.053
 1330SOL    HW2 4890   0.748   1.122   1.988
 1331SOL     OW 4891   4.880   3.514   2.960
 1331SOL    HW1 4892   4.934   3.583   2.912
 1331SOL    HW2 4893   4.783   3.527   2.939
 1332SOL     OW 4894   2.600   0.076   6.896
 1332SOL    HW1 4895   2.665   0.012   6.855
 1332SOL    HW2 4896   2.517   0.079   6.841
 1333SOL     OW 4897   3.599   3.275   3.743
 1333SOL    HW1 4898   3.657   3.213   3.797
 1333SOL    HW2 4899   3.628   3.369   3.758
 1334SOL     OW 4900   6.049   1.896   4.313
 1334SOL    HW1 4901   6.131   1.843   4.334
 1334SOL    HW2 4902   6.028   1.888   4.215
 1335SOL     OW 4903   2.508   1.901   2.081
 1335SOL    HW1 4904   2.512   1.955   1.997
 1335SOL    HW2 4905   2.440   1.828   2.070
 1336SOL     OW 4906   2.263   2.332   5.204
 1336SOL    HW1 4907   2.258   2.385   5.288
 1336SOL    HW2 4908   2.194   2.366   5.140
 1337SOL     OW 4909   1.743   1.303   3.817
 1337SOL    HW1 4910   1.702   1.272   3.903
 1337SOL    HW2 4911   1.776   1.223   3.766
 1338SOL     OW 4912   5.624   2.541   5.077
 1338SOL    HW1 4913   5.699   2.595   5.115
 1338SOL    HW2 4914   5.549   2.537   5.143
 1339SOL     OW 4915   6.452   1.959   6.543
 1339SOL    HW1 4916   6.413   2.047   6.570
 1339SOL    HW2 4917   6.515   1.927   6.614
 1340SOL     OW 4918   6.011   2.023   3.392
 1340SOL    HW1 4919   5.951   2.002   3.314
 1340SOL    HW2 4920   6.098   2.057   3.359
 1341SOL     OW 4921   5.443   6.756   6.836
 1341SOL    HW1 4922   5.542   6.751   6.821
 1341SOL    HW2 4923   5.397   6.697   6.769
 1342SOL     OW 4924   2.927   5.950   5.782
 1342SOL    HW1 4925   2.902   5.923   5.689
 1342SOL    HW2 4926   2.879   5.892   5.848
 1343SOL     OW 4927   5.630   5.712   2.269
 1343SOL    HW1 4928   5.642   5.614   2.251
 1343SOL    HW2 4929   5.585   5.725   2.357
 1344SOL     OW 4930   0.193   5.817   4.449
 1344SOL    HW1 4931   0.113   5.760   4.467
 1344SOL    HW2 4932   0.182   5.862   4.360
 1345SOL     OW 4933   1.206   6.565   3.341
 1345SOL    HW1 4934   1.141   6.636   3.370
 1345SOL    HW2 4935   1.167   6.513   3.265
 1346SOL     OW 4936   0.746   5.452   4.597
 1346SOL    HW1 4937   0.844   5.457   4.614
 1346SOL    HW2 4938   0.704   5.387   4.661
 1347SOL     OW 4939   0.481   6.744   5.933
 1347SOL    HW1 4940   0.537   6.819   5.899
 1347SOL    HW2 4941   0.524   6.705   6.015
 1348SOL     OW 4942   5.972   6.337   3.859
 1348SOL    HW1 4943   5.880   6.343   3.897
 1348SOL    HW2 4944   6.029   6.279   3.918
 1349SOL     OW 4945   4.592   2.625   5.542
 1349SOL    HW1 4946   4.547   2.665   5.462
 1349SOL    HW2 4947   4.634   2.698   5.596
 1350SOL     OW 4948   5.255   5.395   5.698
 1350SOL    HW1 4949   5.170   5.411   5.648
 1350SOL    HW2 4950   5.298   5.483   5.718
 1351SOL     OW 4951   5.399   1.639   2.818
 1351SOL    HW1 4952   5.367   1.690   2.738
 1351SOL    HW2 4953   5.327   1.576   2.848
 1352SOL     OW 4954   6.782   6.447   3.078
 1352SOL    HW1 4955   6.863   6.390   3.091
 1352SOL    HW2 4956   6.730   6.412   2.999
 1353SOL     OW 4957   0.058   2.432   0.247
 1353SOL    HW1 4958   0.087   2.528   0.244
 1353SOL    HW2 4959   0.076   2.394   0.338
 1354SOL     OW 4960   1.109   4.131   1.827
 1354SOL    HW1 4961   1.169   4.203   1.794
 1354SOL    HW2 4962   1.075   4.155   1.918
 1355SOL     OW 4963   5.703   2.607   4.097
 1355SOL    HW1 4964   5.640   2.652   4.033
 1355SOL    HW2 4965   5.789   2.659   4.101
 1356SOL     OW 4966   3.500   3.509   2.361
 1356SOL    HW1 4967   3.564   3.434   2.375
 1356SOL    HW2 4968   3.549   3.596   2.363
 1357SOL     OW 4969   0.616   3.797   6.156
 1357SOL    HW1 4970   0.655   3.732   6.221
 1357SOL    HW2 4971   0.519   3.812   6.177
 1358SOL     OW 4972   4.093   6.456   6.215
 1358SOL    HW1 4973   4.162   6.520   6.250
 1358SOL    HW2 4974   4.062   6.397   6.290
 1359SOL     OW 4975   6.015   4.858   2.747
 1359SOL    HW1 4976   6.109   4.829   2.733
 1359SOL    HW2 4977   5.958   4.829   2.670
 1360SOL     OW 4978   3.208   3.232   0.286
 1360SOL    HW1 4979   3.155   3.256   0.367
 1360SOL    HW2 4980   3.149   3.235   0.205
 1361SOL     OW 4981   6.475   4.933   6.154
 1361SOL    HW1 4982   6.507   4.852   6.103
 1361SOL    HW2 4983   6.378   4.922   6.175
 1362SOL     OW 4984   2.985   3.780   3.334
 1362SOL    HW1 4985   2.988   3.813   3.239
 1362SOL    HW2 4986   3.057   3.826   3.387
 1363SOL     OW 4987   6.727   5.414   2.978
 1363SOL    HW1 4988   6.786   5.486   2.944
 1363SOL    HW2 4989   6.684   5.366   2.902
 1364SOL     OW 4990   6.691   4.172   1.091
 1364SOL    HW1 4991   6.742   4.257   1.076
 1364SOL    HW2 4992   6.685   4.153   1.189
 1365SOL     OW 4993   0.957   4.091   6.312
 1365SOL    HW1 4994   0.906   4.147   6.247
 1365SOL    HW2 4995   0.904   4.083   6.397
 1366SOL     OW 4996   1.262   5.090   0.170
 1366SOL    HW1 4997   1.253   5.078   0.071
 1366SOL    HW2 4998   1.330   5.025   0.205
 1367SOL     OW 4999   1.383   0.298   3.388
 1367SOL    HW1 5000   1.466   0.242   3.381
 1367SOL    HW2 5001   1.399   0.373   3.451
 1368SOL     OW 5002   5.967   0.726   3.347
 1368SOL    HW1 5003   6.010   0.725   3.437
 1368SOL    HW2 5004   6.025   0.679   3.281
 1369SOL     OW 5005   2.576   6.908   1.712
 1369SOL    HW1 5006   2.614   6.979   1.770
 1369SOL    HW2 5007   2.600   6.925   1.616
 1370SOL     OW 5008   3.666   0.320   0.819
 1370SOL    HW1 5009   3.600   0.307   0.745
 1370SOL    HW2 5010   3.665   0.415   0.849
 1371SOL     OW 5011   5.893   2.133   4.513
 1371SOL    HW1 5012   5.902   2.136   4.613
 1371SOL    HW2 5013   5.967   2.078   4.475
 1372SOL     OW 5014   1.512   3.141   0.110
 1372SOL    HW1 5015   1.424   3.159   0.067
 1372SOL    HW2 5016   1.503   3.143   0.209
 1373SOL     OW 5017   5.324   3.179   0.069
 1373SOL    HW1 5018   5.307   3.190   6.998
 1373SOL    HW2 5019   5.378   3.097   0.085
 1374SOL     OW 5020   4.764   2.057   0.172
 1374SOL    HW1 5021   4.774   2.030   0.268
 1374SOL    HW2 5022   4.677   2.022   0.136
 1375SOL     OW 5023   6.912   3.510   6.185
 1375SOL    HW1 5024   6.932   3.468   6.273
 1375SOL    HW2 5025   6.897   3.439   6.116
 1376SOL     OW 5026   4.784   4.374   4.600
 1376SOL    HW1 5027   4.686   4.389   4.612
 1376SOL    HW2 5028   4.835   4.440   4.655
 1377SOL     OW 5029   6.929   3.955   5.852
 1377SOL    HW1 5030   6.919   3.927   5.947
 1377SOL    HW2 5031   6.904   4.051   5.843
 1378SOL     OW 5032   6.402   1.103   4.797
 1378SOL    HW1 5033   6.464   1.101   4.719
 1378SOL    HW2 5034   6.326   1.040   4.781
 1379SOL     OW 5035   3.212   6.787   2.500
 1379SOL    HW1 5036   3.171   6.810   2.589
 1379SOL    HW2 5037   3.300   6.741   2.515
 1380SOL     OW 5038   0.448   0.139   2.827
 1380SOL    HW1 5039   0.540   0.144   2.865
 1380SOL    HW2 5040   0.428   0.224   2.778
 1381SOL     OW 5041   5.703   2.069   6.852
 1381SOL    HW1 5042   5.719   2.116   6.765
 1381SOL    HW2 5043   5.652   2.128   6.914
 1382SOL     OW 5044   4.890   4.392   0.456
 1382SOL    HW1 5045   4.803   4.432   0.427
 1382SOL    HW2 5046   4.965   4.432   0.403
 1383SOL     OW 5047   0.912   6.990   0.945
 1383SOL    HW1 5048   1.006   7.003   0.913
 1383SOL    HW2 5049   0.894   6.892   0.955
 1384SOL     OW 5050   3.915   0.506   2.524
 1384SOL    HW1 5051   3.980   0.574   2.490
 1384SOL    HW2 5052   3.839   0.551   2.571
 1385SOL     OW 5053   1.247   3.236   3.197
 1385SOL    HW1 5054   1.159   3.251   3.244
 1385SOL    HW2 5055   1.251   3.142   3.164
 1386SOL     OW 5056   2.294   1.072   4.725
 1386SOL    HW1 5057   2.323   1.069   4.820
 1386SOL    HW2 5058   2.246   0.987   4.702
 1387SOL     OW 5059   3.776   6.251   2.780
 1387SOL    HW1 5060   3.697   6.292   2.826
 1387SOL    HW2 5061   3.844   6.322   2.763
 1388SOL     OW 5062   0.170   6.366   3.392
 1388SOL    HW1 5063   0.194   6.463   3.389
 1388SOL    HW2 5064   0.215   6.319   3.316
 1389SOL     OW 5065   0.242   0.952   4.138
 1389SOL    HW1 5066   0.238   1.052   4.139
 1389SOL    HW2 5067   0.333   0.922   4.110
 1390SOL     OW 5068   4.765   2.229   6.185
 1390SOL    HW1 5069   4.734   2.249   6.092
 1390SOL    HW2 5070   4.710   2.281   6.250
 1391SOL     OW 5071   6.347   0.534   5.515
 1391SOL    HW1 5072   6.268   0.517   5.456
 1391SOL    HW2 5073   6.431   0.533   5.460
 1392SOL     OW 5074   5.627   5.729   6.166
 1392SOL    HW1 5075   5.649   5.785   6.086
 1392SOL    HW2 5076   5.695   5.743   6.237
 1393SOL     OW 5077   5.993   3.418   6.503
 1393SOL    HW1 5078   5.985   3.404   6.404
 1393SOL    HW2 5079   5.914   3.469   6.536
 1394SOL     OW 5080   3.794   6.398   3.396
 1394SOL    HW1 5081   3.876   6.345   3.419
 1394SOL    HW2 5082   3.811   6.494   3.416
 1395SOL     OW 5083   1.441   4.236   3.390
 1395SOL    HW1 5084   1.492   4.185   3.460
 1395SOL    HW2 5085   1.438   4.332   3.415
 1396SOL     OW 5086   1.457   6.715   3.901
 1396SOL    HW1 5087   1.389   6.669   3.958
 1396SOL    HW2 5088   1.422   6.804   3.873
 1397SOL     OW 5089   0.394   6.119   4.203
 1397SOL    HW1 5090   0.335   6.039   4.203
 1397SOL    HW2 5091   0.410   6.148   4.108
 1398SOL     OW 5092   1.319   1.533   6.418
 1398SOL    HW1 5093   1.358   1.625   6.418
 1398SOL    HW2 5094   1.243   1.529   6.353
 1399SOL     OW 5095   4.319   0.223   0.193
 1399SOL    HW1 5096   4.366   0.165   0.127
 1399SOL    HW2 5097   4.338   0.189   0.286
 1400SOL     OW 5098   6.631   1.851   4.365
 1400SOL    HW1 5099   6.635   1.752   4.379
 1400SOL    HW2 5100   6.646   1.871   4.268
 1401SOL     OW 5101   6.539   6.363   4.635
 1401SOL    HW1 5102   6.565   6.420   4.556
 1401SOL    HW2 5103   6.444   6.333   4.624
 1402SOL     OW 5104   5.520   4.265   0.139
 1402SOL    HW1 5105   5.506   4.249   0.041
 1402SOL    HW2 5106   5.431   4.274   0.183
 1403SOL     OW 5107   2.191   2.074   1.003
 1403SOL    HW1 5108   2.285   2.107   1.013
 1403SOL    HW2 5109   2.187   1.977   1.026
 1404SOL     OW 5110   5.682   0.051   0.470
 1404SOL    HW1 5111   5.649   0.060   0.376
 1404SOL    HW2 5112   5.622   0.103   0.531
 1405SOL     OW 5113   2.668   3.439   0.295
 1405SOL    HW1 5114   2.688   3.474   0.387
 1405SOL    HW2 5115   2.638   3.344   0.302
 1406SOL     OW 5116   2.190   5.270   0.566
 1406SOL    HW1 5117   2.263   5.337   0.579
 1406SOL    HW2 5118   2.230   5.179   0.560
 1407SOL     OW 5119   1.765   3.765   3.161
 1407SOL    HW1 5120   1.749   3.675   3.199
 1407SOL    HW2 5121   1.678   3.813   3.150
 1408SOL     OW 5122   5.268   6.623   6.663
 1408SOL    HW1 5123   5.214   6.660   6.738
 1408SOL    HW2 5124   5.207   6.579   6.596
 1409SOL     OW 5125   0.077   0.912   5.051
 1409SOL    HW1 5126   0.069   1.005   5.087
 1409SOL    HW2 5127   0.079   0.847   5.127
 1410SOL     OW 5128   3.383   3.937   0.346
 1410SOL    HW1 5129   3.479   3.926   0.372
 1410SOL    HW2 5130   3.332   3.974   0.423
 1411SOL     OW 5131   3.725   6.323   6.190
 1411SOL    HW1 5132   3.665   6.375   6.252
 1411SOL    HW2 5133   3.775   6.255   6.243
 1412SOL     OW 5134   0.698   4.516   2.099
 1412SOL    HW1 5135   0.697   4.609   2.063
 1412SOL    HW2 5136   0.639   4.458   2.043
 1413SOL     OW 5137   1.785   1.693   4.428
 1413SOL    HW1 5138   1.859   1.629   4.449
 1413SOL    HW2 5139   1.765   1.689   4.330
 1414SOL     OW 5140   1.416   2.658   1.595
 1414SOL    HW1 5141   1.446   2.583   1.654
 1414SOL    HW2 5142   1.466   2.655   1.508
 1415SOL     OW 5143   2.980   1.930   4.231
 1415SOL    HW1 5144   3.065   1.879   4.221
 1415SOL    HW2 5145   2.990   2.021   4.191
 1416SOL     OW 5146   4.046   0.303   4.249
 1416SOL    HW1 5147   4.083   0.277   4.338
 1416SOL    HW2 5148   4.098   0.258   4.177
 1417SOL     OW 5149   3.434   3.040   6.213
 1417SOL    HW1 5150   3.491   2.993   6.145
 1417SOL    HW2 5151   3.341   3.051   6.176
 1418SOL     OW 5152   3.169   3.779   0.053
 1418SOL    HW1 5153   3.237   3.752   0.122
 1418SOL    HW2 5154   3.080   3.791   0.098
 1419SOL     OW 5155   1.932   5.600   4.392
 1419SOL    HW1 5156   1.895   5.566   4.479
 1419SOL    HW2 5157   1.890   5.550   4.316
 1420SOL     OW 5158   3.487   5.448   2.595
 1420SOL    HW1 5159   3.412   5.382   2.587
 1420SOL    HW2 5160   3.531   5.459   2.506
 1421SOL     OW 5161   1.522   4.390   4.304
 1421SOL    HW1 5162   1.583   4.407   4.227
 1421SOL    HW2 5163   1.569   4.415   4.389
 1422SOL     OW 5164   3.287   4.618   5.690
 1422SOL    HW1 5165   3.275   4.666   5.603
 1422SOL    HW2 5166   3.275   4.520   5.676
 1423SOL     OW 5167   3.620   1.497   5.055
 1423SOL    HW1 5168   3.719   1.494   5.045
 1423SOL    HW2 5169   3.592   1.591   5.075
 1424SOL     OW 5170   6.516   3.626   0.255
 1424SOL    HW1 5171   6.418   3.627   0.275
 1424SOL    HW2 5172   6.567   3.657   0.336
 1425SOL     OW 5173   2.477   5.800   5.083
 1425SOL    HW1 5174   2.491   5.705   5.108
 1425SOL    HW2 5175   2.542   5.858   5.133
 1426SOL     OW 5176   1.839   1.747   6.237
 1426SOL    HW1 5177   1.811   1.666   6.289
 1426SOL    HW2 5178   1.890   1.809   6.296
 1427SOL     OW 5179   0.150   0.502   3.706
 1427SOL    HW1 5180   0.181   0.546   3.621
 1427SOL    HW2 5181   0.109   0.571   3.766
 1428SOL     OW 5182   6.784   2.093   2.099
 1428SOL    HW1 5183   6.835   2.172   2.066
 1428SOL    HW2 5184   6.686   2.107   2.084
 1429SOL     OW 5185   5.650   1.608   7.009
 1429SOL    HW1 5186   5.602   1.640   0.064
 1429SOL    HW2 5187   5.583   1.583   6.938
 1430SOL     OW 5188   1.931   3.944   4.265
 1430SOL    HW1 5189   1.939   3.932   4.166
 1430SOL    HW2 5190   2.019   3.972   4.303
 1431SOL     OW 5191   2.328   2.323   6.579
 1431SOL    HW1 5192   2.268   2.308   6.500
 1431SOL    HW2 5193   2.282   2.381   6.646
 1432SOL     OW 5194   2.223   0.870   1.629
 1432SOL    HW1 5195   2.208   0.874   1.531
 1432SOL    HW2 5196   2.138   0.892   1.677
 1433SOL     OW 5197   3.686   6.527   4.182
 1433SOL    HW1 5198   3.752   6.552   4.111
 1433SOL    HW2 5199   3.697   6.587   4.261
 1434SOL     OW 5200   6.686   1.309   6.678
 1434SOL    HW1 5201   6.598   1.268   6.654
 1434SOL    HW2 5202   6.732   1.339   6.595
 1435SOL     OW 5203   6.881   0.878   4.040
 1435SOL    HW1 5204   6.955   0.813   4.061
 1435SOL    HW2 5205   6.823   0.888   4.121
 1436SOL     OW 5206   5.791   3.422   0.355
 1436SOL    HW1 5207   5.805   3.417   0.454
 1436SOL    HW2 5208   5.754   3.512   0.331
 1437SOL     OW 5209   3.208   0.438   5.533
 1437SOL    HW1 5210   3.222   0.507   5.605
 1437SOL    HW2 5211   3.249   0.470   5.448
 1438SOL     OW 5212   3.106   0.501   1.713
 1438SOL    HW1 5213   3.171   0.437   1.755
 1438SOL    HW2 5214   3.119   0.592   1.753
 1439SOL     OW 5215   0.684   5.191   1.187
 1439SOL    HW1 5216   0.648   5.192   1.094
 1439SOL    HW2 5217   0.733   5.276   1.206
 1440SOL     OW 5218   3.756   3.377   5.248
 1440SOL    HW1 5219   3.817   3.379   5.327
 1440SOL    HW2 5220   3.746   3.470   5.212
 1441SOL     OW 5221   6.170   3.593   4.059
 1441SOL    HW1 5222   6.232   3.658   4.102
 1441SOL    HW2 5223   6.194   3.500   4.088
 1442SOL     OW 5224   6.694   4.529   0.112
 1442SOL    HW1 5225   6.685   4.546   0.014
 1442SOL    HW2 5226   6.605   4.502   0.149
 1443SOL     OW 5227   1.171   2.334   4.378
 1443SOL    HW1 5228   1.101   2.272   4.341
 1443SOL    HW2 5229   1.160   2.425   4.337
 1444SOL     OW 5230   4.174   6.332   1.868
 1444SOL    HW1 5231   4.082   6.306   1.839
 1444SOL    HW2 5232   4.240   6.298   1.802
 1445SOL     OW 5233   0.375   2.791   2.522
 1445SOL    HW1 5234   0.454   2.800   2.582
 1445SOL    HW2 5235   0.353   2.694   2.510
 1446SOL     OW 5236   5.301   2.658   6.572
 1446SOL    HW1 5237   5.249   2.650   6.487
 1446SOL    HW2 5238   5.276   2.583   6.633
 1447SOL     OW 5239   6.371   6.974   4.571
 1447SOL    HW1 5240   6.469   6.981   4.587
 1447SOL    HW2 5241   6.352   6.898   4.509
 1448SOL     OW 5242   6.118   2.337   0.406
 1448SOL    HW1 5243   6.177   2.417   0.393
 1448SOL    HW2 5244   6.163   2.256   0.368
 1449SOL     OW 5245   6.155   0.123   6.744
 1449SOL    HW1 5246   6.222   0.176   6.796
 1449SOL    HW2 5247   6.084   0.088   6.806
 1450SOL     OW 5248   7.013   2.436   2.466
 1450SOL    HW1 5249   6.982   2.516   2.415
 1450SOL    HW2 5250   6.953   2.422   2.545
 1451SOL     OW 5251   3.293   0.471   1.984
 1451SOL    HW1 5252   3.235   0.546   2.017
 1451SOL    HW2 5253   3.240   0.386   1.982
 1452SOL     OW 5254   5.129   2.251   4.386
 1452SOL    HW1 5255   5.160   2.220   4.476
 1452SOL    HW2 5256   5.091   2.173   4.335
 1453SOL     OW 5257   6.381   4.060   5.086
 1453SOL    HW1 5258   6.400   4.157   5.068
 1453SOL    HW2 5259   6.290   4.050   5.125
 1454SOL     OW 5260   6.300   2.724   2.281
 1454SOL    HW1 5261   6.371   2.747   2.215
 1454SOL    HW2 5262   6.249   2.644   2.248
 1455SOL     OW 5263   1.945   0.596   1.676
 1455SOL    HW1 5264   1.871   0.529   1.670
 1455SOL    HW2 5265   1.921   0.677   1.622
 1456SOL     OW 5266   6.390   0.045   5.313
 1456SOL    HW1 5267   6.347   0.044   5.223
 1456SOL    HW2 5268   6.335   0.101   5.375
 1457SOL     OW 5269   1.451   0.161   1.465
 1457SOL    HW1 5270   1.451   0.067   1.499
 1457SOL    HW2 5271   1.433   0.224   1.541
 1458SOL     OW 5272   4.892   6.307   3.989
 1458SOL    HW1 5273   4.942   6.328   4.073
 1458SOL    HW2 5274   4.917   6.216   3.957
 1459SOL     OW 5275   3.293   4.483   6.368
 1459SOL    HW1 5276   3.320   4.483   6.464
 1459SOL    HW2 5277   3.199   4.451   6.360
 1460SOL     OW 5278   0.323   5.227   6.171
 1460SOL    HW1 5279   0.282   5.142   6.205
 1460SOL    HW2 5280   0.416   5.208   6.139
 1461SOL     OW 5281   0.429   4.705   3.210
 1461SOL    HW1 5282   0.416   4.707   3.309
 1461SOL    HW2 5283   0.427   4.798   3.174
 1462SOL     OW 5284   6.464   1.091   6.251
 1462SOL    HW1 5285   6.495   1.037   6.329
 1462SOL    HW2 5286   6.365   1.081   6.241
 1463SOL     OW 5287   0.146   5.994   6.445
 1463SOL    HW1 5288   0.050   6.023   6.438
 1463SOL    HW2 5289   0.189   5.998   6.355
 1464SOL     OW 5290   6.506   6.705   0.873
 1464SOL    HW1 5291   6.495   6.635   0.802
 1464SOL    HW2 5292   6.425   6.705   0.932
 1465SOL     OW 5293   1.484   1.723   2.639
 1465SOL    HW1 5294   1.386   1.715   2.624
 1465SOL    HW2 5295   1.516   1.809   2.599
 1466SOL     OW 5296   0.972   0.752   2.758
 1466SOL    HW1 5297   1.052   0.761   2.699
 1466SOL    HW2 5298   0.895   0.803   2.718
 1467SOL     OW 5299   2.133   1.223   1.897
 1467SOL    HW1 5300   2.195   1.146   1.914
 1467SOL    HW2 5301   2.145   1.291   1.968
 1468SOL     OW 5302   4.971   5.854   2.676
 1468SOL    HW1 5303   4.880   5.886   2.700
 1468SOL    HW2 5304   5.013   5.916   2.609
 1469SOL     OW 5305   1.030   0.758   2.371
 1469SOL    HW1 5306   1.098   0.699   2.414
 1469SOL    HW2 5307   0.946   0.706   2.354
 1470SOL     OW 5308   1.566   1.224   2.855
 1470SOL    HW1 5309   1.625   1.160   2.806
 1470SOL    HW2 5310   1.599   1.318   2.841
 1471SOL     OW 5311   0.549   0.820   0.761
 1471SOL    HW1 5312   0.565   0.902   0.816
 1471SOL    HW2 5313   0.451   0.800   0.759
 1472SOL     OW 5314   4.336   5.445   4.697
 1472SOL    HW1 5315   4.317   5.501   4.616
 1472SOL    HW2 5316   4.329   5.500   4.779
 1473SOL     OW 5317   5.918   6.004   3.957
 1473SOL    HW1 5318   5.926   5.963   3.866
 1473SOL    HW2 5319   5.829   5.981   3.997
 1474SOL     OW 5320   6.421   6.261   4.129
 1474SOL    HW1 5321   6.479   6.232   4.053
 1474SOL    HW2 5322   6.348   6.193   4.142
 1475SOL     OW 5323   6.662   0.216   1.367
 1475SOL    HW1 5324   6.674   0.300   1.419
 1475SOL    HW2 5325   6.584   0.226   1.305
 1476SOL     OW 5326   1.079   1.261   1.051
 1476SOL    HW1 5327   1.081   1.192   1.123
 1476SOL    HW2 5328   1.056   1.350   1.091
 1477SOL     OW 5329   2.544   0.532   6.427
 1477SOL    HW1 5330   2.522   0.626   6.455
 1477SOL    HW2 5331   2.460   0.483   6.403
 1478SOL     OW 5332   5.553   4.411   0.354
 1478SOL    HW1 5333   5.545   4.381   0.259
 1478SOL    HW2 5334   5.595   4.339   0.409
 1479SOL     OW 5335   1.641   3.504   0.073
 1479SOL    HW1 5336   1.701   3.510   7.019
 1479SOL    HW2 5337   1.677   3.561   0.146
 1480SOL     OW 5338   2.475   6.854   0.031
 1480SOL    HW1 5339   2.490   6.951   0.012
 1480SOL    HW2 5340   2.494   6.800   6.976
 1481SOL     OW 5341   6.779   2.228   4.802
 1481SOL    HW1 5342   6.773   2.132   4.829
 1481SOL    HW2 5343   6.702   2.250   4.742
 1482SOL     OW 5344   5.389   2.103   1.115
 1482SOL    HW1 5345   5.386   2.055   1.203
 1482SOL    HW2 5346   5.307   2.083   1.063
 1483SOL     OW 5347   6.794   2.477   6.379
 1483SOL    HW1 5348   6.867   2.408   6.382
 1483SOL    HW2 5349   6.728   2.452   6.308
 1484SOL     OW 5350   5.996   4.442   4.043
 1484SOL    HW1 5351   6.088   4.482   4.034
 1484SOL    HW2 5352   5.988   4.397   4.132
 1485SOL     OW 5353   4.187   1.985   2.707
 1485SOL    HW1 5354   4.128   2.056   2.745
 1485SOL    HW2 5355   4.148   1.951   2.621
 1486SOL     OW 5356   4.704   2.781   2.729
 1486SOL    HW1 5357   4.653   2.700   2.758
 1486SOL    HW2 5358   4.706   2.785   2.629
 1487SOL     OW 5359   6.657   2.761   6.740
 1487SOL    HW1 5360   6.598   2.681   6.745
 1487SOL    HW2 5361   6.693   2.770   6.647
 1488SOL     OW 5362   5.832   2.007   3.075
 1488SOL    HW1 5363   5.742   1.997   3.033
 1488SOL    HW2 5364   5.860   2.103   3.070
 1489SOL     OW 5365   4.059   5.422   4.042
 1489SOL    HW1 5366   4.022   5.445   4.132
 1489SOL    HW2 5367   4.007   5.472   3.972
 1490SOL     OW 5368   1.594   3.157   1.487
 1490SOL    HW1 5369   1.653   3.079   1.508
 1490SOL    HW2 5370   1.545   3.185   1.569
 1491SOL     OW 5371   6.115   3.647   3.815
 1491SOL    HW1 5372   6.146   3.624   3.907
 1491SOL    HW2 5373   6.192   3.646   3.751
 1492SOL     OW 5374   5.923   1.823   1.944
 1492SOL    HW1 5375   5.948   1.735   1.903
 1492SOL    HW2 5376   5.927   1.815   2.044
 1493SOL     OW 5377   5.082   0.220   4.372
 1493SOL    HW1 5378   5.062   0.138   4.425
 1493SOL    HW2 5379   5.111   0.293   4.434
 1494SOL     OW 5380   4.362   2.311   6.058
 1494SOL    HW1 5381   4.346   2.346   5.966
 1494SOL    HW2 5382   4.421   2.231   6.054
 1495SOL     OW 5383   0.722   2.822   4.307
 1495SOL    HW1 5384   0.807   2.874   4.317
 1495SOL    HW2 5385   0.681   2.806   4.397
 1496SOL     OW 5386   1.406   1.419   2.640
 1496SOL    HW1 5387   1.313   1.397   2.670
 1496SOL    HW2 5388   1.437   1.502   2.686
 1497SOL     OW 5389   0.553   3.654   2.616
 1497SOL    HW1 5390   0.509   3.565   2.603
 1497SOL    HW2 5391   0.548   3.679   2.713
 1498SOL     OW 5392   1.695   4.505   6.312
 1498SOL    HW1 5393   1.655   4.558   6.387
 1498SOL    HW2 5394   1.623   4.462   6.259
 1499SOL     OW 5395   1.457   3.416   5.565
 1499SOL    HW1 5396   1.544   3.401   5.519
 1499SOL    HW2 5397   1.385   3.363   5.521
 1500SOL     OW 5398   5.859   6.482   6.766
 1500SOL    HW1 5399   5.829   6.432   6.847
 1500SOL    HW2 5400   5.885   6.417   6.695
 1501SOL     OW 5401   4.468   1.701   6.753
 1501SOL    HW1 5402   4.559   1.734   6.731
 1501SOL    HW2 5403   4.443   1.730   6.846
 1502SOL     OW 5404   5.785   0.076   1.463
 1502SOL    HW1 5405   5.686   0.069   1.471
 1502SOL    HW2 5406   5.811   0.168   1.435
 1503SOL     OW 5407   2.661   1.557   1.833
 1503SOL    HW1 5408   2.660   1.637   1.893
 1503SOL    HW2 5409   2.722   1.573   1.756
 1504SOL     OW 5410   1.567   1.185   4.947
 1504SOL    HW1 5411   1.617   1.271   4.953
 1504SOL    HW2 5412   1.478   1.200   4.903
 1505SOL     OW 5413   5.723   0.778   6.688
 1505SOL    HW1 5414   5.774   0.864   6.680
 1505SOL    HW2 5415   5.730   0.744   6.781
 1506SOL     OW 5416   1.961   5.504   2.127
 1506SOL    HW1 5417   2.004   5.488   2.038
 1506SOL    HW2 5418   1.957   5.603   2.145
 1507SOL     OW 5419   1.145   2.133   5.815
 1507SOL    HW1 5420   1.096   2.048   5.837
 1507SOL    HW2 5421   1.224   2.112   5.757
 1508SOL     OW 5422   5.713   0.917   1.105
 1508SOL    HW1 5423   5.753   0.914   1.013
 1508SOL    HW2 5424   5.758   0.850   1.163
 1509SOL     OW 5425   4.033   2.572   6.720
 1509SOL    HW1 5426   3.989   2.516   6.650
 1509SOL    HW2 5427   3.978   2.654   6.736
 1510SOL     OW 5428   5.857   2.380   3.702
 1510SOL    HW1 5429   5.896   2.289   3.712
 1510SOL    HW2 5430   5.789   2.397   3.774
 1511SOL     OW 5431   2.879   2.563   0.679
 1511SOL    HW1 5432   2.827   2.596   0.757
 1511SOL    HW2 5433   2.816   2.542   0.604
 1512SOL     OW 5434   0.004   6.509   1.622
 1512SOL    HW1 5435   0.086   6.499   1.565
 1512SOL    HW2 5436   0.018   6.583   1.687
 1513SOL     OW 5437   4.298   0.445   3.811
 1513SOL    HW1 5438   4.302   0.393   3.726
 1513SOL    HW2 5439   4.203   0.469   3.832
 1514SOL     OW 5440   5.468   2.840   5.103
 1514SOL    HW1 5441   5.405   2.918   5.101
 1514SOL    HW2 5442   5.507   2.828   5.011
 1515SOL     OW 5443   6.530   3.419   5.693
 1515SOL    HW1 5444   6.442   3.394   5.652
 1515SOL    HW2 5445   6.564   3.503   5.651
 1516SOL     OW 5446   0.827   0.215   1.033
 1516SOL    HW1 5447   0.853   0.128   0.991
 1516SOL    HW2 5448   0.908   0.274   1.042
 1517SOL     OW 5449   4.446   5.929   3.386
 1517SOL    HW1 5450   4.425   5.888   3.297
 1517SOL    HW2 5451   4.545   5.939   3.396
 1518SOL     OW 5452   0.675   3.186   0.077
 1518SOL    HW1 5453   0.769   3.191   0.110
 1518SOL    HW2 5454   0.615   3.152   0.150
 1519SOL     OW 5455   6.793   4.370   1.783
 1519SOL    HW1 5456   6.791   4.460   1.740
 1519SOL    HW2 5457   6.849   4.373   1.866
 1520SOL     OW 5458   1.298   3.270   2.290
 1520SOL    HW1 5459   1.277   3.337   2.219
 1520SOL    HW2 5460   1.397   3.259   2.298
 1521SOL     OW 5461   2.783   3.661   6.917
 1521SOL    HW1 5462   2.689   3.695   6.915
 1521SOL    HW2 5463   2.844   3.732   6.951
 1522SOL     OW 5464   6.558   1.466   5.392
 1522SOL    HW1 5465   6.469   1.510   5.406
 1522SOL    HW2 5466   6.580   1.466   5.294
 1523SOL     OW 5467   5.188   4.046   0.196
 1523SOL    HW1 5468   5.180   4.031   0.097
 1523SOL    HW2 5469   5.187   3.958   0.243
 1524SOL     OW 5470   1.073   2.020   1.751
 1524SOL    HW1 5471   1.044   1.925   1.743
 1524SOL    HW2 5472   1.002   2.073   1.797
 1525SOL     OW 5473   5.609   2.238   6.548
 1525SOL    HW1 5474   5.516   2.223   6.514
 1525SOL    HW2 5475   5.672   2.176   6.502
 1526SOL     OW 5476   1.678   1.241   0.002
 1526SOL    HW1 5477   1.669   1.250   0.101
 1526SOL    HW2 5478   1.754   1.297   6.996
 1527SOL     OW 5479   3.940   0.617   5.430
 1527SOL    HW1 5480   3.931   0.531   5.379
 1527SOL    HW2 5481   3.958   0.597   5.526
 1528SOL     OW 5482   5.146   6.141   2.686
 1528SOL    HW1 5483   5.149   6.151   2.786
 1528SOL    HW2 5484   5.124   6.230   2.645
 1529SOL     OW 5485   3.902   1.087   0.276
 1529SOL    HW1 5486   3.928   1.132   0.191
 1529SOL    HW2 5487   3.983   1.044   0.317
 1530SOL     OW 5488   2.695   0.766   1.663
 1530SOL    HW1 5489   2.752   0.804   1.590
 1530SOL    HW2 5490   2.743   0.689   1.706
 1531SOL     OW 5491   5.962   1.497   4.922
 1531SOL    HW1 5492   5.992   1.403   4.933
 1531SOL    HW2 5493   5.996   1.553   4.999
 1532SOL     OW 5494   2.428   3.087   5.885
 1532SOL    HW1 5495   2.353   3.122   5.940
 1532SOL    HW2 5496   2.396   3.009   5.831
 1533SOL     OW 5497   0.205   3.282   6.522
 1533SOL    HW1 5498   0.294   3.285   6.567
 1533SOL    HW2 5499   0.216   3.259   6.425
 1534SOL     OW 5500   1.368   4.925   6.697
 1534SOL    HW1 5501   1.320   4.838   6.707
 1534SOL    HW2 5502   1.444   4.929   6.761
 1535SOL     OW 5503   5.268   6.189   4.071
 1535SOL    HW1 5504   5.279   6.269   4.130
 1535SOL    HW2 5505   5.174   6.183   4.039
 1536SOL     OW 5506   4.457   4.605   5.662
 1536SOL    HW1 5507   4.366   4.598   5.703
 1536SOL    HW2 5508   4.526   4.613   5.735
 1537SOL     OW 5509   4.127   5.540   2.586
 1537SOL    HW1 5510   4.164   5.587   2.505
 1537SOL    HW2 5511   4.048   5.485   2.559
 1538SOL     OW 5512   2.962   5.550   5.682
 1538SOL    HW1 5513   3.011   5.628   5.720
 1538SOL    HW2 5514   2.997   5.466   5.723
 1539SOL     OW 5515   4.255   4.360   1.329
 1539SOL    HW1 5516   4.223   4.266   1.344
 1539SOL    HW2 5517   4.245   4.383   1.232
 1540SOL     OW 5518   1.061   0.186   5.505
 1540SOL    HW1 5519   1.114   0.176   5.421
 1540SOL    HW2 5520   0.970   0.220   5.484
 1541SOL     OW 5521   3.359   3.179   1.532
 1541SOL    HW1 5522   3.325   3.232   1.610
 1541SOL    HW2 5523   3.329   3.084   1.542
 1542SOL     OW 5524   0.080   5.524   1.217
 1542SOL    HW1 5525   7.009   5.507   1.236
 1542SOL    HW2 5526   0.124   5.560   1.300
 1543SOL     OW 5527   3.014   3.477   4.325
 1543SOL    HW1 5528   2.997   3.432   4.237
 1543SOL    HW2 5529   3.028   3.408   4.396
 1544SOL     OW 5530   3.017   3.742   2.529
 1544SOL    HW1 5531   3.030   3.724   2.432
 1544SOL    HW2 5532   3.034   3.658   2.581
 1545SOL     OW 5533   5.377   0.870   4.766
 1545SOL    HW1 5534   5.303   0.929   4.734
 1545SOL    HW2 5535   5.406   0.899   4.857
 1546SOL     OW 5536   5.341   7.013   6.222
 1546SOL    HW1 5537   5.287   7.021   6.139
 1546SOL    HW2 5538   5.319   0.063   6.284
 1547SOL     OW 5539   2.696   4.762   2.807
 1547SOL    HW1 5540   2.654   4.753   2.897
 1547SOL    HW2 5541   2.745   4.850   2.801
 1548SOL     OW 5542   4.954   3.270   6.000
 1548SOL    HW1 5543   5.002   3.194   5.957
 1548SOL    HW2 5544   4.924   3.243   6.092
 1549SOL     OW 5545   5.364   1.308   2.081
 1549SOL    HW1 5546   5.438   1.297   2.148
 1549SOL    HW2 5547   5.367   1.401   2.044
 1550SOL     OW 5548   3.348   6.020   5.811
 1550SOL    HW1 5549   3.377   5.971   5.893
 1550SOL    HW2 5550   3.425   6.029   5.747
 1551SOL     OW 5551   2.112   3.191   0.743
 1551SOL    HW1 5552   2.136   3.139   0.660
 1551SOL    HW2 5553   2.026   3.155   0.781
 1552SOL     OW 5554   0.628   0.483   1.057
 1552SOL    HW1 5555   0.684   0.401   1.066
 1552SOL    HW2 5556   0.545   0.461   1.007
 1553SOL     OW 5557   6.285   1.907   6.297
 1553SOL    HW1 5558   6.207   1.846   6.314
 1553SOL    HW2 5559   6.336   1.921   6.381
 1554SOL     OW 5560   3.658   2.076   2.521
 1554SOL    HW1 5561   3.560   2.091   2.530
 1554SOL    HW2 5562   3.693   2.028   2.601
 1555SOL     OW 5563   4.531   2.506   5.847
 1555SOL    HW1 5564   4.586   2.563   5.786
 1555SOL    HW2 5565   4.445   2.553   5.867
 1556SOL     OW 5566   3.757   0.909   0.131
 1556SOL    HW1 5567   3.812   0.962   0.197
 1556SOL    HW2 5568   3.809   0.828   0.103
 1557SOL     OW 5569   2.966   1.655   0.521
 1557SOL    HW1 5570   3.009   1.618   0.439
 1557SOL    HW2 5571   3.022   1.730   0.557
 1558SOL     OW 5572   5.580   1.710   4.374
 1558SOL    HW1 5573   5.590   1.640   4.445
 1558SOL    HW2 5574   5.661   1.770   4.375
 1559SOL     OW 5575   0.499   2.908   0.923
 1559SOL    HW1 5576   0.587   2.884   0.964
 1559SOL    HW2 5577   0.515   2.969   0.846
 1560SOL     OW 5578   2.768   1.328   6.316
 1560SOL    HW1 5579   2.695   1.387   6.281
 1560SOL    HW2 5580   2.834   1.384   6.366
 1561SOL     OW 5581   5.161   5.845   3.161
 1561SOL    HW1 5582   5.194   5.755   3.192
 1561SOL    HW2 5583   5.183   5.856   3.064
 1562SOL     OW 5584   4.032   6.429   1.497
 1562SOL    HW1 5585   3.971   6.444   1.419
 1562SOL    HW2 5586   4.099   6.358   1.474
 1563SOL     OW 5587   2.287   1.873   5.774
 1563SOL    HW1 5588   2.255   1.948   5.715
 1563SOL    HW2 5589   2.213   1.845   5.834
 1564SOL     OW 5590   1.474   2.583   2.502
 1564SOL    HW1 5591   1.530   2.581   2.585
 1564SOL    HW2 5592   1.413   2.503   2.501
 1565SOL     OW 5593   4.047   5.319   4.361
 1565SOL    HW1 5594   4.126   5.381   4.357
 1565SOL    HW2 5595   4.079   5.224   4.359
 1566SOL     OW 5596   6.281   5.190   4.864
 1566SOL    HW1 5597   6.370   5.235   4.850
 1566SOL    HW2 5598   6.215   5.257   4.899
 1567SOL     OW 5599   6.531   5.676   0.424
 1567SOL    HW1 5600   6.487   5.706   0.509
 1567SOL    HW2 5601   6.464   5.680   0.350
 1568SOL     OW 5602   1.930   6.785   2.832
 1568SOL    HW1 5603   2.019   6.741   2.824
 1568SOL    HW2 5604   1.899   6.815   2.742
 1569SOL     OW 5605   3.488   6.494   3.414
 1569SOL    HW1 5606   3.545   6.446   3.481
 1569SOL    HW2 5607   3.454   6.429   3.346
 1570SOL     OW 5608   1.619   6.688   0.192
 1570SOL    HW1 5609   1.567   6.619   0.140
 1570SOL    HW2 5610   1.712   6.692   0.157
 1571SOL     OW 5611   6.776   1.987   3.241
 1571SOL    HW1 5612   6.690   2.035   3.256
 1571SOL    HW2 5613   6.763   1.914   3.174
 1572SOL     OW 5614   2.135   5.634   1.499
 1572SOL    HW1 5615   2.122   5.730   1.522
 1572SOL    HW2 5616   2.052   5.582   1.522
 1573SOL     OW 5617   5.957   5.297   2.073
 1573SOL    HW1 5618   6.029   5.246   2.026
 1573SOL    HW2 5619   5.869   5.252   2.057
 1574SOL     OW 5620   6.612   2.496   3.372
 1574SOL    HW1 5621   6.585   2.401   3.389
 1574SOL    HW2 5622   6.659   2.532   3.453
 1575SOL     OW 5623   2.718   1.140   1.795
 1575SOL    HW1 5624   2.717   1.065   1.730
 1575SOL    HW2 5625   2.625   1.162   1.823
 1576SOL     OW 5626   0.781   0.168   3.441
 1576SOL    HW1 5627   0.747   0.216   3.360
 1576SOL    HW2 5628   0.843   0.095   3.413
 1577SOL     OW 5629   2.072   0.757   5.530
 1577SOL    HW1 5630   2.126   0.730   5.609
 1577SOL    HW2 5631   2.083   0.856   5.514
 1578SOL     OW 5632   4.928   1.518   5.784
 1578SOL    HW1 5633   4.902   1.614   5.776
 1578SOL    HW2 5634   4.973   1.503   5.872
 1579SOL     OW 5635   6.867   1.750   2.298
 1579SOL    HW1 5636   6.913   1.838   2.290
 1579SOL    HW2 5637   6.895   1.705   2.383
 1580SOL     OW 5638   3.531   4.033   3.908
 1580SOL    HW1 5639   3.432   4.038   3.897
 1580SOL    HW2 5640   3.576   4.059   3.823
 1581SOL     OW 5641   6.710   4.502   5.731
 1581SOL    HW1 5642   6.761   4.474   5.650
 1581SOL    HW2 5643   6.661   4.587   5.712
 1582SOL     OW 5644   3.081   6.294   4.790
 1582SOL    HW1 5645   3.129   6.377   4.759
 1582SOL    HW2 5646   3.015   6.267   4.720
 1583SOL     OW 5647   0.334   5.677   3.761
 1583SOL    HW1 5648   0.260   5.709   3.700
 1583SOL    HW2 5649   0.387   5.756   3.792
 1584SOL     OW 5650   0.528   5.178   5.994
 1584SOL    HW1 5651   0.449   5.186   5.933
 1584SOL    HW2 5652   0.612   5.193   5.943
 1585SOL     OW 5653   4.348   2.376   2.609
 1585SOL    HW1 5654   4.352   2.325   2.695
 1585SOL    HW2 5655   4.274   2.340   2.553
 1586SOL     OW 5656   3.119   5.155   2.324
 1586SOL    HW1 5657   3.180   5.076   2.321
 1586SOL    HW2 5658   3.163   5.232   2.276
 1587SOL     OW 5659   2.581   5.545   5.167
 1587SOL    HW1 5660   2.651   5.498   5.113
 1587SOL    HW2 5661   2.507   5.480   5.187
 1588SOL     OW 5662   4.499   1.104   1.972
 1588SOL    HW1 5663   4.502   1.023   2.031
 1588SOL    HW2 5664   4.505   1.186   2.028
 1589SOL     OW 5665   0.094   3.497   2.247
 1589SOL    HW1 5666   0.065   3.532   2.158
 1589SOL    HW2 5667   0.193   3.484   2.247
 1590SOL     OW 5668   5.189   0.861   3.497
 1590SOL    HW1 5669   5.222   0.951   3.469
 1590SOL    HW2 5670   5.143   0.816   3.420
 1591SOL     OW 5671   6.827   6.317   1.277
 1591SOL    HW1 5672   6.883   6.303   1.358
 1591SOL    HW2 5673   6.777   6.404   1.285
 1592SOL     OW 5674   2.247   3.721   6.611
 1592SOL    HW1 5675   2.327   3.680   6.656
 1592SOL    HW2 5676   2.164   3.684   6.652
 1593SOL     OW 5677   0.673   6.998   5.271
 1593SOL    HW1 5678   0.680   0.056   5.323
 1593SOL    HW2 5679   0.757   6.945   5.281
 1594SOL     OW 5680   0.414   6.194   2.096
 1594SOL    HW1 5681   0.479   6.148   2.157
 1594SOL    HW2 5682   0.434   6.171   2.001
 1595SOL     OW 5683   0.961   5.084   1.120
 1595SOL    HW1 5684   0.984   5.064   1.025
 1595SOL    HW2 5685   0.861   5.078   1.131
 1596SOL     OW 5686   6.547   3.750   3.351
 1596SOL    HW1 5687   6.546   3.728   3.449
 1596SOL    HW2 5688   6.608   3.828   3.335
 1597SOL     OW 5689   1.568   6.135   0.821
 1597SOL    HW1 5690   1.513   6.052   0.833
 1597SOL    HW2 5691   1.628   6.124   0.742
 1598SOL     OW 5692   1.195   4.737   6.463
 1598SOL    HW1 5693   1.209   4.699   6.372
 1598SOL    HW2 5694   1.112   4.793   6.464
 1599SOL     OW 5695   5.271   5.283   5.118
 1599SOL    HW1 5696   5.182   5.302   5.076
 1599SOL    HW2 5697   5.262   5.206   5.181
 1600SOL     OW 5698   2.743   1.528   2.951
 1600SOL    HW1 5699   2.657   1.515   2.999
 1600SOL    HW2 5700   2.727   1.525   2.852
 1601SOL     OW 5701   6.786   0.157   4.098
 1601SOL    HW1 5702   6.737   0.244   4.106
 1601SOL    HW2 5703   6.774   0.105   4.183
 1602SOL     OW 5704   4.344   4.642   3.777
 1602SOL    HW1 5705   4.329   4.703   3.699
 1602SOL    HW2 5706   4.344   4.694   3.862
 1603SOL     OW 5707   3.049   5.287   2.728
 1603SOL    HW1 5708   2.965   5.256   2.682
 1603SOL    HW2 5709   3.043   5.266   2.825
 1604SOL     OW 5710   4.991   5.006   1.610
 1604SOL    HW1 5711   5.072   5.013   1.551
 1604SOL    HW2 5712   4.909   5.005   1.554
 1605SOL     OW 5713   6.905   5.617   1.919
 1605SOL    HW1 5714   6.887   5.595   2.015
 1605SOL    HW2 5715   6.949   5.539   1.875
 1606SOL     OW 5716   3.941   5.995   5.697
 1606SOL    HW1 5717   3.924   5.906   5.740
 1606SOL    HW2 5718   4.020   5.988   5.637
 1607SOL     OW 5719   4.066   6.987   0.378
 1607SOL    HW1 5720   4.051   0.027   0.304
 1607SOL    HW2 5721   3.987   6.988   0.439
 1608SOL     OW 5722   6.522   1.100   3.079
 1608SOL    HW1 5723   6.575   1.085   3.163
 1608SOL    HW2 5724   6.548   1.187   3.037
 1609SOL     OW 5725   3.450   6.852   0.415
 1609SOL    HW1 5726   3.363   6.902   0.413
 1609SOL    HW2 5727   3.525   6.917   0.414
 1610SOL     OW 5728   5.471   5.806   0.723
 1610SOL    HW1 5729   5.456   5.741   0.648
 1610SOL    HW2 5730   5.479   5.898   0.685
 1611SOL     OW 5731   2.569   3.204   0.412
 1611SOL    HW1 5732   2.533   3.199   0.505
 1611SOL    HW2 5733   2.529   3.131   0.357
 1612SOL     OW 5734   3.516   6.839   1.298
 1612SOL    HW1 5735   3.507   6.892   1.214
 1612SOL    HW2 5736   3.468   6.885   1.372
 1613SOL     OW 5737   1.643   5.763   2.241
 1613SOL    HW1 5738   1.691   5.727   2.321
 1613SOL    HW2 5739   1.681   5.852   2.217
 1614SOL     OW 5740   5.777   1.634   6.128
 1614SOL    HW1 5741   5.757   1.732   6.129
 1614SOL    HW2 5742   5.715   1.587   6.066
 1615SOL     OW 5743   5.955   5.637   0.215
 1615SOL    HW1 5744   5.955   5.577   0.295
 1615SOL    HW2 5745   5.998   5.724   0.238
 1616SOL     OW 5746   4.020   1.158   4.526
 1616SOL    HW1 5747   3.962   1.083   4.493
 1616SOL    HW2 5748   3.980   1.245   4.498
 1617SOL     OW 5749   5.468   6.294   3.102
 1617SOL    HW1 5750   5.488   6.313   3.198
 1617SOL    HW2 5751   5.490   6.199   3.081
 1618SOL     OW 5752   1.649   6.556   3.419
 1618SOL    HW1 5753   1.645   6.457   3.413
 1618SOL    HW2 5754   1.561   6.591   3.452
 1619SOL     OW 5755   0.350   4.546   0.609
 1619SOL    HW1 5756   0.388   4.545   0.517
 1619SOL    HW2 5757   0.250   4.544   0.605
 1620SOL     OW 5758   3.240   4.812   1.463
 1620SOL    HW1 5759   3.323   4.790   1.515
 1620SOL    HW2 5760   3.211   4.732   1.411
 1621SOL     OW 5761   6.064   0.435   1.120
 1621SOL    HW1 5762   6.111   0.513   1.078
 1621SOL    HW2 5763   6.101   0.419   1.211
 1622SOL     OW 5764   0.849   3.492   5.278
 1622SOL    HW1 5765   0.882   3.399   5.297
 1622SOL    HW2 5766   0.765   3.509   5.330
 1623SOL     OW 5767   0.692   2.885   4.788
 1623SOL    HW1 5768   0.694   2.824   4.868
 1623SOL    HW2 5769   0.677   2.832   4.705
 1624SOL     OW 5770   3.964   0.794   5.181
 1624SOL    HW1 5771   3.995   0.740   5.259
 1624SOL    HW2 5772   3.902   0.865   5.213
 1625SOL     OW 5773   1.478   4.922   0.226
 1625SOL    HW1 5774   1.511   4.860   0.155
 1625SOL    HW2 5775   1.543   4.996   0.239
 1626SOL     OW 5776   3.560   0.657   0.777
 1626SOL    HW1 5777   3.590   0.629   0.868
 1626SOL    HW2 5778   3.512   0.744   0.783
 1627SOL     OW 5779   5.827   2.848   3.711
 1627SOL    HW1 5780   5.887   2.911   3.661
 1627SOL    HW2 5781   5.732   2.869   3.690
 1628SOL     OW 5782   4.417   5.423   0.364
 1628SOL    HW1 5783   4.358   5.456   0.290
 1628SOL    HW2 5784   4.363   5.368   0.428
 1629SOL     OW 5785   2.405   0.917   3.754
 1629SOL    HW1 5786   2.318   0.879   3.722
 1629SOL    HW2 5787   2.481   0.859   3.723
 1630SOL     OW 5788   0.640   4.834   6.354
 1630SOL    HW1 5789   0.665   4.908   6.416
 1630SOL    HW2 5790   0.641   4.868   6.259
 1631SOL     OW 5791   0.752   2.989   0.397
 1631SOL    HW1 5792   0.738   2.891   0.402
 1631SOL    HW2 5793   0.679   3.031   0.343
 1632SOL     OW 5794   5.119   2.815   1.743
 1632SOL    HW1 5795   5.081   2.875   1.812
 1632SOL    HW2 5796   5.095   2.849   1.652
 1633SOL     OW 5797   4.864   3.751   4.602
 1633SOL    HW1 5798   4.944   3.706   4.562
 1633SOL    HW2 5799   4.836   3.827   4.543
 1634SOL     OW 5800   4.741   6.080   4.343
 1634SOL    HW1 5801   4.837   6.091   4.369
 1634SOL    HW2 5802   4.716   6.149   4.274
 1635SOL     OW 5803   0.866   5.117   0.050
 1635SOL    HW1 5804   0.819   5.144   6.992
 1635SOL    HW2 5805   0.946   5.062   0.027
 1636SOL     OW 5806   2.880   5.252   1.196
 1636SOL    HW1 5807   2.930   5.174   1.159
 1636SOL    HW2 5808   2.942   5.330   1.205
 1637SOL     OW 5809   6.948   0.355   3.484
 1637SOL    HW1 5810   6.899   0.385   3.402
 1637SOL    HW2 5811   6.914   0.405   3.563
 1638SOL     OW 5812   0.962   3.495   2.708
 1638SOL    HW1 5813   1.009   3.546   2.781
 1638SOL    HW2 5814   0.947   3.401   2.738
 1639SOL     OW 5815   5.659   5.107   1.399
 1639SOL    HW1 5816   5.604   5.086   1.480
 1639SOL    HW2 5817   5.755   5.085   1.417
 1640SOL     OW 5818   5.708   0.729   6.958
 1640SOL    HW1 5819   5.638   0.726   0.003
 1640SOL    HW2 5820   5.799   0.721   7.000
 1641SOL     OW 5821   5.638   2.045   3.296
 1641SOL    HW1 5822   5.707   2.009   3.233
 1641SOL    HW2 5823   5.550   2.054   3.248
 1642SOL     OW 5824   6.342   3.360   7.015
 1642SOL    HW1 5825   6.262   3.322   6.969
 1642SOL    HW2 5826   6.378   3.437   6.963
 1643SOL     OW 5827   2.938   4.827   3.912
 1643SOL    HW1 5828   2.924   4.783   4.000
 1643SOL    HW2 5829   2.867   4.798   3.848
 1644SOL     OW 5830   5.669   3.672   0.323
 1644SOL    HW1 5831   5.585   3.724   0.305
 1644SOL    HW2 5832   5.741   3.701   0.261
 1645SOL     OW 5833   2.380   5.478   6.234
 1645SOL    HW1 5834   2.373   5.390   6.188
 1645SOL    HW2 5835   2.437   5.470   6.315
 1646SOL     OW 5836   2.858   0.050   1.077
 1646SOL    HW1 5837   2.861   0.150   1.066
 1646SOL    HW2 5838   2.796   0.011   1.009
 1647SOL     OW 5839   5.964   2.727   4.054
 1647SOL    HW1 5840   6.055   2.712   4.093
 1647SOL    HW2 5841   5.962   2.692   3.961
 1648SOL     OW 5842   5.053   5.827   0.321
 1648SOL    HW1 5843   5.138   5.864   0.284
 1648SOL    HW2 5844   5.066   5.731   0.344
 1649SOL     OW 5845   3.409   1.812   3.968
 1649SOL    HW1 5846   3.474   1.737   3.955
 1649SOL    HW2 5847   3.364   1.802   4.056
 1650SOL     OW 5848   0.586   6.011   5.336
 1650SOL    HW1 5849   0.627   5.921   5.318
 1650SOL    HW2 5850   0.493   6.013   5.298
 1651SOL     OW 5851   0.236   2.090   2.140
 1651SOL    HW1 5852   0.199   2.181   2.158
 1651SOL    HW2 5853   0.194   2.024   2.202
 1652SOL     OW 5854   1.527   2.965   2.501
 1652SOL    HW1 5855   1.476   2.918   2.429
 1652SOL    HW2 5856   1.476   2.961   2.587
 1653SOL     OW 5857   0.765   6.732   0.283
 1653SOL    HW1 5858   0.698   6.697   0.349
 1653SOL    HW2 5859   0.821   6.657   0.250
 1654SOL     OW 5860   6.834   3.180   1.447
 1654SOL    HW1 5861   6.805   3.230   1.529
 1654SOL    HW2 5862   6.859   3.245   1.375
 1655SOL     OW 5863   0.420   2.505   4.160
 1655SOL    HW1 5864   0.349   2.470   4.099
 1655SOL    HW2 5865   0.407   2.467   4.252
 1656SOL     OW 5866   2.196   5.271   3.151
 1656SOL    HW1 5867   2.150   5.191   3.187
 1656SOL    HW2 5868   2.237   5.249   3.062
 1657SOL     OW 5869   5.986   0.938   4.159
 1657SOL    HW1 5870   5.965   0.924   4.063
 1657SOL    HW2 5871   6.058   0.874   4.187
 1658SOL     OW 5872   6.112   1.153   1.290
 1658SOL    HW1 5873   6.028   1.177   1.339
 1658SOL    HW2 5874   6.190   1.162   1.352
 1659SOL     OW 5875   3.066   0.566   0.229
 1659SOL    HW1 5876   3.081   0.664   0.222
 1659SOL    HW2 5877   2.995   0.538   0.164
 1660SOL     OW 5878   1.856   5.987   2.381
 1660SOL    HW1 5879   1.943   5.980   2.429
 1660SOL    HW2 5880   1.873   6.001   2.283
 1661SOL     OW 5881   2.069   6.646   1.789
 1661SOL    HW1 5882   2.089   6.548   1.797
 1661SOL    HW2 5883   2.018   6.662   1.704
 1662SOL     OW 5884   0.165   1.275   4.379
 1662SOL    HW1 5885   0.086   1.278   4.440
 1662SOL    HW2 5886   0.242   1.229   4.425
 1663SOL     OW 5887   4.530   5.470   3.477
 1663SOL    HW1 5888   4.437   5.494   3.507
 1663SOL    HW2 5889   4.561   5.538   3.410
 1664SOL     OW 5890   2.192   6.046   4.914
 1664SOL    HW1 5891   2.147   6.060   4.826
 1664SOL    HW2 5892   2.126   6.014   4.982
 1665SOL     OW 5893   6.303   3.477   2.684
 1665SOL    HW1 5894   6.222   3.431   2.648
 1665SOL    HW2 5895   6.295   3.576   2.668
 1666SOL     OW 5896   5.388   1.092   6.510
 1666SOL    HW1 5897   5.473   1.043   6.528
 1666SOL    HW2 5898   5.401   1.189   6.530
 1667SOL     OW 5899   0.225   6.553   1.385
 1667SOL    HW1 5900   0.177   6.625   1.336
 1667SOL    HW2 5901   0.278   6.498   1.321
 1668SOL     OW 5902   4.650   5.501   3.823
 1668SOL    HW1 5903   4.557   5.489   3.860
 1668SOL    HW2 5904   4.712   5.525   3.898
 1669SOL     OW 5905   6.888   4.371   6.034
 1669SOL    HW1 5906   6.880   4.452   5.977
 1669SOL    HW2 5907   6.984   4.347   6.045
 1670SOL     OW 5908   6.918   4.385   5.576
 1670SOL    HW1 5909   7.001   4.359   5.624
 1670SOL    HW2 5910   6.941   4.416   5.484
 1671SOL     OW 5911   5.402   1.703   3.453
 1671SOL    HW1 5912   5.403   1.680   3.550
 1671SOL    HW2 5913   5.318   1.669   3.411
 1672SOL     OW 5914   2.390   3.322   1.097
 1672SOL    HW1 5915   2.312   3.268   1.130
 1672SOL    HW2 5916   2.397   3.312   0.997
 1673SOL     OW 5917   1.345   1.851   4.920
 1673SOL    HW1 5918   1.405   1.922   4.884
 1673SOL    HW2 5919   1.307   1.798   4.844
 1674SOL     OW 5920   0.603   3.193   2.231
 1674SOL    HW1 5921   0.645   3.284   2.238
 1674SOL    HW2 5922   0.523   3.189   2.290
 1675SOL     OW 5923   4.631   6.943   6.861
 1675SOL    HW1 5924   4.624   6.844   6.853
 1675SOL    HW2 5925   4.726   6.969   6.876
 1676SOL     OW 5926   2.491   2.507   1.674
 1676SOL    HW1 5927   2.403   2.471   1.705
 1676SOL    HW2 5928   2.564   2.472   1.733
 1677SOL     OW 5929   3.732   3.589   3.739
 1677SOL    HW1 5930   3.816   3.640   3.717
 1677SOL    HW2 5931   3.670   3.648   3.789
 1678SOL     OW 5932   6.791   4.810   2.564
 1678SOL    HW1 5933   6.720   4.767   2.508
 1678SOL    HW2 5934   6.790   4.768   2.655
 1679SOL     OW 5935   2.474   1.308   4.637
 1679SOL    HW1 5936   2.448   1.397   4.675
 1679SOL    HW2 5937   2.415   1.237   4.675
 1680SOL     OW 5938   0.601   3.495   5.413
 1680SOL    HW1 5939   0.518   3.503   5.468
 1680SOL    HW2 5940   0.593   3.553   5.332
 1681SOL     OW 5941   0.723   5.161   6.851
 1681SOL    HW1 5942   0.660   5.220   6.801
 1681SOL    HW2 5943   0.684   5.069   6.857
 1682SOL     OW 5944   1.179   0.659   5.773
 1682SOL    HW1 5945   1.169   0.574   5.722
 1682SOL    HW2 5946   1.121   0.656   5.854
 1683SOL     OW 5947   5.876   5.598   2.641
 1683SOL    HW1 5948   5.906   5.504   2.626
 1683SOL    HW2 5949   5.805   5.621   2.574
 1684SOL     OW 5950   0.535   5.815   2.253
 1684SOL    HW1 5951   0.507   5.719   2.247
 1684SOL    HW2 5952   0.605   5.834   2.184
 1685SOL     OW 5953   1.451   1.098   5.311
 1685SOL    HW1 5954   1.523   1.152   5.269
 1685SOL    HW2 5955   1.424   1.139   5.398
 1686SOL     OW 5956   2.434   6.344   4.310
 1686SOL    HW1 5957   2.516   6.301   4.348
 1686SOL    HW2 5958   2.382   6.387   4.384
 1687SOL     OW 5959   1.525   2.880   1.742
 1687SOL    HW1 5960   1.479   2.824   1.673
 1687SOL    HW2 5961   1.614   2.839   1.763
 1688SOL     OW 5962   2.352   1.956   3.746
 1688SOL    HW1 5963   2.302   1.872   3.769
 1688SOL    HW2 5964   2.448   1.934   3.728
 1689SOL     OW 5965   6.273   0.344   2.796
 1689SOL    HW1 5966   6.366   0.367   2.766
 1689SOL    HW2 5967   6.238   0.418   2.853
 1690SOL     OW 5968   1.571   2.489   4.758
 1690SOL    HW1 5969   1.619   2.431   4.692
 1690SOL    HW2 5970   1.474   2.465   4.760
 1691SOL     OW 5971   5.289   2.962   3.846
 1691SOL    HW1 5972   5.267   2.871   3.812
 1691SOL    HW2 5973   5.221   2.988   3.915
 1692SOL     OW 5974   4.739   6.421   0.958
 1692SOL    HW1 5975   4.695   6.373   0.882
 1692SOL    HW2 5976   4.749   6.359   1.035
 1693SOL     OW 5977   6.685   2.532   3.096
 1693SOL    HW1 5978   6.642   2.550   3.184
 1693SOL    HW2 5979   6.699   2.433   3.085
 1694SOL     OW 5980   6.234   1.947   3.791
 1694SOL    HW1 5981   6.222   1.987   3.882
 1694SOL    HW2 5982   6.190   2.005   3.722
 1695SOL     OW 5983   4.102   0.866   6.401
 1695SOL    HW1 5984   4.074   0.962   6.400
 1695SOL    HW2 5985   4.151   0.846   6.486
 1696SOL     OW 5986   4.343   6.000   1.411
 1696SOL    HW1 5987   4.316   5.927   1.348
 1696SOL    HW2 5988   4.378   5.960   1.495
 1697SOL     OW 5989   6.895   1.550   0.478
 1697SOL    HW1 5990   6.953   1.477   0.445
 1697SOL    HW2 5991   6.947   1.612   0.536
 1698SOL     OW 5992   3.505   6.674   0.637
 1698SOL    HW1 5993   3.464   6.711   0.553
 1698SOL    HW2 5994   3.467   6.722   0.716
 1699SOL     OW 5995   2.707   1.231   6.574
 1699SOL    HW1 5996   2.755   1.274   6.497
 1699SOL    HW2 5997   2.617   1.200   6.544
 1700SOL     OW 5998   6.186   4.367   3.744
 1700SOL    HW1 5999   6.247   4.358   3.822
 1700SOL    HW2 6000   6.206   4.294   3.677
 1701SOL     OW 6001   5.625   5.478   6.348
 1701SOL    HW1 6002   5.641   5.538   6.269
 1701SOL    HW2 6003   5.599   5.387   6.316
 1702SOL     OW 6004   6.555   1.433   0.773
 1702SOL    HW1 6005   6.592   1.508   0.827
 1702SOL    HW2 6006   6.619   1.411   0.699
 1703SOL     OW 6007   3.563   1.910   0.495
 1703SOL    HW1 6008   3.509   1.927   0.413
 1703SOL    HW2 6009   3.624   1.988   0.511
 1704SOL     OW 6010   1.003   2.338   0.215
 1704SOL    HW1 6011   1.073   2.272   0.187
 1704SOL    HW2 6012   1.027   2.428   0.179
 1705SOL     OW 6013   3.056   2.149   1.816
 1705SOL    HW1 6014   2.996   2.214   1.862
 1705SOL    HW2 6015   3.031   2.143   1.720
 1706SOL     OW 6016   4.972   1.508   1.580
 1706SOL    HW1 6017   4.901   1.500   1.650
 1706SOL    HW2 6018   4.945   1.578   1.514
 1707SOL     OW 6019   4.129   1.679   2.999
 1707SOL    HW1 6020   4.096   1.614   2.931
 1707SOL    HW2 6021   4.208   1.728   2.962
 1708SOL     OW 6022   4.925   5.984   1.959
 1708SOL    HW1 6023   4.902   6.080   1.975
 1708SOL    HW2 6024   5.016   5.978   1.918
 1709SOL     OW 6025   3.453   6.672   2.597
 1709SOL    HW1 6026   3.475   6.576   2.608
 1709SOL    HW2 6027   3.533   6.722   2.565
 1710SOL     OW 6028   4.294   4.893   3.139
 1710SOL    HW1 6029   4.327   4.937   3.222
 1710SOL    HW2 6030   4.312   4.952   3.060
 1711SOL     OW 6031   1.717   4.947   4.320
 1711SOL    HW1 6032   1.754   5.013   4.256
 1711SOL    HW2 6033   1.772   4.946   4.404
 1712SOL     OW 6034   6.554   2.519   4.631
 1712SOL    HW1 6035   6.621   2.557   4.566
 1712SOL    HW2 6036   6.568   2.421   4.640
 1713SOL     OW 6037   4.683   2.508   2.118
 1713SOL    HW1 6038   4.669   2.583   2.054
 1713SOL    HW2 6039   4.605   2.501   2.180
 1714SOL     OW 6040   3.618   1.424   6.195
 1714SOL    HW1 6041   3.708   1.386   6.172
 1714SOL    HW2 6042   3.578   1.466   6.114
 1715SOL     OW 6043   2.160   6.151   3.492
 1715SOL    HW1 6044   2.216   6.096   3.430
 1715SOL    HW2 6045   2.215   6.227   3.528
 1716SOL     OW 6046   3.782   6.868   3.600
 1716SOL    HW1 6047   3.828   6.956   3.588
 1716SOL    HW2 6048   3.783   6.842   3.697
 1717SOL     OW 6049   3.532   5.932   4.869
 1717SOL    HW1 6050   3.540   5.897   4.776
 1717SOL    HW2 6051   3.449   5.987   4.877
 1718SOL     OW 6052   3.148   1.565   1.936
 1718SOL    HW1 6053   3.208   1.636   1.972
 1718SOL    HW2 6054   3.066   1.558   1.992
 1719SOL     OW 6055   1.885   3.095   0.848
 1719SOL    HW1 6056   1.914   3.166   0.912
 1719SOL    HW2 6057   1.884   3.007   0.895
 1720SOL     OW 6058   6.732   3.008   6.855
 1720SOL    HW1 6059   6.681   2.940   6.803
 1720SOL    HW2 6060   6.707   3.002   6.951
 1721SOL     OW 6061   1.896   6.590   1.575
 1721SOL    HW1 6062   1.923   6.496   1.595
 1721SOL    HW2 6063   1.883   6.601   1.476
 1722SOL     OW 6064   3.325   1.554   3.783
 1722SOL    HW1 6065   3.382   1.579   3.861
 1722SOL    HW2 6066   3.249   1.618   3.776
 1723SOL     OW 6067   5.829   2.352   6.658
 1723SOL    HW1 6068   5.744   2.329   6.611
 1723SOL    HW2 6069   5.813   2.431   6.717
 1724SOL     OW 6070   0.541   2.934   2.130
 1724SOL    HW1 6071   0.567   3.026   2.159
 1724SOL    HW2 6072   0.592   2.910   2.047
 1725SOL     OW 6073   1.620   5.063   6.115
 1725SOL    HW1 6074   1.525   5.087   6.098
 1725SOL    HW2 6075   1.635   4.966   6.094
 1726SOL     OW 6076   5.643   4.036   4.719
 1726SOL    HW1 6077   5.737   4.069   4.729
 1726SOL    HW2 6078   5.591   4.057   4.801
 1727SOL     OW 6079   4.046   3.152   3.914
 1727SOL    HW1 6080   3.987   3.087   3.867
 1727SOL    HW2 6081   4.095   3.208   3.847
 1728SOL     OW 6082   5.757   5.166   5.248
 1728SOL    HW1 6083   5.786   5.145   5.341
 1728SOL    HW2 6084   5.692   5.242   5.250
 1729SOL     OW 6085   2.165   3.747   2.867
 1729SOL    HW1 6086   2.187   3.837   2.829
 1729SOL    HW2 6087   2.144   3.684   2.793
 1730SOL     OW 6088   2.279   0.452   5.485
 1730SOL    HW1 6089   2.231   0.517   5.425
 1730SOL    HW2 6090   2.223   0.371   5.499
 1731SOL     OW 6091   0.437   4.153   3.818
 1731SOL    HW1 6092   0.403   4.213   3.745
 1731SOL    HW2 6093   0.465   4.209   3.896
 1732SOL     OW 6094   2.499   5.047   5.935
 1732SOL    HW1 6095   2.441   5.019   5.859
 1732SOL    HW2 6096   2.477   5.140   5.962
 1733SOL     OW 6097   1.803   4.119   1.062
 1733SOL    HW1 6098   1.864   4.041   1.080
 1733SOL    HW2 6099   1.774   4.117   0.966
 1734SOL     OW 6100   4.750   2.848   1.033
 1734SOL    HW1 6101   4.775   2.908   0.958
 1734SOL    HW2 6102   4.696   2.771   0.998
 1735SOL     OW 6103   4.373   5.752   6.600
 1735SOL    HW1 6104   4.340   5.827   6.542
 1735SOL    HW2 6105   4.310   5.675   6.593
 1736SOL     OW 6106   3.692   3.962   1.303
 1736SOL    HW1 6107   3.736   3.903   1.236
 1736SOL    HW2 6108   3.748   3.967   1.385
 1737SOL     OW 6109   4.558   0.288   4.626
 1737SOL    HW1 6110   4.626   0.352   4.662
 1737SOL    HW2 6111   4.472   0.336   4.612
 1738SOL     OW 6112   2.321   2.470   4.760
 1738SOL    HW1 6113   2.223   2.469   4.781
 1738SOL    HW2 6114   2.370   2.524   4.829
 1739SOL     OW 6115   6.737   2.002   4.930
 1739SOL    HW1 6116   6.775   1.977   5.019
 1739SOL    HW2 6117   6.638   1.994   4.933
 1740SOL     OW 6118   0.156   2.380   4.819
 1740SOL    HW1 6119   0.190   2.287   4.801
 1740SOL    HW2 6120   0.229   2.446   4.800
 1741SOL     OW 6121   2.698   0.389   4.613
 1741SOL    HW1 6122   2.762   0.318   4.642
 1741SOL    HW2 6123   2.629   0.349   4.552
 1742SOL     OW 6124   5.987   0.519   5.281
 1742SOL    HW1 6125   5.916   0.465   5.235
 1742SOL    HW2 6126   6.077   0.481   5.261
 1743SOL     OW 6127   0.616   1.753   2.280
 1743SOL    HW1 6128   0.562   1.688   2.227
 1743SOL    HW2 6129   0.587   1.846   2.257
 1744SOL     OW 6130   6.575   3.476   3.774
 1744SOL    HW1 6131   6.560   3.567   3.735
 1744SOL    HW2 6132   6.488   3.426   3.777
 1745SOL     OW 6133   5.237   5.826   2.294
 1745SOL    HW1 6134   5.301   5.839   2.369
 1745SOL    HW2 6135   5.170   5.756   2.318
 1746SOL     OW 6136   1.257   4.374   3.950
 1746SOL    HW1 6137   1.169   4.369   3.998
 1746SOL    HW2 6138   1.241   4.370   3.851
 1747SOL     OW 6139   4.572   1.456   2.893
 1747SOL    HW1 6140   4.566   1.424   2.987
 1747SOL    HW2 6141   4.489   1.429   2.843
 1748SOL     OW 6142   6.903   1.911   4.384
 1748SOL    HW1 6143   6.906   1.989   4.446
 1748SOL    HW2 6144   6.810   1.874   4.382
 1749SOL     OW 6145   2.310   6.697   5.874
 1749SOL    HW1 6146   2.354   6.784   5.894
 1749SOL    HW2 6147   2.380   6.628   5.856
 1750SOL     OW 6148   5.525   6.855   3.675
 1750SOL    HW1 6149   5.521   6.785   3.605
 1750SOL    HW2 6150   5.457   6.837   3.746
 1751SOL     OW 6151   4.946   2.021   4.531
 1751SOL    HW1 6152   4.883   2.099   4.528
 1751SOL    HW2 6153   4.894   1.938   4.552
 1752SOL     OW 6154   6.167   0.875   1.942
 1752SOL    HW1 6155   6.245   0.907   1.889
 1752SOL    HW2 6156   6.148   0.940   2.016
 1753SOL     OW 6157   6.614   0.628   1.694
 1753SOL    HW1 6158   6.529   0.578   1.676
 1753SOL    HW2 6159   6.598   0.695   1.766
 1754SOL     OW 6160   1.751   4.910   6.613
 1754SOL    HW1 6161   1.725   4.969   6.537
 1754SOL    HW2 6162   1.850   4.895   6.612
 1755SOL     OW 6163   0.152   5.194   0.109
 1755SOL    HW1 6164   0.198   5.135   0.042
 1755SOL    HW2 6165   0.160   5.289   0.079
 1756SOL     OW 6166   4.092   5.540   5.172
 1756SOL    HW1 6167   4.097   5.453   5.220
 1756SOL    HW2 6168   3.996   5.568   5.164
 1757SOL     OW 6169   3.321   5.279   4.923
 1757SOL    HW1 6170   3.293   5.341   4.997
 1757SOL    HW2 6171   3.365   5.332   4.850
 1758SOL     OW 6172   1.900   1.213   4.459
 1758SOL    HW1 6173   1.941   1.179   4.374
 1758SOL    HW2 6174   1.970   1.217   4.531
 1759SOL     OW 6175   2.795   6.311   5.400
 1759SOL    HW1 6176   2.775   6.290   5.496
 1759SOL    HW2 6177   2.825   6.406   5.391
 1760SOL     OW 6178   5.858   0.849   3.910
 1760SOL    HW1 6179   5.947   0.836   3.867
 1760SOL    HW2 6180   5.811   0.926   3.868
 1761SOL     OW 6181   0.501   1.337   1.810
 1761SOL    HW1 6182   0.543   1.256   1.850
 1761SOL    HW2 6183   0.416   1.357   1.859
 1762SOL     OW 6184   7.009   1.209   4.597
 1762SOL    HW1 6185   0.002   1.233   4.692
 1762SOL    HW2 6186   7.021   1.111   4.584
 1763SOL     OW 6187   0.790   4.663   4.069
 1763SOL    HW1 6188   0.867   4.699   4.122
 1763SOL    HW2 6189   0.732   4.738   4.039
 1764SOL     OW 6190   2.146   3.054   1.885
 1764SOL    HW1 6191   2.068   3.017   1.936
 1764SOL    HW2 6192   2.116   3.128   1.826
 1765SOL     OW 6193   3.541   0.748   1.627
 1765SOL    HW1 6194   3.452   0.794   1.617
 1765SOL    HW2 6195   3.536   0.683   1.703
 1766SOL     OW 6196   5.944   4.767   3.924
 1766SOL    HW1 6197   5.916   4.850   3.876
 1766SOL    HW2 6198   5.876   4.744   3.993
 1767SOL     OW 6199   0.854   4.057   3.535
 1767SOL    HW1 6200   0.798   4.019   3.608
 1767SOL    HW2 6201   0.802   4.126   3.485
 1768SOL     OW 6202   3.157   0.742   6.975
 1768SOL    HW1 6203   3.115   0.733   6.885
 1768SOL    HW2 6204   3.219   0.665   6.991
 1769SOL     OW 6205   5.498   1.360   6.565
 1769SOL    HW1 6206   5.595   1.342   6.548
 1769SOL    HW2 6207   5.463   1.424   6.497
 1770SOL     OW 6208   6.834   4.897   4.984
 1770SOL    HW1 6209   6.745   4.932   5.011
 1770SOL    HW2 6210   6.865   4.943   4.901
 1771SOL     OW 6211   1.584   5.221   0.658
 1771SOL    HW1 6212   1.622   5.249   0.570
 1771SOL    HW2 6213   1.555   5.126   0.654
 1772SOL     OW 6214   3.675   5.851   3.639
 1772SOL    HW1 6215   3.723   5.777   3.686
 1772SOL    HW2 6216   3.627   5.814   3.559
 1773SOL     OW 6217   2.499   2.468   5.845
 1773SOL    HW1 6218   2.439   2.402   5.800
 1773SOL    HW2 6219   2.445   2.524   5.908
 1774SOL     OW 6220   5.535   6.499   1.477
 1774SOL    HW1 6221   5.437   6.503   1.458
 1774SOL    HW2 6222   5.583   6.565   1.418
 1775SOL     OW 6223   1.673   5.413   6.167
 1775SOL    HW1 6224   1.684   5.340   6.099
 1775SOL    HW2 6225   1.576   5.436   6.174
 1776SOL     OW 6226   5.213   0.687   6.178
 1776SOL    HW1 6227   5.272   0.608   6.160
 1776SOL    HW2 6228   5.121   0.656   6.199
 1777SOL     OW 6229   2.756   6.883   6.771
 1777SOL    HW1 6230   2.823   6.847   6.836
 1777SOL    HW2 6231   2.803   6.919   6.690
 1778SOL     OW 6232   4.812   2.281   4.121
 1778SOL    HW1 6233   4.830   2.378   4.104
 1778SOL    HW2 6234   4.887   2.226   4.085
 1779SOL     OW 6235   5.263   1.112   5.591
 1779SOL    HW1 6236   5.222   1.203   5.603
 1779SOL    HW2 6237   5.196   1.042   5.616
 1780SOL     OW 6238   1.753   3.616   5.973
 1780SOL    HW1 6239   1.819   3.680   5.934
 1780SOL    HW2 6240   1.719   3.652   6.059
 1781SOL     OW 6241   5.446   6.358   4.710
 1781SOL    HW1 6242   5.398   6.282   4.753
 1781SOL    HW2 6243   5.507   6.324   4.639
 1782SOL     OW 6244   2.189   0.961   2.882
 1782SOL    HW1 6245   2.142   0.875   2.865
 1782SOL    HW2 6246   2.238   0.989   2.799
 1783SOL     OW 6247   3.177   3.530   6.522
 1783SOL    HW1 6248   3.203   3.446   6.473
 1783SOL    HW2 6249   3.251   3.558   6.583
 1784SOL     OW 6250   2.529   1.502   1.140
 1784SOL    HW1 6251   2.516   1.549   1.053
 1784SOL    HW2 6252   2.569   1.412   1.124
 1785SOL     OW 6253   6.024   6.624   4.023
 1785SOL    HW1 6254   6.118   6.590   4.032
 1785SOL    HW2 6255   5.960   6.553   4.053
 1786SOL     OW 6256   2.430   4.851   6.932
 1786SOL    HW1 6257   2.375   4.872   6.852
 1786SOL    HW2 6258   2.503   4.788   6.907
 1787SOL     OW 6259   2.667   1.822   6.265
 1787SOL    HW1 6260   2.584   1.804   6.212
 1787SOL    HW2 6261   2.682   1.921   6.272
 1788SOL     OW 6262   4.688   4.132   6.633
 1788SOL    HW1 6263   4.667   4.228   6.615
 1788SOL    HW2 6264   4.652   4.076   6.559
 1789SOL     OW 6265   5.919   2.906   1.731
 1789SOL    HW1 6266   5.908   2.871   1.639
 1789SOL    HW2 6267   5.833   2.898   1.781
 1790SOL     OW 6268   2.961   1.120   4.679
 1790SOL    HW1 6269   2.880   1.064   4.698
 1790SOL    HW2 6270   3.043   1.069   4.704
 1791SOL     OW 6271   6.396   1.520   3.452
 1791SOL    HW1 6272   6.443   1.513   3.364
 1791SOL    HW2 6273   6.326   1.591   3.447
 1792SOL     OW 6274   6.861   1.400   4.421
 1792SOL    HW1 6275   6.932   1.466   4.398
 1792SOL    HW2 6276   6.902   1.310   4.434
 1793SOL     OW 6277   6.633   1.915   4.102
 1793SOL    HW1 6278   6.693   1.961   4.037
 1793SOL    HW2 6279   6.538   1.925   4.074
 1794SOL     OW 6280   5.216   6.668   5.452
 1794SOL    HW1 6281   5.197   6.575   5.420
 1794SOL    HW2 6282   5.136   6.726   5.435
 1795SOL     OW 6283   6.922   5.151   1.943
 1795SOL    HW1 6284   6.827   5.141   1.913
 1795SOL    HW2 6285   6.925   5.179   2.039
 1796SOL     OW 6286   2.558   1.729   5.898
 1796SOL    HW1 6287   2.652   1.746   5.928
 1796SOL    HW2 6288   2.495   1.749   5.972
 1797SOL     OW 6289   1.162   6.865   5.651
 1797SOL    HW1 6290   1.171   6.784   5.709
 1797SOL    HW2 6291   1.150   6.837   5.556
 1798SOL     OW 6292   3.740   3.110   5.245
 1798SOL    HW1 6293   3.716   3.207   5.247
 1798SOL    HW2 6294   3.804   3.092   5.170
 1799SOL     OW 6295   4.813   2.878   6.638
 1799SOL    HW1 6296   4.910   2.873   6.661
 1799SOL    HW2 6297   4.759   2.862   6.721
 1800SOL     OW 6298   4.949   5.096   3.689
 1800SOL    HW1 6299   4.919   5.172   3.631
 1800SOL    HW2 6300   5.022   5.128   3.750
 1801SOL     OW 6301   0.861   1.655   2.335
 1801SOL    HW1 6302   0.773   1.692   2.306
 1801SOL    HW2 6303   0.846   1.583   2.403
 1802SOL     OW 6304   6.399   6.253   3.594
 1802SOL    HW1 6305   6.323   6.313   3.621
 1802SOL    HW2 6306   6.363   6.171   3.550
 1803SOL     OW 6307   0.403   0.261   1.998
 1803SOL    HW1 6308   0.382   0.312   2.081
 1803SOL    HW2 6309   0.495   0.221   2.005
 1804SOL     OW 6310   4.092   3.271   5.048
 1804SOL    HW1 6311   4.135   3.265   4.958
 1804SOL    HW2 6312   4.106   3.362   5.085
 1805SOL     OW 6313   0.255   5.471   6.065
 1805SOL    HW1 6314   0.234   5.386   6.113
 1805SOL    HW2 6315   0.315   5.452   5.988
 1806SOL     OW 6316   0.666   2.558   1.578
 1806SOL    HW1 6317   0.683   2.598   1.489
 1806SOL    HW2 6318   0.747   2.509   1.609
 1807SOL     OW 6319   6.163   2.597   6.430
 1807SOL    HW1 6320   6.220   2.586   6.348
 1807SOL    HW2 6321   6.214   2.647   6.500
 1808SOL     OW 6322   6.007   4.090   4.441
 1808SOL    HW1 6323   6.001   4.030   4.521
 1808SOL    HW2 6324   6.008   4.035   4.358
 1809SOL     OW 6325   3.127   2.148   5.491
 1809SOL    HW1 6326   3.081   2.116   5.574
 1809SOL    HW2 6327   3.127   2.248   5.488
 1810SOL     OW 6328   0.760   0.587   5.137
 1810SOL    HW1 6329   0.720   0.500   5.165
 1810SOL    HW2 6330   0.838   0.609   5.196
 1811SOL     OW 6331   5.589   4.722   2.103
 1811SOL    HW1 6332   5.526   4.683   2.171
 1811SOL    HW2 6333   5.582   4.669   2.018
 1812SOL     OW 6334   4.265   6.541   6.577
 1812SOL    HW1 6335   4.294   6.599   6.501
 1812SOL    HW2 6336   4.202   6.471   6.544
 1813SOL     OW 6337   5.369   5.105   2.367
 1813SOL    HW1 6338   5.358   5.186   2.425
 1813SOL    HW2 6339   5.345   5.023   2.420
 1814SOL     OW 6340   5.702   0.524   0.526
 1814SOL    HW1 6341   5.655   0.611   0.542
 1814SOL    HW2 6342   5.637   0.448   0.535
 1815SOL     OW 6343   6.328   0.147   3.018
 1815SOL    HW1 6344   6.357   0.168   3.111
 1815SOL    HW2 6345   6.315   0.232   2.967
 1816SOL     OW 6346   3.622   5.081   6.329
 1816SOL    HW1 6347   3.565   5.024   6.269
 1816SOL    HW2 6348   3.712   5.038   6.338
 1817SOL     OW 6349   3.256   0.845   3.095
 1817SOL    HW1 6350   3.171   0.813   3.138
 1817SOL    HW2 6351   3.241   0.857   2.997
 1818SOL     OW 6352   1.797   0.235   0.187
 1818SOL    HW1 6353   1.779   0.203   0.280
 1818SOL    HW2 6354   1.856   0.316   0.191
 1819SOL     OW 6355   1.635   5.284   2.084
 1819SOL    HW1 6356   1.676   5.296   2.174
 1819SOL    HW2 6357   1.549   5.334   2.078
 1820SOL     OW 6358   2.918   0.307   2.471
 1820SOL    HW1 6359   2.859   0.227   2.483
 1820SOL    HW2 6360   2.905   0.345   2.379
 1821SOL     OW 6361   2.764   1.005   2.053
 1821SOL    HW1 6362   2.850   1.038   2.092
 1821SOL    HW2 6363   2.733   1.070   1.983
 1822SOL     OW 6364   1.174   3.434   1.635
 1822SOL    HW1 6365   1.207   3.476   1.719
 1822SOL    HW2 6366   1.176   3.335   1.644
 1823SOL     OW 6367   2.727   6.227   3.098
 1823SOL    HW1 6368   2.667   6.177   3.035
 1823SOL    HW2 6369   2.817   6.238   3.056
 1824SOL     OW 6370   3.989   4.243   0.336
 1824SOL    HW1 6371   4.069   4.282   0.381
 1824SOL    HW2 6372   4.017   4.203   0.248
 1825SOL     OW 6373   0.859   3.093   4.365
 1825SOL    HW1 6374   0.822   3.144   4.443
 1825SOL    HW2 6375   0.946   3.051   4.390
 1826SOL     OW 6376   3.238   1.130   1.166
 1826SOL    HW1 6377   3.207   1.213   1.212
 1826SOL    HW2 6378   3.162   1.088   1.117
 1827SOL     OW 6379   5.536   5.406   1.080
 1827SOL    HW1 6380   5.437   5.417   1.076
 1827SOL    HW2 6381   5.566   5.406   1.175
 1828SOL     OW 6382   1.594   2.590   6.448
 1828SOL    HW1 6383   1.588   2.642   6.363
 1828SOL    HW2 6384   1.508   2.596   6.498
 1829SOL     OW 6385   3.524   6.776   3.385
 1829SOL    HW1 6386   3.561   6.683   3.394
 1829SOL    HW2 6387   3.541   6.826   3.469
 1830SOL     OW 6388   5.731   6.671   4.392
 1830SOL    HW1 6389   5.735   6.745   4.325
 1830SOL    HW2 6390   5.768   6.703   4.479
 1831SOL     OW 6391   4.949   6.169   3.092
 1831SOL    HW1 6392   5.042   6.180   3.057
 1831SOL    HW2 6393   4.919   6.075   3.078
 1832SOL     OW 6394   3.846   2.642   0.329
 1832SOL    HW1 6395   3.765   2.611   0.279
 1832SOL    HW2 6396   3.890   2.564   0.374
 1833SOL     OW 6397   5.270   0.567   1.381
 1833SOL    HW1 6398   5.185   0.620   1.370
 1833SOL    HW2 6399   5.300   0.535   1.292
 1834SOL     OW 6400   2.163   3.734   1.134
 1834SOL    HW1 6401   2.255   3.716   1.166
 1834SOL    HW2 6402   2.125   3.651   1.094
 1835SOL     OW 6403   0.862   4.420   1.605
 1835SOL    HW1 6404   0.897   4.362   1.532
 1835SOL    HW2 6405   0.778   4.381   1.642
 1836SOL     OW 6406   5.594   2.481   2.031
 1836SOL    HW1 6407   5.520   2.427   1.991
 1836SOL    HW2 6408   5.565   2.577   2.038
 1837SOL     OW 6409   1.486   6.903   6.102
 1837SOL    HW1 6410   1.556   6.935   6.039
 1837SOL    HW2 6411   1.502   6.807   6.124
 1838SOL     OW 6412   5.603   0.324   6.105
 1838SOL    HW1 6413   5.692   0.371   6.108
 1838SOL    HW2 6414   5.533   0.383   6.144
 1839SOL     OW 6415   6.134   0.698   5.902
 1839SOL    HW1 6416   6.131   0.781   5.846
 1839SOL    HW2 6417   6.140   0.722   5.998
 1840SOL     OW 6418   3.914   0.194   2.444
 1840SOL    HW1 6419   3.922   0.121   2.511
 1840SOL    HW2 6420   3.875   0.275   2.488
 1841SOL     OW 6421   1.817   0.345   2.930
 1841SOL    HW1 6422   1.901   0.298   2.903
 1841SOL    HW2 6423   1.815   0.436   2.888
 1842SOL     OW 6424   0.826   5.563   0.897
 1842SOL    HW1 6425   0.786   5.473   0.913
 1842SOL    HW2 6426   0.903   5.578   0.958
 1843SOL     OW 6427   5.433   0.468   4.240
 1843SOL    HW1 6428   5.476   0.507   4.321
 1843SOL    HW2 6429   5.341   0.508   4.228
 1844SOL     OW 6430   3.794   1.001   5.193
 1844SOL    HW1 6431   3.827   1.080   5.244
 1844SOL    HW2 6432   3.694   1.003   5.189
 1845SOL     OW 6433   2.940   6.964   3.886
 1845SOL    HW1 6434   2.939   0.036   3.906
 1845SOL    HW2 6435   2.995   6.917   3.955
 1846SOL     OW 6436   4.587   1.034   3.440
 1846SOL    HW1 6437   4.575   0.975   3.361
 1846SOL    HW2 6438   4.620   0.980   3.517
 1847SOL     OW 6439   1.386   0.030   5.397
 1847SOL    HW1 6440   1.387   0.034   5.497
 1847SOL    HW2 6441   1.327   0.102   5.362
 1848SOL     OW 6442   1.706   6.148   3.794
 1848SOL    HW1 6443   1.799   6.185   3.788
 1848SOL    HW2 6444   1.710   6.054   3.830
 1849SOL     OW 6445   4.298   2.586   1.205
 1849SOL    HW1 6446   4.321   2.515   1.138
 1849SOL    HW2 6447   4.379   2.640   1.226
 1850SOL     OW 6448   5.785   1.673   2.652
 1850SOL    HW1 6449   5.760   1.636   2.563
 1850SOL    HW2 6450   5.741   1.762   2.665
 1851SOL     OW 6451   1.373   3.759   7.015
 1851SOL    HW1 6452   1.384   3.801   0.079
 1851SOL    HW2 6453   1.357   3.661   7.026
 1852SOL     OW 6454   0.413   4.821   2.369
 1852SOL    HW1 6455   0.381   4.734   2.331
 1852SOL    HW2 6456   0.371   4.896   2.319
 1853SOL     OW 6457   6.987   2.687   3.226
 1853SOL    HW1 6458   6.964   2.767   3.172
 1853SOL    HW2 6459   0.018   2.625   3.172
 1854SOL     OW 6460   1.973   5.055   2.566
 1854SOL    HW1 6461   2.000   5.002   2.647
 1854SOL    HW2 6462   2.017   5.017   2.485
 1855SOL     OW 6463   4.819   3.197   5.758
 1855SOL    HW1 6464   4.820   3.226   5.853
 1855SOL    HW2 6465   4.828   3.097   5.754
 1856SOL     OW 6466   3.903   3.052   6.246
 1856SOL    HW1 6467   3.921   3.149   6.261
 1856SOL    HW2 6468   3.830   3.022   6.308
 1857SOL     OW 6469   4.432   1.399   0.241
 1857SOL    HW1 6470   4.488   1.407   0.323
 1857SOL    HW2 6471   4.342   1.361   0.265
 1858SOL     OW 6472   5.441   2.485   3.428
 1858SOL    HW1 6473   5.400   2.394   3.415
 1858SOL    HW2 6474   5.390   2.552   3.375
 1859SOL     OW 6475   4.785   1.726   3.557
 1859SOL    HW1 6476   4.813   1.635   3.587
 1859SOL    HW2 6477   4.733   1.719   3.472
 1860SOL     OW 6478   0.257   1.633   5.983
 1860SOL    HW1 6479   0.310   1.604   5.903
 1860SOL    HW2 6480   0.171   1.581   5.986
 1861SOL     OW 6481   4.631   0.913   2.983
 1861SOL    HW1 6482   4.638   0.993   2.923
 1861SOL    HW2 6483   4.723   0.879   3.004
 1862SOL     OW 6484   1.558   6.690   6.922
 1862SOL    HW1 6485   1.613   6.609   6.944
 1862SOL    HW2 6486   1.465   6.678   6.956
 1863SOL     OW 6487   6.677   2.950   1.572
 1863SOL    HW1 6488   6.584   2.967   1.604
 1863SOL    HW2 6489   6.709   3.028   1.518
 1864SOL     OW 6490   3.766   5.967   4.279
 1864SOL    HW1 6491   3.735   6.053   4.321
 1864SOL    HW2 6492   3.811   5.911   4.348
 1865SOL     OW 6493   3.485   1.158   1.288
 1865SOL    HW1 6494   3.554   1.089   1.267
 1865SOL    HW2 6495   3.395   1.125   1.258
 1866SOL     OW 6496   6.776   4.862   3.951
 1866SOL    HW1 6497   6.717   4.855   4.031
 1866SOL    HW2 6498   6.788   4.959   3.927
 1867SOL     OW 6499   2.398   3.213   1.703
 1867SOL    HW1 6500   2.425   3.245   1.612
 1867SOL    HW2 6501   2.405   3.289   1.768
 1868SOL     OW 6502   5.127   3.392   6.353
 1868SOL    HW1 6503   5.055   3.396   6.422
 1868SOL    HW2 6504   5.151   3.296   6.335
 1869SOL     OW 6505   6.313   3.540   4.391
 1869SOL    HW1 6506   6.319   3.634   4.359
 1869SOL    HW2 6507   6.396   3.517   4.441
 1870SOL     OW 6508   1.267   2.970   5.183
 1870SOL    HW1 6509   1.310   3.000   5.098
 1870SOL    HW2 6510   1.172   2.948   5.165
 1871SOL     OW 6511   6.077   6.904   0.235
 1871SOL    HW1 6512   6.104   7.000   0.222
 1871SOL    HW2 6513   6.158   6.846   0.236
 1872SOL     OW 6514   3.975   2.058   0.487
 1872SOL    HW1 6515   3.887   2.103   0.499
 1872SOL    HW2 6516   4.047   2.116   0.525
 1873SOL     OW 6517   6.569   0.687   5.710
 1873SOL    HW1 6518   6.611   0.596   5.711
 1873SOL    HW2 6519   6.611   0.743   5.639
 1874SOL     OW 6520   1.043   0.689   6.693
 1874SOL    HW1 6521   0.954   0.734   6.693
 1874SOL    HW2 6522   1.111   0.750   6.654
 1875SOL     OW 6523   6.279   6.639   0.480
 1875SOL    HW1 6524   6.211   6.608   0.413
 1875SOL    HW2 6525   6.348   6.567   0.493
 1876SOL     OW 6526   4.841   6.317   6.435
 1876SOL    HW1 6527   4.755   6.274   6.462
 1876SOL    HW2 6528   4.829   6.416   6.432
 1877SOL     OW 6529   0.807   1.537   3.414
 1877SOL    HW1 6530   0.852   1.530   3.503
 1877SOL    HW2 6531   0.736   1.607   3.418
 1878SOL     OW 6532   0.153   4.350   3.816
 1878SOL    HW1 6533   0.218   4.332   3.743
 1878SOL    HW2 6534   0.194   4.330   3.904
 1879SOL     OW 6535   2.556   5.714   3.672
 1879SOL    HW1 6536   2.545   5.732   3.770
 1879SOL    HW2 6537   2.470   5.735   3.624
 1880SOL     OW 6538   0.735   2.447   3.180
 1880SOL    HW1 6539   0.649   2.437   3.129
 1880SOL    HW2 6540   0.811   2.418   3.122
 1881SOL     OW 6541   1.343   1.633   3.432
 1881SOL    HW1 6542   1.287   1.663   3.510
 1881SOL    HW2 6543   1.298   1.556   3.387
 1882SOL     OW 6544   0.851   5.406   6.915
 1882SOL    HW1 6545   0.796   5.445   6.989
 1882SOL    HW2 6546   0.796   5.342   6.862
 1883SOL     OW 6547   0.806   3.512   3.726
 1883SOL    HW1 6548   0.739   3.534   3.655
 1883SOL    HW2 6549   0.790   3.418   3.758
 1884SOL     OW 6550   5.561   1.771   1.100
 1884SOL    HW1 6551   5.627   1.829   1.148
 1884SOL    HW2 6552   5.539   1.691   1.157
 1885SOL     OW 6553   6.950   2.101   0.733
 1885SOL    HW1 6554   6.946   2.189   0.686
 1885SOL    HW2 6555   6.907   2.110   0.823
 1886SOL     OW 6556   1.660   2.121   0.101
 1886SOL    HW1 6557   1.611   2.036   0.082
 1886SOL    HW2 6558   1.693   2.120   0.195
 1887SOL     OW 6559   0.550   4.198   5.926
 1887SOL    HW1 6560   0.593   4.132   5.864
 1887SOL    HW2 6561   0.467   4.158   5.965
 1888SOL     OW 6562   2.093   1.791   6.351
 1888SOL    HW1 6563   2.086   1.785   6.451
 1888SOL    HW2 6564   2.105   1.886   6.324
 1889SOL     OW 6565   4.480   3.571   6.606
 1889SOL    HW1 6566   4.514   3.505   6.539
 1889SOL    HW2 6567   4.388   3.602   6.580
 1890SOL     OW 6568   1.452   5.922   5.967
 1890SOL    HW1 6569   1.394   5.936   5.887
 1890SOL    HW2 6570   1.532   5.868   5.941
 1891SOL     OW 6571   5.360   3.415   4.057
 1891SOL    HW1 6572   5.450   3.372   4.053
 1891SOL    HW2 6573   5.293   3.351   4.094
 1892SOL     OW 6574   3.542   6.692   1.028
 1892SOL    HW1 6575   3.522   6.719   0.934
 1892SOL    HW2 6576   3.509   6.599   1.044
 1893SOL     OW 6577   3.718   2.126   4.983
 1893SOL    HW1 6578   3.710   2.158   5.078
 1893SOL    HW2 6579   3.628   2.124   4.940
 1894SOL     OW 6580   4.425   3.707   1.549
 1894SOL    HW1 6581   4.450   3.619   1.507
 1894SOL    HW2 6582   4.366   3.690   1.628
 1895SOL     OW 6583   5.855   0.712   2.851
 1895SOL    HW1 6584   5.924   0.645   2.881
 1895SOL    HW2 6585   5.840   0.702   2.753
 1896SOL     OW 6586   0.093   0.811   3.326
 1896SOL    HW1 6587   0.027   0.793   3.400
 1896SOL    HW2 6588   0.045   0.814   3.239
 1897SOL     OW 6589   0.017   5.430   3.244
 1897SOL    HW1 6590   0.077   5.374   3.301
 1897SOL    HW2 6591   6.950   5.394   3.248
 1898SOL     OW 6592   3.281   5.921   1.930
 1898SOL    HW1 6593   3.238   5.867   2.002
 1898SOL    HW2 6594   3.255   6.017   1.940
 1899SOL     OW 6595   1.256   2.519   2.859
 1899SOL    HW1 6596   1.338   2.464   2.874
 1899SOL    HW2 6597   1.246   2.586   2.932
 1900SOL     OW 6598   0.933   0.420   5.784
 1900SOL    HW1 6599   1.027   0.399   5.755
 1900SOL    HW2 6600   0.871   0.349   5.751
 1901SOL     OW 6601   2.262   1.467   1.295
 1901SOL    HW1 6602   2.204   1.431   1.222
 1901SOL    HW2 6603   2.351   1.493   1.258
 1902SOL     OW 6604   2.204   2.098   4.869
 1902SOL    HW1 6605   2.261   2.173   4.836
 1902SOL    HW2 6606   2.245   2.011   4.843
 1903SOL     OW 6607   0.029   3.808   3.785
 1903SOL    HW1 6608   0.102   3.841   3.845
 1903SOL    HW2 6609   0.032   3.859   3.699
 1904SOL     OW 6610   6.463   0.295   3.880
 1904SOL    HW1 6611   6.452   0.374   3.820
 1904SOL    HW2 6612   6.479   0.326   3.974
 1905SOL     OW 6613   0.667   1.861   4.065
 1905SOL    HW1 6614   0.749   1.821   4.106
 1905SOL    HW2 6615   0.620   1.792   4.011
 1906SOL     OW 6616   2.674   6.666   5.593
 1906SOL    HW1 6617   2.581   6.642   5.564
 1906SOL    HW2 6618   2.740   6.621   5.533
 1907SOL     OW 6619   3.208   6.766   3.332
 1907SOL    HW1 6620   3.156   6.681   3.329
 1907SOL    HW2 6621   3.283   6.761   3.266
 1908SOL     OW 6622   4.789   0.951   4.936
 1908SOL    HW1 6623   4.828   1.033   4.894
 1908SOL    HW2 6624   4.731   0.976   5.013
 1909SOL     OW 6625   1.911   3.855   2.929
 1909SOL    HW1 6626   2.003   3.820   2.908
 1909SOL    HW2 6627   1.867   3.795   2.995
 1910SOL     OW 6628   6.076   2.324   6.584
 1910SOL    HW1 6629   6.113   2.413   6.558
 1910SOL    HW2 6630   5.977   2.332   6.596
 1911SOL     OW 6631   5.735   2.065   5.934
 1911SOL    HW1 6632   5.687   2.152   5.941
 1911SOL    HW2 6633   5.670   1.993   5.910
 1912SOL     OW 6634   4.047   6.583   1.901
 1912SOL    HW1 6635   4.036   6.590   1.802
 1912SOL    HW2 6636   4.099   6.501   1.923
 1913SOL     OW 6637   1.562   6.352   5.480
 1913SOL    HW1 6638   1.648   6.316   5.445
 1913SOL    HW2 6639   1.523   6.287   5.546
 1914SOL     OW 6640   2.991   2.910   0.298
 1914SOL    HW1 6641   2.931   2.838   0.333
 1914SOL    HW2 6642   2.983   2.991   0.355
 1915SOL     OW 6643   3.603   1.342   5.549
 1915SOL    HW1 6644   3.605   1.242   5.560
 1915SOL    HW2 6645   3.689   1.380   5.583
 1916SOL     OW 6646   3.291   5.626   0.706
 1916SOL    HW1 6647   3.211   5.636   0.765
 1916SOL    HW2 6648   3.374   5.653   0.756
 1917SOL     OW 6649   3.904   3.045   4.589
 1917SOL    HW1 6650   3.852   3.051   4.505
 1917SOL    HW2 6651   3.989   3.097   4.580
 1918SOL     OW 6652   6.544   6.871   6.923
 1918SOL    HW1 6653   6.616   6.881   6.992
 1918SOL    HW2 6654   6.568   6.798   6.859
 1919SOL     OW 6655   1.506   6.771   2.330
 1919SOL    HW1 6656   1.596   6.747   2.293
 1919SOL    HW2 6657   1.442   6.787   2.254
 1920SOL     OW 6658   0.767   5.037   3.753
 1920SOL    HW1 6659   0.716   4.951   3.749
 1920SOL    HW2 6660   0.864   5.019   3.735
 1921SOL     OW 6661   1.263   4.148   0.184
 1921SOL    HW1 6662   1.174   4.193   0.175
 1921SOL    HW2 6663   1.292   4.115   0.094
 1922SOL     OW 6664   3.921   4.212   1.188
 1922SOL    HW1 6665   3.881   4.204   1.097
 1922SOL    HW2 6666   3.917   4.308   1.218
 1923SOL     OW 6667   3.396   0.520   6.963
 1923SOL    HW1 6668   3.429   0.521   6.869
 1923SOL    HW2 6669   3.366   0.428   6.988
 1924SOL     OW 6670   5.915   5.520   2.228
 1924SOL    HW1 6671   5.835   5.514   2.288
 1924SOL    HW2 6672   5.921   5.437   2.172
 1925SOL     OW 6673   3.097   3.731   1.957
 1925SOL    HW1 6674   3.046   3.757   1.874
 1925SOL    HW2 6675   3.162   3.659   1.934
 1926SOL     OW 6676   0.781   6.726   4.077
 1926SOL    HW1 6677   0.687   6.757   4.062
 1926SOL    HW2 6678   0.801   6.650   4.016
 1927SOL     OW 6679   3.650   5.353   6.271
 1927SOL    HW1 6680   3.746   5.356   6.301
 1927SOL    HW2 6681   3.617   5.259   6.272
 1928SOL     OW 6682   6.677   3.306   6.192
 1928SOL    HW1 6683   6.623   3.277   6.271
 1928SOL    HW2 6684   6.635   3.387   6.151
 1929SOL     OW 6685   0.820   6.225   1.118
 1929SOL    HW1 6686   0.723   6.239   1.140
 1929SOL    HW2 6687   0.857   6.152   1.175
 1930SOL     OW 6688   4.160   4.116   0.107
 1930SOL    HW1 6689   4.226   4.071   0.047
 1930SOL    HW2 6690   4.117   4.049   0.167
 1931SOL     OW 6691   0.152   3.271   3.557
 1931SOL    HW1 6692   0.052   3.270   3.553
 1931SOL    HW2 6693   0.185   3.185   3.595
 1932SOL     OW 6694   5.277   4.270   2.062
 1932SOL    HW1 6695   5.243   4.306   1.975
 1932SOL    HW2 6696   5.375   4.289   2.070
 1933SOL     OW 6697   3.214   4.308   0.396
 1933SOL    HW1 6698   3.247   4.248   0.323
 1933SOL    HW2 6699   3.239   4.269   0.485
 1934SOL     OW 6700   0.307   0.562   5.064
 1934SOL    HW1 6701   0.251   0.557   4.982
 1934SOL    HW2 6702   0.339   0.470   5.088
 1935SOL     OW 6703   3.362   0.483   4.898
 1935SOL    HW1 6704   3.276   0.465   4.851
 1935SOL    HW2 6705   3.396   0.574   4.871
 1936SOL     OW 6706   5.989   4.140   4.017
 1936SOL    HW1 6707   6.080   4.180   4.008
 1936SOL    HW2 6708   5.922   4.213   4.029
 1937SOL     OW 6709   4.799   6.693   0.988
 1937SOL    HW1 6710   4.781   6.595   0.990
 1937SOL    HW2 6711   4.751   6.734   0.910
 1938SOL     OW 6712   4.033   1.253   2.715
 1938SOL    HW1 6713   4.093   1.218   2.642
 1938SOL    HW2 6714   3.955   1.192   2.726
 1939SOL     OW 6715   0.163   6.420   4.804
 1939SOL    HW1 6716   0.220   6.502   4.795
 1939SOL    HW2 6717   0.081   6.442   4.857
 1940SOL     OW 6718   5.028   5.066   6.540
 1940SOL    HW1 6719   5.074   5.129   6.602
 1940SOL    HW2 6720   4.944   5.032   6.583
 1941SOL     OW 6721   0.327   4.023   3.076
 1941SOL    HW1 6722   0.247   4.080   3.093
 1941SOL    HW2 6723   0.331   3.951   3.145
 1942SOL     OW 6724   6.132   0.575   2.897
 1942SOL    HW1 6725   6.128   0.659   2.843
 1942SOL    HW2 6726   6.135   0.597   2.994
 1943SOL     OW 6727   2.333   6.483   2.607
 1943SOL    HW1 6728   2.404   6.549   2.581
 1943SOL    HW2 6729   2.368   6.390   2.595
 1944SOL     OW 6730   5.196   2.154   6.848
 1944SOL    HW1 6731   5.107   2.136   6.807
 1944SOL    HW2 6732   5.198   2.116   6.940
 1945SOL     OW 6733   3.956   5.837   2.252
 1945SOL    HW1 6734   3.974   5.891   2.334
 1945SOL    HW2 6735   3.873   5.871   2.207
 1946SOL     OW 6736   5.753   0.705   0.802
 1946SOL    HW1 6737   5.829   0.703   0.737
 1946SOL    HW2 6738   5.749   0.618   0.851
 1947SOL     OW 6739   4.821   6.641   3.930
 1947SOL    HW1 6740   4.738   6.586   3.934
 1947SOL    HW2 6741   4.852   6.661   4.023
 1948SOL     OW 6742   6.284   6.051   4.254
 1948SOL    HW1 6743   6.200   6.059   4.308
 1948SOL    HW2 6744   6.313   5.956   4.250
 1949SOL     OW 6745   4.261   4.558   5.901
 1949SOL    HW1 6746   4.242   4.474   5.952
 1949SOL    HW2 6747   4.353   4.590   5.924
 1950SOL     OW 6748   3.439   4.804   1.091
 1950SOL    HW1 6749   3.499   4.825   1.013
 1950SOL    HW2 6750   3.390   4.719   1.074
 1951SOL     OW 6751   6.149   3.787   0.782
 1951SOL    HW1 6752   6.087   3.838   0.841
 1951SOL    HW2 6753   6.224   3.847   0.753
 1952SOL     OW 6754   3.875   1.882   0.292
 1952SOL    HW1 6755   3.914   1.970   0.319
 1952SOL    HW2 6756   3.917   1.809   0.346
 1953SOL     OW 6757   6.396   3.085   0.115
 1953SOL    HW1 6758   6.394   3.166   0.056
 1953SOL    HW2 6759   6.487   3.043   0.110
 1954SOL     OW 6760   5.419   0.830   4.197
 1954SOL    HW1 6761   5.512   0.859   4.173
 1954SOL    HW2 6762   5.389   0.759   4.133
 1955SOL     OW 6763   1.124   1.142   2.630
 1955SOL    HW1 6764   1.134   1.181   2.539
 1955SOL    HW2 6765   1.114   1.215   2.697
 1956SOL     OW 6766   5.457   0.392   2.365
 1956SOL    HW1 6767   5.526   0.397   2.438
 1956SOL    HW2 6768   5.371   0.358   2.403
 1957SOL     OW 6769   6.267   5.744   5.260
 1957SOL    HW1 6770   6.348   5.686   5.258
 1957SOL    HW2 6771   6.203   5.708   5.328
 1958SOL     OW 6772   5.799   2.921   2.820
 1958SOL    HW1 6773   5.711   2.963   2.842
 1958SOL    HW2 6774   5.814   2.924   2.721
 1959SOL     OW 6775   0.277   1.364   6.213
 1959SOL    HW1 6776   0.260   1.456   6.249
 1959SOL    HW2 6777   0.349   1.369   6.143
 1960SOL     OW 6778   0.105   4.192   1.027
 1960SOL    HW1 6779   0.021   4.139   1.036
 1960SOL    HW2 6780   0.100   4.273   1.085
 1961SOL     OW 6781   5.824   4.893   4.321
 1961SOL    HW1 6782   5.902   4.838   4.351
 1961SOL    HW2 6783   5.784   4.939   4.401
 1962SOL     OW 6784   2.348   6.854   3.485
 1962SOL    HW1 6785   2.257   6.877   3.450
 1962SOL    HW2 6786   2.409   6.833   3.410
 1963SOL     OW 6787   0.838   1.322   1.515
 1963SOL    HW1 6788   0.914   1.275   1.470
 1963SOL    HW2 6789   0.751   1.287   1.480
 1964SOL     OW 6790   4.657   3.245   1.704
 1964SOL    HW1 6791   4.661   3.164   1.763
 1964SOL    HW2 6792   4.680   3.326   1.758
 1965SOL     OW 6793   1.076   3.585   3.761
 1965SOL    HW1 6794   1.077   3.586   3.861
 1965SOL    HW2 6795   0.993   3.539   3.729
 1966SOL     OW 6796   6.858   6.033   5.908
 1966SOL    HW1 6797   6.878   5.936   5.889
 1966SOL    HW2 6798   6.827   6.077   5.824
 1967SOL     OW 6799   4.820   2.451   4.691
 1967SOL    HW1 6800   4.741   2.462   4.631
 1967SOL    HW2 6801   4.904   2.459   4.636
 1968SOL     OW 6802   3.537   6.250   0.463
 1968SOL    HW1 6803   3.509   6.302   0.543
 1968SOL    HW2 6804   3.533   6.152   0.484
 1969SOL     OW 6805   0.554   1.894   1.957
 1969SOL    HW1 6806   0.563   1.961   2.031
 1969SOL    HW2 6807   0.644   1.861   1.930
 1970SOL     OW 6808   2.499   0.133   6.151
 1970SOL    HW1 6809   2.440   0.133   6.232
 1970SOL    HW2 6810   2.487   0.219   6.101
 1971SOL     OW 6811   0.257   0.392   6.158
 1971SOL    HW1 6812   0.275   0.400   6.256
 1971SOL    HW2 6813   0.162   0.418   6.140
 1972SOL     OW 6814   5.529   2.745   2.848
 1972SOL    HW1 6815   5.523   2.845   2.851
 1972SOL    HW2 6816   5.468   2.706   2.916
 1973SOL     OW 6817   2.534   3.222   0.682
 1973SOL    HW1 6818   2.610   3.284   0.698
 1973SOL    HW2 6819   2.449   3.265   0.710
 1974SOL     OW 6820   5.652   6.291   4.229
 1974SOL    HW1 6821   5.606   6.214   4.184
 1974SOL    HW2 6822   5.751   6.280   4.220
 1975SOL     OW 6823   2.491   1.504   3.103
 1975SOL    HW1 6824   2.403   1.457   3.101
 1975SOL    HW2 6825   2.483   1.586   3.160
 1976SOL     OW 6826   0.298   5.954   0.398
 1976SOL    HW1 6827   0.253   5.873   0.363
 1976SOL    HW2 6828   0.323   6.014   0.322
 1977SOL     OW 6829   1.028   3.140   3.638
 1977SOL    HW1 6830   1.050   3.185   3.724
 1977SOL    HW2 6831   1.111   3.130   3.583
 1978SOL     OW 6832   0.666   1.249   3.449
 1978SOL    HW1 6833   0.729   1.251   3.371
 1978SOL    HW2 6834   0.573   1.270   3.417
 1979SOL     OW 6835   6.384   4.223   5.528
 1979SOL    HW1 6836   6.444   4.144   5.532
 1979SOL    HW2 6837   6.429   4.297   5.477
 1980SOL     OW 6838   2.953   0.764   5.960
 1980SOL    HW1 6839   2.914   0.730   5.874
 1980SOL    HW2 6840   2.908   0.718   6.037
 1981SOL     OW 6841   6.488   2.326   2.804
 1981SOL    HW1 6842   6.432   2.406   2.782
 1981SOL    HW2 6843   6.432   2.244   2.798
 1982SOL     OW 6844   0.215   3.796   5.266
 1982SOL    HW1 6845   0.157   3.725   5.227
 1982SOL    HW2 6846   0.310   3.781   5.236
 1983SOL     OW 6847   0.621   1.242   2.989
 1983SOL    HW1 6848   0.559   1.200   2.923
 1983SOL    HW2 6849   0.581   1.326   3.025
 1984SOL     OW 6850   5.928   1.670   4.716
 1984SOL    HW1 6851   5.998   1.688   4.646
 1984SOL    HW2 6852   5.971   1.624   4.793
 1985SOL     OW 6853   0.955   0.082   2.765
 1985SOL    HW1 6854   0.964   0.020   2.842
 1985SOL    HW2 6855   0.883   0.050   2.704
 1986SOL     OW 6856   1.792   0.473   7.013
 1986SOL    HW1 6857   1.695   0.496   7.005
 1986SOL    HW2 6858   1.805   0.377   6.987
 1987SOL     OW 6859   1.054   2.900   0.979
 1987SOL    HW1 6860   1.135   2.868   0.930
 1987SOL    HW2 6861   1.050   2.858   1.069
 1988SOL     OW 6862   5.553   4.833   1.077
 1988SOL    HW1 6863   5.487   4.836   1.002
 1988SOL    HW2 6864   5.544   4.915   1.134
 1989SOL     OW 6865   2.304   6.498   4.502
 1989SOL    HW1 6866   2.390   6.525   4.544
 1989SOL    HW2 6867   2.244   6.457   4.571
 1990SOL     OW 6868   3.266   6.197   0.408
 1990SOL    HW1 6869   3.251   6.135   0.485
 1990SOL    HW2 6870   3.364   6.218   0.401
 1991SOL     OW 6871   4.187   4.770   6.547
 1991SOL    HW1 6872   4.219   4.760   6.453
 1991SOL    HW2 6873   4.236   4.845   6.591
 1992SOL     OW 6874   0.487   0.332   6.733
 1992SOL    HW1 6875   0.465   0.348   6.829
 1992SOL    HW2 6876   0.583   0.352   6.718
 1993SOL     OW 6877   3.729   3.259   4.703
 1993SOL    HW1 6878   3.798   3.188   4.720
 1993SOL    HW2 6879   3.702   3.301   4.790
 1994SOL     OW 6880   1.209   1.491   0.195
 1994SOL    HW1 6881   1.180   1.582   0.224
 1994SOL    HW2 6882   1.273   1.453   0.261
 1995SOL     OW 6883   5.838   2.323   2.393
 1995SOL    HW1 6884   5.822   2.296   2.298
 1995SOL    HW2 6885   5.871   2.418   2.395
 1996SOL     OW 6886   2.516   3.734   0.596
 1996SOL    HW1 6887   2.463   3.794   0.536
 1996SOL    HW2 6888   2.460   3.709   0.675
 1997SOL     OW 6889   4.468   0.651   4.788
 1997SOL    HW1 6890   4.378   0.608   4.788
 1997SOL    HW2 6891   4.459   0.748   4.766
 1998SOL     OW 6892   3.305   3.658   5.934
 1998SOL    HW1 6893   3.332   3.635   5.841
 1998SOL    HW2 6894   3.348   3.595   5.999
 1999SOL     OW 6895   3.703   6.487   1.503
 1999SOL    HW1 6896   3.698   6.387   1.504
 1999SOL    HW2 6897   3.707   6.520   1.597
 2000SOL     OW 6898   4.312   2.115   5.134
 2000SOL    HW1 6899   4.410   2.107   5.154
 2000SOL    HW2 6900   4.294   2.087   5.040
 2001SOL     OW 6901   3.425   1.369   1.974
 2001SOL    HW1 6902   3.489   1.324   2.036
 2001SOL    HW2 6903   3.420   1.318   1.888
 2002SOL     OW 6904   0.718   4.770   5.644
 2002SOL    HW1 6905   0.625   4.779   5.680
 2002SOL    HW2 6906   0.774   4.720   5.710
 2003SOL     OW 6907   5.900   6.628   3.555
 2003SOL    HW1 6908   5.885   6.647   3.652
 2003SOL    HW2 6909   5.991   6.661   3.529
 2004SOL     OW 6910   4.181   1.551   5.127
 2004SOL    HW1 6911   4.143   1.488   5.195
 2004SOL    HW2 6912   4.135   1.536   5.039
 2005SOL     OW 6913   1.207   4.406   6.914
 2005SOL    HW1 6914   1.297   4.433   6.947
 2005SOL    HW2 6915   1.154   4.366   6.989
 2006SOL     OW 6916   5.368   5.193   4.177
 2006SOL    HW1 6917   5.350   5.276   4.231
 2006SOL    HW2 6918   5.421   5.129   4.232
 2007SOL     OW 6919   4.326   5.004   1.157
 2007SOL    HW1 6920   4.258   4.982   1.087
 2007SOL    HW2 6921   4.332   5.103   1.167
 2008SOL     OW 6922   1.544   5.445   3.127
 2008SOL    HW1 6923   1.588   5.498   3.200
 2008SOL    HW2 6924   1.614   5.412   3.064
 2009SOL     OW 6925   5.944   0.026   1.685
 2009SOL    HW1 6926   6.013   6.981   1.672
 2009SOL    HW2 6927   5.892   0.039   1.601
 2010SOL     OW 6928   1.835   1.622   0.845
 2010SOL    HW1 6929   1.902   1.690   0.873
 2010SOL    HW2 6930   1.882   1.536   0.823
 2011SOL     OW 6931   6.671   1.386   5.157
 2011SOL    HW1 6932   6.765   1.406   5.128
 2011SOL    HW2 6933   6.637   1.306   5.108
 2012SOL     OW 6934   1.464   3.187   1.721
 2012SOL    HW1 6935   1.503   3.099   1.751
 2012SOL    HW2 6936   1.373   3.172   1.684
 2013SOL     OW 6937   6.209   1.074   3.295
 2013SOL    HW1 6938   6.246   0.981   3.302
 2013SOL    HW2 6939   6.109   1.069   3.302
 2014SOL     OW 6940   1.967   5.321   2.510
 2014SOL    HW1 6941   2.049   5.341   2.457
 2014SOL    HW2 6942   1.961   5.222   2.525
 2015SOL     OW 6943   2.282   1.645   0.435
 2015SOL    HW1 6944   2.205   1.584   0.420
 2015SOL    HW2 6945   2.306   1.692   0.350
 2016SOL     OW 6946   0.921   5.218   5.200
 2016SOL    HW1 6947   0.987   5.205   5.275
 2016SOL    HW2 6948   0.883   5.129   5.174
 2017SOL     OW 6949   2.398   6.934   4.403
 2017SOL    HW1 6950   2.341   6.870   4.351
 2017SOL    HW2 6951   2.481   6.886   4.434
 2018SOL     OW 6952   5.763   0.038   5.684
 2018SOL    HW1 6953   5.751   0.031   5.585
 2018SOL    HW2 6954   5.675   0.061   5.727
 2019SOL     OW 6955   4.735   2.263   2.190
 2019SOL    HW1 6956   4.717   2.348   2.141
 2019SOL    HW2 6957   4.826   2.266   2.231
 2020SOL     OW 6958   0.625   5.723   5.176
 2020SOL    HW1 6959   0.643   5.711   5.079
 2020SOL    HW2 6960   0.710   5.746   5.224
 2021SOL     OW 6961   2.217   5.532   3.144
 2021SOL    HW1 6962   2.171   5.575   3.222
 2021SOL    HW2 6963   2.212   5.432   3.154
 2022SOL     OW 6964   1.909   3.258   3.245
 2022SOL    HW1 6965   1.837   3.190   3.231
 2022SOL    HW2 6966   1.972   3.256   3.167
 2023SOL     OW 6967   6.457   0.722   6.409
 2023SOL    HW1 6968   6.417   0.679   6.490
 2023SOL    HW2 6969   6.478   0.652   6.341
 2024SOL     OW 6970   6.768   0.071   3.458
 2024SOL    HW1 6971   6.847   0.076   3.519
 2024SOL    HW2 6972   6.738   0.164   3.436
 2025SOL     OW 6973   2.537   2.366   2.401
 2025SOL    HW1 6974   2.524   2.281   2.451
 2025SOL    HW2 6975   2.606   2.353   2.329
 2026SOL     OW 6976   0.574   2.879   6.239
 2026SOL    HW1 6977   0.591   2.962   6.186
 2026SOL    HW2 6978   0.646   2.869   6.309
 2027SOL     OW 6979   0.703   1.341   0.398
 2027SOL    HW1 6980   0.672   1.257   0.443
 2027SOL    HW2 6981   0.800   1.334   0.376
 2028SOL     OW 6982   2.885   1.019   6.008
 2028SOL    HW1 6983   2.839   1.068   5.934
 2028SOL    HW2 6984   2.926   0.936   5.972
 2029SOL     OW 6985   6.205   0.666   1.012
 2029SOL    HW1 6986   6.164   0.757   1.022
 2029SOL    HW2 6987   6.296   0.666   1.053
 2030SOL     OW 6988   1.931   0.472   3.413
 2030SOL    HW1 6989   1.993   0.511   3.345
 2030SOL    HW2 6990   1.836   0.491   3.387
 2031SOL     OW 6991   5.956   6.006   2.150
 2031SOL    HW1 6992   5.921   5.962   2.233
 2031SOL    HW2 6993   5.952   6.106   2.162
 2032SOL     OW 6994   4.350   6.344   1.639
 2032SOL    HW1 6995   4.325   6.441   1.634
 2032SOL    HW2 6996   4.305   6.295   1.565
 2033SOL     OW 6997   3.624   4.060   0.058
 2033SOL    HW1 6998   3.575   4.138   0.095
 2033SOL    HW2 6999   3.665   4.084   6.997
 2034SOL     OW 7000   3.268   6.524   4.566
 2034SOL    HW1 7001   3.223   6.539   4.654
 2034SOL    HW2 7002   3.252   6.431   4.535
 2035SOL     OW 7003   6.822   0.570   1.845
 2035SOL    HW1 7004   6.783   0.587   1.936
 2035SOL    HW2 7005   6.756   0.598   1.775
 2036SOL     OW 7006   0.893   5.333   2.820
 2036SOL    HW1 7007   0.988   5.355   2.841
 2036SOL    HW2 7008   0.884   5.234   2.808
 2037SOL     OW 7009   0.584   2.725   5.777
 2037SOL    HW1 7010   0.581   2.705   5.875
 2037SOL    HW2 7011   0.544   2.649   5.726
 2038SOL     OW 7012   1.672   2.225   6.804
 2038SOL    HW1 7013   1.597   2.289   6.799
 2038SOL    HW2 7014   1.740   2.257   6.870
 2039SOL     OW 7015   0.704   5.456   3.420
 2039SOL    HW1 7016   0.621   5.411   3.454
 2039SOL    HW2 7017   0.711   5.547   3.459
 2040SOL     OW 7018   4.003   2.888   5.251
 2040SOL    HW1 7019   3.924   2.853   5.301
 2040SOL    HW2 7020   3.974   2.963   5.191
 2041SOL     OW 7021   0.154   5.751   5.824
 2041SOL    HW1 7022   0.172   5.771   5.920
 2041SOL    HW2 7023   0.146   5.837   5.773
 2042SOL     OW 7024   5.966   4.381   6.807
 2042SOL    HW1 7025   5.916   4.388   6.894
 2042SOL    HW2 7026   5.992   4.472   6.775
 2043SOL     OW 7027   6.375   4.179   2.919
 2043SOL    HW1 7028   6.411   4.229   2.840
 2043SOL    HW2 7029   6.275   4.189   2.921
 2044SOL     OW 7030   5.117   7.026   1.316
 2044SOL    HW1 7031   5.096   6.976   1.231
 2044SOL    HW2 7032   5.201   6.990   1.356
 2045SOL     OW 7033   3.142   4.998   3.839
 2045SOL    HW1 7034   3.087   5.077   3.812
 2045SOL    HW2 7035   3.086   4.915   3.836
 2046SOL     OW 7036   0.175   1.453   3.873
 2046SOL    HW1 7037   0.252   1.389   3.885
 2046SOL    HW2 7038   0.193   1.536   3.926
 2047SOL     OW 7039   5.516   2.347   0.271
 2047SOL    HW1 7040   5.602   2.397   0.263
 2047SOL    HW2 7041   5.509   2.307   0.363
 2048SOL     OW 7042   1.446   5.880   0.351
 2048SOL    HW1 7043   1.396   5.826   0.419
 2048SOL    HW2 7044   1.439   5.977   0.373
 2049SOL     OW 7045   5.122   1.925   6.369
 2049SOL    HW1 7046   5.102   2.013   6.412
 2049SOL    HW2 7047   5.102   1.930   6.271
 2050SOL     OW 7048   0.390   2.991   2.878
 2050SOL    HW1 7049   0.436   3.073   2.912
 2050SOL    HW2 7050   0.294   3.013   2.859
 2051SOL     OW 7051   1.194   6.120   0.729
 2051SOL    HW1 7052   1.117   6.151   0.785
 2051SOL    HW2 7053   1.159   6.065   0.652
 2052SOL     OW 7054   0.884   4.220   1.077
 2052SOL    HW1 7055   0.940   4.138   1.087
 2052SOL    HW2 7056   0.806   4.201   1.017
 2053SOL     OW 7057   5.628   6.766   4.876
 2053SOL    HW1 7058   5.532   6.791   4.891
 2053SOL    HW2 7059   5.641   6.670   4.900
 2054SOL     OW 7060   3.967   3.206   1.899
 2054SOL    HW1 7061   3.964   3.127   1.960
 2054SOL    HW2 7062   3.880   3.214   1.850
 2055SOL     OW 7063   6.314   3.387   3.771
 2055SOL    HW1 7064   6.254   3.321   3.725
 2055SOL    HW2 7065   6.302   3.379   3.870
 2056SOL     OW 7066   2.344   0.377   2.966
 2056SOL    HW1 7067   2.273   0.380   3.036
 2056SOL    HW2 7068   2.301   0.360   2.877
 2057SOL     OW 7069   5.512   3.219   3.750
 2057SOL    HW1 7070   5.423   3.203   3.793
 2057SOL    HW2 7071   5.524   3.153   3.675
 2058SOL     OW 7072   0.948   1.895   3.192
 2058SOL    HW1 7073   0.871   1.901   3.255
 2058SOL    HW2 7074   0.943   1.808   3.142
 2059SOL     OW 7075   2.969   6.105   6.064
 2059SOL    HW1 7076   2.993   6.013   6.034
 2059SOL    HW2 7077   2.879   6.130   6.027
 2060SOL     OW 7078   5.916   4.783   0.700
 2060SOL    HW1 7079   5.945   4.695   0.661
 2060SOL    HW2 7080   5.890   4.845   0.626
 2061SOL     OW 7081   0.309   1.808   3.410
 2061SOL    HW1 7082   0.332   1.797   3.507
 2061SOL    HW2 7083   0.305   1.905   3.387
 2062SOL     OW 7084   5.982   0.346   3.606
 2062SOL    HW1 7085   5.966   0.290   3.525
 2062SOL    HW2 7086   6.074   0.329   3.640
 2063SOL     OW 7087   1.716   6.888   6.425
 2063SOL    HW1 7088   1.702   6.926   6.517
 2063SOL    HW2 7089   1.695   6.958   6.357
 2064SOL     OW 7090   0.748   2.614   5.532
 2064SOL    HW1 7091   0.684   2.690   5.543
 2064SOL    HW2 7092   0.752   2.588   5.436
 2065SOL     OW 7093   6.505   2.633   4.892
 2065SOL    HW1 7094   6.593   2.673   4.866
 2065SOL    HW2 7095   6.476   2.567   4.823
 2066SOL     OW 7096   1.074   5.167   3.718
 2066SOL    HW1 7097   1.039   5.147   3.810
 2066SOL    HW2 7098   1.163   5.123   3.706
 2067SOL     OW 7099   6.510   5.637   0.962
 2067SOL    HW1 7100   6.582   5.571   0.938
 2067SOL    HW2 7101   6.508   5.710   0.894
 2068SOL     OW 7102   1.588   1.501   5.084
 2068SOL    HW1 7103   1.631   1.412   5.101
 2068SOL    HW2 7104   1.649   1.557   5.029
 2069SOL     OW 7105   0.677   3.222   3.107
 2069SOL    HW1 7106   0.770   3.216   3.071
 2069SOL    HW2 7107   0.678   3.197   3.204
 2070SOL     OW 7108   1.504   1.032   2.041
 2070SOL    HW1 7109   1.416   1.063   2.078
 2070SOL    HW2 7110   1.516   0.935   2.061
 2071SOL     OW 7111   5.740   5.756   5.262
 2071SOL    HW1 7112   5.772   5.833   5.207
 2071SOL    HW2 7113   5.656   5.720   5.223
 2072SOL     OW 7114   4.028   6.866   2.998
 2072SOL    HW1 7115   4.087   6.867   3.079
 2072SOL    HW2 7116   3.992   6.774   2.984
 2073SOL     OW 7117   3.770   6.875   4.328
 2073SOL    HW1 7118   3.777   6.794   4.387
 2073SOL    HW2 7119   3.688   6.867   4.271
 2074SOL     OW 7120   1.754   2.840   0.496
 2074SOL    HW1 7121   1.724   2.907   0.428
 2074SOL    HW2 7122   1.786   2.758   0.450
 2075SOL     OW 7123   5.413   3.121   1.262
 2075SOL    HW1 7124   5.395   3.039   1.208
 2075SOL    HW2 7125   5.342   3.131   1.332
 2076SOL     OW 7126   5.248   0.147   6.474
 2076SOL    HW1 7127   5.199   0.224   6.515
 2076SOL    HW2 7128   5.319   0.115   6.537
 2077SOL     OW 7129   5.485   2.805   2.564
 2077SOL    HW1 7130   5.511   2.808   2.660
 2077SOL    HW2 7131   5.386   2.820   2.556
 2078SOL     OW 7132   1.122   5.306   5.679
 2078SOL    HW1 7133   1.032   5.268   5.699
 2078SOL    HW2 7134   1.114   5.373   5.604
 2079SOL     OW 7135   5.185   2.359   3.879
 2079SOL    HW1 7136   5.150   2.372   3.971
 2079SOL    HW2 7137   5.118   2.310   3.824
 2080SOL     OW 7138   1.751   0.685   4.896
 2080SOL    HW1 7139   1.740   0.784   4.906
 2080SOL    HW2 7140   1.788   0.647   4.980
 2081SOL     OW 7141   1.420   5.219   3.880
 2081SOL    HW1 7142   1.364   5.302   3.870
 2081SOL    HW2 7143   1.386   5.149   3.817
 2082SOL     OW 7144   0.258   6.992   3.391
 2082SOL    HW1 7145   0.175   6.953   3.351
 2082SOL    HW2 7146   0.330   6.994   3.322
 2083SOL     OW 7147   6.205   4.816   6.450
 2083SOL    HW1 7148   6.200   4.903   6.499
 2083SOL    HW2 7149   6.270   4.756   6.496
 2084SOL     OW 7150   1.618   3.529   3.706
 2084SOL    HW1 7151   1.611   3.431   3.693
 2084SOL    HW2 7152   1.592   3.576   3.622
 2085SOL     OW 7153   4.404   0.480   0.147
 2085SOL    HW1 7154   4.352   0.396   0.161
 2085SOL    HW2 7155   4.496   0.469   0.184
 2086SOL     OW 7156   3.871   6.904   5.471
 2086SOL    HW1 7157   3.784   6.938   5.506
 2086SOL    HW2 7158   3.855   6.825   5.412
 2087SOL     OW 7159   4.879   0.120   1.423
 2087SOL    HW1 7160   4.969   0.078   1.413
 2087SOL    HW2 7161   4.890   0.219   1.435
 2088SOL     OW 7162   2.109   5.884   0.073
 2088SOL    HW1 7163   2.162   5.837   0.001
 2088SOL    HW2 7164   2.151   5.867   0.162
 2089SOL     OW 7165   5.184   2.413   6.200
 2089SOL    HW1 7166   5.208   2.495   6.251
 2089SOL    HW2 7167   5.122   2.356   6.255
 2090SOL     OW 7168   3.522   3.297   6.118
 2090SOL    HW1 7169   3.453   3.367   6.135
 2090SOL    HW2 7170   3.497   3.213   6.166
 2091SOL     OW 7171   0.059   5.451   0.539
 2091SOL    HW1 7172   0.045   5.363   0.583
 2091SOL    HW2 7173   0.157   5.473   0.539
 2092SOL     OW 7174   5.458   4.210   6.902
 2092SOL    HW1 7175   5.462   4.144   6.826
 2092SOL    HW2 7176   5.487   4.300   6.870
 2093SOL     OW 7177   2.748   2.139   1.088
 2093SOL    HW1 7178   2.726   2.110   1.181
 2093SOL    HW2 7179   2.847   2.150   1.078
 2094SOL     OW 7180   6.025   1.920   1.674
 2094SOL    HW1 7181   5.966   1.868   1.736
 2094SOL    HW2 7182   6.121   1.908   1.702
 2095SOL     OW 7183   5.391   6.820   4.989
 2095SOL    HW1 7184   5.395   6.886   5.064
 2095SOL    HW2 7185   5.364   6.731   5.025
 2096SOL     OW 7186   4.899   4.126   2.842
 2096SOL    HW1 7187   4.813   4.125   2.790
 2096SOL    HW2 7188   4.893   4.060   2.917
 2097SOL     OW 7189   2.810   3.092   6.730
 2097SOL    HW1 7190   2.836   2.996   6.733
 2097SOL    HW2 7191   2.831   3.136   6.818
 2098SOL     OW 7192   4.204   5.711   2.347
 2098SOL    HW1 7193   4.272   5.782   2.330
 2098SOL    HW2 7194   4.114   5.753   2.358
 2099SOL     OW 7195   2.633   3.057   6.113
 2099SOL    HW1 7196   2.558   3.081   6.050
 2099SOL    HW2 7197   2.635   2.959   6.127
 2100SOL     OW 7198   4.510   2.433   6.292
 2100SOL    HW1 7199   4.430   2.376   6.270
 2100SOL    HW2 7200   4.499   2.471   6.384
 2101SOL     OW 7201   1.149   6.533   2.607
 2101SOL    HW1 7202   1.227   6.592   2.587
 2101SOL    HW2 7203   1.104   6.564   2.691
 2102SOL     OW 7204   6.317   4.859   2.243
 2102SOL    HW1 7205   6.323   4.774   2.190
 2102SOL    HW2 7206   6.293   4.934   2.182
 2103SOL     OW 7207   4.065   4.673   5.420
 2103SOL    HW1 7208   4.088   4.591   5.472
 2103SOL    HW2 7209   3.966   4.682   5.414
 2104SOL     OW 7210   2.216   4.040   1.194
 2104SOL    HW1 7211   2.214   3.960   1.134
 2104SOL    HW2 7212   2.123   4.061   1.224
 2105SOL     OW 7213   5.022   5.686   5.413
 2105SOL    HW1 7214   5.041   5.648   5.322
 2105SOL    HW2 7215   5.105   5.681   5.469
 2106SOL     OW 7216   4.886   4.725   1.345
 2106SOL    HW1 7217   4.854   4.644   1.297
 2106SOL    HW2 7218   4.944   4.698   1.422
 2107SOL     OW 7219   4.922   2.509   5.420
 2107SOL    HW1 7220   4.925   2.589   5.479
 2107SOL    HW2 7221   4.966   2.432   5.467
 2108SOL     OW 7222   6.134   5.312   5.099
 2108SOL    HW1 7223   6.111   5.295   5.195
 2108SOL    HW2 7224   6.073   5.383   5.063
 2109SOL     OW 7225   4.308   6.048   2.511
 2109SOL    HW1 7226   4.224   6.036   2.459
 2109SOL    HW2 7227   4.330   5.963   2.560
 2110SOL     OW 7228   2.461   1.471   7.019
 2110SOL    HW1 7229   2.517   1.546   0.027
 2110SOL    HW2 7230   2.495   1.441   6.930
 2111SOL     OW 7231   1.333   2.315   6.598
 2111SOL    HW1 7232   1.248   2.262   6.605
 2111SOL    HW2 7233   1.377   2.319   6.688
 2112SOL     OW 7234   5.444   3.481   0.505
 2112SOL    HW1 7235   5.455   3.405   0.568
 2112SOL    HW2 7236   5.517   3.479   0.437
 2113SOL     OW 7237   2.217   2.075   5.594
 2113SOL    HW1 7238   2.119   2.059   5.586
 2113SOL    HW2 7239   2.263   2.048   5.510
 2114SOL     OW 7240   1.433   2.057   6.840
 2114SOL    HW1 7241   1.339   2.084   6.861
 2114SOL    HW2 7242   1.493   2.137   6.848
 2115SOL     OW 7243   2.040   3.265   2.384
 2115SOL    HW1 7244   2.077   3.250   2.292
 2115SOL    HW2 7245   1.958   3.209   2.397
 2116SOL     OW 7246   0.316   5.133   3.354
 2116SOL    HW1 7247   0.224   5.141   3.394
 2116SOL    HW2 7248   0.309   5.091   3.264
 2117SOL     OW 7249   6.940   5.029   1.543
 2117SOL    HW1 7250   6.988   4.948   1.511
 2117SOL    HW2 7251   7.001   5.108   1.540
 2118SOL     OW 7252   6.170   3.616   1.976
 2118SOL    HW1 7253   6.151   3.599   1.880
 2118SOL    HW2 7254   6.155   3.713   1.996
 2119SOL     OW 7255   1.666   6.192   1.085
 2119SOL    HW1 7256   1.673   6.109   1.140
 2119SOL    HW2 7257   1.602   6.176   1.009
 2120SOL     OW 7258   6.723   5.205   4.286
 2120SOL    HW1 7259   6.765   5.295   4.273
 2120SOL    HW2 7260   6.794   5.135   4.276
 2121SOL     OW 7261   1.713   4.233   5.940
 2121SOL    HW1 7262   1.687   4.324   5.972
 2121SOL    HW2 7263   1.810   4.233   5.916
 2122SOL     OW 7264   5.896   3.783   5.860
 2122SOL    HW1 7265   5.907   3.881   5.851
 2122SOL    HW2 7266   5.862   3.745   5.774
 2123SOL     OW 7267   6.756   6.139   2.394
 2123SOL    HW1 7268   6.832   6.182   2.345
 2123SOL    HW2 7269   6.723   6.060   2.342
 2124SOL     OW 7270   2.993   1.762   1.247
 2124SOL    HW1 7271   2.988   1.816   1.331
 2124SOL    HW2 7272   3.052   1.683   1.262
 2125SOL     OW 7273   2.115   0.898   1.990
 2125SOL    HW1 7274   2.204   0.929   1.955
 2125SOL    HW2 7275   2.044   0.925   1.925
 2126SOL     OW 7276   3.571   1.515   6.458
 2126SOL    HW1 7277   3.540   1.422   6.478
 2126SOL    HW2 7278   3.581   1.526   6.359
 2127SOL     OW 7279   0.275   3.623   4.793
 2127SOL    HW1 7280   0.287   3.571   4.878
 2127SOL    HW2 7281   0.267   3.560   4.716
 2128SOL     OW 7282   6.768   3.295   3.774
 2128SOL    HW1 7283   6.716   3.379   3.759
 2128SOL    HW2 7284   6.798   3.258   3.686
 2129SOL     OW 7285   4.263   3.380   5.483
 2129SOL    HW1 7286   4.228   3.471   5.503
 2129SOL    HW2 7287   4.334   3.356   5.548
 2130SOL     OW 7288   3.285   0.789   2.590
 2130SOL    HW1 7289   3.241   0.836   2.666
 2130SOL    HW2 7290   3.264   0.691   2.595
 2131SOL     OW 7291   5.415   1.099   0.888
 2131SOL    HW1 7292   5.370   1.184   0.862
 2131SOL    HW2 7293   5.406   1.032   0.814
 2132SOL     OW 7294   3.366   0.325   1.749
 2132SOL    HW1 7295   3.410   0.238   1.771
 2132SOL    HW2 7296   3.365   0.384   1.829
 2133SOL     OW 7297   3.515   3.047   0.528
 2133SOL    HW1 7298   3.466   3.028   0.613
 2133SOL    HW2 7299   3.468   3.004   0.452
 2134SOL     OW 7300   6.702   1.245   6.356
 2134SOL    HW1 7301   6.789   1.201   6.330
 2134SOL    HW2 7302   6.627   1.200   6.308
 2135SOL     OW 7303   1.337   3.397   4.930
 2135SOL    HW1 7304   1.280   3.475   4.903
 2135SOL    HW2 7305   1.351   3.337   4.852
 2136SOL     OW 7306   1.696   3.485   3.233
 2136SOL    HW1 7307   1.738   3.415   3.290
 2136SOL    HW2 7308   1.617   3.446   3.186
 2137SOL     OW 7309   2.824   5.385   5.001
 2137SOL    HW1 7310   2.922   5.393   5.020
 2137SOL    HW2 7311   2.809   5.374   4.903
 2138SOL     OW 7312   6.528   0.444   2.773
 2138SOL    HW1 7313   6.605   0.395   2.816
 2138SOL    HW2 7314   6.501   0.520   2.832
 2139SOL     OW 7315   3.568   0.445   3.605
 2139SOL    HW1 7316   3.605   0.503   3.677
 2139SOL    HW2 7317   3.544   0.501   3.526
 2140SOL     OW 7318   3.883   6.559   4.010
 2140SOL    HW1 7319   3.861   6.477   3.958
 2140SOL    HW2 7320   3.971   6.595   3.980
 2141SOL     OW 7321   6.831   3.630   2.164
 2141SOL    HW1 7322   6.838   3.717   2.115
 2141SOL    HW2 7323   6.895   3.629   2.241
 2142SOL     OW 7324   2.206   1.771   2.870
 2142SOL    HW1 7325   2.224   1.805   2.962
 2142SOL    HW2 7326   2.241   1.836   2.803
 2143SOL     OW 7327   2.926   4.789   1.513
 2143SOL    HW1 7328   2.864   4.867   1.505
 2143SOL    HW2 7329   3.017   4.821   1.538
 2144SOL     OW 7330   1.315   5.488   3.792
 2144SOL    HW1 7331   1.301   5.461   3.697
 2144SOL    HW2 7332   1.227   5.490   3.839
 2145SOL     OW 7333   4.419   6.023   3.988
 2145SOL    HW1 7334   4.403   6.102   3.929
 2145SOL    HW2 7335   4.513   5.992   3.977
 2146SOL     OW 7336   2.585   3.797   1.588
 2146SOL    HW1 7337   2.641   3.862   1.639
 2146SOL    HW2 7338   2.517   3.847   1.534
 2147SOL     OW 7339   6.477   1.614   6.048
 2147SOL    HW1 7340   6.391   1.573   6.079
 2147SOL    HW2 7341   6.458   1.689   5.985
 2148SOL     OW 7342   6.165   3.269   5.274
 2148SOL    HW1 7343   6.068   3.291   5.261
 2148SOL    HW2 7344   6.205   3.243   5.186
 2149SOL     OW 7345   3.373   1.846   1.294
 2149SOL    HW1 7346   3.435   1.831   1.217
 2149SOL    HW2 7347   3.306   1.772   1.299
 2150SOL     OW 7348   2.541   2.292   1.929
 2150SOL    HW1 7349   2.530   2.209   1.874
 2150SOL    HW2 7350   2.454   2.341   1.933
 2151SOL     OW 7351   1.174   0.378   5.671
 2151SOL    HW1 7352   1.268   0.366   5.702
 2151SOL    HW2 7353   1.142   0.294   5.627
 2152SOL     OW 7354   3.576   5.856   1.823
 2152SOL    HW1 7355   3.502   5.923   1.837
 2152SOL    HW2 7356   3.598   5.852   1.725
 2153SOL     OW 7357   3.823   1.090   2.774
 2153SOL    HW1 7358   3.867   1.046   2.695
 2153SOL    HW2 7359   3.748   1.032   2.807
 2154SOL     OW 7360   5.115   0.862   5.107
 2154SOL    HW1 7361   5.201   0.812   5.093
 2154SOL    HW2 7362   5.111   0.938   5.043
 2155SOL     OW 7363   2.788   5.967   0.362
 2155SOL    HW1 7364   2.745   5.877   0.351
 2155SOL    HW2 7365   2.752   6.029   0.292
 2156SOL     OW 7366   1.584   1.733   5.257
 2156SOL    HW1 7367   1.634   1.803   5.205
 2156SOL    HW2 7368   1.589   1.646   5.209
 2157SOL     OW 7369   5.685   0.655   3.345
 2157SOL    HW1 7370   5.640   0.737   3.309
 2157SOL    HW2 7371   5.784   0.669   3.344
 2158SOL     OW 7372   3.928   6.071   1.326
 2158SOL    HW1 7373   3.965   6.136   1.260
 2158SOL    HW2 7374   3.831   6.054   1.306
 2159SOL     OW 7375   1.035   6.326   5.276
 2159SOL    HW1 7376   0.982   6.271   5.212
 2159SOL    HW2 7377   1.125   6.283   5.290
 2160SOL     OW 7378   4.351   4.037   0.337
 2160SOL    HW1 7379   4.326   4.085   0.252
 2160SOL    HW2 7380   4.343   3.939   0.323
 2161SOL     OW 7381   5.598   5.006   2.628
 2161SOL    HW1 7382   5.611   5.027   2.725
 2161SOL    HW2 7383   5.501   5.017   2.605
 2162SOL     OW 7384   2.014   1.011   1.761
 2162SOL    HW1 7385   2.036   1.104   1.790
 2162SOL    HW2 7386   1.916   1.005   1.742
 2163SOL     OW 7387   1.285   4.714   5.780
 2163SOL    HW1 7388   1.337   4.693   5.698
 2163SOL    HW2 7389   1.207   4.652   5.787
 2164SOL     OW 7390   1.507   2.734   0.270
 2164SOL    HW1 7391   1.431   2.797   0.287
 2164SOL    HW2 7392   1.559   2.765   0.190
 2165SOL     OW 7393   0.307   1.852   2.528
 2165SOL    HW1 7394   0.389   1.881   2.577
 2165SOL    HW2 7395   0.265   1.775   2.575
 2166SOL     OW 7396   1.456   2.421   5.274
 2166SOL    HW1 7397   1.555   2.423   5.287
 2166SOL    HW2 7398   1.426   2.503   5.225
 2167SOL     OW 7399   1.874   1.946   3.157
 2167SOL    HW1 7400   1.784   1.907   3.175
 2167SOL    HW2 7401   1.871   2.045   3.173
 2168SOL     OW 7402   0.879   2.264   3.909
 2168SOL    HW1 7403   0.892   2.195   3.838
 2168SOL    HW2 7404   0.906   2.226   3.997
 2169SOL     OW 7405   5.440   1.246   6.793
 2169SOL    HW1 7406   5.466   1.292   6.709
 2169SOL    HW2 7407   5.512   1.181   6.820
 2170SOL     OW 7408   6.562   4.374   5.925
 2170SOL    HW1 7409   6.491   4.363   5.856
 2170SOL    HW2 7410   6.647   4.401   5.881
 2171SOL     OW 7411   0.323   5.322   1.164
 2171SOL    HW1 7412   0.365   5.241   1.204
 2171SOL    HW2 7413   0.338   5.401   1.225
 2172SOL     OW 7414   1.833   2.333   0.477
 2172SOL    HW1 7415   1.889   2.412   0.499
 2172SOL    HW2 7416   1.741   2.345   0.516
 2173SOL     OW 7417   3.456   0.837   5.243
 2173SOL    HW1 7418   3.450   0.786   5.329
 2173SOL    HW2 7419   3.401   0.920   5.250
 2174SOL     OW 7420   5.529   6.267   5.406
 2174SOL    HW1 7421   5.457   6.332   5.433
 2174SOL    HW2 7422   5.615   6.316   5.396
 2175SOL     OW 7423   2.265   2.862   4.470
 2175SOL    HW1 7424   2.230   2.946   4.429
 2175SOL    HW2 7425   2.209   2.838   4.550
 2176SOL     OW 7426   6.571   2.073   0.914
 2176SOL    HW1 7427   6.583   2.073   0.814
 2176SOL    HW2 7428   6.482   2.033   0.937
 2177SOL     OW 7429   6.934   2.003   3.451
 2177SOL    HW1 7430   6.980   2.091   3.445
 2177SOL    HW2 7431   6.871   1.993   3.374
 2178SOL     OW 7432   1.949   2.088   1.129
 2178SOL    HW1 7433   1.932   2.161   1.196
 2178SOL    HW2 7434   2.045   2.090   1.101
 2179SOL     OW 7435   1.740   5.123   4.666
 2179SOL    HW1 7436   1.823   5.073   4.644
 2179SOL    HW2 7437   1.671   5.106   4.595
 2180SOL     OW 7438   1.848   2.342   1.618
 2180SOL    HW1 7439   1.914   2.274   1.585
 2180SOL    HW2 7440   1.765   2.338   1.563
 2181SOL     OW 7441   4.719   5.059   4.508
 2181SOL    HW1 7442   4.674   5.140   4.546
 2181SOL    HW2 7443   4.654   4.983   4.504
 2182SOL     OW 7444   1.601   3.901   3.974
 2182SOL    HW1 7445   1.555   3.914   3.886
 2182SOL    HW2 7446   1.533   3.900   4.047
 2183SOL     OW 7447   2.818   3.845   5.780
 2183SOL    HW1 7448   2.896   3.818   5.723
 2183SOL    HW2 7449   2.758   3.905   5.728
 2184SOL     OW 7450   3.938   1.848   6.373
 2184SOL    HW1 7451   4.013   1.788   6.343
 2184SOL    HW2 7452   3.854   1.794   6.383
 2185SOL     OW 7453   0.445   1.304   1.154
 2185SOL    HW1 7454   0.349   1.324   1.177
 2185SOL    HW2 7455   0.449   1.269   1.060
 2186SOL     OW 7456   0.456   6.043   1.853
 2186SOL    HW1 7457   0.444   5.944   1.861
 2186SOL    HW2 7458   0.404   6.077   1.774
 2187SOL     OW 7459   6.751   6.960   2.767
 2187SOL    HW1 7460   6.711   0.006   2.823
 2187SOL    HW2 7461   6.767   6.879   2.823
 2188SOL     OW 7462   6.995   6.189   4.909
 2188SOL    HW1 7463   6.931   6.184   4.833
 2188SOL    HW2 7464   7.022   6.284   4.924
 2189SOL     OW 7465   1.545   6.680   0.590
 2189SOL    HW1 7466   1.639   6.665   0.562
 2189SOL    HW2 7467   1.486   6.613   0.545
 2190SOL     OW 7468   0.119   3.659   1.964
 2190SOL    HW1 7469   0.198   3.720   1.977
 2190SOL    HW2 7470   0.035   3.710   1.985
 2191SOL     OW 7471   3.381   2.196   6.600
 2191SOL    HW1 7472   3.371   2.183   6.502
 2191SOL    HW2 7473   3.326   2.128   6.649
 2192SOL     OW 7474   4.676   0.956   2.305
 2192SOL    HW1 7475   4.752   1.001   2.259
 2192SOL    HW2 7476   4.592   1.009   2.292
 2193SOL     OW 7477   5.632   5.701   6.535
 2193SOL    HW1 7478   5.633   5.625   6.470
 2193SOL    HW2 7479   5.565   5.769   6.506
 2194SOL     OW 7480   2.878   4.166   5.623
 2194SOL    HW1 7481   2.872   4.162   5.523
 2194SOL    HW2 7482   2.807   4.109   5.663
 2195SOL     OW 7483   0.130   0.548   4.815
 2195SOL    HW1 7484   0.039   0.519   4.786
 2195SOL    HW2 7485   0.151   0.638   4.775
 2196SOL     OW 7486   2.960   6.776   5.274
 2196SOL    HW1 7487   2.912   6.863   5.285
 2196SOL    HW2 7488   3.056   6.787   5.299
 2197SOL     OW 7489   3.234   4.035   0.566
 2197SOL    HW1 7490   3.174   3.974   0.619
 2197SOL    HW2 7491   3.289   4.090   0.627
 2198SOL     OW 7492   5.523   1.366   0.081
 2198SOL    HW1 7493   5.529   1.323   7.018
 2198SOL    HW2 7494   5.614   1.394   0.111
 2199SOL     OW 7495   4.871   0.820   3.470
 2199SOL    HW1 7496   4.869   0.917   3.494
 2199SOL    HW2 7497   4.944   0.804   3.403
 2200SOL     OW 7498   2.666   1.528   5.442
 2200SOL    HW1 7499   2.587   1.572   5.484
 2200SOL    HW2 7500   2.736   1.597   5.423
 2201SOL     OW 7501   6.708   2.943   3.058
 2201SOL    HW1 7502   6.715   2.861   3.002
 2201SOL    HW2 7503   6.637   3.003   3.022
 2202SOL     OW 7504   2.902   5.629   2.123
 2202SOL    HW1 7505   2.855   5.552   2.167
 2202SOL    HW2 7506   2.966   5.594   2.054
 2203SOL     OW 7507   1.670   2.089   1.190
 2203SOL    HW1 7508   1.762   2.106   1.155
 2203SOL    HW2 7509   1.633   2.174   1.227
 2204SOL     OW 7510   3.809   1.403   1.551
 2204SOL    HW1 7511   3.815   1.425   1.454
 2204SOL    HW2 7512   3.872   1.328   1.573
 2205SOL     OW 7513   0.439   0.131   6.163
 2205SOL    HW1 7514   0.388   0.111   6.079
 2205SOL    HW2 7515   0.380   0.118   6.242
 2206SOL     OW 7516   3.522   4.763   6.569
 2206SOL    HW1 7517   3.563   4.751   6.478
 2206SOL    HW2 7518   3.584   4.817   6.626
 2207SOL     OW 7519   2.870   4.607   6.300
 2207SOL    HW1 7520   2.869   4.509   6.320
 2207SOL    HW2 7521   2.929   4.625   6.221
 2208SOL     OW 7522   1.644   6.401   2.838
 2208SOL    HW1 7523   1.663   6.307   2.811
 2208SOL    HW2 7524   1.725   6.440   2.883
 2209SOL     OW 7525   1.283   6.252   5.378
 2209SOL    HW1 7526   1.263   6.208   5.466
 2209SOL    HW2 7527   1.371   6.299   5.384
 2210SOL     OW 7528   6.650   4.853   4.452
 2210SOL    HW1 7529   6.737   4.834   4.499
 2210SOL    HW2 7530   6.593   4.771   4.455
 2211SOL     OW 7531   5.729   0.487   0.961
 2211SOL    HW1 7532   5.749   0.393   0.933
 2211SOL    HW2 7533   5.643   0.489   1.012
 2212SOL     OW 7534   2.019   5.910   6.824
 2212SOL    HW1 7535   2.035   5.923   6.922
 2212SOL    HW2 7536   1.986   5.996   6.785
 2213SOL     OW 7537   3.611   2.368   5.494
 2213SOL    HW1 7538   3.637   2.463   5.510
 2213SOL    HW2 7539   3.639   2.312   5.573
 2214SOL     OW 7540   3.606   2.884   5.178
 2214SOL    HW1 7541   3.592   2.861   5.082
 2214SOL    HW2 7542   3.665   2.964   5.186
 2215SOL     OW 7543   6.105   1.031   0.484
 2215SOL    HW1 7544   6.085   1.092   0.407
 2215SOL    HW2 7545   6.093   1.082   0.569
 2216SOL     OW 7546   1.614   0.494   6.071
 2216SOL    HW1 7547   1.655   0.531   6.154
 2216SOL    HW2 7548   1.678   0.504   5.995
 2217SOL     OW 7549   4.206   6.833   1.411
 2217SOL    HW1 7550   4.117   6.877   1.418
 2217SOL    HW2 7551   4.277   6.903   1.403
 2218SOL     OW 7552   0.249   5.881   0.039
 2218SOL    HW1 7553   0.192   5.957   0.008
 2218SOL    HW2 7554   0.213   5.846   0.126
 2219SOL     OW 7555   5.364   2.054   1.663
 2219SOL    HW1 7556   5.276   2.046   1.617
 2219SOL    HW2 7557   5.396   2.149   1.658
 2220SOL     OW 7558   1.781   0.429   4.745
 2220SOL    HW1 7559   1.720   0.417   4.823
 2220SOL    HW2 7560   1.800   0.527   4.732
 2221SOL     OW 7561   6.141   1.140   5.393
 2221SOL    HW1 7562   6.136   1.052   5.346
 2221SOL    HW2 7563   6.229   1.184   5.372
 2222SOL     OW 7564   4.880   0.815   0.476
 2222SOL    HW1 7565   4.908   0.773   0.389
 2222SOL    HW2 7566   4.948   0.795   0.546
 2223SOL     OW 7567   5.855   1.031   5.175
 2223SOL    HW1 7568   5.906   1.075   5.102
 2223SOL    HW2 7569   5.828   1.100   5.243
 2224SOL     OW 7570   0.762   3.746   0.205
 2224SOL    HW1 7571   0.675   3.780   0.239
 2224SOL    HW2 7572   0.747   3.670   0.141
 2225SOL     OW 7573   6.418   6.557   3.048
 2225SOL    HW1 7574   6.332   6.526   3.090
 2225SOL    HW2 7575   6.495   6.512   3.092
 2226SOL     OW 7576   3.626   4.811   0.877
 2226SOL    HW1 7577   3.705   4.750   0.872
 2226SOL    HW2 7578   3.631   4.879   0.804
 2227SOL     OW 7579   5.466   3.398   6.850
 2227SOL    HW1 7580   5.434   3.309   6.819
 2227SOL    HW2 7581   5.407   3.430   6.924
 2228SOL     OW 7582   3.275   4.611   1.006
 2228SOL    HW1 7583   3.208   4.536   1.013
 2228SOL    HW2 7584   3.354   4.580   0.953
 2229SOL     OW 7585   4.585   2.561   4.553
 2229SOL    HW1 7586   4.527   2.566   4.634
 2229SOL    HW2 7587   4.597   2.652   4.515
 2230SOL     OW 7588   5.748   5.737   0.023
 2230SOL    HW1 7589   5.798   5.665   0.071
 2230SOL    HW2 7590   5.728   5.708   6.956
 2231SOL     OW 7591   0.249   0.670   1.965
 2231SOL    HW1 7592   0.169   0.610   1.964
 2231SOL    HW2 7593   0.323   0.626   2.016
 2232SOL     OW 7594   0.719   2.767   5.038
 2232SOL    HW1 7595   0.761   2.837   5.095
 2232SOL    HW2 7596   0.769   2.681   5.049
 2233SOL     OW 7597   2.111   3.617   0.099
 2233SOL    HW1 7598   2.084   3.531   0.141
 2233SOL    HW2 7599   2.061   3.692   0.141
 2234SOL     OW 7600   4.027   1.700   1.731
 2234SOL    HW1 7601   3.932   1.700   1.762
 2234SOL    HW2 7602   4.059   1.794   1.719
 2235SOL     OW 7603   2.935   6.916   1.293
 2235SOL    HW1 7604   2.990   6.969   1.358
 2235SOL    HW2 7605   2.916   6.973   1.212
 2236SOL     OW 7606   1.884   4.633   6.159
 2236SOL    HW1 7607   1.844   4.642   6.068
 2236SOL    HW2 7608   1.814   4.604   6.223
 2237SOL     OW 7609   6.010   5.076   4.222
 2237SOL    HW1 7610   5.934   5.019   4.254
 2237SOL    HW2 7611   6.086   5.017   4.193
 2238SOL     OW 7612   5.280   4.739   1.475
 2238SOL    HW1 7613   5.248   4.832   1.462
 2238SOL    HW2 7614   5.379   4.736   1.461
 2239SOL     OW 7615   4.009   5.008   3.446
 2239SOL    HW1 7616   3.960   4.982   3.528
 2239SOL    HW2 7617   4.052   4.928   3.405
 2240SOL     OW 7618   5.076   5.683   3.520
 2240SOL    HW1 7619   4.991   5.671   3.469
 2240SOL    HW2 7620   5.129   5.757   3.480
 2241SOL     OW 7621   0.469   6.251   3.189
 2241SOL    HW1 7622   0.533   6.176   3.209
 2241SOL    HW2 7623   0.458   6.308   3.271
 2242SOL     OW 7624   5.142   2.474   2.922
 2242SOL    HW1 7625   5.090   2.545   2.874
 2242SOL    HW2 7626   5.089   2.389   2.922
 2243SOL     OW 7627   1.527   6.622   6.103
 2243SOL    HW1 7628   1.486   6.603   6.014
 2243SOL    HW2 7629   1.626   6.606   6.099
 2244SOL     OW 7630   1.807   6.921   1.892
 2244SOL    HW1 7631   1.787   6.838   1.841
 2244SOL    HW2 7632   1.840   6.992   1.829
 2245SOL     OW 7633   0.417   1.712   1.221
 2245SOL    HW1 7634   0.411   1.805   1.187
 2245SOL    HW2 7635   0.371   1.706   1.310
 2246SOL     OW 7636   0.916   2.278   5.051
 2246SOL    HW1 7637   0.962   2.237   5.129
 2246SOL    HW2 7638   0.846   2.216   5.017
 2247SOL     OW 7639   3.294   3.267   4.283
 2247SOL    HW1 7640   3.353   3.302   4.355
 2247SOL    HW2 7641   3.203   3.249   4.321
 2248SOL     OW 7642   4.885   3.895   5.507
 2248SOL    HW1 7643   4.959   3.850   5.456
 2248SOL    HW2 7644   4.842   3.965   5.450
 2249SOL     OW 7645   6.097   6.278   2.979
 2249SOL    HW1 7646   6.108   6.354   3.044
 2249SOL    HW2 7647   6.116   6.311   2.887
 2250SOL     OW 7648   4.601   3.763   6.146
 2250SOL    HW1 7649   4.688   3.751   6.194
 2250SOL    HW2 7650   4.618   3.810   6.059
 2251SOL     OW 7651   5.162   0.803   6.900
 2251SOL    HW1 7652   5.234   0.735   6.906
 2251SOL    HW2 7653   5.201   0.894   6.912
 2252SOL     OW 7654   4.852   3.056   2.721
 2252SOL    HW1 7655   4.829   3.045   2.818
 2252SOL    HW2 7656   4.851   2.967   2.676
 2253SOL     OW 7657   1.230   3.576   6.627
 2253SOL    HW1 7658   1.153   3.595   6.566
 2253SOL    HW2 7659   1.212   3.617   6.716
 2254SOL     OW 7660   3.777   2.983   5.573
 2254SOL    HW1 7661   3.801   2.897   5.527
 2254SOL    HW2 7662   3.846   3.052   5.551
 2255SOL     OW 7663   4.344   2.763   6.461
 2255SOL    HW1 7664   4.361   2.668   6.488
 2255SOL    HW2 7665   4.318   2.816   6.542
 2256SOL     OW 7666   5.534   5.797   1.410
 2256SOL    HW1 7667   5.496   5.804   1.502
 2256SOL    HW2 7668   5.542   5.888   1.369
 2257SOL     OW 7669   0.274   2.159   3.988
 2257SOL    HW1 7670   0.223   2.224   4.045
 2257SOL    HW2 7671   0.311   2.086   4.045
 2258SOL     OW 7672   0.769   5.271   5.886
 2258SOL    HW1 7673   0.820   5.250   5.803
 2258SOL    HW2 7674   0.833   5.292   5.960
 2259SOL     OW 7675   5.499   3.588   6.653
 2259SOL    HW1 7676   5.476   3.520   6.723
 2259SOL    HW2 7677   5.545   3.666   6.696
 2260SOL     OW 7678   6.185   4.038   2.235
 2260SOL    HW1 7679   6.205   4.134   2.221
 2260SOL    HW2 7680   6.250   3.999   2.300
 2261SOL     OW 7681   6.656   6.177   6.965
 2261SOL    HW1 7682   6.675   6.227   6.880
 2261SOL    HW2 7683   6.690   6.229   0.016
 2262SOL     OW 7684   5.637   1.291   2.651
 2262SOL    HW1 7685   5.592   1.330   2.570
 2262SOL    HW2 7686   5.653   1.363   2.718
 2263SOL     OW 7687   3.542   5.555   6.749
 2263SOL    HW1 7688   3.503   5.476   6.702
 2263SOL    HW2 7689   3.609   5.599   6.689
 2264SOL     OW 7690   2.671   4.252   0.160
 2264SOL    HW1 7691   2.756   4.208   0.192
 2264SOL    HW2 7692   2.676   4.350   0.179
 2265SOL     OW 7693   0.641   1.135   4.779
 2265SOL    HW1 7694   0.619   1.038   4.792
 2265SOL    HW2 7695   0.725   1.157   4.830
 2266SOL     OW 7696   5.515   1.998   0.328
 2266SOL    HW1 7697   5.542   1.943   0.249
 2266SOL    HW2 7698   5.432   1.959   0.369
 2267SOL     OW 7699   5.222   2.721   5.135
 2267SOL    HW1 7700   5.321   2.731   5.131
 2267SOL    HW2 7701   5.188   2.698   5.043
 2268SOL     OW 7702   6.378   3.532   6.780
 2268SOL    HW1 7703   6.315   3.542   6.703
 2268SOL    HW2 7704   6.373   3.613   6.838
 2269SOL     OW 7705   5.732   5.440   4.819
 2269SOL    HW1 7706   5.758   5.527   4.862
 2269SOL    HW2 7707   5.798   5.418   4.747
 2270SOL     OW 7708   2.964   2.524   6.281
 2270SOL    HW1 7709   3.045   2.491   6.330
 2270SOL    HW2 7710   2.992   2.566   6.195
 2271SOL     OW 7711   5.986   4.062   0.623
 2271SOL    HW1 7712   5.904   4.041   0.676
 2271SOL    HW2 7713   6.008   3.984   0.564
 2272SOL     OW 7714   6.385   2.395   6.017
 2272SOL    HW1 7715   6.461   2.459   6.009
 2272SOL    HW2 7716   6.408   2.323   6.083
 2273SOL     OW 7717   1.840   0.669   2.013
 2273SOL    HW1 7718   1.901   0.684   1.934
 2273SOL    HW2 7719   1.892   0.678   2.097
 2274SOL     OW 7720   6.923   2.498   6.797
 2274SOL    HW1 7721   6.859   2.438   6.845
 2274SOL    HW2 7722   6.983   2.443   6.740
 2275SOL     OW 7723   5.839   0.452   4.381
 2275SOL    HW1 7724   5.788   0.535   4.404
 2275SOL    HW2 7725   5.928   0.478   4.342
 2276SOL     OW 7726   2.626   4.964   0.737
 2276SOL    HW1 7727   2.577   4.892   0.688
 2276SOL    HW2 7728   2.724   4.949   0.730
 2277SOL     OW 7729   4.171   3.581   4.904
 2277SOL    HW1 7730   4.179   3.567   5.003
 2277SOL    HW2 7731   4.260   3.565   4.861
 2278SOL     OW 7732   6.601   4.877   4.188
 2278SOL    HW1 7733   6.556   4.953   4.141
 2278SOL    HW2 7734   6.615   4.900   4.284
 2279SOL     OW 7735   5.193   6.091   4.713
 2279SOL    HW1 7736   5.163   6.135   4.629
 2279SOL    HW2 7737   5.293   6.094   4.718
 2280SOL     OW 7738   6.728   6.994   4.299
 2280SOL    HW1 7739   6.771   6.920   4.248
 2280SOL    HW2 7740   6.635   7.009   4.266
 2281SOL     OW 7741   3.368   1.879   2.240
 2281SOL    HW1 7742   3.467   1.867   2.241
 2281SOL    HW2 7743   3.345   1.970   2.273
 2282SOL     OW 7744   5.048   0.279   4.939
 2282SOL    HW1 7745   5.131   0.233   4.971
 2282SOL    HW2 7746   5.072   0.350   4.873
 2283SOL     OW 7747   0.413   4.482   1.984
 2283SOL    HW1 7748   0.335   4.423   1.963
 2283SOL    HW2 7749   0.442   4.529   1.901
 2284SOL     OW 7750   1.702   2.355   6.341
 2284SOL    HW1 7751   1.628   2.297   6.307
 2284SOL    HW2 7752   1.664   2.437   6.383
 2285SOL     OW 7753   2.343   2.061   0.632
 2285SOL    HW1 7754   2.395   2.138   0.593
 2285SOL    HW2 7755   2.388   2.029   0.715
 2286SOL     OW 7756   6.770   0.420   4.234
 2286SOL    HW1 7757   6.819   0.490   4.182
 2286SOL    HW2 7758   6.835   0.369   4.291
 2287SOL     OW 7759   1.427   1.357   3.240
 2287SOL    HW1 7760   1.471   1.294   3.177
 2287SOL    HW2 7761   1.495   1.415   3.284
 2288SOL     OW 7762   6.090   5.184   4.467
 2288SOL    HW1 7763   6.081   5.122   4.545
 2288SOL    HW2 7764   6.054   5.140   4.385
 2289SOL     OW 7765   0.565   4.847   2.119
 2289SOL    HW1 7766   0.646   4.859   2.176
 2289SOL    HW2 7767   0.484   4.882   2.166
 2290SOL     OW 7768   1.202   4.365   1.723
 2290SOL    HW1 7769   1.302   4.372   1.714
 2290SOL    HW2 7770   1.166   4.451   1.760
 2291SOL     OW 7771   2.600   2.281   6.733
 2291SOL    HW1 7772   2.694   2.268   6.700
 2291SOL    HW2 7773   2.541   2.306   6.656
 2292SOL     OW 7774   5.925   2.150   4.789
 2292SOL    HW1 7775   5.846   2.128   4.846
 2292SOL    HW2 7776   5.951   2.245   4.803
 2293SOL     OW 7777   5.329   6.908   1.438
 2293SOL    HW1 7778   5.356   6.850   1.361
 2293SOL    HW2 7779   5.406   6.966   1.464
 2294SOL     OW 7780   3.082   1.065   6.558
 2294SOL    HW1 7781   3.075   0.971   6.523
 2294SOL    HW2 7782   3.018   1.077   6.634
 2295SOL     OW 7783   0.547   1.953   2.913
 2295SOL    HW1 7784   0.489   1.873   2.926
 2295SOL    HW2 7785   0.551   2.007   2.997
 2296SOL     OW 7786   3.990   5.779   1.695
 2296SOL    HW1 7787   3.925   5.726   1.640
 2296SOL    HW2 7788   4.076   5.730   1.701
 2297SOL     OW 7789   4.811   4.713   5.580
 2297SOL    HW1 7790   4.783   4.773   5.505
 2297SOL    HW2 7791   4.815   4.765   5.665
 2298SOL     OW 7792   4.179   3.371   1.818
 2298SOL    HW1 7793   4.099   3.311   1.818
 2298SOL    HW2 7794   4.205   3.391   1.913
 2299SOL     OW 7795   4.665   5.049   5.043
 2299SOL    HW1 7796   4.626   5.139   5.023
 2299SOL    HW2 7797   4.665   4.994   4.960
 2300SOL     OW 7798   2.374   6.245   1.824
 2300SOL    HW1 7799   2.470   6.254   1.796
 2300SOL    HW2 7800   2.370   6.202   1.914
 2301SOL     OW 7801   3.499   2.982   2.638
 2301SOL    HW1 7802   3.597   2.975   2.656
 2301SOL    HW2 7803   3.448   2.945   2.716
 2302SOL     OW 7804   3.790   6.834   1.045
 2302SOL    HW1 7805   3.755   6.924   1.021
 2302SOL    HW2 7806   3.715   6.776   1.078
 2303SOL     OW 7807   2.384   3.386   6.510
 2303SOL    HW1 7808   2.448   3.388   6.586
 2303SOL    HW2 7809   2.296   3.351   6.541
 2304SOL     OW 7810   4.943   6.827   3.479
 2304SOL    HW1 7811   4.925   6.834   3.380
 2304SOL    HW2 7812   4.872   6.771   3.522
 2305SOL     OW 7813   2.283   0.101   2.497
 2305SOL    HW1 7814   2.187   0.074   2.506
 2305SOL    HW2 7815   2.327   0.098   2.587
 2306SOL     OW 7816   2.711   5.044   1.831
 2306SOL    HW1 7817   2.694   5.034   1.733
 2306SOL    HW2 7818   2.633   5.008   1.882
 2307SOL     OW 7819   6.666   4.007   3.328
 2307SOL    HW1 7820   6.584   4.021   3.273
 2307SOL    HW2 7821   6.704   4.096   3.354
 2308SOL     OW 7822   1.684   5.256   1.418
 2308SOL    HW1 7823   1.607   5.270   1.356
 2308SOL    HW2 7824   1.651   5.224   1.506
 2309SOL     OW 7825   1.541   0.807   6.440
 2309SOL    HW1 7826   1.503   0.898   6.460
 2309SOL    HW2 7827   1.618   0.816   6.377
 2310SOL     OW 7828   5.287   6.350   0.460
 2310SOL    HW1 7829   5.305   6.442   0.424
 2310SOL    HW2 7830   5.189   6.340   0.478
 2311SOL     OW 7831   1.959   6.499   1.146
 2311SOL    HW1 7832   1.864   6.513   1.175
 2311SOL    HW2 7833   1.971   6.404   1.118
 2312SOL     OW 7834   4.278   6.271   2.659
 2312SOL    HW1 7835   4.305   6.190   2.607
 2312SOL    HW2 7836   4.305   6.353   2.609
 2313SOL     OW 7837   6.147   6.058   1.302
 2313SOL    HW1 7838   6.184   5.993   1.368
 2313SOL    HW2 7839   6.063   6.021   1.262
 2314SOL     OW 7840   5.755   0.060   4.061
 2314SOL    HW1 7841   5.792   0.112   3.984
 2314SOL    HW2 7842   5.690   0.117   4.111
 2315SOL     OW 7843   4.753   3.149   6.568
 2315SOL    HW1 7844   4.676   3.135   6.630
 2315SOL    HW2 7845   4.783   3.061   6.532
 2316SOL     OW 7846   3.804   1.302   4.206
 2316SOL    HW1 7847   3.779   1.303   4.109
 2316SOL    HW2 7848   3.774   1.216   4.247
 2317SOL     OW 7849   0.625   6.487   3.107
 2317SOL    HW1 7850   0.620   6.488   3.007
 2317SOL    HW2 7851   0.552   6.427   3.142
 2318SOL     OW 7852   1.894   2.849   4.420
 2318SOL    HW1 7853   1.835   2.930   4.431
 2318SOL    HW2 7854   1.975   2.859   4.477
 2319SOL     OW 7855   2.328   4.820   3.993
 2319SOL    HW1 7856   2.271   4.814   3.911
 2319SOL    HW2 7857   2.288   4.763   4.065
 2320SOL     OW 7858   1.207   2.263   4.646
 2320SOL    HW1 7859   1.170   2.299   4.561
 2320SOL    HW2 7860   1.228   2.338   4.708
 2321SOL     OW 7861   2.425   0.371   6.860
 2321SOL    HW1 7862   2.404   0.340   6.953
 2321SOL    HW2 7863   2.434   0.470   6.858
 2322SOL     OW 7864   2.770   1.464   4.241
 2322SOL    HW1 7865   2.782   1.459   4.340
 2322SOL    HW2 7866   2.744   1.374   4.206
 2323SOL     OW 7867   2.838   5.351   1.863
 2323SOL    HW1 7868   2.881   5.377   1.777
 2323SOL    HW2 7869   2.781   5.270   1.849
 2324SOL     OW 7870   6.400   6.807   1.563
 2324SOL    HW1 7871   6.440   6.801   1.655
 2324SOL    HW2 7872   6.453   6.872   1.508
 2325SOL     OW 7873   1.350   4.870   1.968
 2325SOL    HW1 7874   1.436   4.904   1.930
 2325SOL    HW2 7875   1.274   4.924   1.931
 2326SOL     OW 7876   3.083   6.125   5.619
 2326SOL    HW1 7877   3.032   6.102   5.702
 2326SOL    HW2 7878   3.120   6.217   5.627
 2327SOL     OW 7879   6.781   2.805   4.122
 2327SOL    HW1 7880   6.731   2.890   4.103
 2327SOL    HW2 7881   6.813   2.766   4.036
 2328SOL     OW 7882   3.400   2.060   2.599
 2328SOL    HW1 7883   3.428   2.060   2.696
 2328SOL    HW2 7884   3.324   2.124   2.587
 2329SOL     OW 7885   1.423   3.667   5.246
 2329SOL    HW1 7886   1.380   3.695   5.332
 2329SOL    HW2 7887   1.520   3.647   5.262
 2330SOL     OW 7888   1.035   4.010   1.569
 2330SOL    HW1 7889   1.027   4.089   1.508
 2330SOL    HW2 7890   1.056   4.041   1.662
 2331SOL     OW 7891   5.724   4.422   1.347
 2331SOL    HW1 7892   5.797   4.390   1.407
 2331SOL    HW2 7893   5.651   4.354   1.343
 2332SOL     OW 7894   4.846   1.845   4.846
 2332SOL    HW1 7895   4.830   1.944   4.844
 2332SOL    HW2 7896   4.849   1.810   4.753
 2333SOL     OW 7897   0.646   5.132   2.981
 2333SOL    HW1 7898   0.709   5.151   3.056
 2333SOL    HW2 7899   0.660   5.038   2.948
 2334SOL     OW 7900   2.585   6.827   0.270
 2334SOL    HW1 7901   2.546   6.817   0.178
 2334SOL    HW2 7902   2.593   6.736   0.312
 2335SOL     OW 7903   6.009   1.090   2.754
 2335SOL    HW1 7904   5.967   1.172   2.714
 2335SOL    HW2 7905   5.939   1.035   2.799
 2336SOL     OW 7906   4.438   2.317   4.672
 2336SOL    HW1 7907   4.340   2.294   4.667
 2336SOL    HW2 7908   4.460   2.346   4.765
 2337SOL     OW 7909   4.473   0.883   3.234
 2337SOL    HW1 7910   4.386   0.835   3.233
 2337SOL    HW2 7911   4.529   0.851   3.158
 2338SOL     OW 7912   1.238   1.985   6.063
 2338SOL    HW1 7913   1.271   1.893   6.083
 2338SOL    HW2 7914   1.152   1.978   6.011
 2339SOL     OW 7915   4.040   3.822   4.845
 2339SOL    HW1 7916   4.060   3.835   4.748
 2339SOL    HW2 7917   4.089   3.741   4.878
 2340SOL     OW 7918   5.526   4.580   6.961
 2340SOL    HW1 7919   5.474   4.533   6.889
 2340SOL    HW2 7920   5.463   4.622   7.025
 2341SOL     OW 7921   5.330   3.922   1.136
 2341SOL    HW1 7922   5.231   3.919   1.148
 2341SOL    HW2 7923   5.365   4.008   1.173
 2342SOL     OW 7924   0.175   6.525   5.094
 2342SOL    HW1 7925   0.167   6.451   5.160
 2342SOL    HW2 7926   0.246   6.589   5.124
 2343SOL     OW 7927   2.147   6.161   2.579
 2343SOL    HW1 7928   2.069   6.195   2.631
 2343SOL    HW2 7929   2.161   6.064   2.598
 2344SOL     OW 7930   1.472   1.047   1.103
 2344SOL    HW1 7931   1.467   1.093   1.191
 2344SOL    HW2 7932   1.422   0.960   1.108
 2345SOL     OW 7933   3.609   5.638   5.898
 2345SOL    HW1 7934   3.613   5.547   5.940
 2345SOL    HW2 7935   3.583   5.628   5.802
 2346SOL     OW 7936   4.694   2.714   4.829
 2346SOL    HW1 7937   4.745   2.628   4.815
 2346SOL    HW2 7938   4.679   2.758   4.740
 2347SOL     OW 7939   2.689   3.586   1.772
 2347SOL    HW1 7940   2.680   3.664   1.711
 2347SOL    HW2 7941   2.599   3.542   1.783
 2348SOL     OW 7942   3.428   6.174   3.342
 2348SOL    HW1 7943   3.407   6.202   3.248
 2348SOL    HW2 7944   3.525   6.154   3.350
 2349SOL     OW 7945   0.451   4.767   5.830
 2349SOL    HW1 7946   0.356   4.782   5.856
 2349SOL    HW2 7947   0.456   4.700   5.756
 2350SOL     OW 7948   4.982   6.790   6.391
 2350SOL    HW1 7949   5.077   6.819   6.404
 2350SOL    HW2 7950   4.970   6.758   6.297
 2351SOL     OW 7951   3.435   4.855   2.594
 2351SOL    HW1 7952   3.491   4.894   2.521
 2351SOL    HW2 7953   3.374   4.786   2.555
 2352SOL     OW 7954   1.345   3.997   1.991
 2352SOL    HW1 7955   1.327   3.911   2.038
 2352SOL    HW2 7956   1.287   4.003   1.909
 2353SOL     OW 7957   3.077   4.744   5.241
 2353SOL    HW1 7958   3.006   4.679   5.213
 2353SOL    HW2 7959   3.075   4.823   5.181
 2354SOL     OW 7960   2.819   1.713   6.040
 2354SOL    HW1 7961   2.813   1.615   6.024
 2354SOL    HW2 7962   2.784   1.734   6.131
 2355SOL     OW 7963   1.289   5.461   6.738
 2355SOL    HW1 7964   1.341   5.529   6.687
 2355SOL    HW2 7965   1.194   5.460   6.706
 2356SOL     OW 7966   2.395   3.881   0.413
 2356SOL    HW1 7967   2.433   3.961   0.367
 2356SOL    HW2 7968   2.376   3.810   0.345
 2357SOL     OW 7969   4.279   5.464   3.557
 2357SOL    HW1 7970   4.211   5.438   3.488
 2357SOL    HW2 7971   4.286   5.392   3.626
 2358SOL     OW 7972   2.826   5.278   5.501
 2358SOL    HW1 7973   2.866   5.346   5.440
 2358SOL    HW2 7974   2.885   5.266   5.581
 2359SOL     OW 7975   6.901   0.621   5.878
 2359SOL    HW1 7976   6.958   0.633   5.797
 2359SOL    HW2 7977   6.858   0.708   5.903
 2360SOL     OW 7978   5.152   6.422   5.725
 2360SOL    HW1 7979   5.176   6.325   5.729
 2360SOL    HW2 7980   5.089   6.444   5.800
 2361SOL     OW 7981   2.609   0.786   5.464
 2361SOL    HW1 7982   2.680   0.847   5.428
 2361SOL    HW2 7983   2.564   0.829   5.542
 2362SOL     OW 7984   2.667   0.610   5.257
 2362SOL    HW1 7985   2.750   0.623   5.202
 2362SOL    HW2 7986   2.655   0.689   5.317
 2363SOL     OW 7987   3.925   2.513   5.583
 2363SOL    HW1 7988   4.004   2.496   5.642
 2363SOL    HW2 7989   3.845   2.535   5.640
 2364SOL     OW 7990   0.503   2.424   3.013
 2364SOL    HW1 7991   0.420   2.370   3.027
 2364SOL    HW2 7992   0.479   2.511   2.971
 2365SOL     OW 7993   6.276   2.353   5.768
 2365SOL    HW1 7994   6.322   2.356   5.856
 2365SOL    HW2 7995   6.344   2.353   5.694
 2366SOL     OW 7996   1.732   4.541   5.882
 2366SOL    HW1 7997   1.783   4.502   5.805
 2366SOL    HW2 7998   1.634   4.533   5.864
 2367SOL     OW 7999   3.730   3.669   0.231
 2367SOL    HW1 8000   3.646   3.716   0.202
 2367SOL    HW2 8001   3.723   3.644   0.327
 2368SOL     OW 8002   5.239   0.190   3.450
 2368SOL    HW1 8003   5.302   0.255   3.492
 2368SOL    HW2 8004   5.148   0.231   3.442
 2369SOL     OW 8005   1.763   2.639   5.102
 2369SOL    HW1 8006   1.770   2.622   5.201
 2369SOL    HW2 8007   1.834   2.705   5.075
 2370SOL     OW 8008   4.886   4.009   6.780
 2370SOL    HW1 8009   4.979   4.039   6.758
 2370SOL    HW2 8010   4.820   4.070   6.736
 2371SOL     OW 8011   1.104   6.243   1.674
 2371SOL    HW1 8012   1.186   6.281   1.631
 2371SOL    HW2 8013   1.123   6.150   1.705
 2372SOL     OW 8014   0.634   2.152   1.514
 2372SOL    HW1 8015   0.634   2.054   1.537
 2372SOL    HW2 8016   0.653   2.205   1.597
 2373SOL     OW 8017   6.699   6.967   0.093
 2373SOL    HW1 8018   6.628   7.017   0.143
 2373SOL    HW2 8019   6.785   6.974   0.143
 2374SOL     OW 8020   6.119   0.714   4.278
 2374SOL    HW1 8021   6.114   0.614   4.276
 2374SOL    HW2 8022   6.107   0.746   4.372
 2375SOL     OW 8023   1.947   6.592   4.730
 2375SOL    HW1 8024   1.892   6.655   4.785
 2375SOL    HW2 8025   1.992   6.643   4.657
 2376SOL     OW 8026   5.655   1.958   4.173
 2376SOL    HW1 8027   5.722   1.980   4.244
 2376SOL    HW2 8028   5.637   1.860   4.174
 2377SOL     OW 8029   3.593   4.150   2.744
 2377SOL    HW1 8030   3.513   4.121   2.796
 2377SOL    HW2 8031   3.673   4.152   2.804
 2378SOL     OW 8032   5.041   2.415   7.003
 2378SOL    HW1 8033   5.086   2.443   6.919
 2378SOL    HW2 8034   4.959   2.362   6.981
 2379SOL     OW 8035   6.876   1.704   6.690
 2379SOL    HW1 8036   6.797   1.652   6.724
 2379SOL    HW2 8037   6.958   1.647   6.695
 2380SOL     OW 8038   6.865   6.835   5.715
 2380SOL    HW1 8039   6.893   6.854   5.809
 2380SOL    HW2 8040   6.901   6.905   5.655
 2381SOL     OW 8041   2.200   4.234   4.150
 2381SOL    HW1 8042   2.278   4.288   4.118
 2381SOL    HW2 8043   2.164   4.180   4.074
 2382SOL     OW 8044   2.374   5.216   3.358
 2382SOL    HW1 8045   2.315   5.255   3.287
 2382SOL    HW2 8046   2.358   5.262   3.445
 2383SOL     OW 8047   5.522   6.114   0.027
 2383SOL    HW1 8048   5.422   6.121   0.023
 2383SOL    HW2 8049   5.558   6.100   6.961
 2384SOL     OW 8050   6.893   6.818   1.972
 2384SOL    HW1 8051   6.947   6.865   2.043
 2384SOL    HW2 8052   6.796   6.821   1.997
 2385SOL     OW 8053   6.131   6.902   1.510
 2385SOL    HW1 8054   6.214   6.856   1.543
 2385SOL    HW2 8055   6.105   6.865   1.421
 2386SOL     OW 8056   5.313   4.543   4.415
 2386SOL    HW1 8057   5.376   4.466   4.419
 2386SOL    HW2 8058   5.228   4.515   4.372
 2387SOL     OW 8059   0.287   2.084   3.444
 2387SOL    HW1 8060   0.339   2.162   3.410
 2387SOL    HW2 8061   0.316   2.062   3.537
 2388SOL     OW 8062   1.455   1.651   3.750
 2388SOL    HW1 8063   1.407   1.585   3.808
 2388SOL    HW2 8064   1.402   1.669   3.667
 2389SOL     OW 8065   5.631   3.628   3.646
 2389SOL    HW1 8066   5.600   3.707   3.699
 2389SOL    HW2 8067   5.560   3.558   3.646
 2390SOL     OW 8068   3.247   3.581   4.214
 2390SOL    HW1 8069   3.151   3.555   4.226
 2390SOL    HW2 8070   3.299   3.553   4.295
 2391SOL     OW 8071   4.550   4.121   5.835
 2391SOL    HW1 8072   4.578   4.027   5.853
 2391SOL    HW2 8073   4.588   4.152   5.748
 2392SOL     OW 8074   3.481   6.717   5.022
 2392SOL    HW1 8075   3.415   6.748   4.954
 2392SOL    HW2 8076   3.466   6.767   5.108
 2393SOL     OW 8077   4.299   4.827   0.540
 2393SOL    HW1 8078   4.294   4.869   0.450
 2393SOL    HW2 8079   4.377   4.863   0.590
 2394SOL     OW 8080   1.514   3.041   4.590
 2394SOL    HW1 8081   1.586   3.103   4.622
 2394SOL    HW2 8082   1.549   2.987   4.514
 2395SOL     OW 8083   6.315   2.493   0.318
 2395SOL    HW1 8084   6.318   2.425   0.245
 2395SOL    HW2 8085   6.402   2.542   0.323
 2396SOL     OW 8086   4.156   5.547   0.549
 2396SOL    HW1 8087   4.110   5.615   0.491
 2396SOL    HW2 8088   4.118   5.551   0.641
 2397SOL     OW 8089   0.485   3.797   0.286
 2397SOL    HW1 8090   0.415   3.726   0.275
 2397SOL    HW2 8091   0.478   3.836   0.377
 2398SOL     OW 8092   3.389   4.368   6.014
 2398SOL    HW1 8093   3.390   4.462   5.980
 2398SOL    HW2 8094   3.306   4.353   6.067
 2399SOL     OW 8095   5.158   1.171   2.458
 2399SOL    HW1 8096   5.069   1.189   2.500
 2399SOL    HW2 8097   5.209   1.105   2.513
 2400SOL     OW 8098   4.360   4.987   0.313
 2400SOL    HW1 8099   4.296   4.931   0.262
 2400SOL    HW2 8100   4.441   5.005   0.258
 2401SOL     OW 8101   4.131   0.836   6.702
 2401SOL    HW1 8102   4.042   0.880   6.692
 2401SOL    HW2 8103   4.119   0.737   6.707
 2402SOL     OW 8104   0.892   1.889   4.749
 2402SOL    HW1 8105   0.831   1.870   4.825
 2402SOL    HW2 8106   0.956   1.961   4.774
 2403SOL     OW 8107   2.813   2.545   0.150
 2403SOL    HW1 8108   2.900   2.590   0.174
 2403SOL    HW2 8109   2.832   2.462   0.099
 2404SOL     OW 8110   5.955   1.126   1.711
 2404SOL    HW1 8111   5.987   1.215   1.678
 2404SOL    HW2 8112   6.000   1.053   1.660
 2405SOL     OW 8113   3.341   3.561   3.460
 2405SOL    HW1 8114   3.263   3.514   3.501
 2405SOL    HW2 8115   3.346   3.540   3.363
 2406SOL     OW 8116   1.653   6.604   3.733
 2406SOL    HW1 8117   1.632   6.529   3.671
 2406SOL    HW2 8118   1.574   6.623   3.791
 2407SOL     OW 8119   5.017   2.622   2.754
 2407SOL    HW1 8120   4.958   2.691   2.711
 2407SOL    HW2 8121   5.045   2.555   2.684
 2408SOL     OW 8122   3.088   4.844   2.498
 2408SOL    HW1 8123   3.154   4.874   2.430
 2408SOL    HW2 8124   3.006   4.900   2.492
 2409SOL     OW 8125   1.761   2.891   1.511
 2409SOL    HW1 8126   1.745   2.801   1.552
 2409SOL    HW2 8127   1.764   2.882   1.411
 2410SOL     OW 8128   4.845   2.574   6.481
 2410SOL    HW1 8129   4.761   2.534   6.444
 2410SOL    HW2 8130   4.825   2.618   6.569
 2411SOL     OW 8131   4.614   5.320   5.505
 2411SOL    HW1 8132   4.641   5.224   5.514
 2411SOL    HW2 8133   4.626   5.350   5.410
 2412SOL     OW 8134   3.164   4.424   6.888
 2412SOL    HW1 8135   3.104   4.435   6.968
 2412SOL    HW2 8136   3.256   4.453   6.912
 2413SOL     OW 8137   6.362   2.221   0.227
 2413SOL    HW1 8138   6.445   2.229   0.282
 2413SOL    HW2 8139   6.307   2.145   0.262
 2414SOL     OW 8140   5.549   4.301   2.161
 2414SOL    HW1 8141   5.553   4.327   2.065
 2414SOL    HW2 8142   5.598   4.215   2.175
 2415SOL     OW 8143   0.993   6.721   1.077
 2415SOL    HW1 8144   1.063   6.703   1.008
 2415SOL    HW2 8145   0.973   6.637   1.127
 2416SOL     OW 8146   3.169   2.099   5.217
 2416SOL    HW1 8147   3.160   2.131   5.311
 2416SOL    HW2 8148   3.137   2.169   5.154
 2417SOL     OW 8149   4.323   2.842   6.190
 2417SOL    HW1 8150   4.316   2.940   6.204
 2417SOL    HW2 8151   4.331   2.796   6.279
 2418SOL     OW 8152   3.000   3.510   3.338
 2418SOL    HW1 8153   2.974   3.607   3.341
 2418SOL    HW2 8154   3.044   3.485   3.425
 2419SOL     OW 8155   0.734   6.428   3.722
 2419SOL    HW1 8156   0.658   6.470   3.771
 2419SOL    HW2 8157   0.776   6.495   3.661
 2420SOL     OW 8158   3.596   1.259   2.177
 2420SOL    HW1 8159   3.605   1.249   2.276
 2420SOL    HW2 8160   3.582   1.169   2.135
 2421SOL     OW 8161   2.690   1.085   5.072
 2421SOL    HW1 8162   2.701   1.171   5.121
 2421SOL    HW2 8163   2.735   1.012   5.124
 2422SOL     OW 8164   5.609   0.601   2.078
 2422SOL    HW1 8165   5.608   0.575   1.982
 2422SOL    HW2 8166   5.529   0.658   2.098
 2423SOL     OW 8167   1.502   5.776   3.804
 2423SOL    HW1 8168   1.565   5.848   3.835
 2423SOL    HW2 8169   1.525   5.690   3.848
 2424SOL     OW 8170   5.894   6.017   6.093
 2424SOL    HW1 8171   5.932   6.054   6.008
 2424SOL    HW2 8172   5.806   5.974   6.075
 2425SOL     OW 8173   6.124   0.022   4.226
 2425SOL    HW1 8174   6.190   0.071   4.283
 2425SOL    HW2 8175   6.032   0.037   4.263
 2426SOL     OW 8176   0.822   4.519   3.676
 2426SOL    HW1 8177   0.840   4.605   3.725
 2426SOL    HW2 8178   0.865   4.522   3.586
 2427SOL     OW 8179   5.888   5.206   6.730
 2427SOL    HW1 8180   5.809   5.239   6.677
 2427SOL    HW2 8181   5.869   5.218   6.827
 2428SOL     OW 8182   6.996   0.035   3.627
 2428SOL    HW1 8183   0.026   6.986   3.659
 2428SOL    HW2 8184   0.003   0.121   3.668
 2429SOL     OW 8185   6.517   6.143   4.369
 2429SOL    HW1 8186   6.585   6.080   4.332
 2429SOL    HW2 8187   6.452   6.168   4.297
 2430SOL     OW 8188   6.454   2.384   1.353
 2430SOL    HW1 8189   6.536   2.418   1.400
 2430SOL    HW2 8190   6.477   2.302   1.301
 2431SOL     OW 8191   3.514   0.082   1.834
 2431SOL    HW1 8192   3.524   0.117   1.927
 2431SOL    HW2 8193   3.574   0.004   1.821
 2432SOL     OW 8194   3.367   6.573   2.850
 2432SOL    HW1 8195   3.386   6.630   2.770
 2432SOL    HW2 8196   3.450   6.524   2.876
 2433SOL     OW 8197   3.433   6.439   0.975
 2433SOL    HW1 8198   3.334   6.432   0.976
 2433SOL    HW2 8199   3.473   6.347   0.976
 2434SOL     OW 8200   4.197   1.448   3.445
 2434SOL    HW1 8201   4.189   1.448   3.345
 2434SOL    HW2 8202   4.244   1.365   3.474
 2435SOL     OW 8203   4.753   5.537   5.634
 2435SOL    HW1 8204   4.718   5.453   5.592
 2435SOL    HW2 8205   4.695   5.561   5.712
 2436SOL     OW 8206   1.529   6.751   1.262
 2436SOL    HW1 8207   1.529   6.664   1.212
 2436SOL    HW2 8208   1.442   6.799   1.245
 2437SOL     OW 8209   3.765   5.917   0.926
 2437SOL    HW1 8210   3.759   6.011   0.892
 2437SOL    HW2 8211   3.685   5.865   0.895
 2438SOL     OW 8212   3.805   1.427   5.681
 2438SOL    HW1 8213   3.871   1.391   5.747
 2438SOL    HW2 8214   3.808   1.527   5.681
 2439SOL     OW 8215   1.481   4.437   6.950
 2439SOL    HW1 8216   1.541   4.359   6.930
 2439SOL    HW2 8217   1.513   4.484   0.006
 2440SOL     OW 8218   3.538   6.453   4.972
 2440SOL    HW1 8219   3.483   6.399   5.036
 2440SOL    HW2 8220   3.528   6.550   4.993
 2441SOL     OW 8221   6.306   0.501   0.569
 2441SOL    HW1 8222   6.251   0.483   0.487
 2441SOL    HW2 8223   6.367   0.424   0.585
 2442SOL     OW 8224   6.659   5.893   3.948
 2442SOL    HW1 8225   6.639   5.934   3.860
 2442SOL    HW2 8226   6.583   5.834   3.976
 2443SOL     OW 8227   3.390   6.827   6.326
 2443SOL    HW1 8228   3.489   6.822   6.340
 2443SOL    HW2 8229   3.344   6.828   6.414
 2444SOL     OW 8230   3.826   4.473   6.160
 2444SOL    HW1 8231   3.812   4.404   6.231
 2444SOL    HW2 8232   3.794   4.438   6.072
 2445SOL     OW 8233   6.764   0.824   2.317
 2445SOL    HW1 8234   6.835   0.867   2.262
 2445SOL    HW2 8235   6.791   0.729   2.337
 2446SOL     OW 8236   0.536   3.249   4.365
 2446SOL    HW1 8237   0.459   3.276   4.307
 2446SOL    HW2 8238   0.588   3.176   4.320
 2447SOL     OW 8239   2.587   1.239   1.062
 2447SOL    HW1 8240   2.535   1.170   1.113
 2447SOL    HW2 8241   2.583   1.218   0.964
 2448SOL     OW 8242   0.662   0.336   4.914
 2448SOL    HW1 8243   0.642   0.357   5.010
 2448SOL    HW2 8244   0.660   0.237   4.900
 2449SOL     OW 8245   0.631   3.904   2.266
 2449SOL    HW1 8246   0.635   3.854   2.179
 2449SOL    HW2 8247   0.536   3.923   2.289
 2450SOL     OW 8248   2.849   4.910   4.264
 2450SOL    HW1 8249   2.817   4.816   4.261
 2450SOL    HW2 8250   2.794   4.967   4.203
 2451SOL     OW 8251   0.314   0.143   3.760
 2451SOL    HW1 8252   0.363   0.203   3.697
 2451SOL    HW2 8253   0.298   0.055   3.716
 2452SOL     OW 8254   2.741   2.392   3.275
 2452SOL    HW1 8255   2.734   2.419   3.179
 2452SOL    HW2 8256   2.820   2.331   3.286
 2453SOL     OW 8257   6.940   3.631   0.666
 2453SOL    HW1 8258   6.882   3.712   0.668
 2453SOL    HW2 8259   0.008   3.657   0.687
 2454SOL     OW 8260   3.386   1.328   0.200
 2454SOL    HW1 8261   3.318   1.318   0.127
 2454SOL    HW2 8262   3.477   1.328   0.160
 2455SOL     OW 8263   5.304   0.250   0.785
 2455SOL    HW1 8264   5.218   0.289   0.819
 2455SOL    HW2 8265   5.335   0.178   0.847
 2456SOL     OW 8266   5.655   1.035   6.867
 2456SOL    HW1 8267   5.736   1.002   6.915
 2456SOL    HW2 8268   5.602   0.957   6.833
 2457SOL     OW 8269   6.206   6.081   6.731
 2457SOL    HW1 8270   6.157   6.056   6.814
 2457SOL    HW2 8271   6.164   6.037   6.652
 2458SOL     OW 8272   2.388   5.803   4.289
 2458SOL    HW1 8273   2.296   5.798   4.250
 2458SOL    HW2 8274   2.387   5.863   4.369
 2459SOL     OW 8275   2.808   6.340   0.253
 2459SOL    HW1 8276   2.821   6.353   0.352
 2459SOL    HW2 8277   2.888   6.294   0.215
 2460SOL     OW 8278   1.905   1.655   1.578
 2460SOL    HW1 8279   1.809   1.649   1.605
 2460SOL    HW2 8280   1.955   1.577   1.615
 2461SOL     OW 8281   4.042   0.130   3.228
 2461SOL    HW1 8282   4.092   0.204   3.273
 2461SOL    HW2 8283   4.015   0.160   3.136
 2462SOL     OW 8284   2.649   5.261   0.183
 2462SOL    HW1 8285   2.566   5.314   0.199
 2462SOL    HW2 8286   2.716   5.319   0.136
 2463SOL     OW 8287   6.494   2.638   3.993
 2463SOL    HW1 8288   6.571   2.659   4.054
 2463SOL    HW2 8289   6.505   2.546   3.956
 2464SOL     OW 8290   1.868   4.131   1.766
 2464SOL    HW1 8291   1.837   4.044   1.726
 2464SOL    HW2 8292   1.798   4.167   1.827
 2465SOL     OW 8293   0.478   6.856   1.525
 2465SOL    HW1 8294   0.468   6.952   1.500
 2465SOL    HW2 8295   0.535   6.847   1.606
 2466SOL     OW 8296   3.530   1.622   1.872
 2466SOL    HW1 8297   3.486   1.539   1.906
 2466SOL    HW2 8298   3.615   1.597   1.825
 2467SOL     OW 8299   5.567   1.758   5.013
 2467SOL    HW1 8300   5.517   1.753   5.100
 2467SOL    HW2 8301   5.610   1.848   5.004
 2468SOL     OW 8302   5.741   6.197   2.363
 2468SOL    HW1 8303   5.831   6.240   2.352
 2468SOL    HW2 8304   5.736   6.154   2.453
 2469SOL     OW 8305   3.785   4.678   5.419
 2469SOL    HW1 8306   3.697   4.631   5.405
 2469SOL    HW2 8307   3.768   4.775   5.438
 2470SOL     OW 8308   3.782   4.620   5.815
 2470SOL    HW1 8309   3.875   4.583   5.821
 2470SOL    HW2 8310   3.730   4.569   5.747
 2471SOL     OW 8311   2.358   6.646   1.346
 2471SOL    HW1 8312   2.435   6.710   1.339
 2471SOL    HW2 8313   2.293   6.665   1.273
 2472SOL     OW 8314   4.265   1.683   3.607
 2472SOL    HW1 8315   4.264   1.593   3.563
 2472SOL    HW2 8316   4.337   1.686   3.676
 2473SOL     OW 8317   2.068   4.011   5.139
 2473SOL    HW1 8318   2.036   3.918   5.127
 2473SOL    HW2 8319   2.165   4.016   5.115
 2474SOL     OW 8320   0.605   5.610   0.603
 2474SOL    HW1 8321   0.701   5.605   0.630
 2474SOL    HW2 8322   0.580   5.705   0.584
 2475SOL     OW 8323   4.807   1.671   1.168
 2475SOL    HW1 8324   4.827   1.677   1.070
 2475SOL    HW2 8325   4.746   1.593   1.185
 2476SOL     OW 8326   0.916   2.670   3.862
 2476SOL    HW1 8327   0.819   2.659   3.841
 2476SOL    HW2 8328   0.965   2.699   3.779
 2477SOL     OW 8329   5.547   0.754   2.618
 2477SOL    HW1 8330   5.640   0.742   2.581
 2477SOL    HW2 8331   5.541   0.710   2.707
 2478SOL     OW 8332   5.390   0.656   2.297
 2478SOL    HW1 8333   5.452   0.712   2.351
 2478SOL    HW2 8334   5.414   0.559   2.307
 2479SOL     OW 8335   1.780   3.691   1.174
 2479SOL    HW1 8336   1.848   3.681   1.246
 2479SOL    HW2 8337   1.700   3.738   1.210
 2480SOL     OW 8338   5.927   4.379   0.973
 2480SOL    HW1 8339   5.868   4.367   0.893
 2480SOL    HW2 8340   5.899   4.460   1.024
 2481SOL     OW 8341   2.643   6.600   0.422
 2481SOL    HW1 8342   2.584   6.521   0.440
 2481SOL    HW2 8343   2.735   6.569   0.400
 2482SOL     OW 8344   4.904   2.947   5.652
 2482SOL    HW1 8345   4.871   2.944   5.557
 2482SOL    HW2 8346   4.944   2.859   5.676
 2483SOL     OW 8347   2.372   1.106   6.762
 2483SOL    HW1 8348   2.424   1.190   6.780
 2483SOL    HW2 8349   2.320   1.117   6.678
 2484SOL     OW 8350   2.204   0.596   0.487
 2484SOL    HW1 8351   2.116   0.598   0.534
 2484SOL    HW2 8352   2.248   0.686   0.496
 2485SOL     OW 8353   4.842   4.515   2.125
 2485SOL    HW1 8354   4.769   4.559   2.072
 2485SOL    HW2 8355   4.850   4.419   2.098
 2486SOL     OW 8356   3.298   5.417   3.022
 2486SOL    HW1 8357   3.311   5.485   2.950
 2486SOL    HW2 8358   3.387   5.387   3.056
 2487SOL     OW 8359   3.841   5.189   6.831
 2487SOL    HW1 8360   3.812   5.219   6.740
 2487SOL    HW2 8361   3.883   5.098   6.824
 2488SOL     OW 8362   2.261   4.115   2.562
 2488SOL    HW1 8363   2.296   4.138   2.653
 2488SOL    HW2 8364   2.231   4.020   2.561
 2489SOL     OW 8365   2.306   5.708   3.555
 2489SOL    HW1 8366   2.223   5.697   3.610
 2489SOL    HW2 8367   2.285   5.756   3.470
 2490SOL     OW 8368   6.472   5.617   1.234
 2490SOL    HW1 8369   6.505   5.710   1.249
 2490SOL    HW2 8370   6.477   5.596   1.136
 2491SOL     OW 8371   2.842   6.344   1.833
 2491SOL    HW1 8372   2.780   6.359   1.910
 2491SOL    HW2 8373   2.908   6.418   1.828
 2492SOL     OW 8374   4.521   3.409   0.110
 2492SOL    HW1 8375   4.487   3.393   0.202
 2492SOL    HW2 8376   4.573   3.494   0.108
 2493SOL     OW 8377   5.312   0.023   3.043
 2493SOL    HW1 8378   5.401   0.067   3.057
 2493SOL    HW2 8379   5.309   6.964   3.095
 2494SOL     OW 8380   5.704   3.537   2.624
 2494SOL    HW1 8381   5.638   3.610   2.609
 2494SOL    HW2 8382   5.751   3.517   2.538
 2495SOL     OW 8383   4.822   6.940   4.740
 2495SOL    HW1 8384   4.823   7.005   4.664
 2495SOL    HW2 8385   4.738   6.885   4.735
 2496SOL     OW 8386   0.867   4.730   6.435
 2496SOL    HW1 8387   0.879   4.634   6.461
 2496SOL    HW2 8388   0.771   4.748   6.417
 2497SOL     OW 8389   0.161   0.953   0.807
 2497SOL    HW1 8390   0.154   0.952   0.906
 2497SOL    HW2 8391   0.224   0.881   0.778
 2498SOL     OW 8392   2.920   2.220   3.329
 2498SOL    HW1 8393   2.914   2.207   3.428
 2498SOL    HW2 8394   3.005   2.179   3.296
 2499SOL     OW 8395   5.386   1.485   4.478
 2499SOL    HW1 8396   5.415   1.493   4.573
 2499SOL    HW2 8397   5.343   1.570   4.449
 2500SOL     OW 8398   4.185   3.240   5.829
 2500SOL    HW1 8399   4.178   3.161   5.768
 2500SOL    HW2 8400   4.278   3.246   5.866
 2501SOL     OW 8401   0.000   5.968   6.706
 2501SOL    HW1 8402   0.062   5.927   6.639
 2501SOL    HW2 8403   6.957   6.023   6.659
 2502SOL     OW 8404   2.708   6.328   3.348
 2502SOL    HW1 8405   2.718   6.317   3.249
 2502SOL    HW2 8406   2.799   6.336   3.390
 2503SOL     OW 8407   3.556   5.798   6.121
 2503SOL    HW1 8408   3.581   5.747   6.038
 2503SOL    HW2 8409   3.634   5.853   6.150
 2504SOL     OW 8410   3.533   5.633   5.232
 2504SOL    HW1 8411   3.604   5.576   5.273
 2504SOL    HW2 8412   3.517   5.713   5.291
 2505SOL     OW 8413   1.619   6.299   4.005
 2505SOL    HW1 8414   1.657   6.392   3.998
 2505SOL    HW2 8415   1.660   6.241   3.935
 2506SOL     OW 8416   6.562   2.960   6.244
 2506SOL    HW1 8417   6.469   2.997   6.237
 2506SOL    HW2 8418   6.601   2.987   6.332
 2507SOL     OW 8419   0.299   4.058   0.244
 2507SOL    HW1 8420   0.222   4.084   0.186
 2507SOL    HW2 8421   0.374   4.122   0.231
 2508SOL     OW 8422   2.818   1.634   2.416
 2508SOL    HW1 8423   2.840   1.725   2.379
 2508SOL    HW2 8424   2.893   1.571   2.396
 2509SOL     OW 8425   5.624   3.053   3.115
 2509SOL    HW1 8426   5.666   3.143   3.116
 2509SOL    HW2 8427   5.527   3.062   3.095
 2510SOL     OW 8428   3.491   4.529   1.221
 2510SOL    HW1 8429   3.493   4.436   1.185
 2510SOL    HW2 8430   3.567   4.582   1.181
 2511SOL     OW 8431   2.327   2.124   4.558
 2511SOL    HW1 8432   2.388   2.132   4.480
 2511SOL    HW2 8433   2.380   2.136   4.643
 2512SOL     OW 8434   5.363   5.220   5.505
 2512SOL    HW1 8435   5.328   5.275   5.581
 2512SOL    HW2 8436   5.299   5.224   5.428
 2513SOL     OW 8437   1.208   2.918   5.691
 2513SOL    HW1 8438   1.207   3.007   5.644
 2513SOL    HW2 8439   1.141   2.857   5.649
 2514SOL     OW 8440   6.687   3.916   4.416
 2514SOL    HW1 8441   6.762   3.983   4.415
 2514SOL    HW2 8442   6.682   3.874   4.507
 2515SOL     OW 8443   1.280   6.516   0.792
 2515SOL    HW1 8444   1.368   6.470   0.783
 2515SOL    HW2 8445   1.294   6.608   0.829
 2516SOL     OW 8446   5.859   6.391   3.179
 2516SOL    HW1 8447   5.896   6.458   3.115
 2516SOL    HW2 8448   5.810   6.437   3.252
 2517SOL     OW 8449   1.640   5.400   5.568
 2517SOL    HW1 8450   1.719   5.342   5.590
 2517SOL    HW2 8451   1.673   5.491   5.543
 2518SOL     OW 8452   2.181   2.871   0.334
 2518SOL    HW1 8453   2.224   2.917   0.257
 2518SOL    HW2 8454   2.251   2.822   0.387
 2519SOL     OW 8455   4.946   5.614   4.263
 2519SOL    HW1 8456   4.945   5.521   4.300
 2519SOL    HW2 8457   4.908   5.678   4.330
 2520SOL     OW 8458   1.221   3.222   0.894
 2520SOL    HW1 8459   1.124   3.228   0.871
 2520SOL    HW2 8460   1.264   3.148   0.842
 2521SOL     OW 8461   1.121   6.532   5.461
 2521SOL    HW1 8462   1.117   6.453   5.400
 2521SOL    HW2 8463   1.052   6.522   5.533
 2522SOL     OW 8464   0.953   3.060   6.076
 2522SOL    HW1 8465   0.910   3.141   6.037
 2522SOL    HW2 8466   1.038   3.039   6.027
 2523SOL     OW 8467   0.692   3.379   0.843
 2523SOL    HW1 8468   0.643   3.328   0.914
 2523SOL    HW2 8469   0.775   3.418   0.883
 2524SOL     OW 8470   0.507   5.869   3.973
 2524SOL    HW1 8471   0.511   5.786   4.029
 2524SOL    HW2 8472   0.580   5.931   4.002
 2525SOL     OW 8473   1.284   2.450   4.811
 2525SOL    HW1 8474   1.305   2.396   4.892
 2525SOL    HW2 8475   1.224   2.526   4.837
 2526SOL     OW 8476   1.164   4.081   5.642
 2526SOL    HW1 8477   1.130   4.090   5.735
 2526SOL    HW2 8478   1.263   4.095   5.641
 2527SOL     OW 8479   4.661   0.112   4.925
 2527SOL    HW1 8480   4.700   0.201   4.901
 2527SOL    HW2 8481   4.735   0.046   4.938
 2528SOL     OW 8482   6.235   4.053   1.227
 2528SOL    HW1 8483   6.281   4.079   1.313
 2528SOL    HW2 8484   6.169   4.124   1.203
 2529SOL     OW 8485   5.883   5.481   6.092
 2529SOL    HW1 8486   5.937   5.558   6.059
 2529SOL    HW2 8487   5.913   5.397   6.047
 2530SOL     OW 8488   1.295   5.806   5.080
 2530SOL    HW1 8489   1.320   5.858   5.161
 2530SOL    HW2 8490   1.238   5.863   5.020
 2531SOL     OW 8491   5.547   5.723   4.522
 2531SOL    HW1 8492   5.448   5.716   4.509
 2531SOL    HW2 8493   5.594   5.676   4.447
 2532SOL     OW 8494   0.796   6.022   0.577
 2532SOL    HW1 8495   0.725   5.957   0.552
 2532SOL    HW2 8496   0.787   6.045   0.674
 2533SOL     OW 8497   4.989   6.500   3.757
 2533SOL    HW1 8498   4.974   6.402   3.774
 2533SOL    HW2 8499   4.932   6.554   3.819
 2534SOL     OW 8500   1.963   0.001   3.732
 2534SOL    HW1 8501   1.931   7.021   3.637
 2534SOL    HW2 8502   1.996   0.094   3.749
 2535SOL     OW 8503   2.560   2.346   7.008
 2535SOL    HW1 8504   2.628   2.318   0.049
 2535SOL    HW2 8505   2.594   2.331   6.916
 2536SOL     OW 8506   0.581   1.752   3.504
 2536SOL    HW1 8507   0.571   1.820   3.577
 2536SOL    HW2 8508   0.510   1.683   3.512
 2537SOL     OW 8509   5.291   5.885   0.232
 2537SOL    HW1 8510   5.310   5.943   0.311
 2537SOL    HW2 8511   5.372   5.831   0.210
 2538SOL     OW 8512   1.600   4.385   4.697
 2538SOL    HW1 8513   1.591   4.376   4.796
 2538SOL    HW2 8514   1.696   4.389   4.672
 2539SOL     OW 8515   4.038   0.340   5.727
 2539SOL    HW1 8516   3.984   0.424   5.724
 2539SOL    HW2 8517   4.120   0.355   5.782
 2540SOL     OW 8518   4.728   0.695   0.825
 2540SOL    HW1 8519   4.701   0.697   0.729
 2540SOL    HW2 8520   4.720   0.787   0.863
 2541SOL     OW 8521   1.861   0.173   5.870
 2541SOL    HW1 8522   1.845   0.159   5.772
 2541SOL    HW2 8523   1.895   0.265   5.886
 2542SOL     OW 8524   3.855   1.706   4.991
 2542SOL    HW1 8525   3.823   1.757   4.911
 2542SOL    HW2 8526   3.941   1.746   5.023
 2543SOL     OW 8527   1.800   0.823   2.650
 2543SOL    HW1 8528   1.746   0.905   2.669
 2543SOL    HW2 8529   1.825   0.821   2.554
 2544SOL     OW 8530   0.311   4.885   2.628
 2544SOL    HW1 8531   0.214   4.898   2.607
 2544SOL    HW2 8532   0.362   4.870   2.543
 2545SOL     OW 8533   1.425   0.727   1.441
 2545SOL    HW1 8534   1.511   0.706   1.394
 2545SOL    HW2 8535   1.384   0.810   1.400
 2546SOL     OW 8536   5.860   3.432   1.614
 2546SOL    HW1 8537   5.952   3.435   1.575
 2546SOL    HW2 8538   5.853   3.501   1.687
 2547SOL     OW 8539   5.290   5.651   6.554
 2547SOL    HW1 8540   5.305   5.667   6.652
 2547SOL    HW2 8541   5.274   5.553   6.539
 2548SOL     OW 8542   2.272   0.898   5.206
 2548SOL    HW1 8543   2.181   0.917   5.170
 2548SOL    HW2 8544   2.334   0.876   5.131
 2549SOL     OW 8545   2.177   2.150   1.794
 2549SOL    HW1 8546   2.274   2.151   1.817
 2549SOL    HW2 8547   2.127   2.097   1.862
 2550SOL     OW 8548   6.231   0.719   6.780
 2550SOL    HW1 8549   6.245   0.688   6.686
 2550SOL    HW2 8550   6.174   0.654   6.829
 2551SOL     OW 8551   3.387   5.299   6.939
 2551SOL    HW1 8552   3.320   5.372   6.952
 2551SOL    HW2 8553   3.464   5.312   7.000
 2552SOL     OW 8554   1.876   5.594   6.120
 2552SOL    HW1 8555   1.814   5.517   6.134
 2552SOL    HW2 8556   1.970   5.562   6.125
 2553SOL     OW 8557   2.993   3.345   6.654
 2553SOL    HW1 8558   2.893   3.354   6.653
 2553SOL    HW2 8559   3.034   3.435   6.641
 2554SOL     OW 8560   1.535   5.625   6.629
 2554SOL    HW1 8561   1.568   5.595   6.719
 2554SOL    HW2 8562   1.595   5.590   6.558
 2555SOL     OW 8563   6.504   6.106   6.735
 2555SOL    HW1 8564   6.532   6.101   6.830
 2555SOL    HW2 8565   6.406   6.091   6.728
 2556SOL     OW 8566   4.105   6.214   1.080
 2556SOL    HW1 8567   4.118   6.268   1.164
 2556SOL    HW2 8568   4.011   6.224   1.049
 2557SOL     OW 8569   2.288   1.570   6.264
 2557SOL    HW1 8570   2.219   1.563   6.193
 2557SOL    HW2 8571   2.244   1.565   6.354
 2558SOL     OW 8572   4.012   3.832   5.196
 2558SOL    HW1 8573   3.990   3.914   5.143
 2558SOL    HW2 8574   4.106   3.839   5.231
 2559SOL     OW 8575   6.264   3.317   4.053
 2559SOL    HW1 8576   6.332   3.247   4.032
 2559SOL    HW2 8577   6.174   3.275   4.059
 2560SOL     OW 8578   4.905   3.565   3.843
 2560SOL    HW1 8579   4.866   3.486   3.796
 2560SOL    HW2 8580   4.929   3.636   3.776
 2561SOL     OW 8581   3.303   0.647   3.826
 2561SOL    HW1 8582   3.312   0.620   3.921
 2561SOL    HW2 8583   3.234   0.590   3.781
 2562SOL     OW 8584   2.578   5.447   3.005
 2562SOL    HW1 8585   2.664   5.484   2.971
 2562SOL    HW2 8586   2.531   5.516   3.060
 2563SOL     OW 8587   4.128   1.491   6.638
 2563SOL    HW1 8588   4.152   1.588   6.633
 2563SOL    HW2 8589   4.086   1.463   6.551
 2564SOL     OW 8590   1.272   6.339   6.440
 2564SOL    HW1 8591   1.330   6.262   6.414
 2564SOL    HW2 8592   1.281   6.355   6.539
 2565SOL     OW 8593   0.392   0.492   0.849
 2565SOL    HW1 8594   0.320   0.432   0.884
 2565SOL    HW2 8595   0.459   0.438   0.798
 2566SOL     OW 8596   1.343   6.835   0.488
 2566SOL    HW1 8597   1.348   6.838   0.388
 2566SOL    HW2 8598   1.432   6.809   0.525
 2567SOL     OW 8599   1.057   1.240   1.694
 2567SOL    HW1 8600   0.960   1.218   1.700
 2567SOL    HW2 8601   1.109   1.155   1.687
 2568SOL     OW 8602   3.082   0.407   0.464
 2568SOL    HW1 8603   3.166   0.458   0.480
 2568SOL    HW2 8604   3.038   0.440   0.381
 2569SOL     OW 8605   1.874   1.445   2.293
 2569SOL    HW1 8606   1.849   1.363   2.241
 2569SOL    HW2 8607   1.805   1.463   2.362
 2570SOL     OW 8608   5.385   6.606   6.316
 2570SOL    HW1 8609   5.467   6.637   6.268
 2570SOL    HW2 8610   5.331   6.685   6.344
 2571SOL     OW 8611   3.093   3.303   4.543
 2571SOL    HW1 8612   3.078   3.364   4.621
 2571SOL    HW2 8613   3.176   3.250   4.558
 2572SOL     OW 8614   1.622   6.508   1.133
 2572SOL    HW1 8615   1.610   6.526   1.035
 2572SOL    HW2 8616   1.629   6.409   1.148
 2573SOL     OW 8617   6.376   1.267   1.902
 2573SOL    HW1 8618   6.348   1.174   1.880
 2573SOL    HW2 8619   6.475   1.276   1.893
 2574SOL     OW 8620   6.569   3.321   0.237
 2574SOL    HW1 8621   6.636   3.374   0.186
 2574SOL    HW2 8622   6.488   3.306   0.180
 2575SOL     OW 8623   4.808   4.206   1.375
 2575SOL    HW1 8624   4.844   4.160   1.293
 2575SOL    HW2 8625   4.710   4.188   1.383
 2576SOL     OW 8626   4.082   6.672   3.448
 2576SOL    HW1 8627   4.115   6.757   3.490
 2576SOL    HW2 8628   3.983   6.678   3.435
 2577SOL     OW 8629   4.527   0.577   2.995
 2577SOL    HW1 8630   4.608   0.529   3.029
 2577SOL    HW2 8631   4.455   0.511   2.976
 2578SOL     OW 8632   4.214   3.045   5.630
 2578SOL    HW1 8633   4.305   3.084   5.617
 2578SOL    HW2 8634   4.223   2.949   5.659
 2579SOL     OW 8635   1.357   1.451   4.567
 2579SOL    HW1 8636   1.301   1.518   4.518
 2579SOL    HW2 8637   1.454   1.471   4.553
 2580SOL     OW 8638   1.200   2.901   6.382
 2580SOL    HW1 8639   1.280   2.903   6.443
 2580SOL    HW2 8640   1.119   2.875   6.434
 2581SOL     OW 8641   5.971   4.866   1.902
 2581SOL    HW1 8642   6.005   4.959   1.891
 2581SOL    HW2 8643   5.980   4.817   1.815
 2582SOL     OW 8644   1.583   4.784   2.666
 2582SOL    HW1 8645   1.590   4.798   2.568
 2582SOL    HW2 8646   1.490   4.754   2.690
 2583SOL     OW 8647   1.418   1.176   1.321
 2583SOL    HW1 8648   1.356   1.102   1.343
 2583SOL    HW2 8649   1.385   1.261   1.362
 2584SOL     OW 8650   3.663   5.612   7.003
 2584SOL    HW1 8651   3.618   5.610   6.914
 2584SOL    HW2 8652   3.752   5.566   6.996
 2585SOL     OW 8653   3.416   0.598   0.208
 2585SOL    HW1 8654   3.462   0.686   0.195
 2585SOL    HW2 8655   3.389   0.561   0.120
 2586SOL     OW 8656   4.738   1.998   4.119
 2586SOL    HW1 8657   4.754   2.096   4.132
 2586SOL    HW2 8658   4.641   1.982   4.102
 2587SOL     OW 8659   6.620   1.587   4.419
 2587SOL    HW1 8660   6.538   1.534   4.440
 2587SOL    HW2 8661   6.701   1.533   4.438
 2588SOL     OW 8662   4.768   0.173   0.587
 2588SOL    HW1 8663   4.697   0.106   0.568
 2588SOL    HW2 8664   4.854   0.143   0.544
 2589SOL     OW 8665   0.256   6.706   5.710
 2589SOL    HW1 8666   0.334   6.700   5.772
 2589SOL    HW2 8667   0.255   6.796   5.667
 2590SOL     OW 8668   3.724   6.679   2.265
 2590SOL    HW1 8669   3.698   6.774   2.248
 2590SOL    HW2 8670   3.739   6.632   2.179
 2591SOL     OW 8671   5.968   5.879   2.753
 2591SOL    HW1 8672   5.996   5.838   2.666
 2591SOL    HW2 8673   5.869   5.870   2.764
 2592SOL     OW 8674   2.555   0.304   1.082
 2592SOL    HW1 8675   2.533   0.299   0.985
 2592SOL    HW2 8676   2.574   0.399   1.107
 2593SOL     OW 8677   3.325   6.631   2.088
 2593SOL    HW1 8678   3.256   6.614   2.158
 2593SOL    HW2 8679   3.375   6.715   2.111
 2594SOL     OW 8680   0.150   6.191   5.954
 2594SOL    HW1 8681   0.162   6.269   5.893
 2594SOL    HW2 8682   0.071   6.205   6.012
 2595SOL     OW 8683   6.116   1.842   5.781
 2595SOL    HW1 8684   6.081   1.916   5.838
 2595SOL    HW2 8685   6.060   1.833   5.699
 2596SOL     OW 8686   3.994   2.281   1.828
 2596SOL    HW1 8687   4.016   2.234   1.913
 2596SOL    HW2 8688   3.900   2.314   1.832
 2597SOL     OW 8689   2.112   3.959   0.428
 2597SOL    HW1 8690   2.206   3.933   0.449
 2597SOL    HW2 8691   2.109   4.006   0.340
 2598SOL     OW 8692   6.385   1.375   4.869
 2598SOL    HW1 8693   6.406   1.278   4.859
 2598SOL    HW2 8694   6.293   1.393   4.834
 2599SOL     OW 8695   3.090   0.165   0.825
 2599SOL    HW1 8696   3.061   0.084   0.876
 2599SOL    HW2 8697   3.066   0.154   0.729
 2600SOL     OW 8698   4.950   3.644   4.837
 2600SOL    HW1 8699   4.895   3.685   4.765
 2600SOL    HW2 8700   4.893   3.625   4.917
 2601SOL     OW 8701   3.231   1.747   6.868
 2601SOL    HW1 8702   3.137   1.751   6.902
 2601SOL    HW2 8703   3.243   1.815   6.796
 2602SOL     OW 8704   6.714   5.167   3.714
 2602SOL    HW1 8705   6.755   5.187   3.803
 2602SOL    HW2 8706   6.625   5.123   3.727
 2603SOL     OW 8707   2.045   2.510   1.458
 2603SOL    HW1 8708   1.993   2.465   1.385
 2603SOL    HW2 8709   1.989   2.516   1.540
 2604SOL     OW 8710   5.170   1.266   2.971
 2604SOL    HW1 8711   5.208   1.311   2.891
 2604SOL    HW2 8712   5.076   1.239   2.953
 2605SOL     OW 8713   3.108   5.097   3.460
 2605SOL    HW1 8714   3.193   5.050   3.438
 2605SOL    HW2 8715   3.105   5.185   3.412
 2606SOL     OW 8716   0.132   4.811   0.514
 2606SOL    HW1 8717   0.218   4.798   0.464
 2606SOL    HW2 8718   0.101   4.722   0.549
 2607SOL     OW 8719   0.437   1.446   5.849
 2607SOL    HW1 8720   0.447   1.372   5.915
 2607SOL    HW2 8721   0.399   1.410   5.764
 2608SOL     OW 8722   3.775   5.431   2.702
 2608SOL    HW1 8723   3.678   5.454   2.696
 2608SOL    HW2 8724   3.791   5.376   2.784
 2609SOL     OW 8725   0.436   2.475   1.479
 2609SOL    HW1 8726   0.519   2.501   1.528
 2609SOL    HW2 8727   0.378   2.556   1.468
 2610SOL     OW 8728   6.913   4.787   4.500
 2610SOL    HW1 8729   6.986   4.837   4.547
 2610SOL    HW2 8730   6.951   4.735   4.424
 2611SOL     OW 8731   5.538   6.775   1.195
 2611SOL    HW1 8732   5.602   6.712   1.240
 2611SOL    HW2 8733   5.512   6.739   1.106
 2612SOL     OW 8734   0.149   0.026   5.522
 2612SOL    HW1 8735   0.100   0.091   5.464
 2612SOL    HW2 8736   0.154   6.964   5.475
 2613SOL     OW 8737   2.839   6.625   1.170
 2613SOL    HW1 8738   2.872   6.532   1.186
 2613SOL    HW2 8739   2.793   6.659   1.252
 2614SOL     OW 8740   6.930   0.124   6.385
 2614SOL    HW1 8741   6.913   0.066   6.464
 2614SOL    HW2 8742   0.002   0.145   6.379
 2615SOL     OW 8743   6.202   4.040   2.675
 2615SOL    HW1 8744   6.216   4.017   2.578
 2615SOL    HW2 8745   6.244   4.129   2.694
 2616SOL     OW 8746   3.861   3.247   3.552
 2616SOL    HW1 8747   3.951   3.207   3.569
 2616SOL    HW2 8748   3.848   3.327   3.611
 2617SOL     OW 8749   3.983   6.575   0.915
 2617SOL    HW1 8750   3.946   6.664   0.887
 2617SOL    HW2 8751   4.057   6.549   0.854
 2618SOL     OW 8752   0.312   6.524   4.032
 2618SOL    HW1 8753   0.337   6.474   4.115
 2618SOL    HW2 8754   0.221   6.565   4.045
 2619SOL     OW 8755   2.860   1.382   3.178
 2619SOL    HW1 8756   2.842   1.433   3.094
 2619SOL    HW2 8757   2.954   1.347   3.177
 2620SOL     OW 8758   0.804   6.286   3.177
 2620SOL    HW1 8759   0.819   6.288   3.276
 2620SOL    HW2 8760   0.744   6.361   3.150
 2621SOL     OW 8761   1.992   5.604   2.624
 2621SOL    HW1 8762   1.994   5.506   2.602
 2621SOL    HW2 8763   1.923   5.620   2.695
 2622SOL     OW 8764   2.788   1.829   6.742
 2622SOL    HW1 8765   2.834   1.804   6.656
 2622SOL    HW2 8766   2.850   1.881   6.800
 2623SOL     OW 8767   3.519   2.131   4.430
 2623SOL    HW1 8768   3.432   2.086   4.451
 2623SOL    HW2 8769   3.518   2.164   4.336
 2624SOL     OW 8770   6.654   3.187   4.956
 2624SOL    HW1 8771   6.586   3.192   5.029
 2624SOL    HW2 8772   6.609   3.161   4.870
 2625SOL     OW 8773   2.574   2.739   6.121
 2625SOL    HW1 8774   2.635   2.682   6.066
 2625SOL    HW2 8775   2.570   2.704   6.214
 2626SOL     OW 8776   0.607   0.369   5.183
 2626SOL    HW1 8777   0.657   0.309   5.246
 2626SOL    HW2 8778   0.517   0.331   5.164
 2627SOL     OW 8779   0.387   0.147   4.818
 2627SOL    HW1 8780   0.418   0.191   4.734
 2627SOL    HW2 8781   0.441   0.064   4.833
 2628SOL     OW 8782   2.587   5.135   6.562
 2628SOL    HW1 8783   2.649   5.111   6.487
 2628SOL    HW2 8784   2.628   5.208   6.617
 2629SOL     OW 8785   3.304   4.196   1.766
 2629SOL    HW1 8786   3.208   4.216   1.746
 2629SOL    HW2 8787   3.310   4.153   1.857
 2630SOL     OW 8788   2.896   1.638   3.273
 2630SOL    HW1 8789   2.928   1.611   3.364
 2630SOL    HW2 8790   2.818   1.581   3.247
 2631SOL     OW 8791   4.793   0.216   4.342
 2631SOL    HW1 8792   4.891   0.197   4.335
 2631SOL    HW2 8793   4.779   0.314   4.353
 2632SOL     OW 8794   3.032   2.052   6.748
 2632SOL    HW1 8795   3.044   2.101   6.834
 2632SOL    HW2 8796   3.114   1.999   6.729
 2633SOL     OW 8797   6.412   1.830   5.838
 2633SOL    HW1 8798   6.448   1.919   5.865
 2633SOL    HW2 8799   6.319   1.840   5.804
 2634SOL     OW 8800   1.999   4.101   2.865
 2634SOL    HW1 8801   2.015   4.094   2.766
 2634SOL    HW2 8802   1.946   4.021   2.896
 2635SOL     OW 8803   5.586   6.207   5.018
 2635SOL    HW1 8804   5.592   6.307   5.015
 2635SOL    HW2 8805   5.678   6.168   5.023
 2636SOL     OW 8806   4.423   0.360   5.122
 2636SOL    HW1 8807   4.458   0.454   5.124
 2636SOL    HW2 8808   4.467   0.309   5.048
 2637SOL     OW 8809   5.857   1.413   3.633
 2637SOL    HW1 8810   5.884   1.359   3.553
 2637SOL    HW2 8811   5.918   1.491   3.643
 2638SOL     OW 8812   0.182   0.173   2.890
 2638SOL    HW1 8813   0.281   0.174   2.878
 2638SOL    HW2 8814   0.138   0.171   2.800
 2639SOL     OW 8815   1.338   0.049   1.824
 2639SOL    HW1 8816   1.356   6.978   1.810
 2639SOL    HW2 8817   1.328   0.093   1.735
 2640SOL     OW 8818   0.071   6.041   4.581
 2640SOL    HW1 8819   0.111   5.950   4.579
 2640SOL    HW2 8820   7.007   6.037   4.625
 2641SOL     OW 8821   4.910   3.129   2.260
 2641SOL    HW1 8822   4.895   3.084   2.348
 2641SOL    HW2 8823   4.848   3.089   2.192
 2642SOL     OW 8824   4.564   6.798   4.246
 2642SOL    HW1 8825   4.612   6.763   4.327
 2642SOL    HW2 8826   4.466   6.787   4.258
 2643SOL     OW 8827   1.304   4.678   2.634
 2643SOL    HW1 8828   1.268   4.650   2.545
 2643SOL    HW2 8829   1.237   4.734   2.681
 2644SOL     OW 8830   6.591   5.062   5.823
 2644SOL    HW1 8831   6.517   5.103   5.877
 2644SOL    HW2 8832   6.652   5.133   5.791
 2645SOL     OW 8833   4.402   5.548   3.925
 2645SOL    HW1 8834   4.361   5.614   3.861
 2645SOL    HW2 8835   4.359   5.459   3.912
 2646SOL     OW 8836   5.805   0.193   6.379
 2646SOL    HW1 8837   5.799   0.156   6.286
 2646SOL    HW2 8838   5.851   0.282   6.376
 2647SOL     OW 8839   6.073   0.439   2.017
 2647SOL    HW1 8840   6.029   0.385   1.945
 2647SOL    HW2 8841   6.152   0.487   1.978
 2648SOL     OW 8842   0.191   0.267   3.393
 2648SOL    HW1 8843   0.195   0.169   3.410
 2648SOL    HW2 8844   0.103   0.303   3.425
 2649SOL     OW 8845   5.716   3.262   6.402
 2649SOL    HW1 8846   5.636   3.217   6.441
 2649SOL    HW2 8847   5.795   3.201   6.407
 2650SOL     OW 8848   0.777   3.738   4.221
 2650SOL    HW1 8849   0.701   3.718   4.283
 2650SOL    HW2 8850   0.753   3.712   4.128
 2651SOL     OW 8851   0.268   2.058   6.871
 2651SOL    HW1 8852   0.331   2.066   6.948
 2651SOL    HW2 8853   0.176   2.037   6.905
 2652SOL     OW 8854   3.147   3.682   3.794
 2652SOL    HW1 8855   3.186   3.690   3.886
 2652SOL    HW2 8856   3.219   3.699   3.726
 2653SOL     OW 8857   4.937   0.213   5.566
 2653SOL    HW1 8858   4.845   0.173   5.570
 2653SOL    HW2 8859   4.986   0.174   5.488
 2654SOL     OW 8860   5.129   4.860   1.234
 2654SOL    HW1 8861   5.166   4.929   1.296
 2654SOL    HW2 8862   5.034   4.839   1.260
 2655SOL     OW 8863   5.182   4.803   4.221
 2655SOL    HW1 8864   5.159   4.885   4.170
 2655SOL    HW2 8865   5.268   4.817   4.270
 2656SOL     OW 8866   3.729   4.905   4.057
 2656SOL    HW1 8867   3.697   4.846   3.983
 2656SOL    HW2 8868   3.664   4.903   4.132
 2657SOL     OW 8869   2.477   4.379   6.260
 2657SOL    HW1 8870   2.428   4.462   6.286
 2657SOL    HW2 8871   2.559   4.369   6.317
 2658SOL     OW 8872   5.234   4.363   0.519
 2658SOL    HW1 8873   5.166   4.294   0.541
 2658SOL    HW2 8874   5.224   4.441   0.582
 2659SOL     OW 8875   6.270   3.072   4.958
 2659SOL    HW1 8876   6.224   3.150   4.917
 2659SOL    HW2 8877   6.306   3.012   4.886
 2660SOL     OW 8878   0.157   1.611   1.181
 2660SOL    HW1 8879   0.253   1.630   1.203
 2660SOL    HW2 8880   0.114   1.693   1.144
 2661SOL     OW 8881   2.292   6.510   0.958
 2661SOL    HW1 8882   2.217   6.537   1.018
 2661SOL    HW2 8883   2.269   6.534   0.863
 2662SOL     OW 8884   4.210   0.232   5.448
 2662SOL    HW1 8885   4.146   0.303   5.419
 2662SOL    HW2 8886   4.213   0.160   5.379
 2663SOL     OW 8887   2.568   4.115   1.221
 2663SOL    HW1 8888   2.549   4.191   1.158
 2663SOL    HW2 8889   2.559   4.028   1.172
 2664SOL     OW 8890   3.902   3.512   4.867
 2664SOL    HW1 8891   3.865   3.603   4.888
 2664SOL    HW2 8892   4.002   3.516   4.869
 2665SOL     OW 8893   2.680   2.485   5.214
 2665SOL    HW1 8894   2.624   2.568   5.222
 2665SOL    HW2 8895   2.776   2.507   5.232
 2666SOL     OW 8896   4.941   3.977   1.840
 2666SOL    HW1 8897   5.001   3.983   1.760
 2666SOL    HW2 8898   4.983   4.026   1.917
 2667SOL     OW 8899   1.566   6.048   4.275
 2667SOL    HW1 8900   1.603   6.112   4.208
 2667SOL    HW2 8901   1.629   5.971   4.286
 2668SOL     OW 8902   5.997   3.406   3.712
 2668SOL    HW1 8903   6.051   3.487   3.735
 2668SOL    HW2 8904   5.929   3.389   3.783
 2669SOL     OW 8905   3.086   4.927   5.043
 2669SOL    HW1 8906   3.062   4.875   4.961
 2669SOL    HW2 8907   3.175   4.970   5.030
 2670SOL     OW 8908   5.366   2.221   6.425
 2670SOL    HW1 8909   5.274   2.259   6.415
 2670SOL    HW2 8910   5.393   2.176   6.340
 2671SOL     OW 8911   3.363   5.361   6.679
 2671SOL    HW1 8912   3.382   5.291   6.611
 2671SOL    HW2 8913   3.376   5.322   6.771
 2672SOL     OW 8914   6.980   5.024   0.393
 2672SOL    HW1 8915   7.023   4.934   0.405
 2672SOL    HW2 8916   0.025   5.093   0.381
 2673SOL     OW 8917   6.486   1.804   3.796
 2673SOL    HW1 8918   6.414   1.818   3.864
 2673SOL    HW2 8919   6.458   1.843   3.709
 2674SOL     OW 8920   1.617   4.091   3.544
 2674SOL    HW1 8921   1.661   4.001   3.535
 2674SOL    HW2 8922   1.681   4.154   3.587
 2675SOL     OW 8923   6.440   4.998   4.559
 2675SOL    HW1 8924   6.373   4.954   4.618
 2675SOL    HW2 8925   6.515   4.935   4.541
 2676SOL     OW 8926   4.577   1.599   1.886
 2676SOL    HW1 8927   4.601   1.695   1.872
 2676SOL    HW2 8928   4.486   1.593   1.927
 2677SOL     OW 8929   2.971   4.364   0.069
 2677SOL    HW1 8930   2.967   4.359   0.169
 2677SOL    HW2 8931   2.915   4.291   0.030
 2678SOL     OW 8932   6.667   4.458   1.425
 2678SOL    HW1 8933   6.682   4.509   1.340
 2678SOL    HW2 8934   6.721   4.500   1.498
 2679SOL     OW 8935   3.557   5.588   0.851
 2679SOL    HW1 8936   3.533   5.609   0.945
 2679SOL    HW2 8937   3.604   5.500   0.847
 2680SOL     OW 8938   0.933   1.672   0.643
 2680SOL    HW1 8939   0.843   1.634   0.621
 2680SOL    HW2 8940   0.927   1.772   0.648
 2681SOL     OW 8941   1.689   2.253   4.285
 2681SOL    HW1 8942   1.716   2.158   4.267
 2681SOL    HW2 8943   1.596   2.254   4.322
 2682SOL     OW 8944   5.402   3.803   2.903
 2682SOL    HW1 8945   5.472   3.736   2.877
 2682SOL    HW2 8946   5.413   3.828   2.999
 2683SOL     OW 8947   2.362   3.690   0.227
 2683SOL    HW1 8948   2.295   3.658   0.159
 2683SOL    HW2 8949   2.385   3.615   0.289
 2684SOL     OW 8950   4.723   5.835   1.355
 2684SOL    HW1 8951   4.744   5.831   1.452
 2684SOL    HW2 8952   4.806   5.818   1.302
 2685SOL     OW 8953   6.260   5.899   6.941
 2685SOL    HW1 8954   6.359   5.901   6.953
 2685SOL    HW2 8955   6.234   5.817   6.891
 2686SOL     OW 8956   1.609   1.699   5.531
 2686SOL    HW1 8957   1.522   1.669   5.570
 2686SOL    HW2 8958   1.601   1.702   5.431
 2687SOL     OW 8959   4.509   4.643   2.431
 2687SOL    HW1 8960   4.513   4.563   2.372
 2687SOL    HW2 8961   4.547   4.619   2.521
 2688SOL     OW 8962   4.889   5.312   0.006
 2688SOL    HW1 8963   4.890   5.361   0.093
 2688SOL    HW2 8964   4.905   5.214   0.023
 2689SOL     OW 8965   1.892   2.954   3.549
 2689SOL    HW1 8966   1.846   2.918   3.468
 2689SOL    HW2 8967   1.823   2.978   3.618
 2690SOL     OW 8968   3.344   3.718   4.001
 2690SOL    HW1 8969   3.310   3.659   4.074
 2690SOL    HW2 8970   3.444   3.711   3.996
 2691SOL     OW 8971   0.935   5.529   2.306
 2691SOL    HW1 8972   0.850   5.490   2.342
 2691SOL    HW2 8973   0.934   5.628   2.318
 2692SOL     OW 8974   3.704   4.873   3.448
 2692SOL    HW1 8975   3.781   4.835   3.500
 2692SOL    HW2 8976   3.735   4.900   3.357
 2693SOL     OW 8977   1.669   4.201   2.977
 2693SOL    HW1 8978   1.644   4.197   3.074
 2693SOL    HW2 8979   1.648   4.113   2.934
 2694SOL     OW 8980   4.304   6.580   2.914
 2694SOL    HW1 8981   4.378   6.513   2.924
 2694SOL    HW2 8982   4.277   6.614   3.004
 2695SOL     OW 8983   4.949   0.886   2.718
 2695SOL    HW1 8984   4.894   0.812   2.758
 2695SOL    HW2 8985   4.923   0.898   2.622
 2696SOL     OW 8986   3.951   3.430   5.451
 2696SOL    HW1 8987   4.017   3.499   5.482
 2696SOL    HW2 8988   3.993   3.340   5.452
 2697SOL     OW 8989   3.135   1.301   3.168
 2697SOL    HW1 8990   3.144   1.232   3.240
 2697SOL    HW2 8991   3.132   1.256   3.079
 2698SOL     OW 8992   2.096   5.908   0.509
 2698SOL    HW1 8993   2.122   5.878   0.417
 2698SOL    HW2 8994   2.031   5.983   0.503
 2699SOL     OW 8995   3.121   6.340   0.242
 2699SOL    HW1 8996   3.148   6.427   0.284
 2699SOL    HW2 8997   3.172   6.265   0.283
 2700SOL     OW 8998   2.090   4.081   0.879
 2700SOL    HW1 8999   2.051   4.054   0.966
 2700SOL    HW2 9000   2.029   4.054   0.805
 2701SOL     OW 9001   3.743   0.646   6.820
 2701SOL    HW1 9002   3.739   0.645   6.721
 2701SOL    HW2 9003   3.817   0.587   6.852
 2702SOL     OW 9004   0.930   2.882   3.648
 2702SOL    HW1 9005   0.896   2.863   3.556
 2702SOL    HW2 9006   0.961   2.977   3.653
 2703SOL     OW 9007   1.869   0.789   2.393
 2703SOL    HW1 9008   1.957   0.741   2.394
 2703SOL    HW2 9009   1.875   0.868   2.332
 2704SOL     OW 9010   0.213   6.157   1.045
 2704SOL    HW1 9011   0.171   6.066   1.044
 2704SOL    HW2 9012   0.294   6.157   0.987
 2705SOL     OW 9013   1.477   5.157   4.155
 2705SOL    HW1 9014   1.466   5.150   4.056
 2705SOL    HW2 9015   1.484   5.066   4.195
 2706SOL     OW 9016   0.156   0.607   1.393
 2706SOL    HW1 9017   0.245   0.576   1.357
 2706SOL    HW2 9018   0.147   0.705   1.377
 2707SOL     OW 9019   2.044   0.954   5.084
 2707SOL    HW1 9020   2.066   0.875   5.026
 2707SOL    HW2 9021   1.994   1.022   5.031
 2708SOL     OW 9022   0.949   1.944   0.605
 2708SOL    HW1 9023   0.895   1.963   0.523
 2708SOL    HW2 9024   0.927   2.010   0.676
 2709SOL     OW 9025   5.542   6.374   0.566
 2709SOL    HW1 9026   5.588   6.428   0.495
 2709SOL    HW2 9027   5.447   6.359   0.540
 2710SOL     OW 9028   0.641   3.204   3.413
 2710SOL    HW1 9029   0.644   3.107   3.438
 2710SOL    HW2 9030   0.701   3.255   3.473
 2711SOL     OW 9031   2.428   1.189   3.603
 2711SOL    HW1 9032   2.452   1.130   3.679
 2711SOL    HW2 9033   2.502   1.255   3.587
 2712SOL     OW 9034   3.395   4.814   0.748
 2712SOL    HW1 9035   3.469   4.792   0.810
 2712SOL    HW2 9036   3.309   4.823   0.799
 2713SOL     OW 9037   2.357   1.956   5.077
 2713SOL    HW1 9038   2.301   2.013   5.016
 2713SOL    HW2 9039   2.313   1.866   5.086
 2714SOL     OW 9040   4.874   2.421   0.506
 2714SOL    HW1 9041   4.960   2.374   0.487
 2714SOL    HW2 9042   4.868   2.441   0.604
 2715SOL     OW 9043   5.154   1.037   0.419
 2715SOL    HW1 9044   5.201   1.097   0.484
 2715SOL    HW2 9045   5.056   1.059   0.418
 2716SOL     OW 9046   5.327   4.939   3.024
 2716SOL    HW1 9047   5.347   5.036   3.033
 2716SOL    HW2 9048   5.408   4.890   2.994
 2717SOL     OW 9049   2.518   4.876   1.900
 2717SOL    HW1 9050   2.557   4.826   1.977
 2717SOL    HW2 9051   2.475   4.812   1.836
 2718SOL     OW 9052   1.586   3.370   5.987
 2718SOL    HW1 9053   1.532   3.415   5.915
 2718SOL    HW2 9054   1.645   3.438   6.031
 2719SOL     OW 9055   6.612   5.634   1.481
 2719SOL    HW1 9056   6.596   5.620   1.383
 2719SOL    HW2 9057   6.526   5.654   1.526
 2720SOL     OW 9058   2.162   6.247   2.288
 2720SOL    HW1 9059   2.152   6.211   2.381
 2720SOL    HW2 9060   2.094   6.318   2.272
 2721SOL     OW 9061   3.090   0.484   4.247
 2721SOL    HW1 9062   3.006   0.453   4.292
 2721SOL    HW2 9063   3.166   0.483   4.313
 2722SOL     OW 9064   6.691   5.736   1.785
 2722SOL    HW1 9065   6.745   5.700   1.860
 2722SOL    HW2 9066   6.727   5.701   1.698
 2723SOL     OW 9067   0.925   6.486   5.640
 2723SOL    HW1 9068   0.864   6.411   5.667
 2723SOL    HW2 9069   0.870   6.567   5.621
 2724SOL     OW 9070   2.427   0.124   6.476
 2724SOL    HW1 9071   2.360   0.065   6.432
 2724SOL    HW2 9072   2.448   0.089   6.567
 2725SOL     OW 9073   6.201   4.823   4.200
 2725SOL    HW1 9074   6.195   4.777   4.111
 2725SOL    HW2 9075   6.130   4.787   4.261
 2726SOL     OW 9076   0.080   3.761   1.158
 2726SOL    HW1 9077   0.127   3.673   1.170
 2726SOL    HW2 9078   7.007   3.745   1.153
 2727SOL     OW 9079   0.559   4.833   3.703
 2727SOL    HW1 9080   0.506   4.888   3.768
 2727SOL    HW2 9081   0.549   4.871   3.611
 2728SOL     OW 9082   3.927   6.876   5.910
 2728SOL    HW1 9083   4.005   6.922   5.868
 2728SOL    HW2 9084   3.863   6.848   5.840
 2729SOL     OW 9085   6.420   5.363   1.423
 2729SOL    HW1 9086   6.440   5.406   1.511
 2729SOL    HW2 9087   6.435   5.430   1.350
 2730SOL     OW 9088   1.906   5.133   1.686
 2730SOL    HW1 9089   1.879   5.169   1.775
 2730SOL    HW2 9090   1.989   5.180   1.655
 2731SOL     OW 9091   3.831   3.532   1.968
 2731SOL    HW1 9092   3.809   3.628   1.953
 2731SOL    HW2 9093   3.930   3.522   1.983
 2732SOL     OW 9094   5.150   3.105   2.455
 2732SOL    HW1 9095   5.126   3.105   2.357
 2732SOL    HW2 9096   5.079   3.153   2.507
 2733SOL     OW 9097   0.041   6.837   5.379
 2733SOL    HW1 9098   0.030   6.750   5.426
 2733SOL    HW2 9099   0.037   6.822   5.280
 2734SOL     OW 9100   2.233   6.056   1.685
 2734SOL    HW1 9101   2.286   6.040   1.602
 2734SOL    HW2 9102   2.278   6.126   1.740
 2735SOL     OW 9103   1.083   2.919   2.596
 2735SOL    HW1 9104   0.985   2.911   2.580
 2735SOL    HW2 9105   1.127   2.958   2.516
 2736SOL     OW 9106   3.932   0.056   4.419
 2736SOL    HW1 9107   4.003   7.015   4.442
 2736SOL    HW2 9108   3.852   0.008   4.381
 2737SOL     OW 9109   3.890   4.038   5.871
 2737SOL    HW1 9110   3.847   4.007   5.955
 2737SOL    HW2 9111   3.828   4.099   5.821
 2738SOL     OW 9112   5.650   5.047   4.018
 2738SOL    HW1 9113   5.677   4.955   3.989
 2738SOL    HW2 9114   5.731   5.104   4.029
 2739SOL     OW 9115   6.786   5.343   0.511
 2739SOL    HW1 9116   6.872   5.299   0.536
 2739SOL    HW2 9117   6.766   5.417   0.575
 2740SOL     OW 9118   6.137   3.515   2.331
 2740SOL    HW1 9119   6.136   3.450   2.255
 2740SOL    HW2 9120   6.116   3.466   2.416
 2741SOL     OW 9121   6.426   0.968   5.575
 2741SOL    HW1 9122   6.370   0.887   5.562
 2741SOL    HW2 9123   6.445   1.011   5.487
 2742SOL     OW 9124   2.149   4.782   6.987
 2742SOL    HW1 9125   2.243   4.815   6.973
 2742SOL    HW2 9126   2.126   4.717   6.915
 2743SOL     OW 9127   6.774   5.500   2.653
 2743SOL    HW1 9128   6.781   5.516   2.554
 2743SOL    HW2 9129   6.855   5.535   2.698
 2744SOL     OW 9130   4.611   1.813   0.128
 2744SOL    HW1 9131   4.691   1.761   0.159
 2744SOL    HW2 9132   4.548   1.827   0.204
 2745SOL     OW 9133   0.860   6.756   6.734
 2745SOL    HW1 9134   0.827   6.848   6.756
 2745SOL    HW2 9135   0.893   6.711   6.817
 2746SOL     OW 9136   2.280   2.213   3.708
 2746SOL    HW1 9137   2.290   2.249   3.615
 2746SOL    HW2 9138   2.306   2.116   3.708
 2747SOL     OW 9139   5.744   3.532   5.911
 2747SOL    HW1 9140   5.646   3.546   5.916
 2747SOL    HW2 9141   5.791   3.620   5.903
 2748SOL     OW 9142   4.306   1.981   0.755
 2748SOL    HW1 9143   4.244   1.909   0.785
 2748SOL    HW2 9144   4.395   1.969   0.799
 2749SOL     OW 9145   6.329   4.633   3.614
 2749SOL    HW1 9146   6.298   4.724   3.644
 2749SOL    HW2 9147   6.275   4.606   3.534
 2750SOL     OW 9148   0.938   4.895   1.474
 2750SOL    HW1 9149   0.987   4.827   1.419
 2750SOL    HW2 9150   0.985   4.983   1.467
 2751SOL     OW 9151   0.482   6.405   0.645
 2751SOL    HW1 9152   0.435   6.321   0.618
 2751SOL    HW2 9153   0.553   6.384   0.711
 2752SOL     OW 9154   4.858   4.373   5.081
 2752SOL    HW1 9155   4.811   4.318   5.012
 2752SOL    HW2 9156   4.957   4.368   5.065
 2753SOL     OW 9157   1.111   6.662   5.832
 2753SOL    HW1 9158   1.076   6.683   5.923
 2753SOL    HW2 9159   1.041   6.614   5.779
 2754SOL     OW 9160   6.343   0.820   3.608
 2754SOL    HW1 9161   6.253   0.805   3.649
 2754SOL    HW2 9162   6.362   0.918   3.605
 2755SOL     OW 9163   2.655   6.616   3.665
 2755SOL    HW1 9164   2.689   6.657   3.580
 2755SOL    HW2 9165   2.673   6.677   3.741
 2756SOL     OW 9166   5.899   4.344   5.527
 2756SOL    HW1 9167   5.824   4.388   5.576
 2756SOL    HW2 9168   5.986   4.376   5.563
 2757SOL     OW 9169   2.089   1.603   6.120
 2757SOL    HW1 9170   1.997   1.574   6.094
 2757SOL    HW2 9171   2.082   1.672   6.192
 2758SOL     OW 9172   5.226   6.342   3.354
 2758SOL    HW1 9173   5.144   6.363   3.302
 2758SOL    HW2 9174   5.304   6.390   3.315
 2759SOL     OW 9175   4.255   5.794   5.661
 2759SOL    HW1 9176   4.342   5.816   5.705
 2759SOL    HW2 9177   4.218   5.876   5.616
 2760SOL     OW 9178   0.076   5.414   2.686
 2760SOL    HW1 9179   0.095   5.334   2.743
 2760SOL    HW2 9180   0.074   5.496   2.744
 2761SOL     OW 9181   2.159   4.063   4.633
 2761SOL    HW1 9182   2.208   4.051   4.547
 2761SOL    HW2 9183   2.219   4.109   4.699
 2762SOL     OW 9184   1.957   1.825   6.625
 2762SOL    HW1 9185   1.877   1.879   6.649
 2762SOL    HW2 9186   2.037   1.859   6.675
 2763SOL     OW 9187   4.736   2.116   4.839
 2763SOL    HW1 9188   4.738   2.173   4.922
 2763SOL    HW2 9189   4.768   2.169   4.761
 2764SOL     OW 9190   0.196   6.910   1.972
 2764SOL    HW1 9191   0.142   6.991   1.996
 2764SOL    HW2 9192   0.278   6.938   1.922
 2765SOL     OW 9193   6.465   0.272   0.872
 2765SOL    HW1 9194   6.458   0.192   0.812
 2765SOL    HW2 9195   6.379   0.324   0.868
 2766SOL     OW 9196   4.266   2.404   6.690
 2766SOL    HW1 9197   4.191   2.468   6.707
 2766SOL    HW2 9198   4.234   2.311   6.709
 2767SOL     OW 9199   6.532   5.327   6.735
 2767SOL    HW1 9200   6.432   5.321   6.742
 2767SOL    HW2 9201   6.557   5.413   6.690
 2768SOL     OW 9202   4.315   0.680   1.128
 2768SOL    HW1 9203   4.330   0.636   1.216
 2768SOL    HW2 9204   4.344   0.620   1.054
 2769SOL     OW 9205   2.813   3.953   6.353
 2769SOL    HW1 9206   2.796   3.856   6.335
 2769SOL    HW2 9207   2.763   4.008   6.287
 2770SOL     OW 9208   4.800   5.361   5.238
 2770SOL    HW1 9209   4.797   5.458   5.262
 2770SOL    HW2 9210   4.726   5.339   5.174
 2771SOL     OW 9211   5.649   0.866   4.664
 2771SOL    HW1 9212   5.551   0.885   4.660
 2771SOL    HW2 9213   5.677   0.853   4.759
 2772SOL     OW 9214   3.265   1.168   1.525
 2772SOL    HW1 9215   3.188   1.219   1.486
 2772SOL    HW2 9216   3.351   1.207   1.493
 2773SOL     OW 9217   6.637   2.967   3.988
 2773SOL    HW1 9218   6.577   3.047   3.981
 2773SOL    HW2 9219   6.645   2.924   3.898
 2774SOL     OW 9220   4.981   3.269   2.991
 2774SOL    HW1 9221   4.988   3.253   2.892
 2774SOL    HW2 9222   4.943   3.360   3.007
 2775SOL     OW 9223   6.637   3.474   4.351
 2775SOL    HW1 9224   6.630   3.550   4.286
 2775SOL    HW2 9225   6.581   3.397   4.318
 2776SOL     OW 9226   5.023   4.120   5.856
 2776SOL    HW1 9227   4.976   4.195   5.810
 2776SOL    HW2 9228   4.956   4.055   5.891
 2777SOL     OW 9229   2.483   2.067   1.057
 2777SOL    HW1 9230   2.560   2.127   1.076
 2777SOL    HW2 9231   2.450   2.028   1.143
 2778SOL     OW 9232   0.737   5.996   6.609
 2778SOL    HW1 9233   0.740   5.948   6.521
 2778SOL    HW2 9234   0.804   6.070   6.608
 2779SOL     OW 9235   5.548   6.510   1.744
 2779SOL    HW1 9236   5.538   6.485   1.648
 2779SOL    HW2 9237   5.518   6.604   1.758
 2780SOL     OW 9238   0.073   0.281   5.886
 2780SOL    HW1 9239   0.066   0.329   5.973
 2780SOL    HW2 9240   7.008   0.267   5.849
 2781SOL     OW 9241   6.146   0.640   3.154
 2781SOL    HW1 9242   6.178   0.546   3.155
 2781SOL    HW2 9243   6.220   0.701   3.182
 2782SOL     OW 9244   4.326   1.380   4.843
 2782SOL    HW1 9245   4.285   1.470   4.828
 2782SOL    HW2 9246   4.256   1.309   4.834
 2783SOL     OW 9247   6.511   4.234   2.246
 2783SOL    HW1 9248   6.490   4.245   2.149
 2783SOL    HW2 9249   6.589   4.293   2.270
 2784SOL     OW 9250   3.317   1.320   2.270
 2784SOL    HW1 9251   3.390   1.388   2.265
 2784SOL    HW2 9252   3.303   1.279   2.180
 2785SOL     OW 9253   5.141   2.449   0.767
 2785SOL    HW1 9254   5.226   2.479   0.725
 2785SOL    HW2 9255   5.096   2.527   0.811
 2786SOL     OW 9256   6.556   6.780   1.814
 2786SOL    HW1 9257   6.639   6.723   1.806
 2786SOL    HW2 9258   6.582   6.870   1.848
 2787SOL     OW 9259   5.806   6.791   5.649
 2787SOL    HW1 9260   5.713   6.760   5.629
 2787SOL    HW2 9261   5.804   6.889   5.671
 2788SOL     OW 9262   2.302   6.332   5.871
 2788SOL    HW1 9263   2.253   6.318   5.957
 2788SOL    HW2 9264   2.243   6.381   5.807
 2789SOL     OW 9265   1.986   1.676   3.677
 2789SOL    HW1 9266   1.964   1.774   3.674
 2789SOL    HW2 9267   1.901   1.623   3.677
 2790SOL     OW 9268   3.771   5.361   1.144
 2790SOL    HW1 9269   3.850   5.423   1.149
 2790SOL    HW2 9270   3.724   5.361   1.232
 2791SOL     OW 9271   0.990   3.886   2.011
 2791SOL    HW1 9272   1.038   3.886   2.099
 2791SOL    HW2 9273   0.963   3.979   1.987
 2792SOL     OW 9274   2.976   0.731   4.586
 2792SOL    HW1 9275   3.042   0.766   4.519
 2792SOL    HW2 9276   2.905   0.679   4.539
 2793SOL     OW 9277   5.097   3.556   1.851
 2793SOL    HW1 9278   5.018   3.582   1.796
 2793SOL    HW2 9279   5.117   3.459   1.836
 2794SOL     OW 9280   6.906   2.243   5.894
 2794SOL    HW1 9281   6.936   2.153   5.925
 2794SOL    HW2 9282   6.901   2.244   5.794
 2795SOL     OW 9283   0.637   4.138   1.448
 2795SOL    HW1 9284   0.671   4.188   1.527
 2795SOL    HW2 9285   0.550   4.176   1.418
 2796SOL     OW 9286   0.122   6.064   3.715
 2796SOL    HW1 9287   0.071   6.134   3.664
 2796SOL    HW2 9288   0.183   6.108   3.781
 2797SOL     OW 9289   5.189   5.080   5.813
 2797SOL    HW1 9290   5.171   5.162   5.759
 2797SOL    HW2 9291   5.227   5.009   5.753
 2798SOL     OW 9292   6.375   5.696   2.843
 2798SOL    HW1 9293   6.314   5.775   2.848
 2798SOL    HW2 9294   6.469   5.728   2.831
 2799SOL     OW 9295   5.828   5.843   6.336
 2799SOL    HW1 9296   5.904   5.894   6.296
 2799SOL    HW2 9297   5.793   5.892   6.416
 2800SOL     OW 9298   5.900   6.288   5.568
 2800SOL    HW1 9299   5.863   6.203   5.605
 2800SOL    HW2 9300   5.890   6.288   5.468
 2801SOL     OW 9301   0.520   5.578   6.111
 2801SOL    HW1 9302   0.565   5.667   6.103
 2801SOL    HW2 9303   0.451   5.568   6.040
 2802SOL     OW 9304   5.909   6.733   5.013
 2802SOL    HW1 9305   5.814   6.725   5.044
 2802SOL    HW2 9306   5.969   6.740   5.093
 2803SOL     OW 9307   3.979   5.113   6.123
 2803SOL    HW1 9308   4.022   5.054   6.053
 2803SOL    HW2 9309   3.889   5.142   6.090
 2804SOL     OW 9310   0.672   3.702   5.030
 2804SOL    HW1 9311   0.666   3.668   4.936
 2804SOL    HW2 9312   0.749   3.764   5.038
 2805SOL     OW 9313   5.705   3.303   3.139
 2805SOL    HW1 9314   5.780   3.352   3.184
 2805SOL    HW2 9315   5.653   3.367   3.083
 2806SOL     OW 9316   2.237   3.820   5.956
 2806SOL    HW1 9317   2.205   3.764   5.880
 2806SOL    HW2 9318   2.285   3.900   5.922
 2807SOL     OW 9319   4.289   0.408   2.959
 2807SOL    HW1 9320   4.194   0.380   2.968
 2807SOL    HW2 9321   4.323   0.383   2.868
 2808SOL     OW 9322   6.550   5.169   0.888
 2808SOL    HW1 9323   6.613   5.106   0.844
 2808SOL    HW2 9324   6.503   5.122   0.963
 2809SOL     OW 9325   5.078   2.274   1.697
 2809SOL    HW1 9326   5.161   2.330   1.696
 2809SOL    HW2 9327   4.998   2.333   1.680
 2810SOL     OW 9328   2.431   5.783   2.714
 2810SOL    HW1 9329   2.400   5.790   2.809
 2810SOL    HW2 9330   2.351   5.776   2.653
 2811SOL     OW 9331   0.963   1.680   3.034
 2811SOL    HW1 9332   1.034   1.673   2.964
 2811SOL    HW2 9333   0.873   1.681   2.990
 2812SOL     OW 9334   5.993   3.644   0.624
 2812SOL    HW1 9335   6.054   3.689   0.689
 2812SOL    HW2 9336   6.021   3.549   0.614
 2813SOL     OW 9337   0.816   1.840   6.909
 2813SOL    HW1 9338   0.839   1.793   6.824
 2813SOL    HW2 9339   0.896   1.838   6.970
 2814SOL     OW 9340   3.265   4.129   5.518
 2814SOL    HW1 9341   3.219   4.055   5.568
 2814SOL    HW2 9342   3.340   4.091   5.464
 2815SOL     OW 9343   6.299   5.101   6.599
 2815SOL    HW1 9344   6.277   5.188   6.643
 2815SOL    HW2 9345   6.394   5.103   6.567
 2816SOL     OW 9346   6.288   6.306   4.451
 2816SOL    HW1 9347   6.378   6.270   4.429
 2816SOL    HW2 9348   6.226   6.231   4.473
 2817SOL     OW 9349   3.007   0.759   2.781
 2817SOL    HW1 9350   3.028   0.670   2.821
 2817SOL    HW2 9351   3.076   0.825   2.808
 2818SOL     OW 9352   0.032   1.310   2.329
 2818SOL    HW1 9353   6.990   1.335   2.260
 2818SOL    HW2 9354   0.096   1.386   2.342
 2819SOL     OW 9355   1.397   0.458   1.889
 2819SOL    HW1 9356   1.463   0.533   1.890
 2819SOL    HW2 9357   1.331   0.470   1.963
 2820SOL     OW 9358   1.328   1.936   2.187
 2820SOL    HW1 9359   1.252   1.985   2.229
 2820SOL    HW2 9360   1.341   1.969   2.093
 2821SOL     OW 9361   2.972   5.051   6.054
 2821SOL    HW1 9362   2.995   4.963   6.097
 2821SOL    HW2 9363   2.907   5.035   5.980
 2822SOL     OW 9364   4.341   2.053   0.417
 2822SOL    HW1 9365   4.407   2.030   0.488
 2822SOL    HW2 9366   4.335   2.152   0.407
 2823SOL     OW 9367   5.925   0.723   0.058
 2823SOL    HW1 9368   5.906   0.701   0.153
 2823SOL    HW2 9369   5.992   0.659   0.021
 2824SOL     OW 9370   2.368   2.105   5.336
 2824SOL    HW1 9371   2.337   2.200   5.340
 2824SOL    HW2 9372   2.367   2.073   5.241
 2825SOL     OW 9373   5.532   6.870   5.453
 2825SOL    HW1 9374   5.489   6.915   5.531
 2825SOL    HW2 9375   5.599   6.932   5.413
 2826SOL     OW 9376   3.926   2.761   6.336
 2826SOL    HW1 9377   3.850   2.826   6.330
 2826SOL    HW2 9378   3.981   2.783   6.416
 2827SOL     OW 9379   0.083   0.413   6.806
 2827SOL    HW1 9380   0.117   0.507   6.807
 2827SOL    HW2 9381   0.137   0.357   6.868
 2828SOL     OW 9382   2.106   3.010   0.534
 2828SOL    HW1 9383   2.013   2.976   0.551
 2828SOL    HW2 9384   2.141   2.967   0.451
 2829SOL     OW 9385   3.180   3.056   3.641
 2829SOL    HW1 9386   3.253   2.989   3.653
 2829SOL    HW2 9387   3.159   3.066   3.544
 2830SOL     OW 9388   3.453   4.313   5.257
 2830SOL    HW1 9389   3.355   4.295   5.243
 2830SOL    HW2 9390   3.506   4.236   5.222
 2831SOL     OW 9391   1.347   2.975   2.699
 2831SOL    HW1 9392   1.320   3.070   2.683
 2831SOL    HW2 9393   1.280   2.914   2.657
 2832SOL     OW 9394   0.928   2.983   1.462
 2832SOL    HW1 9395   1.010   2.927   1.447
 2832SOL    HW2 9396   0.919   3.049   1.388
 2833SOL     OW 9397   2.732   1.744   2.033
 2833SOL    HW1 9398   2.792   1.740   2.113
 2833SOL    HW2 9399   2.651   1.798   2.055
 2834SOL     OW 9400   4.087   6.247   4.454
 2834SOL    HW1 9401   4.070   6.277   4.360
 2834SOL    HW2 9402   4.026   6.171   4.476
 2835SOL     OW 9403   0.771   6.773   0.627
 2835SOL    HW1 9404   0.793   6.857   0.578
 2835SOL    HW2 9405   0.674   6.751   0.613
 2836SOL     OW 9406   1.326   6.343   1.514
 2836SOL    HW1 9407   1.267   6.399   1.456
 2836SOL    HW2 9408   1.422   6.360   1.492
 2837SOL     OW 9409   5.459   4.591   2.519
 2837SOL    HW1 9410   5.519   4.543   2.455
 2837SOL    HW2 9411   5.514   4.634   2.590
 2838SOL     OW 9412   4.641   3.698   0.780
 2838SOL    HW1 9413   4.584   3.710   0.861
 2838SOL    HW2 9414   4.737   3.694   0.806
 2839SOL     OW 9415   0.075   2.789   2.583
 2839SOL    HW1 9416   0.171   2.813   2.566
 2839SOL    HW2 9417   0.017   2.866   2.554
 2840SOL     OW 9418   1.553   6.062   2.297
 2840SOL    HW1 9419   1.574   6.043   2.393
 2840SOL    HW2 9420   1.459   6.096   2.290
 2841SOL     OW 9421   6.536   2.366   6.552
 2841SOL    HW1 9422   6.531   2.323   6.462
 2841SOL    HW2 9423   6.611   2.431   6.554
 2842SOL     OW 9424   0.672   5.306   4.890
 2842SOL    HW1 9425   0.752   5.264   4.848
 2842SOL    HW2 9426   0.653   5.262   4.977
 2843SOL     OW 9427   2.307   1.556   2.197
 2843SOL    HW1 9428   2.254   1.623   2.248
 2843SOL    HW2 9429   2.307   1.580   2.100
 2844SOL     OW 9430   6.148   5.324   1.038
 2844SOL    HW1 9431   6.110   5.410   1.071
 2844SOL    HW2 9432   6.224   5.343   0.975
 2845SOL     OW 9433   5.441   3.405   2.730
 2845SOL    HW1 9434   5.524   3.441   2.687
 2845SOL    HW2 9435   5.413   3.321   2.684
 2846SOL     OW 9436   3.835   0.374   0.532
 2846SOL    HW1 9437   3.871   0.336   0.617
 2846SOL    HW2 9438   3.839   0.304   0.460
 2847SOL     OW 9439   5.157   3.945   3.144
 2847SOL    HW1 9440   5.127   3.933   3.239
 2847SOL    HW2 9441   5.087   3.908   3.082
 2848SOL     OW 9442   2.675   2.789   5.755
 2848SOL    HW1 9443   2.590   2.797   5.807
 2848SOL    HW2 9444   2.678   2.701   5.709
 2849SOL     OW 9445   3.301   0.899   1.593
 2849SOL    HW1 9446   3.281   0.843   1.513
 2849SOL    HW2 9447   3.281   0.994   1.573
 2850SOL     OW 9448   2.019   6.967   3.083
 2850SOL    HW1 9449   2.072   6.890   3.047
 2850SOL    HW2 9450   1.921   6.949   3.069
 2851SOL     OW 9451   4.532   3.105   6.789
 2851SOL    HW1 9452   4.551   3.137   6.882
 2851SOL    HW2 9453   4.476   3.172   6.741
 2852SOL     OW 9454   6.304   4.341   6.520
 2852SOL    HW1 9455   6.283   4.346   6.618
 2852SOL    HW2 9456   6.385   4.284   6.507
 2853SOL     OW 9457   0.896   2.668   6.982
 2853SOL    HW1 9458   0.948   2.696   6.901
 2853SOL    HW2 9459   0.950   2.683   0.038
 2854SOL     OW 9460   3.656   0.640   5.851
 2854SOL    HW1 9461   3.706   0.633   5.937
 2854SOL    HW2 9462   3.602   0.558   5.836
 2855SOL     OW 9463   1.564   2.491   5.584
 2855SOL    HW1 9464   1.498   2.431   5.539
 2855SOL    HW2 9465   1.605   2.552   5.517
 2856SOL     OW 9466   1.163   2.924   4.220
 2856SOL    HW1 9467   1.244   2.868   4.201
 2856SOL    HW2 9468   1.102   2.922   4.141
 2857SOL     OW 9469   0.338   2.788   1.491
 2857SOL    HW1 9470   0.256   2.825   1.535
 2857SOL    HW2 9471   0.312   2.737   1.409
 2858SOL     OW 9472   5.727   5.562   1.917
 2858SOL    HW1 9473   5.659   5.504   1.962
 2858SOL    HW2 9474   5.786   5.603   1.986
 2859SOL     OW 9475   6.006   6.746   6.926
 2859SOL    HW1 9476   6.046   6.655   6.933
 2859SOL    HW2 9477   5.915   6.739   6.885
 2860SOL     OW 9478   2.488   0.483   2.640
 2860SOL    HW1 9479   2.512   0.479   2.543
 2860SOL    HW2 9480   2.554   0.430   2.693
 2861SOL     OW 9481   3.544   5.595   5.630
 2861SOL    HW1 9482   3.509   5.643   5.550
 2861SOL    HW2 9483   3.633   5.554   5.608
 2862SOL     OW 9484   4.155   2.194   2.071
 2862SOL    HW1 9485   4.177   2.165   2.164
 2862SOL    HW2 9486   4.223   2.259   2.039
 2863SOL     OW 9487   4.780   1.577   6.456
 2863SOL    HW1 9488   4.866   1.580   6.507
 2863SOL    HW2 9489   4.800   1.575   6.358
 2864SOL     OW 9490   4.796   2.372   0.790
 2864SOL    HW1 9491   4.789   2.417   0.879
 2864SOL    HW2 9492   4.866   2.300   0.794
 2865SOL     OW 9493   4.181   6.449   3.552
 2865SOL    HW1 9494   4.143   6.533   3.513
 2865SOL    HW2 9495   4.107   6.383   3.568
 2866SOL     OW 9496   5.791   3.993   0.222
 2866SOL    HW1 9497   5.693   3.988   0.202
 2866SOL    HW2 9498   5.833   3.903   0.210
 2867SOL     OW 9499   5.813   6.282   2.845
 2867SOL    HW1 9500   5.718   6.251   2.849
 2867SOL    HW2 9501   5.871   6.219   2.896
 2868SOL     OW 9502   1.139   1.084   5.298
 2868SOL    HW1 9503   1.237   1.093   5.320
 2868SOL    HW2 9504   1.088   1.153   5.349
 2869SOL     OW 9505   6.323   1.113   3.655
 2869SOL    HW1 9506   6.242   1.157   3.695
 2869SOL    HW2 9507   6.369   1.177   3.595
 2870SOL     OW 9508   0.771   1.525   6.288
 2870SOL    HW1 9509   0.762   1.513   6.387
 2870SOL    HW2 9510   0.703   1.469   6.241
 2871SOL     OW 9511   5.869   0.555   0.302
 2871SOL    HW1 9512   5.781   0.561   0.349
 2871SOL    HW2 9513   5.927   0.632   0.331
 2872SOL     OW 9514   2.519   1.939   0.812
 2872SOL    HW1 9515   2.598   1.974   0.762
 2872SOL    HW2 9516   2.486   2.008   0.876
 2873SOL     OW 9517   6.906   6.807   2.453
 2873SOL    HW1 9518   6.837   6.799   2.526
 2873SOL    HW2 9519   6.987   6.755   2.479
 2874SOL     OW 9520   3.966   6.443   2.556
 2874SOL    HW1 9521   4.000   6.520   2.503
 2874SOL    HW2 9522   4.043   6.385   2.584
 2875SOL     OW 9523   4.447   6.815   2.195
 2875SOL    HW1 9524   4.420   6.802   2.099
 2875SOL    HW2 9525   4.428   6.909   2.223
 2876SOL     OW 9526   1.530   0.446   2.615
 2876SOL    HW1 9527   1.533   0.546   2.609
 2876SOL    HW2 9528   1.494   0.419   2.704
 2877SOL     OW 9529   2.219   0.946   6.105
 2877SOL    HW1 9530   2.241   0.851   6.085
 2877SOL    HW2 9531   2.299   0.992   6.144
 2878SOL     OW 9532   3.136   3.451   5.191
 2878SOL    HW1 9533   3.063   3.508   5.229
 2878SOL    HW2 9534   3.107   3.417   5.101
 2879SOL     OW 9535   5.424   5.501   5.362
 2879SOL    HW1 9536   5.430   5.404   5.384
 2879SOL    HW2 9537   5.488   5.522   5.288
 2880SOL     OW 9538   0.196   1.363   3.518
 2880SOL    HW1 9539   0.167   1.338   3.610
 2880SOL    HW2 9540   0.276   1.422   3.522
 2881SOL     OW 9541   3.357   5.833   6.799
 2881SOL    HW1 9542   3.389   5.739   6.788
 2881SOL    HW2 9543   3.257   5.834   6.801
 2882SOL     OW 9544   6.841   5.442   1.266
 2882SOL    HW1 9545   6.836   5.424   1.364
 2882SOL    HW2 9546   6.787   5.523   1.244
 2883SOL     OW 9547   5.872   6.968   3.375
 2883SOL    HW1 9548   5.811   6.962   3.454
 2883SOL    HW2 9549   5.823   7.009   3.298
 2884SOL     OW 9550   0.364   5.928   2.520
 2884SOL    HW1 9551   0.360   5.973   2.610
 2884SOL    HW2 9552   0.295   5.968   2.460
 2885SOL     OW 9553   1.571   2.212   4.618
 2885SOL    HW1 9554   1.651   2.163   4.585
 2885SOL    HW2 9555   1.500   2.213   4.548
 2886SOL     OW 9556   2.059   3.867   6.165
 2886SOL    HW1 9557   2.124   3.855   6.090
 2886SOL    HW2 9558   2.087   3.945   6.221
 2887SOL     OW 9559   0.350   6.194   5.104
 2887SOL    HW1 9560   0.286   6.246   5.160
 2887SOL    HW2 9561   0.332   6.212   5.007
 2888SOL     OW 9562   0.199   4.557   7.012
 2888SOL    HW1 9563   0.264   4.490   6.976
 2888SOL    HW2 9564   0.143   4.593   6.937
 2889SOL     OW 9565   3.079   6.420   2.599
 2889SOL    HW1 9566   3.006   6.481   2.630
 2889SOL    HW2 9567   3.116   6.455   2.513
 2890SOL     OW 9568   1.689   6.167   0.556
 2890SOL    HW1 9569   1.773   6.128   0.519
 2890SOL    HW2 9570   1.709   6.257   0.596
 2891SOL     OW 9571   1.113   3.614   3.219
 2891SOL    HW1 9572   1.143   3.624   3.124
 2891SOL    HW2 9573   1.190   3.583   3.275
 2892SOL     OW 9574   6.196   2.908   1.584
 2892SOL    HW1 9575   6.110   2.896   1.633
 2892SOL    HW2 9576   6.182   2.889   1.487
 2893SOL     OW 9577   1.205   5.141   4.139
 2893SOL    HW1 9578   1.301   5.162   4.160
 2893SOL    HW2 9579   1.146   5.211   4.180
 2894SOL     OW 9580   1.590   3.712   1.356
 2894SOL    HW1 9581   1.506   3.679   1.400
 2894SOL    HW2 9582   1.633   3.782   1.414
 2895SOL     OW 9583   4.660   0.810   6.274
 2895SOL    HW1 9584   4.692   0.773   6.187
 2895SOL    HW2 9585   4.637   0.735   6.336
 2896SOL     OW 9586   3.970   0.345   5.280
 2896SOL    HW1 9587   3.989   0.392   5.194
 2896SOL    HW2 9588   3.980   0.247   5.268
 2897SOL     OW 9589   3.949   4.839   2.335
 2897SOL    HW1 9590   3.916   4.827   2.429
 2897SOL    HW2 9591   4.047   4.856   2.336
 2898SOL     OW 9592   4.660   4.524   4.171
 2898SOL    HW1 9593   4.689   4.564   4.258
 2898SOL    HW2 9594   4.653   4.424   4.182
 2899SOL     OW 9595   6.747   1.910   0.190
 2899SOL    HW1 9596   6.811   1.870   0.124
 2899SOL    HW2 9597   6.799   1.961   0.259
 2900SOL     OW 9598   3.888   4.473   6.584
 2900SOL    HW1 9599   3.959   4.404   6.572
 2900SOL    HW2 9600   3.806   4.445   6.534
 2901SOL     OW 9601   2.025   4.803   3.261
 2901SOL    HW1 9602   1.970   4.725   3.292
 2901SOL    HW2 9603   2.100   4.771   3.203
 2902SOL     OW 9604   6.637   5.130   3.385
 2902SOL    HW1 9605   6.631   5.096   3.291
 2902SOL    HW2 9606   6.619   5.055   3.448
 2903SOL     OW 9607   4.020   6.315   0.427
 2903SOL    HW1 9608   3.943   6.339   0.485
 2903SOL    HW2 9609   4.023   6.378   0.349
 2904SOL     OW 9610   3.032   5.077   5.280
 2904SOL    HW1 9611   2.935   5.079   5.303
 2904SOL    HW2 9612   3.050   5.004   5.213
 2905SOL     OW 9613   1.364   3.944   4.125
 2905SOL    HW1 9614   1.281   3.998   4.119
 2905SOL    HW2 9615   1.342   3.852   4.159
 2906SOL     OW 9616   5.302   5.940   2.574
 2906SOL    HW1 9617   5.289   5.863   2.636
 2906SOL    HW2 9618   5.278   6.025   2.621
 2907SOL     OW 9619   0.610   1.621   3.975
 2907SOL    HW1 9620   0.702   1.620   3.934
 2907SOL    HW2 9621   0.583   1.528   3.999
 2908SOL     OW 9622   5.382   6.599   3.557
 2908SOL    HW1 9623   5.430   6.656   3.490
 2908SOL    HW2 9624   5.295   6.641   3.581
 2909SOL     OW 9625   2.116   5.571   4.027
 2909SOL    HW1 9626   2.134   5.648   4.088
 2909SOL    HW2 9627   2.033   5.523   4.058
 2910SOL     OW 9628   6.239   0.308   3.682
 2910SOL    HW1 9629   6.317   0.365   3.655
 2910SOL    HW2 9630   6.239   0.297   3.781
 2911SOL     OW 9631   1.679   5.185   3.812
 2911SOL    HW1 9632   1.658   5.180   3.714
 2911SOL    HW2 9633   1.597   5.215   3.862
 2912SOL     OW 9634   6.268   6.711   0.151
 2912SOL    HW1 9635   6.212   6.646   0.100
 2912SOL    HW2 9636   6.350   6.665   0.185
 2913SOL     OW 9637   3.287   5.065   2.052
 2913SOL    HW1 9638   3.281   5.151   2.103
 2913SOL    HW2 9639   3.204   5.011   2.067
 2914SOL     OW 9640   5.853   5.948   0.642
 2914SOL    HW1 9641   5.819   5.880   0.577
 2914SOL    HW2 9642   5.778   6.010   0.666
 2915SOL     OW 9643   3.008   1.873   3.318
 2915SOL    HW1 9644   2.976   1.779   3.310
 2915SOL    HW2 9645   3.015   1.914   3.227
 2916SOL     OW 9646   0.933   5.453   0.331
 2916SOL    HW1 9647   0.950   5.487   0.424
 2916SOL    HW2 9648   1.003   5.387   0.306
 2917SOL     OW 9649   3.089   0.189   4.595
 2917SOL    HW1 9650   3.115   0.257   4.664
 2917SOL    HW2 9651   3.165   0.176   4.531
 2918SOL     OW 9652   6.169   4.048   5.469
 2918SOL    HW1 9653   6.236   4.113   5.506
 2918SOL    HW2 9654   6.167   3.966   5.525
 2919SOL     OW 9655   6.491   0.566   3.095
 2919SOL    HW1 9656   6.533   0.590   3.182
 2919SOL    HW2 9657   6.397   0.535   3.109
 2920SOL     OW 9658   3.482   0.250   1.357
 2920SOL    HW1 9659   3.483   0.343   1.391
 2920SOL    HW2 9660   3.513   0.249   1.262
 2921SOL     OW 9661   0.374   0.309   5.418
 2921SOL    HW1 9662   0.427   0.360   5.485
 2921SOL    HW2 9663   0.418   0.222   5.398
 2922SOL     OW 9664   4.630   6.196   1.490
 2922SOL    HW1 9665   4.604   6.157   1.402
 2922SOL    HW2 9666   4.600   6.292   1.494
 2923SOL     OW 9667   7.024   5.431   4.247
 2923SOL    HW1 9668   6.949   5.474   4.298
 2923SOL    HW2 9669   0.085   5.461   4.286
 2924SOL     OW 9670   0.025   2.332   5.079
 2924SOL    HW1 9671   0.057   2.376   4.995
 2924SOL    HW2 9672   6.956   2.357   5.095
 2925SOL     OW 9673   5.877   2.268   0.817
 2925SOL    HW1 9674   5.799   2.215   0.782
 2925SOL    HW2 9675   5.895   2.345   0.756
 2926SOL     OW 9676   5.562   2.066   6.279
 2926SOL    HW1 9677   5.655   2.032   6.260
 2926SOL    HW2 9678   5.537   2.134   6.211
 2927SOL     OW 9679   1.968   3.894   1.070
 2927SOL    HW1 9680   2.051   3.850   1.104
 2927SOL    HW2 9681   1.893   3.828   1.072
 2928SOL     OW 9682   6.954   0.913   0.237
 2928SOL    HW1 9683   6.863   0.873   0.241
 2928SOL    HW2 9684   6.997   0.890   0.150
 2929SOL     OW 9685   1.506   2.868   5.889
 2929SOL    HW1 9686   1.539   2.962   5.887
 2929SOL    HW2 9687   1.582   2.806   5.910
 2930SOL     OW 9688   5.357   6.577   5.119
 2930SOL    HW1 9689   5.289   6.504   5.126
 2930SOL    HW2 9690   5.405   6.586   5.206
 2931SOL     OW 9691   5.164   5.078   0.048
 2931SOL    HW1 9692   5.065   5.068   0.061
 2931SOL    HW2 9693   5.181   5.136   6.995
 2932SOL     OW 9694   0.733   5.728   1.827
 2932SOL    HW1 9695   0.826   5.691   1.824
 2932SOL    HW2 9696   0.668   5.652   1.834
 2933SOL     OW 9697   1.558   6.651   1.977
 2933SOL    HW1 9698   1.564   6.740   2.021
 2933SOL    HW2 9699   1.648   6.608   1.976
 2934SOL     OW 9700   5.656   2.594   0.462
 2934SOL    HW1 9701   5.615   2.635   0.381
 2934SOL    HW2 9702   5.733   2.535   0.435
 2935SOL     OW 9703   6.729   2.344   6.085
 2935SOL    HW1 9704   6.780   2.302   6.010
 2935SOL    HW2 9705   6.700   2.436   6.057
 2936SOL     OW 9706   4.272   6.192   0.468
 2936SOL    HW1 9707   4.297   6.175   0.564
 2936SOL    HW2 9708   4.178   6.226   0.464
 2937SOL     OW 9709   5.479   5.098   1.167
 2937SOL    HW1 9710   5.524   5.125   1.252
 2937SOL    HW2 9711   5.385   5.131   1.167
 2938SOL     OW 9712   5.971   4.541   0.588
 2938SOL    HW1 9713   6.010   4.478   0.655
 2938SOL    HW2 9714   6.021   4.534   0.502
 2939SOL     OW 9715   2.148   0.927   1.347
 2939SOL    HW1 9716   2.083   0.993   1.309
 2939SOL    HW2 9717   2.176   0.864   1.275
 2940SOL     OW 9718   5.589   5.325   5.765
 2940SOL    HW1 9719   5.506   5.362   5.724
 2940SOL    HW2 9720   5.613   5.378   5.846
 2941SOL     OW 9721   2.073   1.871   3.935
 2941SOL    HW1 9722   2.071   1.952   3.877
 2941SOL    HW2 9723   2.165   1.859   3.973
 2942SOL     OW 9724   3.922   1.788   0.965
 2942SOL    HW1 9725   3.900   1.818   1.058
 2942SOL    HW2 9726   3.943   1.691   0.965
 2943SOL     OW 9727   5.448   4.236   3.834
 2943SOL    HW1 9728   5.416   4.283   3.916
 2943SOL    HW2 9729   5.547   4.219   3.841
 2944SOL     OW 9730   2.706   6.115   4.022
 2944SOL    HW1 9731   2.747   6.107   3.931
 2944SOL    HW2 9732   2.612   6.147   4.013
 2945SOL     OW 9733   4.490   2.543   1.778
 2945SOL    HW1 9734   4.528   2.625   1.822
 2945SOL    HW2 9735   4.421   2.570   1.712
 2946SOL     OW 9736   1.961   4.887   6.161
 2946SOL    HW1 9737   1.929   4.794   6.181
 2946SOL    HW2 9738   2.051   4.882   6.118
 2947SOL     OW 9739   1.023   5.883   1.222
 2947SOL    HW1 9740   1.047   5.979   1.236
 2947SOL    HW2 9741   0.924   5.876   1.210
 2948SOL     OW 9742   6.976   4.440   4.857
 2948SOL    HW1 9743   7.000   4.467   4.951
 2948SOL    HW2 9744   6.980   4.340   4.849
 2949SOL     OW 9745   0.645   5.310   0.611
 2949SOL    HW1 9746   0.598   5.223   0.596
 2949SOL    HW2 9747   0.597   5.383   0.563
 2950SOL     OW 9748   5.835   5.960   4.302
 2950SOL    HW1 9749   5.846   5.862   4.285
 2950SOL    HW2 9750   5.747   5.977   4.347
 2951SOL     OW 9751   5.501   2.083   1.983
 2951SOL    HW1 9752   5.445   2.006   2.014
 2951SOL    HW2 9753   5.590   2.049   1.952
 2952SOL     OW 9754   0.127   6.142   5.524
 2952SOL    HW1 9755   0.187   6.109   5.451
 2952SOL    HW2 9756   0.144   6.239   5.539
 2953SOL     OW 9757   6.532   4.461   3.242
 2953SOL    HW1 9758   6.463   4.533   3.237
 2953SOL    HW2 9759   6.523   4.413   3.330
 2954SOL     OW 9760   0.315   4.659   1.036
 2954SOL    HW1 9761   0.347   4.618   0.950
 2954SOL    HW2 9762   0.364   4.744   1.053
 2955SOL     OW 9763   0.645   4.146   0.946
 2955SOL    HW1 9764   0.630   4.087   0.867
 2955SOL    HW2 9765   0.561   4.150   1.001
 2956SOL     OW 9766   6.288   5.468   3.235
 2956SOL    HW1 9767   6.331   5.482   3.146
 2956SOL    HW2 9768   6.202   5.519   3.239
 2957SOL     OW 9769   5.049   4.612   1.525
 2957SOL    HW1 9770   5.137   4.655   1.503
 2957SOL    HW2 9771   5.055   4.514   1.508
 2958SOL     OW 9772   2.084   4.468   2.953
 2958SOL    HW1 9773   2.035   4.392   2.997
 2958SOL    HW2 9774   2.023   4.513   2.888
 2959SOL     OW 9775   5.438   3.354   2.057
 2959SOL    HW1 9776   5.513   3.290   2.072
 2959SOL    HW2 9777   5.455   3.438   2.109
 2960SOL     OW 9778   3.142   0.446   6.759
 2960SOL    HW1 9779   3.190   0.388   6.824
 2960SOL    HW2 9780   3.113   0.391   6.680
 2961SOL     OW 9781   6.144   5.060   3.060
 2961SOL    HW1 9782   6.084   5.048   2.981
 2961SOL    HW2 9783   6.090   5.093   3.137
 2962SOL     OW 9784   4.518   6.224   3.567
 2962SOL    HW1 9785   4.569   6.291   3.513
 2962SOL    HW2 9786   4.425   6.216   3.532
 2963SOL     OW 9787   0.663   0.983   0.132
 2963SOL    HW1 9788   0.758   1.011   0.142
 2963SOL    HW2 9789   0.630   0.943   0.218
 2964SOL     OW 9790   0.582   1.645   5.714
 2964SOL    HW1 9791   0.532   1.564   5.747
 2964SOL    HW2 9792   0.555   1.665   5.620
 2965SOL     OW 9793   0.420   1.173   4.947
 2965SOL    HW1 9794   0.440   1.216   5.035
 2965SOL    HW2 9795   0.503   1.171   4.891
 2966SOL     OW 9796   4.975   5.003   2.964
 2966SOL    HW1 9797   4.901   4.984   3.028
 2966SOL    HW2 9798   5.062   4.976   3.006
 2967SOL     OW 9799   6.265   0.497   5.783
 2967SOL    HW1 9800   6.315   0.528   5.702
 2967SOL    HW2 9801   6.199   0.566   5.810
 2968SOL     OW 9802   0.589   2.360   0.509
 2968SOL    HW1 9803   0.592   2.419   0.591
 2968SOL    HW2 9804   0.558   2.414   0.431
 2969SOL     OW 9805   4.582   2.611   3.818
 2969SOL    HW1 9806   4.486   2.634   3.829
 2969SOL    HW2 9807   4.602   2.525   3.865
 2970SOL     OW 9808   2.575   3.292   5.361
 2970SOL    HW1 9809   2.535   3.224   5.300
 2970SOL    HW2 9810   2.595   3.251   5.450
 2971SOL     OW 9811   5.014   3.836   0.831
 2971SOL    HW1 9812   5.094   3.895   0.814
 2971SOL    HW2 9813   5.045   3.746   0.859
 2972SOL     OW 9814   6.261   5.333   6.722
 2972SOL    HW1 9815   6.242   5.354   6.818
 2972SOL    HW2 9816   6.179   5.350   6.667
 2973SOL     OW 9817   5.105   6.450   2.094
 2973SOL    HW1 9818   5.031   6.412   2.038
 2973SOL    HW2 9819   5.137   6.535   2.052
 2974SOL     OW 9820   0.119   4.613   3.796
 2974SOL    HW1 9821   0.124   4.515   3.814
 2974SOL    HW2 9822   0.158   4.633   3.706
 2975SOL     OW 9823   4.760   4.268   3.870
 2975SOL    HW1 9824   4.727   4.353   3.911
 2975SOL    HW2 9825   4.749   4.193   3.935
 2976SOL     OW 9826   4.994   1.685   2.446
 2976SOL    HW1 9827   4.985   1.776   2.406
 2976SOL    HW2 9828   4.957   1.617   2.383
 2977SOL     OW 9829   0.734   0.675   2.623
 2977SOL    HW1 9830   0.772   0.603   2.565
 2977SOL    HW2 9831   0.727   0.760   2.570
 2978SOL     OW 9832   3.825   4.445   0.170
 2978SOL    HW1 9833   3.761   4.515   0.203
 2978SOL    HW2 9834   3.860   4.394   0.248
 2979SOL     OW 9835   2.937   1.643   4.112
 2979SOL    HW1 9836   2.894   1.577   4.173
 2979SOL    HW2 9837   2.908   1.735   4.135
 2980SOL     OW 9838   1.920   5.573   5.641
 2980SOL    HW1 9839   1.950   5.515   5.717
 2980SOL    HW2 9840   1.959   5.664   5.650
 2981SOL     OW 9841   1.953   0.983   0.347
 2981SOL    HW1 9842   1.897   0.900   0.353
 2981SOL    HW2 9843   1.999   0.987   0.258
 2982SOL     OW 9844   2.683   5.992   1.415
 2982SOL    HW1 9845   2.617   6.045   1.362
 2982SOL    HW2 9846   2.671   5.895   1.397
 2983SOL     OW 9847   6.795   2.529   1.722
 2983SOL    HW1 9848   6.862   2.483   1.780
 2983SOL    HW2 9849   6.773   2.618   1.761
 2984SOL     OW 9850   5.895   5.285   7.001
 2984SOL    HW1 9851   5.966   5.352   6.983
 2984SOL    HW2 9852   5.856   5.300   0.065
 2985SOL     OW 9853   1.928   1.475   4.526
 2985SOL    HW1 9854   1.902   1.395   4.473
 2985SOL    HW2 9855   2.000   1.451   4.591
 2986SOL     OW 9856   3.561   4.079   2.481
 2986SOL    HW1 9857   3.545   3.983   2.502
 2986SOL    HW2 9858   3.601   4.124   2.561
 2987SOL     OW 9859   1.615   1.251   4.596
 2987SOL    HW1 9860   1.579   1.197   4.672
 2987SOL    HW2 9861   1.629   1.345   4.625
 2988SOL     OW 9862   1.735   0.305   2.496
 2988SOL    HW1 9863   1.665   0.352   2.550
 2988SOL    HW2 9864   1.690   0.246   2.429
 2989SOL     OW 9865   5.270   4.871   5.647
 2989SOL    HW1 9866   5.339   4.903   5.583
 2989SOL    HW2 9867   5.246   4.776   5.625
 2990SOL     OW 9868   4.460   1.994   4.134
 2990SOL    HW1 9869   4.370   1.950   4.139
 2990SOL    HW2 9870   4.482   2.035   4.223
 2991SOL     OW 9871   6.600   2.926   5.920
 2991SOL    HW1 9872   6.581   2.954   6.014
 2991SOL    HW2 9873   6.684   2.969   5.888
 2992SOL     OW 9874   1.183   4.868   4.197
 2992SOL    HW1 9875   1.268   4.868   4.251
 2992SOL    HW2 9876   1.157   4.962   4.175
 2993SOL     OW 9877   1.035   5.142   1.372
 2993SOL    HW1 9878   1.066   5.236   1.374
 2993SOL    HW2 9879   1.009   5.117   1.278
 2994SOL     OW 9880   4.335   6.384   0.241
 2994SOL    HW1 9881   4.254   6.440   0.223
 2994SOL    HW2 9882   4.310   6.307   0.300
 2995SOL     OW 9883   3.908   0.989   6.682
 2995SOL    HW1 9884   3.917   1.054   6.607
 2995SOL    HW2 9885   3.813   0.960   6.690
 2996SOL     OW 9886   0.593   1.501   5.371
 2996SOL    HW1 9887   0.588   1.599   5.352
 2996SOL    HW2 9888   0.688   1.475   5.389
 2997SOL     OW 9889   4.765   0.421   2.934
 2997SOL    HW1 9890   4.709   0.339   2.922
 2997SOL    HW2 9891   4.859   0.394   2.954
 2998SOL     OW 9892   4.625   6.780   3.211
 2998SOL    HW1 9893   4.554   6.840   3.176
 2998SOL    HW2 9894   4.713   6.827   3.207
 2999SOL     OW 9895   2.415   4.987   5.214
 2999SOL    HW1 9896   2.467   4.975   5.130
 2999SOL    HW2 9897   2.469   5.040   5.280
 3000SOL     OW 9898   3.175   4.057   6.005
 3000SOL    HW1 9899   3.169   4.074   5.906
 3000SOL    HW2 9900   3.129   3.972   6.028
 3001SOL     OW 9901   6.135   1.539   6.814
 3001SOL    HW1 9902   6.086   1.626   6.816
 3001SOL    HW2 9903   6.224   1.550   6.860
 3002SOL     OW 9904   3.760   2.750   0.565
 3002SOL    HW1 9905   3.778   2.690   0.487
 3002SOL    HW2 9906   3.661   2.764   0.575
 3003SOL     OW 9907   0.979   6.649   0.725
 3003SOL    HW1 9908   1.065   6.695   0.705
 3003SOL    HW2 9909   0.904   6.701   0.684
 3004SOL     OW 9910   1.553   4.449   2.607
 3004SOL    HW1 9911   1.521   4.409   2.521
 3004SOL    HW2 9912   1.507   4.537   2.623
 3005SOL     OW 9913   1.674   2.399   0.240
 3005SOL    HW1 9914   1.721   2.349   0.313
 3005SOL    HW2 9915   1.626   2.477   0.279
 3006SOL     OW 9916   5.586   2.240   5.083
 3006SOL    HW1 9917   5.658   2.301   5.116
 3006SOL    HW2 9918   5.505   2.295   5.059
 3007SOL     OW 9919   5.147   4.809   0.969
 3007SOL    HW1 9920   5.133   4.801   1.068
 3007SOL    HW2 9921   5.234   4.855   0.952
 3008SOL     OW 9922   2.956   2.432   6.573
 3008SOL    HW1 9923   3.038   2.431   6.516
 3008SOL    HW2 9924   2.892   2.501   6.538
 3009SOL     OW 9925   6.856   2.985   2.640
 3009SOL    HW1 9926   6.804   2.903   2.664
 3009SOL    HW2 9927   6.836   3.057   2.706
 3010SOL     OW 9928   2.645   5.687   4.274
 3010SOL    HW1 9929   2.695   5.718   4.193
 3010SOL    HW2 9930   2.549   5.716   4.267
 3011SOL     OW 9931   5.904   0.904   2.130
 3011SOL    HW1 9932   5.912   0.811   2.166
 3011SOL    HW2 9933   5.994   0.949   2.133
 3012SOL     OW 9934   2.311   2.972   0.091
 3012SOL    HW1 9935   2.271   3.038   0.027
 3012SOL    HW2 9936   2.323   2.884   0.046
 3013SOL     OW 9937   5.430   5.291   3.573
 3013SOL    HW1 9938   5.441   5.269   3.670
 3013SOL    HW2 9939   5.490   5.368   3.549
 3014SOL     OW 9940   4.727   2.293   5.929
 3014SOL    HW1 9941   4.660   2.366   5.915
 3014SOL    HW2 9942   4.801   2.302   5.862
 3015SOL     OW 9943   1.751   1.813   0.126
 3015SOL    HW1 9944   1.696   1.798   0.044
 3015SOL    HW2 9945   1.807   1.733   0.145
 3016SOL     OW 9946   3.475   6.644   4.415
 3016SOL    HW1 9947   3.555   6.671   4.469
 3016SOL    HW2 9948   3.407   6.602   4.475
 3017SOL     OW 9949   6.140   5.855   2.436
 3017SOL    HW1 9950   6.041   5.870   2.444
 3017SOL    HW2 9951   6.158   5.759   2.418
 3018SOL     OW 9952   3.104   0.333   6.520
 3018SOL    HW1 9953   3.088   0.235   6.507
 3018SOL    HW2 9954   3.024   0.384   6.491
 3019SOL     OW 9955   0.469   0.034   6.735
 3019SOL    HW1 9956   0.460   7.025   6.828
 3019SOL    HW2 9957   0.466   0.134   6.737
 3020SOL     OW 9958   3.921   3.080   1.077
 3020SOL    HW1 9959   3.958   3.142   1.008
 3020SOL    HW2 9960   3.991   3.014   1.105
 3021SOL     OW 9961   2.640   0.347   4.959
 3021SOL    HW1 9962   2.579   0.302   4.893
 3021SOL    HW2 9963   2.593   0.426   4.999
 3022SOL     OW 9964   4.359   4.984   4.401
 3022SOL    HW1 9965   4.425   4.931   4.454
 3022SOL    HW2 9966   4.301   5.036   4.464
 3023SOL     OW 9967   4.059   6.441   2.887
 3023SOL    HW1 9968   4.156   6.466   2.878
 3023SOL    HW2 9969   4.052   6.351   2.931
 3024SOL     OW 9970   5.816   6.373   4.599
 3024SOL    HW1 9971   5.723   6.361   4.563
 3024SOL    HW2 9972   5.854   6.283   4.622
 3025SOL     OW 9973   4.544   6.058   1.734
 3025SOL    HW1 9974   4.513   6.146   1.769
 3025SOL    HW2 9975   4.590   6.071   1.646
 3026SOL     OW 9976   0.072   1.198   6.106
 3026SOL    HW1 9977   7.025   1.257   6.071
 3026SOL    HW2 9978   0.139   1.254   6.154
 3027SOL     OW 9979   3.891   1.790   2.925
 3027SOL    HW1 9980   3.983   1.767   2.956
 3027SOL    HW2 9981   3.840   1.706   2.905
 3028SOL     OW 9982   1.614   3.728   5.546
 3028SOL    HW1 9983   1.524   3.742   5.503
 3028SOL    HW2 9984   1.607   3.747   5.643
 3029SOL     OW 9985   1.356   3.234   4.710
 3029SOL    HW1 9986   1.284   3.173   4.742
 3029SOL    HW2 9987   1.418   3.185   4.650
 3030SOL     OW 9988   1.260   3.486   0.939
 3030SOL    HW1 9989   1.267   3.387   0.926
 3030SOL    HW2 9990   1.271   3.508   1.036
 3031SOL     OW 9991   0.505   4.896   1.062
 3031SOL    HW1 9992   0.539   4.901   0.969
 3031SOL    HW2 9993   0.574   4.852   1.121
 3032SOL     OW 9994   2.050   6.948   1.121
 3032SOL    HW1 9995   1.965   7.000   1.124
 3032SOL    HW2 9996   2.113   6.983   1.190
 3033SOL     OW 9997   5.801   0.687   2.547
 3033SOL    HW1 9998   5.792   0.601   2.497
 3033SOL    HW2 9999   5.865   0.747   2.500
 3034SOL     OW10000   0.997   6.747   3.347
 3034SOL    HW110001   0.991   6.847   3.337
 3034SOL    HW210002   0.923   6.704   3.295
 3035SOL     OW10003   0.602   3.071   6.014
 3035SOL    HW110004   0.571   3.014   5.938
 3035SOL    HW210005   0.671   3.135   5.982
 3036SOL     OW10006   1.307   1.820   5.709
 3036SOL    HW110007   1.395   1.860   5.733
 3036SOL    HW210008   1.319   1.723   5.689
 3037SOL     OW10009   6.237   4.986   5.728
 3037SOL    HW110010   6.286   4.906   5.763
 3037SOL    HW210011   6.227   5.053   5.801
 3038SOL     OW10012   5.051   4.890   5.338
 3038SOL    HW110013   5.013   4.884   5.430
 3038SOL    HW210014   5.073   4.798   5.305
 3039SOL     OW10015   0.776   3.134   0.614
 3039SOL    HW110016   0.773   3.229   0.586
 3039SOL    HW210017   0.773   3.075   0.533
 3040SOL     OW10018   3.441   4.975   5.511
 3040SOL    HW110019   3.377   4.898   5.500
 3040SOL    HW210020   3.425   5.042   5.439
 3041SOL     OW10021   2.106   4.490   5.554
 3041SOL    HW110022   2.137   4.582   5.578
 3041SOL    HW210023   2.086   4.486   5.456
 3042SOL     OW10024   5.986   6.573   3.006
 3042SOL    HW110025   6.039   6.567   2.922
 3042SOL    HW210026   6.040   6.621   3.076
 3043SOL     OW10027   3.028   4.163   1.797
 3043SOL    HW110028   2.948   4.221   1.808
 3043SOL    HW210029   3.021   4.084   1.858
 3044SOL     OW10030   3.468   5.811   5.439
 3044SOL    HW110031   3.383   5.835   5.486
 3044SOL    HW210032   3.534   5.885   5.449
 3045SOL     OW10033   4.947   6.573   2.983
 3045SOL    HW110034   5.033   6.522   2.983
 3045SOL    HW210035   4.891   6.543   3.061
 3046SOL     OW10036   3.571   0.318   6.803
 3046SOL    HW110037   3.624   0.285   6.880
 3046SOL    HW210038   3.632   0.338   6.726
 3047SOL     OW10039   5.966   0.503   1.574
 3047SOL    HW110040   6.010   0.562   1.641
 3047SOL    HW210041   5.871   0.532   1.560
 3048SOL     OW10042   4.349   2.333   0.425
 3048SOL    HW110043   4.299   2.294   0.502
 3048SOL    HW210044   4.447   2.331   0.445
 3049SOL     OW10045   1.634   0.124   3.389
 3049SOL    HW110046   1.680   0.163   3.310
 3049SOL    HW210047   1.567   0.057   3.358
 3050SOL     OW10048   3.512   1.892   1.768
 3050SOL    HW110049   3.517   1.801   1.809
 3050SOL    HW210050   3.432   1.941   1.805
 3051SOL     OW10051   2.103   6.705   6.791
 3051SOL    HW110052   2.013   6.663   6.787
 3051SOL    HW210053   2.168   6.642   6.834
 3052SOL     OW10054   5.411   5.503   2.325
 3052SOL    HW110055   5.360   5.570   2.379
 3052SOL    HW210056   5.354   5.470   2.249
 3053SOL     OW10057   6.968   3.406   1.352
 3053SOL    HW110058   0.023   3.412   1.294
 3053SOL    HW210059   6.975   3.471   1.427
 3054SOL     OW10060   6.051   2.322   1.998
 3054SOL    HW110061   6.103   2.360   1.922
 3054SOL    HW210062   5.961   2.292   1.965
 3055SOL     OW10063   4.787   0.257   5.238
 3055SOL    HW110064   4.877   0.241   5.279
 3055SOL    HW210065   4.739   0.170   5.227
 3056SOL     OW10066   6.706   1.067   5.566
 3056SOL    HW110067   6.753   1.093   5.650
 3056SOL    HW210068   6.620   1.021   5.589
 3057SOL     OW10069   4.495   5.127   4.199
 3057SOL    HW110070   4.566   5.065   4.164
 3057SOL    HW210071   4.449   5.084   4.276
 3058SOL     OW10072   6.563   4.410   0.952
 3058SOL    HW110073   6.640   4.389   1.011
 3058SOL    HW210074   6.580   4.497   0.905
 3059SOL     OW10075   2.906   1.308   3.922
 3059SOL    HW110076   2.919   1.250   3.842
 3059SOL    HW210077   2.828   1.276   3.975
 3060SOL     OW10078   1.938   5.361   0.440
 3060SOL    HW110079   1.931   5.415   0.357
 3060SOL    HW210080   2.034   5.352   0.467
 3061SOL     OW10081   5.901   5.416   5.513
 3061SOL    HW110082   5.880   5.455   5.603
 3061SOL    HW210083   5.827   5.354   5.486
 3062SOL     OW10084   1.811   6.746   0.972
 3062SOL    HW110085   1.818   6.722   1.069
 3062SOL    HW210086   1.850   6.837   0.958
 3063SOL     OW10087   2.238   4.548   1.162
 3063SOL    HW110088   2.152   4.590   1.135
 3063SOL    HW210089   2.241   4.453   1.132
 3064SOL     OW10090   5.252   3.246   0.451
 3064SOL    HW110091   5.198   3.278   0.529
 3064SOL    HW210092   5.317   3.317   0.424
 3065SOL     OW10093   1.424   2.273   6.345
 3065SOL    HW110094   1.409   2.292   6.442
 3065SOL    HW210095   1.383   2.346   6.290
 3066SOL     OW10096   5.069   5.106   0.807
 3066SOL    HW110097   5.017   5.150   0.880
 3066SOL    HW210098   5.090   5.011   0.834
 3067SOL     OW10099   3.743   0.645   6.548
 3067SOL    HW110100   3.672   0.629   6.479
 3067SOL    HW210101   3.833   0.630   6.508
 3068SOL     OW10102   0.113   6.168   1.494
 3068SOL    HW110103   0.167   6.204   1.418
 3068SOL    HW210104   0.037   6.231   1.512
 3069SOL     OW10105   6.752   6.545   2.478
 3069SOL    HW110106   6.661   6.583   2.498
 3069SOL    HW210107   6.806   6.542   2.562
 3070SOL     OW10108   2.724   0.630   6.869
 3070SOL    HW110109   2.633   0.661   6.840
 3070SOL    HW210110   2.715   0.540   6.912
 3071SOL     OW10111   6.893   6.158   3.879
 3071SOL    HW110112   6.845   6.104   3.948
 3071SOL    HW210113   6.989   6.130   3.876
 3072SOL     OW10114   2.108   5.434   5.810
 3072SOL    HW110115   2.130   5.448   5.907
 3072SOL    HW210116   2.176   5.481   5.754
 3073SOL     OW10117   6.685   3.654   3.019
 3073SOL    HW110118   6.779   3.688   3.021
 3073SOL    HW210119   6.680   3.565   3.064
 3074SOL     OW10120   0.100   4.283   0.764
 3074SOL    HW110121   0.081   4.200   0.711
 3074SOL    HW210122   0.084   4.264   0.861
 3075SOL     OW10123   2.634   5.870   3.140
 3075SOL    HW110124   2.605   5.937   3.072
 3075SOL    HW210125   2.569   5.795   3.143
 3076SOL     OW10126   6.842   1.671   3.747
 3076SOL    HW110127   6.883   1.617   3.673
 3076SOL    HW210128   6.748   1.641   3.761
 3077SOL     OW10129   5.865   4.452   1.872
 3077SOL    HW110130   5.846   4.387   1.799
 3077SOL    HW210131   5.786   4.512   1.884
 3078SOL     OW10132   6.955   3.339   2.402
 3078SOL    HW110133   6.999   3.405   2.341
 3078SOL    HW210134   6.859   3.329   2.378
 3079SOL     OW10135   2.746   2.191   2.793
 3079SOL    HW110136   2.731   2.272   2.735
 3079SOL    HW210137   2.751   2.110   2.735
 3080SOL     OW10138   6.211   4.912   2.491
 3080SOL    HW110139   6.115   4.921   2.464
 3080SOL    HW210140   6.266   4.885   2.412
 3081SOL     OW10141   1.206   4.240   6.009
 3081SOL    HW110142   1.233   4.309   5.941
 3081SOL    HW210143   1.259   4.157   5.995
 3082SOL     OW10144   1.713   5.915   3.944
 3082SOL    HW110145   1.797   5.889   3.992
 3082SOL    HW210146   1.636   5.913   4.008
 3083SOL     OW10147   3.016   6.729   3.739
 3083SOL    HW110148   2.976   6.810   3.782
 3083SOL    HW210149   3.071   6.757   3.660
 3084SOL     OW10150   6.433   4.757   3.341
 3084SOL    HW110151   6.357   4.703   3.376
 3084SOL    HW210152   6.404   4.809   3.260
 3085SOL     OW10153   6.424   4.643   0.417
 3085SOL    HW110154   6.421   4.600   0.327
 3085SOL    HW210155   6.338   4.691   0.434
 3086SOL     OW10156   5.285   1.497   0.078
 3086SOL    HW110157   5.309   1.582   0.031
 3086SOL    HW210158   5.368   1.445   0.096
 3087SOL     OW10159   2.104   6.851   3.364
 3087SOL    HW110160   2.124   6.796   3.283
 3087SOL    HW210161   2.031   6.915   3.344
 3088SOL     OW10162   1.742   3.126   5.219
 3088SOL    HW110163   1.726   3.154   5.124
 3088SOL    HW210164   1.689   3.184   5.280
 3089SOL     OW10165   4.274   2.261   4.400
 3089SOL    HW110166   4.341   2.187   4.406
 3089SOL    HW210167   4.229   2.272   4.489
 3090SOL     OW10168   2.380   1.187   1.639
 3090SOL    HW110169   2.366   1.170   1.737
 3090SOL    HW210170   2.292   1.180   1.592
 3091SOL     OW10171   1.262   0.960   0.341
 3091SOL    HW110172   1.255   1.035   0.407
 3091SOL    HW210173   1.331   0.895   0.372
 3092SOL     OW10174   5.529   6.781   0.472
 3092SOL    HW110175   5.504   6.797   0.567
 3092SOL    HW210176   5.584   6.857   0.439
 3093SOL     OW10177   5.408   5.837   6.410
 3093SOL    HW110178   5.394   5.799   6.319
 3093SOL    HW210179   5.354   5.786   6.476
 3094SOL     OW10180   2.407   0.112   4.235
 3094SOL    HW110181   2.438   0.080   4.145
 3094SOL    HW210182   2.413   0.038   4.301
 3095SOL     OW10183   2.401   4.206   5.294
 3095SOL    HW110184   2.482   4.262   5.277
 3095SOL    HW210185   2.410   4.119   5.246
 3096SOL     OW10186   0.882   5.205   5.625
 3096SOL    HW110187   0.789   5.217   5.588
 3096SOL    HW210188   0.908   5.109   5.620
 3097SOL     OW10189   5.881   3.544   6.974
 3097SOL    HW110190   5.865   3.480   6.899
 3097SOL    HW210191   5.892   3.494   0.033
 3098SOL     OW10192   1.910   3.200   1.322
 3098SOL    HW110193   1.916   3.156   1.412
 3098SOL    HW210194   1.831   3.261   1.319
 3099SOL     OW10195   1.060   6.070   3.944
 3099SOL    HW110196   1.038   5.973   3.958
 3099SOL    HW210197   1.093   6.109   4.030
 3100SOL     OW10198   6.552   6.207   3.868
 3100SOL    HW110199   6.613   6.155   3.808
 3100SOL    HW210200   6.488   6.261   3.813
 3101SOL     OW10201   5.399   5.497   6.033
 3101SOL    HW110202   5.357   5.407   6.045
 3101SOL    HW210203   5.333   5.568   6.056
 3102SOL     OW10204   6.368   0.196   1.237
 3102SOL    HW110205   6.338   0.157   1.151
 3102SOL    HW210206   6.313   0.160   1.312
 3103SOL     OW10207   4.235   1.393   1.495
 3103SOL    HW110208   4.268   1.475   1.541
 3103SOL    HW210209   4.205   1.326   1.563
 3104SOL     OW10210   4.358   0.615   6.071
 3104SOL    HW110211   4.387   0.595   6.165
 3104SOL    HW210212   4.355   0.531   6.018
 3105SOL     OW10213   5.422   3.691   1.337
 3105SOL    HW110214   5.501   3.645   1.377
 3105SOL    HW210215   5.437   3.702   1.238
 3106SOL     OW10216   4.984   6.887   5.161
 3106SOL    HW110217   4.899   6.835   5.168
 3106SOL    HW210218   5.017   6.883   5.066
 3107SOL     OW10219   3.678   1.010   4.613
 3107SOL    HW110220   3.670   0.999   4.712
 3107SOL    HW210221   3.696   1.106   4.591
 3108SOL     OW10222   1.813   5.435   4.626
 3108SOL    HW110223   1.763   5.348   4.624
 3108SOL    HW210224   1.775   5.494   4.697
 3109SOL     OW10225   5.861   0.236   3.840
 3109SOL    HW110226   5.895   0.291   3.764
 3109SOL    HW210227   5.854   0.140   3.812
 3110SOL     OW10228   1.278   3.810   3.061
 3110SOL    HW110229   1.371   3.818   3.097
 3110SOL    HW210230   1.213   3.829   3.134
 3111SOL     OW10231   0.056   5.233   3.437
 3111SOL    HW110232   0.086   5.262   3.528
 3111SOL    HW210233   7.014   5.161   3.445
 3112SOL     OW10234   3.425   3.334   0.573
 3112SOL    HW110235   3.448   3.241   0.601
 3112SOL    HW210236   3.482   3.360   0.495
 3113SOL     OW10237   3.353   5.586   2.784
 3113SOL    HW110238   3.261   5.584   2.745
 3113SOL    HW210239   3.414   5.531   2.727
 3114SOL     OW10240   3.525   1.895   0.752
 3114SOL    HW110241   3.479   1.810   0.779
 3114SOL    HW210242   3.559   1.885   0.658
 3115SOL     OW10243   3.899   4.757   6.548
 3115SOL    HW110244   3.886   4.660   6.565
 3115SOL    HW210245   3.994   4.776   6.525
 3116SOL     OW10246   6.607   1.921   6.779
 3116SOL    HW110247   6.676   1.848   6.780
 3116SOL    HW210248   6.583   1.945   6.873
 3117SOL     OW10249   4.470   3.751   5.565
 3117SOL    HW110250   4.555   3.699   5.567
 3117SOL    HW210251   4.414   3.728   5.645
 3118SOL     OW10252   0.923   5.153   2.241
 3118SOL    HW110253   0.841   5.102   2.264
 3118SOL    HW210254   0.976   5.173   2.324
 3119SOL     OW10255   2.076   2.161   0.103
 3119SOL    HW110256   2.140   2.185   0.030
 3119SOL    HW210257   2.122   2.166   0.192
 3120SOL     OW10258   2.532   0.524   5.568
 3120SOL    HW110259   2.447   0.483   5.535
 3120SOL    HW210260   2.544   0.614   5.527
 3121SOL     OW10261   6.381   1.250   5.206
 3121SOL    HW110262   6.305   1.225   5.146
 3121SOL    HW210263   6.455   1.288   5.152
 3122SOL     OW10264   5.017   5.331   5.044
 3122SOL    HW110265   4.952   5.374   4.981
 3122SOL    HW210266   4.972   5.255   5.092
 3123SOL     OW10267   2.088   1.680   2.292
 3123SOL    HW110268   2.015   1.613   2.277
 3123SOL    HW210269   2.057   1.770   2.263
 3124SOL     OW10270   4.699   0.033   4.533
 3124SOL    HW110271   4.662   0.090   4.606
 3124SOL    HW210272   4.718   0.090   4.453
 3125SOL     OW10273   1.535   3.043   5.473
 3125SOL    HW110274   1.590   3.108   5.526
 3125SOL    HW210275   1.468   3.092   5.418
 3126SOL     OW10276   5.317   4.289   5.420
 3126SOL    HW110277   5.277   4.230   5.490
 3126SOL    HW210278   5.244   4.336   5.371
 3127SOL     OW10279   2.305   1.997   6.548
 3127SOL    HW110280   2.375   2.065   6.524
 3127SOL    HW210281   2.292   1.998   6.647
 3128SOL     OW10282   3.417   1.034   6.615
 3128SOL    HW110283   3.389   0.948   6.658
 3128SOL    HW210284   3.337   1.094   6.606
 3129SOL     OW10285   6.112   3.837   0.436
 3129SOL    HW110286   6.067   3.786   0.509
 3129SOL    HW210287   6.145   3.772   0.367
 3130SOL     OW10288   2.111   4.502   2.140
 3130SOL    HW110289   2.015   4.511   2.165
 3130SOL    HW210290   2.121   4.514   2.041
 3131SOL     OW10291   1.264   3.792   2.143
 3131SOL    HW110292   1.346   3.740   2.167
 3131SOL    HW210293   1.199   3.789   2.219
 3132SOL     OW10294   5.080   5.230   6.740
 3132SOL    HW110295   4.982   5.209   6.749
 3132SOL    HW210296   5.098   5.321   6.778
 3133SOL     OW10297   3.340   0.722   3.562
 3133SOL    HW110298   3.280   0.679   3.630
 3133SOL    HW210299   3.370   0.811   3.596
 3134SOL     OW10300   4.347   4.684   0.959
 3134SOL    HW110301   4.331   4.782   0.947
 3134SOL    HW210302   4.260   4.635   0.960
 3135SOL     OW10303   4.379   0.380   5.621
 3135SOL    HW110304   4.467   0.373   5.574
 3135SOL    HW210305   4.313   0.321   5.576
 3136SOL     OW10306   5.406   6.653   2.605
 3136SOL    HW110307   5.348   6.727   2.571
 3136SOL    HW210308   5.496   6.690   2.630
 3137SOL     OW10309   6.830   6.698   3.642
 3137SOL    HW110310   6.793   6.606   3.633
 3137SOL    HW210311   6.793   6.741   3.725
 3138SOL     OW10312   6.376   5.747   3.770
 3138SOL    HW110313   6.444   5.721   3.700
 3138SOL    HW210314   6.309   5.809   3.729
 3139SOL     OW10315   3.729   5.023   0.665
 3139SOL    HW110316   3.647   5.079   0.650
 3139SOL    HW210317   3.798   5.077   0.713
 3140SOL     OW10318   6.355   6.513   5.911
 3140SOL    HW110319   6.286   6.582   5.932
 3140SOL    HW210320   6.315   6.422   5.921
 3141SOL     OW10321   0.946   0.247   6.638
 3141SOL    HW110322   0.889   0.275   6.560
 3141SOL    HW210323   1.038   0.227   6.606
 3142SOL     OW10324   2.873   0.046   2.732
 3142SOL    HW110325   2.798   0.080   2.789
 3142SOL    HW210326   2.837   0.012   2.645
 3143SOL     OW10327   6.086   1.328   7.007
 3143SOL    HW110328   6.109   1.406   6.949
 3143SOL    HW210329   6.085   1.245   6.951
 3144SOL     OW10330   4.559   3.693   1.143
 3144SOL    HW110331   4.572   3.599   1.111
 3144SOL    HW210332   4.461   3.712   1.148
 3145SOL     OW10333   1.912   6.379   2.249
 3145SOL    HW110334   1.891   6.469   2.211
 3145SOL    HW210335   1.839   6.352   2.313
 3146SOL     OW10336   0.779   1.495   4.593
 3146SOL    HW110337   0.868   1.495   4.548
 3146SOL    HW210338   0.736   1.584   4.583
 3147SOL     OW10339   3.300   5.075   0.106
 3147SOL    HW110340   3.202   5.095   0.102
 3147SOL    HW210341   3.351   5.154   0.071
 3148SOL     OW10342   0.037   6.609   4.074
 3148SOL    HW110343   0.015   6.640   3.982
 3148SOL    HW210344   0.045   6.509   4.075
 3149SOL     OW10345   3.087   0.800   6.475
 3149SOL    HW110346   3.139   0.758   6.401
 3149SOL    HW210347   3.076   0.734   6.550
 3150SOL     OW10348   6.973   5.971   5.154
 3150SOL    HW110349   0.031   6.000   5.108
 3150SOL    HW210350   6.925   5.905   5.095
 3151SOL     OW10351   0.399   1.294   5.284
 3151SOL    HW110352   0.459   1.218   5.307
 3151SOL    HW210353   0.452   1.379   5.280
 3152SOL     OW10354   1.002   4.968   0.441
 3152SOL    HW110355   0.953   5.017   0.369
 3152SOL    HW210356   1.082   5.021   0.469
 3153SOL     OW10357   6.115   5.420   0.636
 3153SOL    HW110358   6.053   5.351   0.675
 3153SOL    HW210359   6.209   5.387   0.643
 3154SOL     OW10360   0.032   2.066   7.013
 3154SOL    HW110361   7.003   2.137   0.030
 3154SOL    HW210362   7.000   1.988   6.990
 3155SOL     OW10363   6.560   5.163   0.504
 3155SOL    HW110364   6.582   5.065   0.499
 3155SOL    HW210365   6.636   5.216   0.468
 3156SOL     OW10366   2.905   3.469   1.889
 3156SOL    HW110367   2.839   3.534   1.849
 3156SOL    HW210368   2.993   3.478   1.843
 3157SOL     OW10369   2.077   1.819   5.924
 3157SOL    HW110370   2.062   1.747   5.992
 3157SOL    HW210371   2.035   1.904   5.957
 3158SOL     OW10372   2.768   1.123   4.095
 3158SOL    HW110373   2.685   1.075   4.067
 3158SOL    HW210374   2.830   1.058   4.140
 3159SOL     OW10375   5.258   0.298   6.235
 3159SOL    HW110376   5.266   0.229   6.307
 3159SOL    HW210377   5.323   0.372   6.253
 3160SOL     OW10378   1.334   5.913   5.720
 3160SOL    HW110379   1.246   5.871   5.742
 3160SOL    HW210380   1.382   5.857   5.653
 3161SOL     OW10381   2.521   2.590   2.960
 3161SOL    HW110382   2.510   2.687   2.939
 3161SOL    HW210383   2.441   2.558   3.011
 3162SOL     OW10384   1.642   5.890   1.830
 3162SOL    HW110385   1.644   5.938   1.742
 3162SOL    HW210386   1.629   5.956   1.904
 3163SOL     OW10387   4.553   3.980   6.463
 3163SOL    HW110388   4.550   4.010   6.368
 3163SOL    HW210389   4.470   4.009   6.511
 3164SOL     OW10390   3.892   5.787   1.110
 3164SOL    HW110391   3.948   5.854   1.159
 3164SOL    HW210392   3.858   5.828   1.026
 3165SOL     OW10393   1.515   6.622   1.637
 3165SOL    HW110394   1.529   6.549   1.705
 3165SOL    HW210395   1.560   6.705   1.668
 3166SOL     OW10396   4.228   1.803   3.317
 3166SOL    HW110397   4.252   1.818   3.413
 3166SOL    HW210398   4.153   1.863   3.291
 3167SOL     OW10399   5.610   4.260   1.099
 3167SOL    HW110400   5.659   4.240   1.015
 3167SOL    HW210401   5.607   4.359   1.113
 3168SOL     OW10402   5.344   2.584   0.280
 3168SOL    HW110403   5.258   2.596   0.231
 3168SOL    HW210404   5.380   2.492   0.262
 3169SOL     OW10405   2.427   4.349   4.042
 3169SOL    HW110406   2.500   4.414   4.064
 3169SOL    HW210407   2.411   4.349   3.943
 3170SOL     OW10408   4.354   5.886   1.742
 3170SOL    HW110409   4.407   5.968   1.723
 3170SOL    HW210410   4.308   5.896   1.830
 3171SOL     OW10411   6.853   1.365   2.141
 3171SOL    HW110412   6.766   1.391   2.182
 3171SOL    HW210413   6.842   1.277   2.094
 3172SOL     OW10414   6.777   5.606   6.896
 3172SOL    HW110415   6.680   5.602   6.873
 3172SOL    HW210416   6.809   5.701   6.890
 3173SOL     OW10417   3.545   3.106   7.004
 3173SOL    HW110418   3.603   3.149   6.935
 3173SOL    HW210419   3.577   3.132   0.069
 3174SOL     OW10420   3.436   2.760   0.100
 3174SOL    HW110421   3.463   2.827   0.169
 3174SOL    HW210422   3.337   2.765   0.086
 3175SOL     OW10423   6.020   1.365   1.585
 3175SOL    HW110424   6.059   1.453   1.556
 3175SOL    HW210425   5.950   1.337   1.520
 3176SOL     OW10426   0.967   3.874   5.642
 3176SOL    HW110427   1.051   3.922   5.667
 3176SOL    HW210428   0.980   3.831   5.552
 3177SOL     OW10429   4.791   4.664   3.743
 3177SOL    HW110430   4.880   4.630   3.772
 3177SOL    HW210431   4.718   4.612   3.789
 3178SOL     OW10432   6.588   2.450   0.946
 3178SOL    HW110433   6.618   2.431   0.853
 3178SOL    HW210434   6.493   2.422   0.958
 3179SOL     OW10435   0.925   2.218   1.949
 3179SOL    HW110436   1.019   2.252   1.952
 3179SOL    HW210437   0.919   2.130   1.995
 3180SOL     OW10438   5.498   0.328   0.422
 3180SOL    HW110439   5.455   0.414   0.392
 3180SOL    HW210440   5.516   0.271   0.342
 3181SOL     OW10441   6.296   1.758   3.351
 3181SOL    HW110442   6.317   1.738   3.255
 3181SOL    HW210443   6.380   1.781   3.399
 3182SOL     OW10444   2.584   0.350   6.647
 3182SOL    HW110445   2.554   0.397   6.564
 3182SOL    HW210446   2.510   0.349   6.714
 3183SOL     OW10447   4.767   4.261   2.034
 3183SOL    HW110448   4.682   4.279   1.984
 3183SOL    HW210449   4.746   4.216   2.120
 3184SOL     OW10450   0.923   2.668   2.884
 3184SOL    HW110451   1.006   2.687   2.937
 3184SOL    HW210452   0.937   2.696   2.789
 3185SOL     OW10453   4.901   5.835   6.746
 3185SOL    HW110454   4.969   5.841   6.673
 3185SOL    HW210455   4.825   5.777   6.716
 3186SOL     OW10456   3.189   1.869   0.618
 3186SOL    HW110457   3.208   1.920   0.701
 3186SOL    HW210458   3.247   1.788   0.614
 3187SOL     OW10459   4.808   5.471   0.911
 3187SOL    HW110460   4.756   5.551   0.941
 3187SOL    HW210461   4.856   5.492   0.825
 3188SOL     OW10462   1.208   6.963   4.573
 3188SOL    HW110463   1.289   6.905   4.580
 3188SOL    HW210464   1.132   6.911   4.536
 3189SOL     OW10465   1.094   1.881   1.015
 3189SOL    HW110466   1.126   1.794   0.976
 3189SOL    HW210467   1.028   1.923   0.953
 3190SOL     OW10468   0.310   5.587   0.586
 3190SOL    HW110469   0.262   5.655   0.642
 3190SOL    HW210470   0.407   5.610   0.581
 3191SOL     OW10471   4.968   5.468   1.249
 3191SOL    HW110472   5.005   5.557   1.275
 3191SOL    HW210473   5.030   5.425   1.182
 3192SOL     OW10474   0.515   3.681   1.279
 3192SOL    HW110475   0.610   3.673   1.310
 3192SOL    HW210476   0.514   3.703   1.181
 3193SOL     OW10477   4.561   1.159   6.526
 3193SOL    HW110478   4.557   1.258   6.511
 3193SOL    HW210479   4.526   1.137   6.617
 3194SOL     OW10480   1.508   1.760   6.420
 3194SOL    HW110481   1.504   1.738   6.517
 3194SOL    HW210482   1.516   1.859   6.409
 3195SOL     OW10483   1.812   0.882   3.261
 3195SOL    HW110484   1.881   0.898   3.331
 3195SOL    HW210485   1.725   0.922   3.289
 3196SOL     OW10486   0.619   0.889   6.921
 3196SOL    HW110487   0.625   0.936   7.009
 3196SOL    HW210488   0.524   0.865   6.902
 3197SOL     OW10489   3.002   6.535   4.259
 3197SOL    HW110490   2.910   6.551   4.224
 3197SOL    HW210491   2.999   6.533   4.359
 3198SOL     OW10492   6.340   2.875   3.737
 3198SOL    HW110493   6.405   2.817   3.689
 3198SOL    HW210494   6.333   2.846   3.833
 3199SOL     OW10495   5.417   4.038   2.666
 3199SOL    HW110496   5.341   4.085   2.711
 3199SOL    HW210497   5.491   4.023   2.731
 3200SOL     OW10498   5.583   3.049   2.777
 3200SOL    HW110499   5.507   3.079   2.835
 3200SOL    HW210500   5.638   3.128   2.751
 3201SOL     OW10501   6.769   4.489   3.872
 3201SOL    HW110502   6.806   4.580   3.893
 3201SOL    HW210503   6.842   4.421   3.874
 3202SOL     OW10504   1.587   4.834   1.234
 3202SOL    HW110505   1.548   4.808   1.323
 3202SOL    HW210506   1.673   4.786   1.220
 3203SOL     OW10507   5.847   2.403   0.375
 3203SOL    HW110508   5.812   2.347   0.300
 3203SOL    HW210509   5.945   2.388   0.386
 3204SOL     OW10510   4.479   6.387   2.907
 3204SOL    HW110511   4.483   6.391   2.807
 3204SOL    HW210512   4.437   6.301   2.935
 3205SOL     OW10513   5.489   2.653   5.746
 3205SOL    HW110514   5.488   2.689   5.840
 3205SOL    HW210515   5.565   2.694   5.696
 3206SOL     OW10516   1.977   4.685   0.525
 3206SOL    HW110517   2.066   4.651   0.555
 3206SOL    HW210518   1.989   4.775   0.483
 3207SOL     OW10519   1.200   0.874   6.577
 3207SOL    HW110520   1.256   0.866   6.494
 3207SOL    HW210521   1.260   0.873   6.657
 3208SOL     OW10522   4.329   6.473   6.008
 3208SOL    HW110523   4.237   6.493   6.040
 3208SOL    HW210524   4.363   6.550   5.954
 3209SOL     OW10525   3.565   5.227   3.714
 3209SOL    HW110526   3.629   5.218   3.638
 3209SOL    HW210527   3.495   5.295   3.692
 3210SOL     OW10528   1.502   4.239   0.564
 3210SOL    HW110529   1.530   4.306   0.633
 3210SOL    HW210530   1.578   4.222   0.501
 3211SOL     OW10531   1.665   3.878   0.649
 3211SOL    HW110532   1.584   3.903   0.702
 3211SOL    HW210533   1.652   3.787   0.610
 3212SOL     OW10534   2.984   6.887   1.735
 3212SOL    HW110535   3.018   6.823   1.804
 3212SOL    HW210536   3.060   6.938   1.695
 3213SOL     OW10537   1.581   0.185   0.421
 3213SOL    HW110538   1.553   0.268   0.374
 3213SOL    HW210539   1.503   0.122   0.427
 3214SOL     OW10540   4.413   5.712   0.500
 3214SOL    HW110541   4.495   5.706   0.442
 3214SOL    HW210542   4.351   5.637   0.478
 3215SOL     OW10543   0.563   3.863   1.026
 3215SOL    HW110544   0.514   3.930   1.082
 3215SOL    HW210545   0.550   3.884   0.929
 3216SOL     OW10546   5.940   5.450   0.438
 3216SOL    HW110547   6.007   5.430   0.509
 3216SOL    HW210548   5.851   5.468   0.480
 3217SOL     OW10549   0.491   5.256   2.071
 3217SOL    HW110550   0.574   5.240   2.018
 3217SOL    HW210551   0.415   5.276   2.008
 3218SOL     OW10552   4.789   2.750   3.667
 3218SOL    HW110553   4.824   2.667   3.624
 3218SOL    HW210554   4.713   2.726   3.729
 3219SOL     OW10555   0.729   1.924   3.352
 3219SOL    HW110556   0.683   1.841   3.383
 3219SOL    HW210557   0.762   1.975   3.431
 3220SOL     OW10558   6.989   5.378   5.969
 3220SOL    HW110559   0.007   5.399   5.882
 3220SOL    HW210560   0.024   5.323   6.026
 3221SOL     OW10561   3.880   0.208   1.723
 3221SOL    HW110562   3.789   0.186   1.687
 3221SOL    HW210563   3.887   0.306   1.738
 3222SOL     OW10564   3.164   0.959   2.826
 3222SOL    HW110565   3.236   1.016   2.786
 3222SOL    HW210566   3.100   1.016   2.877
 3223SOL     OW10567   2.246   7.024   6.330
 3223SOL    HW110568   2.162   0.016   6.279
 3223SOL    HW210569   2.256   6.925   6.344
 3224SOL     OW10570   4.917   3.341   5.542
 3224SOL    HW110571   4.847   3.364   5.475
 3224SOL    HW210572   4.875   3.293   5.619
 3225SOL     OW10573   5.230   2.616   5.438
 3225SOL    HW110574   5.140   2.623   5.394
 3225SOL    HW210575   5.281   2.700   5.424
 3226SOL     OW10576   2.432   1.237   2.582
 3226SOL    HW110577   2.360   1.306   2.582
 3226SOL    HW210578   2.501   1.261   2.651
 3227SOL     OW10579   3.169   3.205   6.812
 3227SOL    HW110580   3.182   3.216   6.910
 3227SOL    HW210581   3.092   3.261   6.782
 3228SOL     OW10582   0.089   3.789   1.432
 3228SOL    HW110583   0.187   3.800   1.449
 3228SOL    HW210584   0.071   3.794   1.334
 3229SOL     OW10585   3.789   0.229   4.827
 3229SOL    HW110586   3.873   0.234   4.774
 3229SOL    HW210587   3.799   0.161   4.900
 3230SOL     OW10588   2.580   4.395   5.267
 3230SOL    HW110589   2.671   4.390   5.308
 3230SOL    HW210590   2.578   4.467   5.197
 3231SOL     OW10591   2.740   0.063   1.810
 3231SOL    HW110592   2.817   0.020   1.763
 3231SOL    HW210593   2.770   0.097   1.899
 3232SOL     OW10594   4.993   6.747   4.532
 3232SOL    HW110595   5.092   6.737   4.526
 3232SOL    HW210596   4.950   6.657   4.540
 3233SOL     OW10597   0.109   2.862   1.046
 3233SOL    HW110598   0.194   2.913   1.061
 3233SOL    HW210599   0.036   2.926   1.020
 3234SOL     OW10600   0.560   2.490   7.002
 3234SOL    HW110601   0.465   2.460   6.994
 3234SOL    HW210602   0.617   2.414   0.007
 3235SOL     OW10603   6.446   0.580   2.229
 3235SOL    HW110604   6.349   0.604   2.237
 3235SOL    HW210605   6.485   0.569   2.321
 3236SOL     OW10606   1.654   3.640   0.496
 3236SOL    HW110607   1.697   3.639   0.405
 3236SOL    HW210608   1.672   3.553   0.542
 3237SOL     OW10609   5.646   1.257   3.718
 3237SOL    HW110610   5.571   1.318   3.744
 3237SOL    HW210611   5.723   1.311   3.683
 3238SOL     OW10612   0.145   5.209   0.374
 3238SOL    HW110613   0.113   5.301   0.398
 3238SOL    HW210614   0.153   5.202   0.274
 3239SOL     OW10615   6.391   1.334   2.161
 3239SOL    HW110616   6.370   1.299   2.070
 3239SOL    HW210617   6.459   1.274   2.204
 3240SOL     OW10618   0.157   6.440   5.790
 3240SOL    HW110619   0.059   6.459   5.796
 3240SOL    HW210620   0.206   6.524   5.768
 3241SOL     OW10621   4.873   0.724   4.651
 3241SOL    HW110622   4.859   0.777   4.734
 3241SOL    HW210623   4.806   0.650   4.646
 3242SOL     OW10624   4.764   4.277   6.966
 3242SOL    HW110625   4.853   4.294   7.007
 3242SOL    HW210626   4.749   4.179   6.956
 3243SOL     OW10627   4.718   4.847   0.072
 3243SOL    HW110628   4.659   4.904   0.129
 3243SOL    HW210629   4.705   4.751   0.097
 3244SOL     OW10630   4.725   5.708   0.514
 3244SOL    HW110631   4.705   5.732   0.419
 3244SOL    HW210632   4.808   5.652   0.517
 3245SOL     OW10633   5.660   3.431   4.442
 3245SOL    HW110634   5.630   3.346   4.398
 3245SOL    HW210635   5.698   3.410   4.532
 3246SOL     OW10636   5.739   0.454   3.023
 3246SOL    HW110637   5.664   0.517   3.041
 3246SOL    HW210638   5.824   0.491   3.060
 3247SOL     OW10639   6.243   4.316   2.639
 3247SOL    HW110640   6.191   4.328   2.554
 3247SOL    HW210641   6.201   4.371   2.712
 3248SOL     OW10642   5.652   3.588   1.452
 3248SOL    HW110643   5.725   3.572   1.386
 3248SOL    HW210644   5.663   3.526   1.530
 3249SOL     OW10645   3.880   4.030   3.940
 3249SOL    HW110646   3.831   3.969   4.003
 3249SOL    HW210647   3.977   4.008   3.941
 3250SOL     OW10648   5.823   7.012   2.730
 3250SOL    HW110649   5.799   0.053   2.800
 3250SOL    HW210650   5.830   0.031   2.641
 3251SOL     OW10651   2.970   0.782   4.174
 3251SOL    HW110652   2.982   0.683   4.170
 3251SOL    HW210653   2.912   0.812   4.098
 3252SOL     OW10654   2.365   0.995   2.667
 3252SOL    HW110655   2.377   1.089   2.635
 3252SOL    HW210656   2.331   0.939   2.591
 3253SOL     OW10657   4.588   4.252   1.642
 3253SOL    HW110658   4.527   4.248   1.722
 3253SOL    HW210659   4.647   4.172   1.641
 3254SOL     OW10660   5.523   6.078   5.687
 3254SOL    HW110661   5.506   6.144   5.759
 3254SOL    HW210662   5.489   6.113   5.600
 3255SOL     OW10663   4.956   6.435   0.002
 3255SOL    HW110664   5.050   6.401   7.021
 3255SOL    HW210665   4.923   6.462   6.939
 3256SOL     OW10666   3.707   1.264   0.828
 3256SOL    HW110667   3.803   1.277   0.803
 3256SOL    HW210668   3.681   1.169   0.810
 3257SOL     OW10669   1.291   1.688   2.109
 3257SOL    HW110670   1.307   1.778   2.150
 3257SOL    HW210671   1.371   1.660   2.056
 3258SOL     OW10672   4.542   6.163   2.508
 3258SOL    HW110673   4.614   6.097   2.489
 3258SOL    HW210674   4.452   6.121   2.492
 3259SOL     OW10675   4.933   5.081   5.075
 3259SOL    HW110676   4.838   5.053   5.090
 3259SOL    HW210677   4.980   5.012   5.020
 3260SOL     OW10678   1.229   2.067   0.767
 3260SOL    HW110679   1.136   2.029   0.759
 3260SOL    HW210680   1.261   2.056   0.861
 3261SOL     OW10681   5.407   0.770   1.538
 3261SOL    HW110682   5.382   0.712   1.460
 3261SOL    HW210683   5.354   0.743   1.618
 3262SOL     OW10684   3.119   2.134   2.558
 3262SOL    HW110685   3.121   2.125   2.658
 3262SOL    HW210686   3.051   2.072   2.520
 3263SOL     OW10687   2.179   1.109   3.124
 3263SOL    HW110688   2.143   1.062   3.043
 3263SOL    HW210689   2.236   1.045   3.176
 3264SOL     OW10690   1.232   4.628   0.903
 3264SOL    HW110691   1.161   4.569   0.943
 3264SOL    HW210692   1.288   4.667   0.976
 3265SOL     OW10693   5.303   0.704   6.514
 3265SOL    HW110694   5.244   0.778   6.482
 3265SOL    HW210695   5.347   0.660   6.436
 3266SOL     OW10696   1.865   4.321   0.031
 3266SOL    HW110697   1.791   4.310   6.992
 3266SOL    HW210698   1.902   4.232   0.057
 3267SOL     OW10699   3.133   6.380   1.341
 3267SOL    HW110700   3.189   6.459   1.317
 3267SOL    HW210701   3.080   6.351   1.261
 3268SOL     OW10702   1.965   3.716   1.387
 3268SOL    HW110703   1.927   3.730   1.478
 3268SOL    HW210704   2.059   3.750   1.385
 3269SOL     OW10705   4.929   5.750   2.322
 3269SOL    HW110706   4.855   5.718   2.381
 3269SOL    HW210707   4.906   5.841   2.288
 3270SOL     OW10708   1.508   4.190   6.350
 3270SOL    HW110709   1.533   4.277   6.307
 3270SOL    HW210710   1.434   4.147   6.298
 3271SOL     OW10711   5.835   3.512   2.141
 3271SOL    HW110712   5.850   3.599   2.094
 3271SOL    HW210713   5.812   3.441   2.075
 3272SOL     OW10714   3.100   4.492   6.100
 3272SOL    HW110715   3.179   4.540   6.138
 3272SOL    HW210716   3.059   4.547   6.028
 3273SOL     OW10717   6.588   6.051   0.669
 3273SOL    HW110718   6.537   6.125   0.624
 3273SOL    HW210719   6.680   6.082   0.689
 3274SOL     OW10720   5.690   1.138   0.854
 3274SOL    HW110721   5.590   1.127   0.850
 3274SOL    HW210722   5.731   1.090   0.777
 3275SOL     OW10723   5.474   1.622   6.746
 3275SOL    HW110724   5.398   1.557   6.747
 3275SOL    HW210725   5.440   1.712   6.719
 3276SOL     OW10726   2.900   5.792   6.620
 3276SOL    HW110727   2.947   5.878   6.598
 3276SOL    HW210728   2.885   5.740   6.536
 3277SOL     OW10729   3.999   6.696   6.916
 3277SOL    HW110730   3.964   6.673   7.006
 3277SOL    HW210731   4.094   6.725   6.924
 3278SOL     OW10732   0.712   0.871   5.620
 3278SOL    HW110733   0.773   0.802   5.660
 3278SOL    HW210734   0.637   0.825   5.572
 3279SOL     OW10735   5.033   0.443   0.591
 3279SOL    HW110736   5.107   0.391   0.633
 3279SOL    HW210737   5.041   0.540   0.617
 3280SOL     OW10738   4.303   4.731   4.509
 3280SOL    HW110739   4.218   4.736   4.457
 3280SOL    HW210740   4.282   4.732   4.607
 3281SOL     OW10741   1.583   4.927   1.823
 3281SOL    HW110742   1.658   4.890   1.879
 3281SOL    HW210743   1.580   4.878   1.736
 3282SOL     OW10744   6.801   5.234   5.628
 3282SOL    HW110745   6.845   5.314   5.586
 3282SOL    HW210746   6.803   5.244   5.727
 3283SOL     OW10747   3.936   0.208   0.747
 3283SOL    HW110748   3.904   0.257   0.828
 3283SOL    HW210749   3.947   0.111   0.769
 3284SOL     OW10750   0.528   4.959   6.848
 3284SOL    HW110751   0.493   4.930   6.758
 3284SOL    HW210752   0.576   4.883   6.891
 3285SOL     OW10753   4.489   2.109   3.323
 3285SOL    HW110754   4.448   2.103   3.414
 3285SOL    HW210755   4.482   2.203   3.290
 3286SOL     OW10756   3.514   3.105   2.390
 3286SOL    HW110757   3.487   3.053   2.471
 3286SOL    HW210758   3.597   3.156   2.409
 3287SOL     OW10759   0.820   0.687   0.310
 3287SOL    HW110760   0.770   0.722   0.390
 3287SOL    HW210761   0.874   0.761   0.270
 3288SOL     OW10762   1.132   5.840   6.779
 3288SOL    HW110763   1.139   5.923   6.724
 3288SOL    HW210764   1.068   5.776   6.737
 3289SOL     OW10765   2.466   0.526   5.095
 3289SOL    HW110766   2.535   0.562   5.159
 3289SOL    HW210767   2.393   0.483   5.147
 3290SOL     OW10768   0.295   6.243   1.292
 3290SOL    HW110769   0.246   6.234   1.206
 3290SOL    HW210770   0.389   6.272   1.275
 3291SOL     OW10771   2.005   0.243   6.978
 3291SOL    HW110772   2.091   0.200   7.006
 3291SOL    HW210773   1.930   0.179   6.990
 3292SOL     OW10774   0.062   0.691   1.019
 3292SOL    HW110775   6.997   0.662   1.049
 3292SOL    HW210776   0.102   0.619   0.962
 3293SOL     OW10777   0.343   4.237   1.324
 3293SOL    HW110778   0.290   4.187   1.393
 3293SOL    HW210779   0.284   4.306   1.282
 3294SOL     OW10780   6.027   1.669   6.294
 3294SOL    HW110781   6.007   1.653   6.390
 3294SOL    HW210782   5.946   1.705   6.248
 3295SOL     OW10783   1.315   2.377   2.340
 3295SOL    HW110784   1.347   2.414   2.253
 3295SOL    HW210785   1.216   2.384   2.346
 3296SOL     OW10786   1.279   6.924   2.731
 3296SOL    HW110787   1.188   6.940   2.769
 3296SOL    HW210788   1.346   6.982   2.778
 3297SOL     OW10789   3.212   1.070   5.747
 3297SOL    HW110790   3.238   1.163   5.723
 3297SOL    HW210791   3.124   1.048   5.706
 3298SOL     OW10792   6.083   2.200   5.630
 3298SOL    HW110793   6.163   2.257   5.652
 3298SOL    HW210794   6.045   2.163   5.715
 3299SOL     OW10795   3.448   5.644   3.253
 3299SOL    HW110796   3.489   5.662   3.163
 3299SOL    HW210797   3.353   5.677   3.252
 3300SOL     OW10798   0.214   1.230   5.519
 3300SOL    HW110799   0.232   1.153   5.458
 3300SOL    HW210800   0.124   1.268   5.499
 3301SOL     OW10801   1.876   3.281   3.516
 3301SOL    HW110802   1.778   3.289   3.536
 3301SOL    HW210803   1.889   3.252   3.421
 3302SOL     OW10804   0.723   4.818   5.377
 3302SOL    HW110805   0.711   4.725   5.343
 3302SOL    HW210806   0.756   4.815   5.472
 3303SOL     OW10807   3.815   3.865   0.999
 3303SOL    HW110808   3.853   3.792   1.055
 3303SOL    HW210809   3.887   3.906   0.943
 3304SOL     OW10810   1.075   5.339   4.256
 3304SOL    HW110811   1.120   5.427   4.243
 3304SOL    HW210812   0.976   5.351   4.259
 3305SOL     OW10813   2.107   1.123   2.367
 3305SOL    HW110814   2.081   1.060   2.293
 3305SOL    HW210815   2.030   1.132   2.431
 3306SOL     OW10816   2.065   5.406   4.805
 3306SOL    HW110817   2.002   5.422   4.729
 3306SOL    HW210818   2.021   5.431   4.891
 3307SOL     OW10819   6.895   5.390   7.014
 3307SOL    HW110820   6.981   5.424   0.024
 3307SOL    HW210821   6.846   5.465   6.969
 3308SOL     OW10822   3.153   6.439   0.866
 3308SOL    HW110823   3.139   6.397   0.777
 3308SOL    HW210824   3.159   6.538   0.856
 3309SOL     OW10825   0.182   5.823   3.576
 3309SOL    HW110826   0.168   5.906   3.631
 3309SOL    HW210827   0.126   5.830   3.493
 3310SOL     OW10828   0.022   3.524   5.857
 3310SOL    HW110829   0.057   3.602   5.805
 3310SOL    HW210830   6.949   3.520   5.848
 3311SOL     OW10831   2.930   3.685   0.996
 3311SOL    HW110832   2.925   3.586   1.008
 3311SOL    HW210833   2.945   3.729   1.085
 3312SOL     OW10834   4.268   4.710   6.289
 3312SOL    HW110835   4.221   4.740   6.206
 3312SOL    HW210836   4.362   4.684   6.267
 3313SOL     OW10837   0.924   6.498   3.928
 3313SOL    HW110838   0.863   6.450   3.865
 3313SOL    HW210839   1.016   6.504   3.889
 3314SOL     OW10840   2.697   1.219   2.741
 3314SOL    HW110841   2.721   1.316   2.738
 3314SOL    HW210842   2.700   1.187   2.836
 3315SOL     OW10843   6.484   4.408   4.240
 3315SOL    HW110844   6.569   4.373   4.200
 3315SOL    HW210845   6.477   4.506   4.224
 3316SOL     OW10846   4.697   1.376   5.702
 3316SOL    HW110847   4.784   1.389   5.748
 3316SOL    HW210848   4.639   1.316   5.757
 3317SOL     OW10849   4.416   2.988   1.716
 3317SOL    HW110850   4.323   3.014   1.743
 3317SOL    HW210851   4.477   2.993   1.795
 3318SOL     OW10852   2.243   1.442   0.896
 3318SOL    HW110853   2.292   1.379   0.837
 3318SOL    HW210854   2.294   1.528   0.902
 3319SOL     OW10855   6.309   1.471   4.127
 3319SOL    HW110856   6.382   1.481   4.059
 3319SOL    HW210857   6.267   1.381   4.117
 3320SOL     OW10858   6.508   0.747   5.242
 3320SOL    HW110859   6.602   0.764   5.213
 3320SOL    HW210860   6.506   0.730   5.341
 3321SOL     OW10861   4.843   1.705   0.254
 3321SOL    HW110862   4.867   1.612   0.283
 3321SOL    HW210863   4.925   1.761   0.254
 3322SOL     OW10864   6.493   2.822   1.148
 3322SOL    HW110865   6.456   2.854   1.061
 3322SOL    HW210866   6.593   2.812   1.140
 3323SOL     OW10867   3.379   2.979   0.319
 3323SOL    HW110868   3.328   3.064   0.306
 3323SOL    HW210869   3.318   2.901   0.302
 3324SOL     OW10870   4.331   5.198   6.749
 3324SOL    HW110871   4.309   5.105   6.779
 3324SOL    HW210872   4.248   5.243   6.716
 3325SOL     OW10873   0.827   3.136   6.805
 3325SOL    HW110874   0.744   3.083   6.789
 3325SOL    HW210875   0.829   3.167   6.900
 3326SOL     OW10876   5.438   1.818   2.165
 3326SOL    HW110877   5.401   1.797   2.075
 3326SOL    HW210878   5.371   1.871   2.217
 3327SOL     OW10879   3.383   5.715   1.516
 3327SOL    HW110880   3.305   5.702   1.455
 3327SOL    HW210881   3.415   5.626   1.549
 3328SOL     OW10882   4.181   2.210   0.648
 3328SOL    HW110883   4.208   2.122   0.688
 3328SOL    HW210884   4.091   2.236   0.684
 3329SOL     OW10885   5.069   0.134   4.732
 3329SOL    HW110886   5.011   0.055   4.713
 3329SOL    HW210887   5.047   0.171   4.822
 3330SOL     OW10888   6.370   5.019   1.880
 3330SOL    HW110889   6.435   5.092   1.902
 3330SOL    HW210890   6.419   4.932   1.874
 3331SOL     OW10891   2.620   2.802   1.494
 3331SOL    HW110892   2.546   2.844   1.547
 3331SOL    HW210893   2.679   2.874   1.457
 3332SOL     OW10894   5.617   5.381   0.089
 3332SOL    HW110895   5.594   5.353   7.022
 3332SOL    HW210896   5.588   5.310   0.153
 3333SOL     OW10897   4.408   4.422   6.318
 3333SOL    HW110898   4.487   4.388   6.266
 3333SOL    HW210899   4.341   4.461   6.256
 3334SOL     OW10900   2.932   3.847   1.760
 3334SOL    HW110901   2.856   3.911   1.768
 3334SOL    HW210902   2.936   3.811   1.667
 3335SOL     OW10903   4.675   0.118   5.518
 3335SOL    HW110904   4.689   0.087   5.424
 3335SOL    HW210905   4.635   0.210   5.517
 3336SOL     OW10906   2.431   5.839   4.785
 3336SOL    HW110907   2.384   5.818   4.699
 3336SOL    HW210908   2.392   5.783   4.858
 3337SOL     OW10909   2.949   3.807   3.026
 3337SOL    HW110910   2.958   3.809   2.926
 3337SOL    HW210911   2.929   3.714   3.056
 3338SOL     OW10912   5.702   2.602   1.526
 3338SOL    HW110913   5.707   2.568   1.620
 3338SOL    HW210914   5.615   2.575   1.485
 3339SOL     OW10915   6.526   0.403   6.558
 3339SOL    HW110916   6.577   0.362   6.482
 3339SOL    HW210917   6.529   0.341   6.636
 3340SOL     OW10918   3.523   1.118   2.480
 3340SOL    HW110919   3.539   1.216   2.488
 3340SOL    HW210920   3.606   1.073   2.449
 3341SOL     OW10921   1.371   5.242   3.112
 3341SOL    HW110922   1.433   5.317   3.136
 3341SOL    HW210923   1.298   5.236   3.181
 3342SOL     OW10924   2.186   0.259   4.262
 3342SOL    HW110925   2.258   0.190   4.254
 3342SOL    HW210926   2.164   0.273   4.358
 3343SOL     OW10927   5.557   2.961   0.934
 3343SOL    HW110928   5.595   3.039   0.985
 3343SOL    HW210929   5.471   2.933   0.976
 3344SOL     OW10930   6.024   3.178   4.181
 3344SOL    HW110931   6.013   3.163   4.083
 3344SOL    HW210932   5.936   3.168   4.227
 3345SOL     OW10933   1.588   3.754   5.802
 3345SOL    HW110934   1.581   3.831   5.866
 3345SOL    HW210935   1.664   3.695   5.831
 3346SOL     OW10936   1.674   0.589   1.033
 3346SOL    HW110937   1.750   0.630   1.085
 3346SOL    HW210938   1.685   0.489   1.033
 3347SOL     OW10939   0.693   3.627   4.757
 3347SOL    HW110940   0.771   3.571   4.730
 3347SOL    HW210941   0.642   3.655   4.675
 3348SOL     OW10942   3.328   3.309   4.003
 3348SOL    HW110943   3.381   3.394   4.009
 3348SOL    HW210944   3.306   3.277   4.095
 3349SOL     OW10945   1.016   5.903   2.837
 3349SOL    HW110946   1.044   5.817   2.793
 3349SOL    HW210947   1.025   5.895   2.936
 3350SOL     OW10948   1.137   2.436   5.870
 3350SOL    HW110949   1.164   2.348   5.831
 3350SOL    HW210950   1.205   2.506   5.847
 3351SOL     OW10951   4.727   0.999   2.564
 3351SOL    HW110952   4.701   1.003   2.467
 3351SOL    HW210953   4.681   0.922   2.607
 3352SOL     OW10954   6.885   2.309   0.526
 3352SOL    HW110955   6.946   2.385   0.545
 3352SOL    HW210956   6.804   2.315   0.586
 3353SOL     OW10957   1.647   5.635   1.981
 3353SOL    HW110958   1.641   5.649   2.080
 3353SOL    HW210959   1.659   5.723   1.936
 3354SOL     OW10960   4.664   2.366   5.283
 3354SOL    HW110961   4.691   2.438   5.348
 3354SOL    HW210962   4.567   2.377   5.261
 3355SOL     OW10963   2.207   1.522   0.059
 3355SOL    HW110964   2.289   1.514   0.003
 3355SOL    HW210965   2.143   1.586   0.016
 3356SOL     OW10966   1.447   4.666   6.015
 3356SOL    HW110967   1.397   4.651   5.930
 3356SOL    HW210968   1.535   4.710   5.996
 3357SOL     OW10969   2.720   4.669   1.712
 3357SOL    HW110970   2.783   4.726   1.660
 3357SOL    HW210971   2.765   4.635   1.795
 3358SOL     OW10972   5.157   1.102   1.178
 3358SOL    HW110973   5.205   1.019   1.206
 3358SOL    HW210974   5.150   1.165   1.255
 3359SOL     OW10975   6.801   0.143   3.837
 3359SOL    HW110976   6.890   0.177   3.806
 3359SOL    HW210977   6.798   0.143   3.937
 3360SOL     OW10978   0.315   0.937   6.930
 3360SOL    HW110979   0.288   1.033   6.922
 3360SOL    HW210980   0.326   0.898   6.839
 3361SOL     OW10981   1.148   4.271   3.637
 3361SOL    HW110982   1.175   4.197   3.698
 3361SOL    HW210983   1.144   4.238   3.543
 3362SOL     OW10984   3.616   1.562   3.177
 3362SOL    HW110985   3.620   1.661   3.164
 3362SOL    HW210986   3.534   1.539   3.230
 3363SOL     OW10987   6.101   6.840   1.210
 3363SOL    HW110988   6.084   6.793   1.124
 3363SOL    HW210989   6.015   6.853   1.259
 3364SOL     OW10990   1.562   4.353   3.989
 3364SOL    HW110991   1.566   4.451   4.008
 3364SOL    HW210992   1.467   4.323   3.990
 3365SOL     OW10993   6.867   1.957   5.420
 3365SOL    HW110994   6.961   1.927   5.436
 3365SOL    HW210995   6.865   2.020   5.342
 3366SOL     OW10996   5.887   6.713   5.375
 3366SOL    HW110997   5.979   6.729   5.341
 3366SOL    HW210998   5.872   6.766   5.459
 3367SOL     OW10999   3.507   2.769   1.551
 3367SOL    HW111000   3.518   2.671   1.533
 3367SOL    HW211001   3.436   2.783   1.619
 3368SOL     OW11002   0.317   5.082   5.594
 3368SOL    HW111003   0.306   5.120   5.686
 3368SOL    HW211004   0.385   5.008   5.596
 3369SOL     OW11005   3.658   2.656   6.104
 3369SOL    HW111006   3.747   2.613   6.117
 3369SOL    HW211007   3.669   2.755   6.101
 3370SOL     OW11008   6.876   6.093   6.534
 3370SOL    HW111009   6.844   6.003   6.503
 3370SOL    HW211010   6.800   6.158   6.529
 3371SOL     OW11011   1.870   2.914   2.020
 3371SOL    HW111012   1.793   2.977   2.009
 3371SOL    HW211013   1.891   2.905   2.118
 3372SOL     OW11014   0.815   1.727   1.000
 3372SOL    HW111015   0.722   1.692   1.010
 3372SOL    HW211016   0.873   1.655   0.961
 3373SOL     OW11017   6.661   1.603   2.922
 3373SOL    HW111018   6.744   1.558   2.889
 3373SOL    HW211019   6.582   1.566   2.873
 3374SOL     OW11020   1.227   5.876   4.543
 3374SOL    HW111021   1.184   5.955   4.586
 3374SOL    HW211022   1.275   5.905   4.460
 3375SOL     OW11023   6.327   6.062   6.186
 3375SOL    HW111024   6.330   5.984   6.124
 3375SOL    HW211025   6.398   6.052   6.256
 3376SOL     OW11026   3.700   3.072   3.169
 3376SOL    HW111027   3.624   3.106   3.113
 3376SOL    HW211028   3.763   3.147   3.188
 3377SOL     OW11029   0.125   6.420   5.496
 3377SOL    HW111030   0.100   6.481   5.571
 3377SOL    HW211031   0.222   6.431   5.475
 3378SOL     OW11032   6.929   0.965   0.797
 3378SOL    HW111033   6.890   1.020   0.871
 3378SOL    HW211034   0.002   0.971   0.800
 3379SOL     OW11035   6.825   6.677   6.242
 3379SOL    HW111036   6.813   6.708   6.336
 3379SOL    HW211037   6.868   6.749   6.188
 3380SOL     OW11038   6.159   6.747   5.250
 3380SOL    HW111039   6.214   6.715   5.173
 3380SOL    HW211040   6.177   6.691   5.330
 3381SOL     OW11041   1.036   2.796   1.231
 3381SOL    HW111042   0.942   2.763   1.237
 3381SOL    HW211043   1.096   2.734   1.281
 3382SOL     OW11044   0.531   2.034   0.778
 3382SOL    HW111045   0.502   1.938   0.769
 3382SOL    HW211046   0.599   2.041   0.851
 3383SOL     OW11047   4.650   5.941   1.963
 3383SOL    HW111048   4.750   5.953   1.961
 3383SOL    HW211049   4.612   5.961   1.873
 3384SOL     OW11050   2.713   3.300   6.109
 3384SOL    HW111051   2.681   3.207   6.091
 3384SOL    HW211052   2.811   3.298   6.131
 3385SOL     OW11053   6.893   2.809   4.377
 3385SOL    HW111054   6.885   2.816   4.277
 3385SOL    HW211055   6.863   2.719   4.406
 3386SOL     OW11056   5.878   4.120   6.778
 3386SOL    HW111057   5.948   4.055   6.748
 3386SOL    HW211058   5.918   4.211   6.786
 3387SOL     OW11059   2.932   0.793   3.696
 3387SOL    HW111060   2.962   0.877   3.651
 3387SOL    HW211061   2.992   0.717   3.668
 3388SOL     OW11062   4.933   3.494   1.588
 3388SOL    HW111063   4.984   3.541   1.516
 3388SOL    HW211064   4.882   3.561   1.641
 3389SOL     OW11065   5.558   4.911   5.684
 3389SOL    HW111066   5.563   4.974   5.761
 3389SOL    HW211067   5.537   4.819   5.719
 3390SOL     OW11068   4.979   5.422   5.861
 3390SOL    HW111069   5.024   5.441   5.948
 3390SOL    HW211070   5.026   5.470   5.787
 3391SOL     OW11071   5.297   3.027   4.597
 3391SOL    HW111072   5.272   3.124   4.596
 3391SOL    HW211073   5.214   2.972   4.606
 3392SOL     OW11074   2.675   6.885   3.805
 3392SOL    HW111075   2.768   6.915   3.824
 3392SOL    HW211076   2.647   6.921   3.716
 3393SOL     OW11077   0.548   6.404   0.186
 3393SOL    HW111078   0.596   6.337   0.129
 3393SOL    HW211079   0.499   6.468   0.127
 3394SOL     OW11080   5.864   3.321   1.898
 3394SOL    HW111081   5.862   3.343   1.800
 3394SOL    HW211082   5.776   3.282   1.925
 3395SOL     OW11083   5.437   3.294   3.304
 3395SOL    HW111084   5.349   3.337   3.282
 3395SOL    HW211085   5.505   3.321   3.237
 3396SOL     OW11086   4.645   1.871   3.755
 3396SOL    HW111087   4.698   1.852   3.672
 3396SOL    HW211088   4.610   1.965   3.750
 3397SOL     OW11089   2.193   0.658   5.321
 3397SOL    HW111090   2.134   0.685   5.397
 3397SOL    HW211091   2.230   0.740   5.277
 3398SOL     OW11092   0.542   6.480   4.928
 3398SOL    HW111093   0.489   6.404   4.891
 3398SOL    HW211094   0.573   6.456   5.020
 3399SOL     OW11095   5.302   4.527   4.075
 3399SOL    HW111096   5.342   4.619   4.067
 3399SOL    HW211097   5.224   4.529   4.137
 3400SOL     OW11098   4.769   2.652   5.798
 3400SOL    HW111099   4.770   2.613   5.891
 3400SOL    HW211100   4.862   2.670   5.768
 3401SOL     OW11101   0.217   3.330   0.904
 3401SOL    HW111102   0.217   3.429   0.916
 3401SOL    HW211103   0.218   3.286   0.994
 3402SOL     OW11104   3.855   6.098   6.674
 3402SOL    HW111105   3.792   6.028   6.707
 3402SOL    HW211106   3.864   6.171   6.742
 3403SOL     OW11107   3.851   5.954   4.760
 3403SOL    HW111108   3.803   5.867   4.764
 3403SOL    HW211109   3.791   6.027   4.794
 3404SOL     OW11110   5.109   1.665   6.890
 3404SOL    HW111111   5.021   1.641   6.929
 3404SOL    HW211112   5.163   1.581   6.875
 3405SOL     OW11113   0.199   3.872   4.403
 3405SOL    HW111114   0.245   3.784   4.394
 3405SOL    HW211115   0.172   3.886   4.498
 3406SOL     OW11116   0.526   4.140   1.829
 3406SOL    HW111117   0.566   4.105   1.914
 3406SOL    HW211118   0.512   4.065   1.766
 3407SOL     OW11119   1.136   5.158   6.271
 3407SOL    HW111120   1.105   5.082   6.328
 3407SOL    HW211121   1.125   5.244   6.322
 3408SOL     OW11122   4.682   3.661   5.430
 3408SOL    HW111123   4.662   3.660   5.332
 3408SOL    HW211124   4.775   3.693   5.445
 3409SOL     OW11125   3.341   6.126   6.610
 3409SOL    HW111126   3.276   6.167   6.673
 3409SOL    HW211127   3.329   6.027   6.608
 3410SOL     OW11128   0.097   6.060   0.534
 3410SOL    HW111129   0.165   6.009   0.481
 3410SOL    HW211130   0.069   6.141   0.483
 3411SOL     OW11131   0.530   3.312   1.922
 3411SOL    HW111132   0.572   3.222   1.929
 3411SOL    HW211133   0.446   3.314   1.976
 3412SOL     OW11134   4.247   2.911   6.944
 3412SOL    HW111135   4.153   2.888   6.971
 3412SOL    HW211136   4.256   3.010   6.935
 3413SOL     OW11137   5.807   1.346   0.978
 3413SOL    HW111138   5.777   1.262   0.933
 3413SOL    HW211139   5.800   1.423   0.915
 3414SOL     OW11140   2.389   0.173   5.772
 3414SOL    HW111141   2.359   0.188   5.678
 3414SOL    HW211142   2.489   0.172   5.775
 3415SOL     OW11143   1.876   3.726   5.043
 3415SOL    HW111144   1.896   3.628   5.040
 3415SOL    HW211145   1.784   3.740   5.079
 3416SOL     OW11146   0.228   5.885   0.720
 3416SOL    HW111147   0.140   5.899   0.765
 3416SOL    HW211148   0.238   5.951   0.646
 3417SOL     OW11149   0.632   5.925   2.889
 3417SOL    HW111150   0.695   5.972   2.827
 3417SOL    HW211151   0.677   5.844   2.928
 3418SOL     OW11152   3.878   0.915   4.443
 3418SOL    HW111153   3.929   0.831   4.462
 3418SOL    HW211154   3.790   0.913   4.492
 3419SOL     OW11155   3.451   5.486   4.795
 3419SOL    HW111156   3.474   5.489   4.698
 3419SOL    HW211157   3.530   5.515   4.849
 3420SOL     OW11158   4.992   2.713   4.391
 3420SOL    HW111159   5.046   2.747   4.314
 3420SOL    HW211160   4.895   2.720   4.370
 3421SOL     OW11161   5.217   1.166   5.217
 3421SOL    HW111162   5.169   1.095   5.166
 3421SOL    HW211163   5.279   1.123   5.284
 3422SOL     OW11164   1.866   0.191   0.862
 3422SOL    HW111165   1.770   0.198   0.890
 3422SOL    HW211166   1.921   0.252   0.919
 3423SOL     OW11167   0.991   4.634   6.737
 3423SOL    HW111168   0.972   4.611   6.642
 3423SOL    HW211169   1.089   4.649   6.749
 3424SOL     OW11170   2.962   6.500   1.606
 3424SOL    HW111171   3.001   6.408   1.610
 3424SOL    HW211172   2.869   6.495   1.569
 3425SOL     OW11173   5.308   4.952   2.588
 3425SOL    HW111174   5.250   4.976   2.666
 3425SOL    HW211175   5.295   4.856   2.565
 3426SOL     OW11176   4.065   2.734   0.481
 3426SOL    HW111177   4.097   2.829   0.474
 3426SOL    HW211178   3.994   2.718   0.412
 3427SOL     OW11179   6.298   0.206   0.078
 3427SOL    HW111180   6.300   0.107   0.064
 3427SOL    HW211181   6.283   0.252   7.017
 3428SOL     OW11182   2.796   5.231   0.746
 3428SOL    HW111183   2.775   5.226   0.648
 3428SOL    HW211184   2.715   5.257   0.797
 3429SOL     OW11185   0.202   2.322   0.460
 3429SOL    HW111186   0.234   2.365   0.544
 3429SOL    HW211187   0.251   2.236   0.447
 3430SOL     OW11188   0.633   6.464   5.217
 3430SOL    HW111189   0.662   6.375   5.250
 3430SOL    HW211190   0.591   6.515   5.292
 3431SOL     OW11191   0.791   0.056   1.267
 3431SOL    HW111192   0.718   0.005   1.222
 3431SOL    HW211193   0.805   0.142   1.220
 3432SOL     OW11194   1.456   2.371   6.820
 3432SOL    HW111195   1.499   2.461   6.833
 3432SOL    HW211196   1.397   2.351   6.898
 3433SOL     OW11197   0.979   0.648   6.287
 3433SOL    HW111198   0.921   0.721   6.322
 3433SOL    HW211199   1.035   0.612   6.361
 3434SOL     OW11200   4.676   1.910   1.365
 3434SOL    HW111201   4.639   1.839   1.305
 3434SOL    HW211202   4.677   1.998   1.317
 3435SOL     OW11203   0.692   1.632   0.499
 3435SOL    HW111204   0.694   1.536   0.472
 3435SOL    HW211205   0.658   1.687   0.423
 3436SOL     OW11206   3.988   5.727   6.744
 3436SOL    HW111207   4.022   5.820   6.729
 3436SOL    HW211208   3.925   5.726   6.822
 3437SOL     OW11209   1.893   1.214   5.733
 3437SOL    HW111210   1.805   1.261   5.729
 3437SOL    HW211211   1.966   1.280   5.751
 3438SOL     OW11212   1.024   2.785   6.738
 3438SOL    HW111213   0.961   2.715   6.703
 3438SOL    HW211214   1.000   2.874   6.700
 3439SOL     OW11215   1.868   6.240   5.141
 3439SOL    HW111216   1.853   6.262   5.238
 3439SOL    HW211217   1.922   6.313   5.099
 3440SOL     OW11218   3.616   3.621   1.452
 3440SOL    HW111219   3.671   3.537   1.443
 3440SOL    HW211220   3.564   3.636   1.368
 3441SOL     OW11221   5.091   7.017   4.497
 3441SOL    HW111222   5.070   6.934   4.548
 3441SOL    HW211223   5.182   0.023   4.522
 3442SOL     OW11224   2.953   5.229   2.100
 3442SOL    HW111225   2.869   5.179   2.123
 3442SOL    HW211226   2.941   5.276   2.012
 3443SOL     OW11227   5.136   5.733   1.565
 3443SOL    HW111228   5.061   5.677   1.600
 3443SOL    HW211229   5.099   5.809   1.513
 3444SOL     OW11230   5.106   5.316   0.404
 3444SOL    HW111231   5.199   5.284   0.422
 3444SOL    HW211232   5.041   5.252   0.446
 3445SOL     OW11233   6.472   5.445   4.288
 3445SOL    HW111234   6.430   5.531   4.317
 3445SOL    HW211235   6.471   5.380   4.364
 3446SOL     OW11236   6.011   0.305   2.693
 3446SOL    HW111237   5.994   0.377   2.625
 3446SOL    HW211238   6.106   0.310   2.723
 3447SOL     OW11239   5.675   5.822   0.920
 3447SOL    HW111240   5.593   5.815   0.863
 3447SOL    HW211241   5.745   5.760   0.885
 3448SOL     OW11242   3.297   0.223   0.994
 3448SOL    HW111243   3.222   0.179   0.945
 3448SOL    HW211244   3.260   0.293   1.054
 3449SOL     OW11245   6.288   6.528   4.090
 3449SOL    HW111246   6.323   6.438   4.066
 3449SOL    HW211247   6.361   6.596   4.077
 3450SOL     OW11248   0.056   2.310   6.625
 3450SOL    HW111249   0.057   2.299   6.526
 3450SOL    HW211250   7.025   2.239   6.666
 3451SOL     OW11251   1.957   6.337   1.621
 3451SOL    HW111252   2.052   6.334   1.590
 3451SOL    HW211253   1.898   6.293   1.553
 3452SOL     OW11254   5.875   0.479   6.102
 3452SOL    HW111255   5.878   0.440   6.010
 3452SOL    HW211256   5.946   0.436   6.158
 3453SOL     OW11257   6.399   5.824   5.946
 3453SOL    HW111258   6.489   5.858   5.974
 3453SOL    HW211259   6.405   5.786   5.854
 3454SOL     OW11260   1.015   2.321   6.107
 3454SOL    HW111261   1.083   2.258   6.144
 3454SOL    HW211262   1.049   2.360   6.022
 3455SOL     OW11263   2.428   1.853   4.501
 3455SOL    HW111264   2.490   1.809   4.565
 3455SOL    HW211265   2.476   1.928   4.454
 3456SOL     OW11266   6.120   5.548   2.792
 3456SOL    HW111267   6.047   5.594   2.742
 3456SOL    HW211268   6.203   5.604   2.788
 3457SOL     OW11269   2.867   5.337   3.253
 3457SOL    HW111270   2.919   5.398   3.193
 3457SOL    HW211271   2.854   5.249   3.208
 3458SOL     OW11272   4.657   0.564   1.427
 3458SOL    HW111273   4.666   0.576   1.526
 3458SOL    HW211274   4.637   0.653   1.385
 3459SOL     OW11275   5.914   3.781   3.001
 3459SOL    HW111276   5.848   3.819   3.066
 3459SOL    HW211277   5.986   3.733   3.051
 3460SOL     OW11278   2.796   3.121   0.033
 3460SOL    HW111279   2.836   3.063   0.104
 3460SOL    HW211280   2.707   3.154   0.063
 3461SOL     OW11281   4.246   6.272   4.970
 3461SOL    HW111282   4.248   6.183   5.018
 3461SOL    HW211283   4.174   6.329   5.010
 3462SOL     OW11284   0.691   3.512   2.242
 3462SOL    HW111285   0.741   3.597   2.256
 3462SOL    HW211286   0.724   3.468   2.158
 3463SOL     OW11287   0.632   4.036   3.057
 3463SOL    HW111288   0.533   4.035   3.041
 3463SOL    HW211289   0.651   4.019   3.154
 3464SOL     OW11290   6.288   3.810   6.626
 3464SOL    HW111291   6.273   3.726   6.573
 3464SOL    HW211292   6.364   3.861   6.586
 3465SOL     OW11293   1.699   2.246   2.350
 3465SOL    HW111294   1.616   2.250   2.406
 3465SOL    HW211295   1.683   2.294   2.264
 3466SOL     OW11296   0.281   4.798   0.082
 3466SOL    HW111297   0.321   4.797   0.174
 3466SOL    HW211298   0.274   4.704   0.048
 3467SOL     OW11299   1.803   2.406   0.809
 3467SOL    HW111300   1.730   2.427   0.745
 3467SOL    HW211301   1.880   2.365   0.760
 3468SOL     OW11302   5.486   6.388   2.593
 3468SOL    HW111303   5.585   6.406   2.596
 3468SOL    HW211304   5.436   6.469   2.623
 3469SOL     OW11305   4.653   0.065   3.259
 3469SOL    HW111306   4.659   0.031   3.353
 3469SOL    HW211307   4.579   0.017   3.211
 3470SOL     OW11308   6.128   3.447   1.516
 3470SOL    HW111309   6.162   3.458   1.422
 3470SOL    HW211310   6.154   3.356   1.550
 3471SOL     OW11311   4.307   5.448   4.380
 3471SOL    HW111312   4.383   5.403   4.332
 3471SOL    HW211313   4.324   5.546   4.387
 3472SOL     OW11314   2.732   0.936   3.440
 3472SOL    HW111315   2.645   0.896   3.467
 3472SOL    HW211316   2.742   0.931   3.340
 3473SOL     OW11317   0.113   2.077   1.362
 3473SOL    HW111318   0.201   2.123   1.350
 3473SOL    HW211319   0.039   2.142   1.343
 3474SOL     OW11320   1.002   4.674   1.932
 3474SOL    HW111321   0.935   4.700   1.862
 3474SOL    HW211322   0.996   4.738   2.009
 3475SOL     OW11323   1.251   4.548   4.320
 3475SOL    HW111324   1.336   4.515   4.278
 3475SOL    HW211325   1.270   4.584   4.411
 3476SOL     OW11326   2.271   1.365   3.104
 3476SOL    HW111327   2.256   1.267   3.114
 3476SOL    HW211328   2.229   1.398   3.020
 3477SOL     OW11329   1.804   5.524   1.331
 3477SOL    HW111330   1.794   5.442   1.273
 3477SOL    HW211331   1.865   5.589   1.285
 3478SOL     OW11332   2.491   5.675   5.385
 3478SOL    HW111333   2.549   5.629   5.317
 3478SOL    HW211334   2.534   5.667   5.475
 3479SOL     OW11335   1.041   0.220   3.161
 3479SOL    HW111336   1.123   0.208   3.105
 3479SOL    HW211337   1.050   0.304   3.216
 3480SOL     OW11338   0.371   6.246   4.818
 3480SOL    HW111339   0.435   6.239   4.742
 3480SOL    HW211340   0.306   6.320   4.800
 3481SOL     OW11341   4.691   0.204   0.173
 3481SOL    HW111342   4.728   0.297   0.184
 3481SOL    HW211343   4.766   0.138   0.178
 3482SOL     OW11344   5.998   1.606   1.797
 3482SOL    HW111345   6.038   1.520   1.827
 3482SOL    HW211346   6.008   1.615   1.698
 3483SOL     OW11347   4.566   2.180   1.992
 3483SOL    HW111348   4.646   2.197   2.050
 3483SOL    HW211349   4.588   2.203   1.898
 3484SOL     OW11350   1.387   3.117   6.718
 3484SOL    HW111351   1.341   3.182   6.657
 3484SOL    HW211352   1.425   3.042   6.664
 3485SOL     OW11353   2.124   1.261   4.614
 3485SOL    HW111354   2.126   1.330   4.686
 3485SOL    HW211355   2.203   1.200   4.624
 3486SOL     OW11356   2.535   0.207   3.648
 3486SOL    HW111357   2.437   0.205   3.664
 3486SOL    HW211358   2.566   0.119   3.612
 3487SOL     OW11359   5.972   2.612   5.603
 3487SOL    HW111360   5.926   2.594   5.516
 3487SOL    HW211361   5.969   2.531   5.661
 3488SOL     OW11362   6.157   1.094   4.500
 3488SOL    HW111363   6.217   1.087   4.421
 3488SOL    HW211364   6.064   1.068   4.473
 3489SOL     OW11365   4.191   0.093   1.146
 3489SOL    HW111366   4.117   0.156   1.125
 3489SOL    HW211367   4.154   0.003   1.167
 3490SOL     OW11368   4.416   4.454   0.329
 3490SOL    HW111369   4.388   4.431   0.236
 3490SOL    HW211370   4.338   4.444   0.390
 3491SOL     OW11371   4.616   2.630   5.056
 3491SOL    HW111372   4.617   2.680   4.969
 3491SOL    HW211373   4.699   2.575   5.063
 3492SOL     OW11374   0.069   5.241   1.142
 3492SOL    HW111375   7.021   5.308   1.146
 3492SOL    HW211376   0.155   5.287   1.122
 3493SOL     OW11377   5.496   4.128   5.881
 3493SOL    HW111378   5.510   4.031   5.860
 3493SOL    HW211379   5.409   4.139   5.928
 3494SOL     OW11380   3.595   0.236   1.098
 3494SOL    HW111381   3.566   0.144   1.122
 3494SOL    HW211382   3.558   0.260   1.008
 3495SOL     OW11383   5.724   4.936   2.009
 3495SOL    HW111384   5.807   4.897   1.968
 3495SOL    HW211385   5.672   4.863   2.053
 3496SOL     OW11386   6.029   4.146   1.086
 3496SOL    HW111387   6.019   4.218   1.017
 3496SOL    HW211388   5.950   4.146   1.147
 3497SOL     OW11389   3.111   1.412   4.077
 3497SOL    HW111390   3.073   1.503   4.096
 3497SOL    HW211391   3.055   1.366   4.008
 3498SOL     OW11392   2.877   2.229   0.567
 3498SOL    HW111393   2.969   2.262   0.591
 3498SOL    HW211394   2.868   2.224   0.468
 3499SOL     OW11395   4.986   3.363   4.072
 3499SOL    HW111396   4.913   3.304   4.037
 3499SOL    HW211397   4.998   3.440   4.010
 3500SOL     OW11398   1.713   3.606   5.287
 3500SOL    HW111399   1.740   3.695   5.324
 3500SOL    HW211400   1.792   3.545   5.288
 3501SOL     OW11401   1.635   5.735   4.729
 3501SOL    HW111402   1.714   5.766   4.676
 3501SOL    HW211403   1.662   5.658   4.787
 3502SOL     OW11404   6.330   2.983   2.742
 3502SOL    HW111405   6.365   2.900   2.786
 3502SOL    HW211406   6.353   3.062   2.799
 3503SOL     OW11407   6.062   6.483   4.602
 3503SOL    HW111408   5.974   6.435   4.593
 3503SOL    HW211409   6.095   6.510   4.512
 3504SOL     OW11410   2.266   2.280   1.437
 3504SOL    HW111411   2.322   2.326   1.506
 3504SOL    HW211412   2.188   2.237   1.482
 3505SOL     OW11413   5.844   4.616   5.249
 3505SOL    HW111414   5.809   4.693   5.194
 3505SOL    HW211415   5.816   4.629   5.344
 3506SOL     OW11416   5.033   5.380   5.552
 3506SOL    HW111417   5.008   5.297   5.502
 3506SOL    HW211418   4.951   5.437   5.565
 3507SOL     OW11419   1.519   0.741   0.878
 3507SOL    HW111420   1.574   0.771   0.800
 3507SOL    HW211421   1.579   0.702   0.947
 3508SOL     OW11422   2.938   2.505   5.832
 3508SOL    HW111423   2.931   2.407   5.851
 3508SOL    HW211424   2.910   2.522   5.737
 3509SOL     OW11425   5.848   0.355   5.874
 3509SOL    HW111426   5.882   0.439   5.832
 3509SOL    HW211427   5.894   0.276   5.834
 3510SOL     OW11428   1.337   2.498   2.057
 3510SOL    HW111429   1.375   2.477   1.967
 3510SOL    HW211430   1.361   2.592   2.082
 3511SOL     OW11431   3.551   5.089   0.324
 3511SOL    HW111432   3.503   5.172   0.297
 3511SOL    HW211433   3.527   5.066   0.419
 3512SOL     OW11434   0.498   4.681   0.813
 3512SOL    HW111435   0.435   4.654   0.741
 3512SOL    HW211436   0.527   4.776   0.798
 3513SOL     OW11437   6.435   2.782   0.665
 3513SOL    HW111438   6.381   2.766   0.747
 3513SOL    HW211439   6.462   2.878   0.660
 3514SOL     OW11440   0.479   1.638   2.082
 3514SOL    HW111441   0.523   1.714   2.034
 3514SOL    HW211442   0.414   1.593   2.020
 3515SOL     OW11443   5.150   5.931   2.892
 3515SOL    HW111444   5.116   5.838   2.880
 3515SOL    HW211445   5.096   5.993   2.836
 3516SOL     OW11446   4.803   0.192   0.849
 3516SOL    HW111447   4.761   0.204   0.759
 3516SOL    HW211448   4.897   0.226   0.848
 3517SOL     OW11449   1.414   2.209   0.579
 3517SOL    HW111450   1.347   2.164   0.638
 3517SOL    HW211451   1.409   2.168   0.488
 3518SOL     OW11452   6.155   2.828   4.434
 3518SOL    HW111453   6.136   2.886   4.355
 3518SOL    HW211454   6.161   2.733   4.405
 3519SOL     OW11455   1.662   0.697   6.665
 3519SOL    HW111456   1.620   0.728   6.579
 3519SOL    HW211457   1.592   0.656   6.723
 3520SOL     OW11458   3.062   4.794   6.173
 3520SOL    HW111459   3.159   4.770   6.163
 3520SOL    HW211460   3.010   4.752   6.099
 3521SOL     OW11461   5.156   2.317   0.194
 3521SOL    HW111462   5.125   2.364   0.112
 3521SOL    HW211463   5.198   2.230   0.168
 3522SOL     OW11464   6.934   4.495   1.982
 3522SOL    HW111465   6.976   4.409   2.013
 3522SOL    HW211466   7.003   4.567   1.982
 3523SOL     OW11467   2.040   5.160   6.238
 3523SOL    HW111468   1.988   5.076   6.227
 3523SOL    HW211469   2.138   5.139   6.243
 3524SOL     OW11470   3.780   1.581   1.781
 3524SOL    HW111471   3.830   1.558   1.865
 3524SOL    HW211472   3.789   1.506   1.715
 3525SOL     OW11473   1.266   4.400   2.812
 3525SOL    HW111474   1.324   4.348   2.749
 3525SOL    HW211475   1.250   4.346   2.895
 3526SOL     OW11476   2.305   6.072   4.382
 3526SOL    HW111477   2.330   6.124   4.301
 3526SOL    HW211478   2.350   6.110   4.463
 3527SOL     OW11479   6.067   2.862   6.244
 3527SOL    HW111480   6.098   2.831   6.154
 3527SOL    HW211481   6.111   2.807   6.315
 3528SOL     OW11482   0.592   5.630   4.427
 3528SOL    HW111483   0.643   5.565   4.483
 3528SOL    HW211484   0.551   5.700   4.486
 3529SOL     OW11485   4.060   0.141   0.149
 3529SOL    HW111486   4.136   0.200   0.177
 3529SOL    HW211487   4.043   0.154   0.051
 3530SOL     OW11488   0.502   5.281   2.757
 3530SOL    HW111489   0.520   5.380   2.759
 3530SOL    HW211490   0.585   5.232   2.785
 3531SOL     OW11491   5.233   2.848   0.707
 3531SOL    HW111492   5.293   2.926   0.690
 3531SOL    HW211493   5.270   2.767   0.660
 3532SOL     OW11494   2.997   0.783   1.506
 3532SOL    HW111495   3.015   0.770   1.603
 3532SOL    HW211496   3.045   0.713   1.453
 3533SOL     OW11497   1.959   1.840   2.110
 3533SOL    HW111498   1.865   1.874   2.120
 3533SOL    HW211499   1.957   1.743   2.086
 3534SOL     OW11500   5.675   0.706   5.929
 3534SOL    HW111501   5.751   0.644   5.913
 3534SOL    HW211502   5.623   0.718   5.845
 3535SOL     OW11503   1.507   5.812   0.103
 3535SOL    HW111504   1.520   5.714   0.120
 3535SOL    HW211505   1.481   5.858   0.188
 3536SOL     OW11506   2.569   2.495   3.488
 3536SOL    HW111507   2.603   2.458   3.402
 3536SOL    HW211508   2.584   2.428   3.561
 3537SOL     OW11509   3.134   5.497   0.937
 3537SOL    HW111510   3.086   5.421   0.894
 3537SOL    HW211511   3.221   5.466   0.975
 3538SOL     OW11512   1.322   0.253   6.061
 3538SOL    HW111513   1.257   0.328   6.055
 3538SOL    HW211514   1.273   0.166   6.054
 3539SOL     OW11515   5.847   3.301   5.981
 3539SOL    HW111516   5.918   3.282   5.913
 3539SOL    HW211517   5.810   3.393   5.966
 3540SOL     OW11518   2.286   2.458   6.272
 3540SOL    HW111519   2.206   2.452   6.332
 3540SOL    HW211520   2.258   2.495   6.183
 3541SOL     OW11521   2.080   2.435   6.456
 3541SOL    HW111522   1.998   2.490   6.440
 3541SOL    HW211523   2.057   2.360   6.519
 3542SOL     OW11524   1.393   4.728   2.193
 3542SOL    HW111525   1.364   4.785   2.117
 3542SOL    HW211526   1.457   4.659   2.160
 3543SOL     OW11527   0.650   2.390   4.806
 3543SOL    HW111528   0.712   2.460   4.771
 3543SOL    HW211529   0.629   2.325   4.733
 3544SOL     OW11530   2.865   4.390   5.975
 3544SOL    HW111531   2.950   4.391   6.027
 3544SOL    HW211532   2.880   4.434   5.886
 3545SOL     OW11533   4.228   5.308   0.109
 3545SOL    HW111534   4.201   5.218   0.073
 3545SOL    HW211535   4.208   5.313   0.206
 3546SOL     OW11536   0.254   3.599   3.648
 3546SOL    HW111537   0.276   3.544   3.568
 3546SOL    HW211538   0.248   3.696   3.622
 3547SOL     OW11539   6.695   4.867   5.425
 3547SOL    HW111540   6.723   4.885   5.520
 3547SOL    HW211541   6.636   4.941   5.393
 3548SOL     OW11542   5.333   0.516   5.504
 3548SOL    HW111543   5.348   0.522   5.603
 3548SOL    HW211544   5.356   0.603   5.461
 3549SOL     OW11545   6.846   4.814   6.197
 3549SOL    HW111546   6.786   4.876   6.248
 3549SOL    HW211547   6.829   4.720   6.225
 3550SOL     OW11548   6.237   3.044   3.457
 3550SOL    HW111549   6.188   3.042   3.369
 3550SOL    HW211550   6.330   3.011   3.444
 3551SOL     OW11551   3.512   2.016   2.874
 3551SOL    HW111552   3.461   1.931   2.892
 3551SOL    HW211553   3.596   1.995   2.824
 3552SOL     OW11554   6.349   6.536   1.509
 3552SOL    HW111555   6.355   6.636   1.520
 3552SOL    HW211556   6.300   6.497   1.587
 3553SOL     OW11557   4.689   5.499   1.239
 3553SOL    HW111558   4.673   5.524   1.143
 3553SOL    HW211559   4.788   5.499   1.256
 3554SOL     OW11560   4.028   2.183   1.128
 3554SOL    HW111561   4.032   2.268   1.181
 3554SOL    HW211562   4.053   2.106   1.186
 3555SOL     OW11563   0.556   4.446   3.611
 3555SOL    HW111564   0.528   4.507   3.685
 3555SOL    HW211565   0.650   4.468   3.583
 3556SOL     OW11566   3.971   1.435   4.396
 3556SOL    HW111567   4.041   1.478   4.340
 3556SOL    HW211568   3.911   1.379   4.338
 3557SOL     OW11569   1.001   1.248   4.609
 3557SOL    HW111570   0.929   1.182   4.590
 3557SOL    HW211571   0.999   1.274   4.705
 3558SOL     OW11572   1.249   6.116   2.326
 3558SOL    HW111573   1.255   6.138   2.423
 3558SOL    HW211574   1.183   6.042   2.313
 3559SOL     OW11575   0.278   6.024   5.307
 3559SOL    HW111576   0.294   6.072   5.220
 3559SOL    HW211577   0.240   5.933   5.289
 3560SOL     OW11578   1.166   5.403   2.881
 3560SOL    HW111579   1.229   5.327   2.865
 3560SOL    HW211580   1.207   5.468   2.944
 3561SOL     OW11581   4.514   4.596   4.780
 3561SOL    HW111582   4.562   4.669   4.830
 3561SOL    HW211583   4.479   4.529   4.845
 3562SOL     OW11584   3.796   1.349   3.266
 3562SOL    HW111585   3.796   1.299   3.179
 3562SOL    HW211586   3.746   1.434   3.256
 3563SOL     OW11587   5.919   1.983   0.318
 3563SOL    HW111588   5.870   1.985   0.231
 3563SOL    HW211589   6.017   1.996   0.301
 3564SOL     OW11590   0.905   4.527   3.393
 3564SOL    HW111591   0.838   4.601   3.383
 3564SOL    HW211592   0.882   4.452   3.331
 3565SOL     OW11593   3.084   5.375   5.102
 3565SOL    HW111594   3.059   5.314   5.178
 3565SOL    HW211595   3.152   5.441   5.134
 3566SOL     OW11596   6.791   3.514   5.776
 3566SOL    HW111597   6.712   3.455   5.793
 3566SOL    HW211598   6.799   3.532   5.678
 3567SOL     OW11599   0.266   2.552   6.452
 3567SOL    HW111600   0.250   2.577   6.548
 3567SOL    HW211601   0.226   2.621   6.392
 3568SOL     OW11602   4.414   5.049   3.750
 3568SOL    HW111603   4.503   5.007   3.769
 3568SOL    HW211604   4.342   4.989   3.785
 3569SOL     OW11605   2.380   1.498   5.857
 3569SOL    HW111606   2.413   1.449   5.776
 3569SOL    HW211607   2.445   1.570   5.881
 3570SOL     OW11608   5.369   0.717   5.098
 3570SOL    HW111609   5.397   0.737   5.192
 3570SOL    HW211610   5.450   0.715   5.039
 3571SOL     OW11611   0.527   4.924   4.830
 3571SOL    HW111612   0.522   4.942   4.928
 3571SOL    HW211613   0.499   4.830   4.812
 3572SOL     OW11614   6.169   3.974   3.052
 3572SOL    HW111615   6.244   3.919   3.016
 3572SOL    HW211616   6.085   3.951   3.003
 3573SOL     OW11617   0.623   5.687   3.083
 3573SOL    HW111618   0.534   5.691   3.037
 3573SOL    HW211619   0.629   5.604   3.138
 3574SOL     OW11620   0.847   3.676   0.697
 3574SOL    HW111621   0.851   3.701   0.794
 3574SOL    HW211622   0.775   3.608   0.683
 3575SOL     OW11623   5.328   5.307   2.160
 3575SOL    HW111624   5.287   5.222   2.193
 3575SOL    HW211625   5.288   5.330   2.071
 3576SOL     OW11626   0.326   2.538   6.016
 3576SOL    HW111627   0.280   2.533   6.105
 3576SOL    HW211628   0.291   2.466   5.956
 3577SOL     OW11629   1.476   2.169   5.945
 3577SOL    HW111630   1.390   2.152   5.993
 3577SOL    HW211631   1.457   2.181   5.847
 3578SOL     OW11632   3.915   1.784   0.558
 3578SOL    HW111633   3.912   1.883   0.541
 3578SOL    HW211634   3.831   1.756   0.605
 3579SOL     OW11635   0.426   2.295   3.320
 3579SOL    HW111636   0.498   2.355   3.355
 3579SOL    HW211637   0.337   2.342   3.326
 3580SOL     OW11638   6.072   3.082   1.070
 3580SOL    HW111639   6.055   2.986   1.091
 3580SOL    HW211640   6.155   3.113   1.116
 3581SOL     OW11641   1.313   5.706   3.569
 3581SOL    HW111642   1.249   5.781   3.553
 3581SOL    HW211643   1.349   5.712   3.663
 3582SOL     OW11644   0.999   3.584   6.437
 3582SOL    HW111645   0.905   3.608   6.411
 3582SOL    HW211646   1.006   3.484   6.447
 3583SOL     OW11647   1.144   4.392   6.302
 3583SOL    HW111648   1.162   4.469   6.241
 3583SOL    HW211649   1.157   4.306   6.253
 3584SOL     OW11650   5.692   5.312   6.579
 3584SOL    HW111651   5.709   5.400   6.535
 3584SOL    HW211652   5.624   5.261   6.527
 3585SOL     OW11653   3.120   0.935   4.797
 3585SOL    HW111654   3.048   0.877   4.757
 3585SOL    HW211655   3.208   0.911   4.755
 3586SOL     OW11656   6.279   1.965   4.684
 3586SOL    HW111657   6.195   1.949   4.736
 3586SOL    HW211658   6.261   2.033   4.612
 3587SOL     OW11659   2.089   4.766   5.537
 3587SOL    HW111660   2.117   4.814   5.621
 3587SOL    HW211661   2.161   4.776   5.468
 3588SOL     OW11662   1.389   2.813   5.504
 3588SOL    HW111663   1.458   2.883   5.487
 3588SOL    HW211664   1.383   2.794   5.602
 3589SOL     OW11665   5.126   1.433   4.826
 3589SOL    HW111666   5.170   1.434   4.916
 3589SOL    HW211667   5.136   1.342   4.785
 3590SOL     OW11668   0.893   3.321   0.416
 3590SOL    HW111669   0.935   3.357   0.499
 3590SOL    HW211670   0.964   3.299   0.349
 3591SOL     OW11671   5.161   4.079   6.652
 3591SOL    HW111672   5.234   4.023   6.614
 3591SOL    HW211673   5.150   4.162   6.598
 3592SOL     OW11674   1.149   4.999   1.838
 3592SOL    HW111675   1.200   5.025   1.756
 3592SOL    HW211676   1.051   5.009   1.821
 3593SOL     OW11677   0.735   5.366   5.379
 3593SOL    HW111678   0.667   5.293   5.386
 3593SOL    HW211679   0.795   5.348   5.301
 3594SOL     OW11680   4.896   6.891   3.218
 3594SOL    HW111681   4.989   6.890   3.253
 3594SOL    HW211682   4.889   6.957   3.143
 3595SOL     OW11683   4.342   5.619   6.090
 3595SOL    HW111684   4.367   5.606   5.995
 3595SOL    HW211685   4.283   5.700   6.098
 3596SOL     OW11686   6.425   3.315   3.251
 3596SOL    HW111687   6.329   3.301   3.228
 3596SOL    HW211688   6.441   3.412   3.268
 3597SOL     OW11689   1.981   2.162   5.768
 3597SOL    HW111690   1.917   2.210   5.708
 3597SOL    HW211691   1.933   2.132   5.851
 3598SOL     OW11692   1.109   5.363   6.472
 3598SOL    HW111693   1.050   5.389   6.548
 3598SOL    HW211694   1.151   5.445   6.433
 3599SOL     OW11695   5.939   2.497   6.322
 3599SOL    HW111696   6.022   2.540   6.357
 3599SOL    HW211697   5.861   2.558   6.337
 3600SOL     OW11698   0.752   2.961   1.689
 3600SOL    HW111699   0.658   2.987   1.667
 3600SOL    HW211700   0.812   2.986   1.613
 3601SOL     OW11701   5.400   3.357   6.512
 3601SOL    HW111702   5.435   3.440   6.554
 3601SOL    HW211703   5.310   3.375   6.471
 3602SOL     OW11704   1.516   3.239   0.577
 3602SOL    HW111705   1.456   3.205   0.505
 3602SOL    HW211706   1.576   3.165   0.609
 3603SOL     OW11707   3.432   1.027   4.262
 3603SOL    HW111708   3.529   1.025   4.235
 3603SOL    HW211709   3.405   0.937   4.296
 3604SOL     OW11710   6.720   6.169   3.206
 3604SOL    HW111711   6.724   6.182   3.305
 3604SOL    HW211712   6.694   6.255   3.162
 3605SOL     OW11713   6.792   4.191   4.450
 3605SOL    HW111714   6.773   4.241   4.366
 3605SOL    HW211715   6.706   4.172   4.497
 3606SOL     OW11716   0.264   0.408   4.592
 3606SOL    HW111717   0.349   0.458   4.609
 3606SOL    HW211718   0.203   0.418   4.672
 3607SOL     OW11719   5.734   5.191   1.970
 3607SOL    HW111720   5.734   5.095   1.998
 3607SOL    HW211721   5.759   5.198   1.873
 3608SOL     OW11722   5.052   2.478   4.539
 3608SOL    HW111723   5.066   2.398   4.480
 3608SOL    HW211724   5.063   2.561   4.485
 3609SOL     OW11725   1.138   0.162   4.440
 3609SOL    HW111726   1.135   0.239   4.504
 3609SOL    HW211727   1.158   0.078   4.490
 3610SOL     OW11728   1.801   6.714   5.717
 3610SOL    HW111729   1.770   6.620   5.701
 3610SOL    HW211730   1.900   6.720   5.701
 3611SOL     OW11731   4.537   4.860   4.603
 3611SOL    HW111732   4.453   4.806   4.599
 3611SOL    HW211733   4.600   4.819   4.669
 3612SOL     OW11734   6.757   0.010   0.615
 3612SOL    HW111735   6.830   6.993   0.668
 3612SOL    HW211736   6.793   0.092   0.570
 3613SOL     OW11737   5.081   4.711   2.031
 3613SOL    HW111738   5.006   4.717   2.097
 3613SOL    HW211739   5.049   4.665   1.948
 3614SOL     OW11740   3.855   3.636   1.148
 3614SOL    HW111741   3.917   3.587   1.210
 3614SOL    HW211742   3.762   3.630   1.183
 3615SOL     OW11743   5.446   4.152   6.398
 3615SOL    HW111744   5.470   4.144   6.495
 3615SOL    HW211745   5.513   4.210   6.352
 3616SOL     OW11746   0.324   1.637   6.250
 3616SOL    HW111747   0.343   1.723   6.297
 3616SOL    HW211748   0.282   1.656   6.162
 3617SOL     OW11749   4.536   0.632   6.819
 3617SOL    HW111750   4.517   0.686   6.737
 3617SOL    HW211751   4.568   0.541   6.792
 3618SOL     OW11752   2.804   3.021   5.840
 3618SOL    HW111753   2.742   3.086   5.798
 3618SOL    HW211754   2.766   2.929   5.833
 3619SOL     OW11755   5.759   2.871   4.886
 3619SOL    HW111756   5.674   2.818   4.875
 3619SOL    HW211757   5.802   2.883   4.797
 3620SOL     OW11758   6.271   6.049   5.613
 3620SOL    HW111759   6.273   6.145   5.585
 3620SOL    HW211760   6.336   5.997   5.558
 3621SOL     OW11761   3.264   2.849   5.117
 3621SOL    HW111762   3.341   2.871   5.057
 3621SOL    HW211763   3.206   2.781   5.073
 3622SOL     OW11764   1.160   1.652   6.195
 3622SOL    HW111765   1.137   1.704   6.277
 3622SOL    HW211766   1.094   1.578   6.183
 3623SOL     OW11767   0.086   6.294   4.513
 3623SOL    HW111768   0.064   6.204   4.551
 3623SOL    HW211769   0.008   6.356   4.525
 3624SOL     OW11770   1.988   0.132   2.519
 3624SOL    HW111771   1.962   0.092   2.431
 3624SOL    HW211772   1.918   0.198   2.547
 3625SOL     OW11773   0.045   2.886   6.521
 3625SOL    HW111774   0.006   2.794   6.521
 3625SOL    HW211775   0.039   2.924   6.614
 3626SOL     OW11776   1.750   2.314   5.689
 3626SOL    HW111777   1.737   2.250   5.765
 3626SOL    HW211778   1.661   2.343   5.654
 3627SOL     OW11779   3.019   3.385   1.559
 3627SOL    HW111780   3.030   3.296   1.602
 3627SOL    HW211781   3.097   3.443   1.582
 3628SOL     OW11782   1.362   0.931   2.371
 3628SOL    HW111783   1.286   0.909   2.309
 3628SOL    HW211784   1.331   0.921   2.465
 3629SOL     OW11785   6.827   1.237   5.415
 3629SOL    HW111786   6.771   1.262   5.336
 3629SOL    HW211787   6.777   1.171   5.471
 3630SOL     OW11788   5.206   2.413   4.191
 3630SOL    HW111789   5.252   2.493   4.231
 3630SOL    HW211790   5.186   2.347   4.263
 3631SOL     OW11791   2.334   0.988   3.346
 3631SOL    HW111792   2.424   1.018   3.314
 3631SOL    HW211793   2.318   1.023   3.439
 3632SOL     OW11794   5.506   5.173   0.902
 3632SOL    HW111795   5.527   5.183   0.999
 3632SOL    HW211796   5.590   5.153   0.852
 3633SOL     OW11797   3.964   2.016   5.630
 3633SOL    HW111798   4.047   1.986   5.676
 3633SOL    HW211799   3.929   2.099   5.674
 3634SOL     OW11800   1.497   4.980   5.769
 3634SOL    HW111801   1.486   5.079   5.778
 3634SOL    HW211802   1.455   4.950   5.684
 3635SOL     OW11803   3.067   6.954   0.985
 3635SOL    HW111804   3.005   7.013   1.036
 3635SOL    HW211805   3.080   6.868   1.034
 3636SOL     OW11806   6.903   5.711   0.901
 3636SOL    HW111807   6.857   5.629   0.934
 3636SOL    HW211808   6.878   5.726   0.805
 3637SOL     OW11809   0.154   2.591   2.013
 3637SOL    HW111810   0.169   2.690   2.018
 3637SOL    HW211811   0.072   2.573   1.957
 3638SOL     OW11812   0.709   4.192   3.357
 3638SOL    HW111813   0.776   4.246   3.307
 3638SOL    HW211814   0.617   4.224   3.334
 3639SOL     OW11815   3.798   5.414   0.507
 3639SOL    HW111816   3.839   5.380   0.423
 3639SOL    HW211817   3.752   5.500   0.490
 3640SOL     OW11818   4.411   0.758   0.588
 3640SOL    HW111819   4.359   0.748   0.503
 3640SOL    HW211820   4.500   0.714   0.578
 3641SOL     OW11821   5.898   3.730   2.458
 3641SOL    HW111822   5.956   3.673   2.400
 3641SOL    HW211823   5.875   3.680   2.542
 3642SOL     OW11824   5.268   1.923   0.471
 3642SOL    HW111825   5.170   1.940   0.460
 3642SOL    HW211826   5.281   1.831   0.508
 3643SOL     OW11827   2.777   5.355   4.749
 3643SOL    HW111828   2.858   5.317   4.704
 3643SOL    HW211829   2.696   5.338   4.692
 3644SOL     OW11830   1.063   1.742   1.702
 3644SOL    HW111831   0.965   1.741   1.678
 3644SOL    HW211832   1.073   1.732   1.801
 3645SOL     OW11833   1.721   2.016   3.895
 3645SOL    HW111834   1.770   2.098   3.923
 3645SOL    HW211835   1.738   1.942   3.960
 3646SOL     OW11836   1.911   4.225   6.188
 3646SOL    HW111837   1.849   4.167   6.134
 3646SOL    HW211838   1.858   4.294   6.237
 3647SOL     OW11839   2.284   6.295   6.563
 3647SOL    HW111840   2.275   6.220   6.629
 3647SOL    HW211841   2.373   6.289   6.518
 3648SOL     OW11842   4.469   5.838   2.274
 3648SOL    HW111843   4.539   5.806   2.210
 3648SOL    HW211844   4.450   5.935   2.256
 3649SOL     OW11845   6.165   2.875   1.298
 3649SOL    HW111846   6.067   2.859   1.290
 3649SOL    HW211847   6.214   2.789   1.286
 3650SOL     OW11848   6.639   5.473   2.378
 3650SOL    HW111849   6.644   5.373   2.376
 3650SOL    HW211850   6.720   5.511   2.333
 3651SOL     OW11851   0.497   0.608   4.251
 3651SOL    HW111852   0.562   0.535   4.271
 3651SOL    HW211853   0.430   0.576   4.184
 3652SOL     OW11854   6.381   0.183   3.328
 3652SOL    HW111855   6.312   0.172   3.399
 3652SOL    HW211856   6.434   0.098   3.319
 3653SOL     OW11857   1.309   1.061   3.371
 3653SOL    HW111858   1.264   1.075   3.282
 3653SOL    HW211859   1.251   1.100   3.443
 3654SOL     OW11860   4.097   4.539   0.211
 3654SOL    HW111861   4.156   4.508   0.136
 3654SOL    HW211862   4.011   4.489   0.208
 3655SOL     OW11863   3.097   6.975   4.112
 3655SOL    HW111864   3.040   0.019   4.155
 3655SOL    HW211865   3.150   6.928   4.183
 3656SOL     OW11866   0.442   5.370   1.674
 3656SOL    HW111867   0.420   5.448   1.615
 3656SOL    HW211868   0.366   5.353   1.736
 3657SOL     OW11869   5.538   5.326   5.167
 3657SOL    HW111870   5.448   5.287   5.151
 3657SOL    HW211871   5.585   5.341   5.080
 3658SOL     OW11872   2.441   4.464   6.684
 3658SOL    HW111873   2.465   4.424   6.772
 3658SOL    HW211874   2.395   4.395   6.628
 3659SOL     OW11875   2.112   2.923   5.982
 3659SOL    HW111876   2.132   2.893   5.889
 3659SOL    HW211877   2.032   2.873   6.016
 3660SOL     OW11878   5.595   5.972   4.422
 3660SOL    HW111879   5.526   5.961   4.351
 3660SOL    HW211880   5.590   5.895   4.486
 3661SOL     OW11881   6.945   1.084   5.235
 3661SOL    HW111882   6.899   1.135   5.308
 3661SOL    HW211883   6.914   1.117   5.146
 3662SOL     OW11884   4.118   0.716   4.481
 3662SOL    HW111885   4.137   0.712   4.383
 3662SOL    HW211886   4.128   0.810   4.513
 3663SOL     OW11887   1.734   2.086   0.416
 3663SOL    HW111888   1.786   2.169   0.434
 3663SOL    HW211889   1.797   2.008   0.411
 3664SOL     OW11890   4.618   2.302   1.774
 3664SOL    HW111891   4.576   2.389   1.748
 3664SOL    HW211892   4.709   2.296   1.734
 3665SOL     OW11893   0.843   6.165   5.151
 3665SOL    HW111894   0.762   6.114   5.178
 3665SOL    HW211895   0.834   6.197   5.057
 3666SOL     OW11896   1.268   3.765   2.686
 3666SOL    HW111897   1.276   3.856   2.727
 3666SOL    HW211898   1.173   3.748   2.661
 3667SOL     OW11899   0.377   1.322   3.990
 3667SOL    HW111900   0.320   1.264   4.048
 3667SOL    HW211901   0.440   1.266   3.938
 3668SOL     OW11902   1.276   1.152   0.908
 3668SOL    HW111903   1.200   1.201   0.951
 3668SOL    HW211904   1.336   1.115   0.979
 3669SOL     OW11905   5.282   2.072   3.756
 3669SOL    HW111906   5.345   2.091   3.681
 3669SOL    HW211907   5.194   2.115   3.737
 3670SOL     OW11908   1.948   5.497   6.704
 3670SOL    HW111909   1.934   5.422   6.640
 3670SOL    HW211910   1.890   5.574   6.679
 3671SOL     OW11911   0.165   1.706   3.740
 3671SOL    HW111912   0.113   1.625   3.712
 3671SOL    HW211913   0.120   1.788   3.706
 3672SOL     OW11914   4.495   2.169   2.322
 3672SOL    HW111915   4.532   2.133   2.408
 3672SOL    HW211916   4.569   2.185   2.258
 3673SOL     OW11917   4.116   6.050   0.002
 3673SOL    HW111918   4.199   6.104   0.017
 3673SOL    HW211919   4.135   5.954   0.022
 3674SOL     OW11920   1.693   5.705   5.692
 3674SOL    HW111921   1.752   5.629   5.667
 3674SOL    HW211922   1.646   5.739   5.610
 3675SOL     OW11923   1.819   2.697   4.187
 3675SOL    HW111924   1.916   2.681   4.167
 3675SOL    HW211925   1.810   2.727   4.282
 3676SOL     OW11926   6.548   4.477   2.975
 3676SOL    HW111927   6.534   4.474   3.074
 3676SOL    HW211928   6.602   4.398   2.947
 3677SOL     OW11929   3.064   6.261   4.168
 3677SOL    HW111930   3.038   6.354   4.194
 3677SOL    HW211931   3.065   6.253   4.068
 3678SOL     OW11932   1.387   1.360   4.228
 3678SOL    HW111933   1.314   1.338   4.293
 3678SOL    HW211934   1.471   1.382   4.279
 3679SOL     OW11935   6.866   0.405   3.220
 3679SOL    HW111936   6.896   0.314   3.191
 3679SOL    HW211937   6.909   0.475   3.162
 3680SOL     OW11938   5.158   2.779   4.185
 3680SOL    HW111939   5.230   2.800   4.251
 3680SOL    HW211940   5.197   2.722   4.112
 3681SOL     OW11941   0.245   1.267   6.514
 3681SOL    HW111942   0.255   1.294   6.418
 3681SOL    HW211943   0.150   1.244   6.533
 3682SOL     OW11944   5.923   2.835   0.065
 3682SOL    HW111945   5.935   2.931   0.040
 3682SOL    HW211946   6.001   2.805   0.120
 3683SOL     OW11947   0.094   1.620   4.420
 3683SOL    HW111948   0.137   1.699   4.377
 3683SOL    HW211949   0.153   1.540   4.408
 3684SOL     OW11950   1.248   5.686   0.223
 3684SOL    HW111951   1.341   5.713   0.201
 3684SOL    HW211952   1.222   5.606   0.169
 3685SOL     OW11953   1.918   5.994   6.494
 3685SOL    HW111954   1.858   5.938   6.437
 3685SOL    HW211955   1.911   6.090   6.467
 3686SOL     OW11956   6.092   5.014   4.701
 3686SOL    HW111957   6.133   5.072   4.770
 3686SOL    HW211958   6.026   4.952   4.744
 3687SOL     OW11959   3.864   6.339   4.266
 3687SOL    HW111960   3.805   6.403   4.217
 3687SOL    HW211961   3.842   6.342   4.364
 3688SOL     OW11962   7.019   2.819   0.061
 3688SOL    HW111963   6.952   2.756   0.021
 3688SOL    HW211964   7.000   2.912   0.029
 3689SOL     OW11965   1.848   0.131   5.598
 3689SOL    HW111966   1.770   0.068   5.598
 3689SOL    HW211967   1.842   0.191   5.518
 3690SOL     OW11968   3.772   5.999   0.208
 3690SOL    HW111969   3.718   6.076   0.174
 3690SOL    HW211970   3.722   5.914   0.192
 3691SOL     OW11971   2.573   1.378   6.782
 3691SOL    HW111972   2.502   1.375   6.711
 3691SOL    HW211973   2.657   1.339   6.746
 3692SOL     OW11974   6.730   5.288   5.878
 3692SOL    HW111975   6.824   5.301   5.911
 3692SOL    HW211976   6.677   5.370   5.896
 3693SOL     OW11977   2.129   3.263   3.063
 3693SOL    HW111978   2.160   3.358   3.065
 3693SOL    HW211979   2.145   3.224   2.973
 3694SOL     OW11980   0.827   6.214   2.085
 3694SOL    HW111981   0.744   6.185   2.132
 3694SOL    HW211982   0.812   6.207   1.986
 3695SOL     OW11983   4.823   3.051   1.393
 3695SOL    HW111984   4.900   3.109   1.368
 3695SOL    HW211985   4.840   2.957   1.362
 3696SOL     OW11986   3.764   0.085   3.839
 3696SOL    HW111987   3.768   0.012   3.908
 3696SOL    HW211988   3.675   0.129   3.843
 3697SOL     OW11989   0.485   6.150   2.911
 3697SOL    HW111990   0.545   6.071   2.905
 3697SOL    HW211991   0.455   6.162   3.006
 3698SOL     OW11992   2.646   0.769   3.723
 3698SOL    HW111993   2.744   0.771   3.741
 3698SOL    HW211994   2.622   0.682   3.681
 3699SOL     OW11995   1.825   1.044   3.707
 3699SOL    HW111996   1.853   0.949   3.718
 3699SOL    HW211997   1.754   1.049   3.636
 3700SOL     OW11998   1.349   5.308   4.905
 3700SOL    HW111999   1.281   5.235   4.907
 3700SOL    HW212000   1.433   5.276   4.948
 3701SOL     OW12001   1.438   0.155   3.848
 3701SOL    HW112002   1.462   0.217   3.923
 3701SOL    HW212003   1.504   0.167   3.774
 3702SOL     OW12004   5.482   6.447   3.790
 3702SOL    HW112005   5.400   6.465   3.843
 3702SOL    HW212006   5.470   6.482   3.697
 3703SOL     OW12007   6.781   0.574   6.565
 3703SOL    HW112008   6.796   0.626   6.648
 3703SOL    HW212009   6.704   0.512   6.578
 3704SOL     OW12010   3.758   2.052   1.126
 3704SOL    HW112011   3.836   2.093   1.079
 3704SOL    HW212012   3.788   2.014   1.214
 3705SOL     OW12013   5.249   4.267   4.746
 3705SOL    HW112014   5.221   4.193   4.685
 3705SOL    HW212015   5.349   4.271   4.748
 3706SOL     OW12016   1.123   3.708   6.836
 3706SOL    HW112017   1.138   3.706   6.935
 3706SOL    HW212018   1.098   3.801   6.809
 3707SOL     OW12019   5.269   5.111   4.605
 3707SOL    HW112020   5.361   5.071   4.606
 3707SOL    HW212021   5.239   5.123   4.511
 3708SOL     OW12022   5.865   0.288   0.254
 3708SOL    HW112023   5.776   0.249   0.231
 3708SOL    HW212024   5.852   0.365   0.317
 3709SOL     OW12025   3.664   0.181   1.586
 3709SOL    HW112026   3.623   0.196   1.496
 3709SOL    HW212027   3.592   0.170   1.655
 3710SOL     OW12028   6.507   5.623   5.269
 3710SOL    HW112029   6.570   5.639   5.345
 3710SOL    HW212030   6.485   5.525   5.265
 3711SOL     OW12031   1.159   5.103   4.930
 3711SOL    HW112032   1.130   5.153   5.012
 3711SOL    HW212033   1.130   5.008   4.937
 3712SOL     OW12034   0.983   4.993   6.086
 3712SOL    HW112035   0.987   4.948   6.176
 3712SOL    HW212036   0.950   5.087   6.098
 3713SOL     OW12037   0.424   6.684   5.225
 3713SOL    HW112038   0.495   6.714   5.161
 3713SOL    HW212039   0.466   6.661   5.313
 3714SOL     OW12040   6.101   5.902   6.537
 3714SOL    HW112041   6.007   5.898   6.569
 3714SOL    HW212042   6.105   5.954   6.452
 3715SOL     OW12043   0.800   3.910   2.720
 3715SOL    HW112044   0.853   3.827   2.700
 3715SOL    HW212045   0.852   3.969   2.782
 3716SOL     OW12046   5.940   6.445   4.270
 3716SOL    HW112047   6.027   6.472   4.311
 3716SOL    HW212048   5.874   6.520   4.280
 3717SOL     OW12049   5.728   0.229   6.820
 3717SOL    HW112050   5.753   0.172   6.899
 3717SOL    HW212051   5.802   0.294   6.801
 3718SOL     OW12052   6.742   0.342   0.759
 3718SOL    HW112053   6.659   0.287   0.753
 3718SOL    HW212054   6.806   0.301   0.825
 3719SOL     OW12055   5.062   3.578   1.206
 3719SOL    HW112056   5.136   3.628   1.160
 3719SOL    HW212057   5.031   3.503   1.148
 3720SOL     OW12058   6.084   3.178   0.446
 3720SOL    HW112059   6.108   3.107   0.379
 3720SOL    HW212060   6.008   3.146   0.503
 3721SOL     OW12061   0.176   4.709   1.707
 3721SOL    HW112062   0.251   4.760   1.749
 3721SOL    HW212063   0.089   4.743   1.742
 3722SOL     OW12064   5.672   6.115   0.958
 3722SOL    HW112065   5.769   6.135   0.941
 3722SOL    HW212066   5.658   6.016   0.955
 3723SOL     OW12067   5.491   4.520   1.114
 3723SOL    HW112068   5.542   4.602   1.086
 3723SOL    HW212069   5.469   4.465   1.034
 3724SOL     OW12070   1.998   4.617   4.990
 3724SOL    HW112071   2.057   4.641   5.068
 3724SOL    HW212072   2.014   4.522   4.964
 3725SOL     OW12073   0.476   5.318   0.071
 3725SOL    HW112074   0.471   5.414   0.044
 3725SOL    HW212075   0.536   5.269   0.007
 3726SOL     OW12076   5.779   2.884   6.200
 3726SOL    HW112077   5.876   2.861   6.203
 3726SOL    HW212078   5.758   2.928   6.112
 3727SOL     OW12079   6.167   2.060   5.418
 3727SOL    HW112080   6.266   2.070   5.411
 3727SOL    HW212081   6.134   2.111   5.498
 3728SOL     OW12082   0.915   3.358   6.692
 3728SOL    HW112083   0.896   3.277   6.747
 3728SOL    HW212084   0.927   3.333   6.597
 3729SOL     OW12085   1.842   1.595   3.982
 3729SOL    HW112086   1.927   1.544   3.998
 3729SOL    HW212087   1.812   1.581   3.887
 3730SOL     OW12088   3.232   5.851   5.527
 3730SOL    HW112089   3.187   5.867   5.614
 3730SOL    HW212090   3.201   5.764   5.488
 3731SOL     OW12091   0.060   1.300   0.455
 3731SOL    HW112092   0.077   1.205   0.478
 3731SOL    HW212093   0.146   1.346   0.434
 3732SOL     OW12094   2.510   2.071   0.147
 3732SOL    HW112095   2.547   2.081   0.055
 3732SOL    HW212096   2.536   1.981   0.184
 3733SOL     OW12097   2.168   3.162   2.807
 3733SOL    HW112098   2.098   3.216   2.760
 3733SOL    HW212099   2.258   3.181   2.767
 3734SOL     OW12100   5.375   0.021   0.949
 3734SOL    HW112101   5.294   6.992   0.970
 3734SOL    HW212102   5.446   0.003   1.018
 3735SOL     OW12103   2.967   0.508   2.673
 3735SOL    HW112104   2.932   0.445   2.603
 3735SOL    HW212105   3.065   0.521   2.659
 3736SOL     OW12106   0.175   1.334   1.164
 3736SOL    HW112107   0.145   1.429   1.163
 3736SOL    HW212108   0.104   1.277   1.122
 3737SOL     OW12109   5.072   1.114   4.088
 3737SOL    HW112110   5.017   1.148   4.165
 3737SOL    HW212111   5.011   1.077   4.018
 3738SOL     OW12112   6.392   0.303   1.508
 3738SOL    HW112113   6.453   0.296   1.429
 3738SOL    HW212114   6.299   0.322   1.477
 3739SOL     OW12115   2.542   5.233   0.862
 3739SOL    HW112116   2.558   5.142   0.824
 3739SOL    HW212117   2.487   5.226   0.945
 3740SOL     OW12118   6.086   6.966   0.788
 3740SOL    HW112119   6.155   6.949   0.717
 3740SOL    HW212120   6.068   0.038   0.793
 3741SOL     OW12121   4.847   2.703   6.067
 3741SOL    HW112122   4.838   2.785   6.010
 3741SOL    HW212123   4.770   2.698   6.131
 3742SOL     OW12124   3.670   1.550   6.916
 3742SOL    HW112125   3.630   1.460   6.899
 3742SOL    HW212126   3.753   1.540   6.970
 3743SOL     OW12127   5.705   2.885   0.496
 3743SOL    HW112128   5.789   2.837   0.471
 3743SOL    HW212129   5.630   2.853   0.438
 3744SOL     OW12130   1.429   6.836   1.822
 3744SOL    HW112131   1.489   6.760   1.848
 3744SOL    HW212132   1.336   6.818   1.856
 3745SOL     OW12133   4.574   4.654   2.809
 3745SOL    HW112134   4.616   4.585   2.751
 3745SOL    HW212135   4.561   4.616   2.901
 3746SOL     OW12136   6.649   0.512   3.888
 3746SOL    HW112137   6.667   0.457   3.806
 3746SOL    HW212138   6.722   0.579   3.900
 3747SOL     OW12139   3.860   5.671   5.108
 3747SOL    HW112140   3.801   5.668   5.028
 3747SOL    HW212141   3.812   5.633   5.187
 3748SOL     OW12142   5.498   1.133   1.660
 3748SOL    HW112143   5.465   1.103   1.750
 3748SOL    HW212144   5.541   1.222   1.668
 3749SOL     OW12145   2.151   5.173   2.805
 3749SOL    HW112146   2.062   5.189   2.762
 3749SOL    HW212147   2.204   5.258   2.803
 3750SOL     OW12148   6.631   4.963   1.093
 3750SOL    HW112149   6.721   4.950   1.052
 3750SOL    HW212150   6.636   5.034   1.164
 3751SOL     OW12151   6.670   3.375   1.217
 3751SOL    HW112152   6.694   3.458   1.268
 3751SOL    HW212153   6.669   3.297   1.279
 3752SOL     OW12154   0.171   6.661   0.381
 3752SOL    HW112155   0.235   6.708   0.320
 3752SOL    HW212156   0.185   6.562   0.373
 3753SOL     OW12157   0.087   0.744   4.086
 3753SOL    HW112158   0.144   0.827   4.091
 3753SOL    HW212159   0.105   0.687   4.166
 3754SOL     OW12160   3.945   6.560   1.192
 3754SOL    HW112161   3.870   6.611   1.234
 3754SOL    HW212162   3.949   6.583   1.095
 3755SOL     OW12163   5.259   5.685   4.368
 3755SOL    HW112164   5.284   5.730   4.282
 3755SOL    HW212165   5.172   5.721   4.401
 3756SOL     OW12166   2.149   6.043   6.239
 3756SOL    HW112167   2.147   5.974   6.311
 3756SOL    HW212168   2.163   6.000   6.151
 3757SOL     OW12169   4.067   6.369   6.493
 3757SOL    HW112170   4.030   6.277   6.480
 3757SOL    HW212171   4.007   6.421   6.553
 3758SOL     OW12172   2.128   1.450   5.060
 3758SOL    HW112173   2.121   1.451   4.960
 3758SOL    HW212174   2.149   1.357   5.091
 3759SOL     OW12175   4.704   5.359   5.951
 3759SOL    HW112176   4.712   5.409   6.037
 3759SOL    HW212177   4.789   5.367   5.900
 3760SOL     OW12178   1.911   1.832   5.057
 3760SOL    HW112179   1.945   1.857   4.967
 3760SOL    HW212180   1.845   1.900   5.089
 3761SOL     OW12181   0.967   0.871   4.771
 3761SOL    HW112182   0.944   0.891   4.866
 3761SOL    HW212183   1.060   0.904   4.752
 3762SOL     OW12184   1.363   4.433   0.247
 3762SOL    HW112185   1.359   4.337   0.221
 3762SOL    HW212186   1.455   4.469   0.231
 3763SOL     OW12187   0.070   4.543   0.638
 3763SOL    HW112188   7.001   4.572   0.636
 3763SOL    HW212189   0.076   4.452   0.679
 3764SOL     OW12190   1.875   6.583   4.315
 3764SOL    HW112191   1.874   6.682   4.329
 3764SOL    HW212192   1.825   6.538   4.389
 3765SOL     OW12193   4.851   0.814   1.076
 3765SOL    HW112194   4.758   0.850   1.070
 3765SOL    HW212195   4.871   0.786   1.170
 3766SOL     OW12196   0.731   1.223   4.110
 3766SOL    HW112197   0.658   1.250   4.172
 3766SOL    HW212198   0.802   1.293   4.108
 3767SOL     OW12199   2.493   4.315   0.707
 3767SOL    HW112200   2.505   4.349   0.614
 3767SOL    HW212201   2.431   4.236   0.706
 3768SOL     OW12202   1.843   5.804   4.965
 3768SOL    HW112203   1.883   5.862   5.036
 3768SOL    HW212204   1.878   5.831   4.876
 3769SOL     OW12205   6.117   6.443   5.668
 3769SOL    HW112206   6.203   6.395   5.679
 3769SOL    HW212207   6.055   6.389   5.612
 3770SOL     OW12208   1.965   0.338   6.730
 3770SOL    HW112209   2.048   0.364   6.680
 3770SOL    HW212210   1.990   0.295   6.816
 3771SOL     OW12211   6.181   3.008   0.273
 3771SOL    HW112212   6.194   2.914   0.304
 3771SOL    HW212213   6.250   3.030   0.204
 3772SOL     OW12214   7.009   0.757   0.613
 3772SOL    HW112215   6.939   0.687   0.605
 3772SOL    HW212216   6.982   0.824   0.682
 3773SOL     OW12217   6.393   2.978   5.555
 3773SOL    HW112218   6.436   3.000   5.643
 3773SOL    HW212219   6.464   2.954   5.489
 3774SOL     OW12220   0.171   5.752   0.269
 3774SOL    HW112221   0.198   5.657   0.255
 3774SOL    HW212222   0.071   5.760   0.262
 3775SOL     OW12223   5.059   5.143   2.477
 3775SOL    HW112224   5.101   5.078   2.413
 3775SOL    HW212225   5.042   5.098   2.564
 3776SOL     OW12226   3.981   1.481   1.018
 3776SOL    HW112227   4.009   1.430   0.936
 3776SOL    HW212228   4.060   1.495   1.077
 3777SOL     OW12229   3.525   4.941   4.226
 3777SOL    HW112230   3.437   4.925   4.181
 3777SOL    HW212231   3.533   4.879   4.305
 3778SOL     OW12232   3.567   5.013   2.388
 3778SOL    HW112233   3.552   5.010   2.289
 3778SOL    HW212234   3.634   5.085   2.409
 3779SOL     OW12235   2.060   4.934   0.883
 3779SOL    HW112236   2.004   4.920   0.965
 3779SOL    HW212237   2.029   5.016   0.835
 3780SOL     OW12238   5.354   6.114   5.109
 3780SOL    HW112239   5.351   6.018   5.136
 3780SOL    HW212240   5.448   6.140   5.087
 3781SOL     OW12241   1.369   6.735   4.636
 3781SOL    HW112242   1.456   6.728   4.684
 3781SOL    HW212243   1.300   6.680   4.684
 3782SOL     OW12244   2.577   0.558   4.270
 3782SOL    HW112245   2.500   0.590   4.215
 3782SOL    HW212246   2.561   0.583   4.366
 3783SOL     OW12247   5.509   5.479   4.121
 3783SOL    HW112248   5.421   5.511   4.085
 3783SOL    HW212249   5.584   5.520   4.069
 3784SOL     OW12250   4.840   2.820   2.268
 3784SOL    HW112251   4.781   2.868   2.203
 3784SOL    HW212252   4.788   2.746   2.312
 3785SOL     OW12253   1.695   1.541   6.385
 3785SOL    HW112254   1.618   1.604   6.384
 3785SOL    HW212255   1.667   1.454   6.344
 3786SOL     OW12256   2.173   6.601   2.827
 3786SOL    HW112257   2.239   6.573   2.897
 3786SOL    HW212258   2.210   6.582   2.736
 3787SOL     OW12259   5.741   0.347   2.526
 3787SOL    HW112260   5.831   0.378   2.494
 3787SOL    HW212261   5.741   0.247   2.533
 3788SOL     OW12262   1.028   4.140   4.539
 3788SOL    HW112263   0.978   4.082   4.474
 3788SOL    HW212264   1.114   4.097   4.563
 3789SOL     OW12265   0.299   3.266   5.382
 3789SOL    HW112266   0.320   3.310   5.469
 3789SOL    HW212267   0.377   3.211   5.353
 3790SOL     OW12268   1.681   4.754   5.178
 3790SOL    HW112269   1.677   4.746   5.078
 3790SOL    HW212270   1.762   4.707   5.213
 3791SOL     OW12271   5.527   0.724   0.473
 3791SOL    HW112272   5.579   0.752   0.393
 3791SOL    HW212273   5.445   0.674   0.444
 3792SOL     OW12274   1.016   1.572   4.359
 3792SOL    HW112275   1.044   1.477   4.359
 3792SOL    HW212276   1.079   1.626   4.304
 3793SOL     OW12277   4.128   6.902   2.717
 3793SOL    HW112278   4.103   6.882   2.812
 3793SOL    HW212279   4.070   6.975   2.682
 3794SOL     OW12280   2.352   4.104   0.624
 3794SOL    HW112281   2.307   4.060   0.702
 3794SOL    HW212282   2.399   4.036   0.569
 3795SOL     OW12283   5.047   6.282   6.707
 3795SOL    HW112284   4.975   6.217   6.731
 3795SOL    HW212285   5.015   6.342   6.634
 3796SOL     OW12286   2.947   1.799   1.824
 3796SOL    HW112287   3.030   1.820   1.876
 3796SOL    HW212288   2.878   1.760   1.885
 3797SOL     OW12289   0.297   4.189   2.555
 3797SOL    HW112290   0.198   4.187   2.566
 3797SOL    HW212291   0.322   4.161   2.463
 3798SOL     OW12292   2.965   5.813   2.307
 3798SOL    HW112293   2.922   5.750   2.242
 3798SOL    HW212294   3.022   5.762   2.371
 3799SOL     OW12295   0.758   2.354   4.510
 3799SOL    HW112296   0.784   2.263   4.542
 3799SOL    HW212297   0.831   2.419   4.534
 3800SOL     OW12298   5.509   3.192   4.430
 3800SOL    HW112299   5.430   3.253   4.440
 3800SOL    HW212300   5.496   3.111   4.488
 3801SOL     OW12301   6.256   6.693   2.860
 3801SOL    HW112302   6.335   6.663   2.913
 3801SOL    HW212303   6.267   6.788   2.832
 3802SOL     OW12304   1.096   2.087   2.298
 3802SOL    HW112305   1.091   2.056   2.393
 3802SOL    HW212306   1.128   2.182   2.295
 3803SOL     OW12307   3.319   2.238   0.937
 3803SOL    HW112308   3.400   2.220   0.993
 3803SOL    HW212309   3.325   2.185   0.852
 3804SOL     OW12310   5.282   1.108   3.749
 3804SOL    HW112311   5.194   1.138   3.714
 3804SOL    HW212312   5.305   1.161   3.831
 3805SOL     OW12313   2.538   2.970   1.750
 3805SOL    HW112314   2.633   2.994   1.733
 3805SOL    HW212315   2.482   3.053   1.753
 3806SOL     OW12316   3.849   4.129   6.539
 3806SOL    HW112317   3.845   4.058   6.469
 3806SOL    HW212318   3.778   4.198   6.521
 3807SOL     OW12319   1.561   6.266   3.341
 3807SOL    HW112320   1.482   6.207   3.325
 3807SOL    HW212321   1.629   6.251   3.269
 3808SOL     OW12322   4.679   0.348   1.024
 3808SOL    HW112323   4.632   0.265   1.053
 3808SOL    HW212324   4.749   0.326   0.957
 3809SOL     OW12325   6.085   2.968   0.720
 3809SOL    HW112326   6.141   3.047   0.696
 3809SOL    HW212327   5.988   2.995   0.724
 3810SOL     OW12328   4.796   2.391   4.388
 3810SOL    HW112329   4.833   2.482   4.368
 3810SOL    HW212330   4.799   2.335   4.305
 3811SOL     OW12331   1.103   4.039   4.084
 3811SOL    HW112332   1.071   4.131   4.063
 3811SOL    HW212333   1.060   4.007   4.169
 3812SOL     OW12334   5.361   0.419   5.050
 3812SOL    HW112335   5.341   0.517   5.051
 3812SOL    HW212336   5.452   0.404   5.013
 3813SOL     OW12337   4.831   4.768   0.444
 3813SOL    HW112338   4.773   4.800   0.520
 3813SOL    HW212339   4.791   4.686   0.405
 3814SOL     OW12340   0.251   6.588   0.638
 3814SOL    HW112341   0.311   6.508   0.636
 3814SOL    HW212342   0.247   6.628   0.547
 3815SOL     OW12343   4.672   3.193   0.008
 3815SOL    HW112344   4.635   3.263   0.069
 3815SOL    HW212345   4.756   3.157   0.047
 3816SOL     OW12346   0.461   5.592   0.091
 3816SOL    HW112347   0.490   5.667   0.151
 3816SOL    HW212348   0.404   5.629   0.017
 3817SOL     OW12349   4.776   4.043   2.588
 3817SOL    HW112350   4.758   3.947   2.568
 3817SOL    HW212351   4.872   4.064   2.570
 3818SOL     OW12352   5.460   0.664   0.165
 3818SOL    HW112353   5.433   0.752   0.204
 3818SOL    HW212354   5.389   0.633   0.101
 3819SOL     OW12355   5.480   5.346   1.621
 3819SOL    HW112356   5.573   5.369   1.593
 3819SOL    HW212357   5.435   5.428   1.655
 3820SOL     OW12358   6.131   6.983   3.117
 3820SOL    HW112359   6.047   7.024   3.151
 3820SOL    HW212360   6.191   0.028   3.081
 3821SOL     OW12361   2.894   1.444   0.707
 3821SOL    HW112362   2.895   1.538   0.674
 3821SOL    HW212363   2.802   1.420   0.738
 3822SOL     OW12364   1.357   6.683   2.528
 3822SOL    HW112365   1.406   6.726   2.452
 3822SOL    HW212366   1.383   6.728   2.614
 3823SOL     OW12367   3.193   2.855   6.283
 3823SOL    HW112368   3.208   2.954   6.287
 3823SOL    HW212369   3.185   2.827   6.187
 3824SOL     OW12370   6.010   2.437   0.640
 3824SOL    HW112371   6.043   2.357   0.589
 3824SOL    HW212372   6.087   2.497   0.661
 3825SOL     OW12373   1.034   6.286   0.473
 3825SOL    HW112374   1.009   6.301   0.377
 3825SOL    HW212375   1.067   6.192   0.484
 3826SOL     OW12376   0.643   2.741   0.073
 3826SOL    HW112377   0.743   2.745   0.065
 3826SOL    HW212378   0.612   2.647   0.054
 3827SOL     OW12379   2.855   2.692   1.184
 3827SOL    HW112380   2.757   2.690   1.200
 3827SOL    HW212381   2.902   2.647   1.259
 3828SOL     OW12382   3.742   2.515   1.724
 3828SOL    HW112383   3.709   2.434   1.772
 3828SOL    HW212384   3.735   2.500   1.625
 3829SOL     OW12385   2.001   4.681   4.415
 3829SOL    HW112386   1.974   4.777   4.427
 3829SOL    HW212387   2.029   4.643   4.503
 3830SOL     OW12388   0.554   0.126   4.265
 3830SOL    HW112389   0.488   0.200   4.278
 3830SOL    HW212390   0.599   0.138   4.176
 3831SOL     OW12391   4.258   2.090   2.311
 3831SOL    HW112392   4.216   2.116   2.397
 3831SOL    HW212393   4.352   2.125   2.308
 3832SOL     OW12394   5.555   0.631   3.062
 3832SOL    HW112395   5.534   0.706   2.999
 3832SOL    HW212396   5.497   0.639   3.143
 3833SOL     OW12397   0.603   5.850   6.175
 3833SOL    HW112398   0.632   5.938   6.136
 3833SOL    HW212399   0.503   5.848   6.181
 3834SOL     OW12400   4.372   3.309   1.610
 3834SOL    HW112401   4.445   3.245   1.635
 3834SOL    HW212402   4.303   3.310   1.683
 3835SOL     OW12403   3.276   5.533   5.222
 3835SOL    HW112404   3.365   5.577   5.212
 3835SOL    HW212405   3.219   5.586   5.284
 3836SOL     OW12406   1.597   3.984   5.947
 3836SOL    HW112407   1.614   3.948   6.039
 3836SOL    HW212408   1.650   4.069   5.935
 3837SOL     OW12409   4.978   3.794   0.072
 3837SOL    HW112410   5.021   3.820   7.012
 3837SOL    HW212411   5.041   3.812   0.148
 3838SOL     OW12412   0.196   3.133   4.797
 3838SOL    HW112413   0.248   3.204   4.750
 3838SOL    HW212414   0.101   3.163   4.810
 3839SOL     OW12415   3.994   0.656   4.192
 3839SOL    HW112416   3.993   0.597   4.273
 3839SOL    HW212417   3.901   0.669   4.159
 3840SOL     OW12418   1.901   1.491   5.202
 3840SOL    HW112419   2.001   1.490   5.191
 3840SOL    HW212420   1.875   1.567   5.260
 3841SOL     OW12421   0.097   3.070   5.255
 3841SOL    HW112422   0.057   2.995   5.307
 3841SOL    HW212423   0.159   3.122   5.314
 3842SOL     OW12424   1.049   3.934   6.697
 3842SOL    HW112425   0.962   3.957   6.654
 3842SOL    HW212426   1.124   3.960   6.636
 3843SOL     OW12427   0.016   4.287   2.314
 3843SOL    HW112428   0.072   4.369   2.323
 3843SOL    HW212429   6.963   4.293   2.374
 3844SOL     OW12430   7.000   3.129   6.430
 3844SOL    HW112431   0.050   3.174   6.476
 3844SOL    HW212432   7.010   3.030   6.440
 3845SOL     OW12433   3.692   2.886   2.902
 3845SOL    HW112434   3.595   2.875   2.922
 3845SOL    HW212435   3.738   2.928   2.980
 3846SOL     OW12436   1.318   4.755   3.786
 3846SOL    HW112437   1.340   4.740   3.882
 3846SOL    HW212438   1.307   4.667   3.740
 3847SOL     OW12439   6.280   0.818   4.683
 3847SOL    HW112440   6.196   0.809   4.737
 3847SOL    HW212441   6.257   0.846   4.590
 3848SOL     OW12442   3.154   5.700   2.506
 3848SOL    HW112443   3.110   5.638   2.571
 3848SOL    HW212444   3.236   5.739   2.547
 3849SOL     OW12445   0.891   1.520   5.027
 3849SOL    HW112446   0.924   1.609   5.056
 3849SOL    HW212447   0.802   1.529   4.983
 3850SOL     OW12448   2.528   3.561   1.506
 3850SOL    HW112449   2.598   3.496   1.535
 3850SOL    HW212450   2.544   3.650   1.550
 3851SOL     OW12451   1.785   4.797   2.837
 3851SOL    HW112452   1.853   4.730   2.808
 3851SOL    HW212453   1.711   4.801   2.769
 3852SOL     OW12454   4.541   6.544   3.968
 3852SOL    HW112455   4.468   6.551   3.899
 3852SOL    HW212456   4.504   6.565   4.058
 3853SOL     OW12457   1.556   2.627   3.084
 3853SOL    HW112458   1.600   2.709   3.048
 3853SOL    HW212459   1.620   2.579   3.144
 3854SOL     OW12460   1.338   3.270   2.665
 3854SOL    HW112461   1.278   3.294   2.589
 3854SOL    HW212462   1.433   3.266   2.634
 3855SOL     OW12463   4.922   6.038   6.169
 3855SOL    HW112464   5.017   6.010   6.183
 3855SOL    HW212465   4.881   6.059   6.257
 3856SOL     OW12466   6.438   5.907   5.434
 3856SOL    HW112467   6.452   5.841   5.508
 3856SOL    HW212468   6.397   5.860   5.356
 3857SOL     OW12469   0.994   5.973   6.308
 3857SOL    HW112470   1.084   5.955   6.349
 3857SOL    HW212471   0.998   5.953   6.210
 3858SOL     OW12472   1.414   5.730   5.520
 3858SOL    HW112473   1.434   5.806   5.458
 3858SOL    HW212474   1.336   5.678   5.486
 3859SOL     OW12475   6.937   2.176   3.169
 3859SOL    HW112476   0.002   2.137   3.161
 3859SOL    HW212477   6.870   2.102   3.177
 3860SOL     OW12478   1.389   0.933   5.624
 3860SOL    HW112479   1.329   0.869   5.577
 3860SOL    HW212480   1.368   1.026   5.594
 3861SOL     OW12481   5.272   4.758   1.801
 3861SOL    HW112482   5.350   4.699   1.825
 3861SOL    HW212483   5.187   4.709   1.816
 3862SOL     OW12484   7.023   6.803   5.112
 3862SOL    HW112485   6.995   6.708   5.098
 3862SOL    HW212486   7.009   6.855   5.028
 3863SOL     OW12487   4.387   3.083   6.301
 3863SOL    HW112488   4.319   3.152   6.278
 3863SOL    HW212489   4.447   3.117   6.374
 3864SOL     OW12490   3.483   1.300   5.194
 3864SOL    HW112491   3.538   1.365   5.141
 3864SOL    HW212492   3.413   1.351   5.245
 3865SOL     OW12493   3.868   6.946   0.594
 3865SOL    HW112494   3.895   6.929   0.688
 3865SOL    HW212495   3.772   6.973   0.591
 3866SOL     OW12496   4.013   1.050   0.979
 3866SOL    HW112497   4.044   1.121   0.915
 3866SOL    HW212498   3.930   1.007   0.943
 3867SOL     OW12499   2.145   3.608   3.722
 3867SOL    HW112500   2.228   3.660   3.706
 3867SOL    HW212501   2.168   3.513   3.743
 3868SOL     OW12502   2.973   6.361   1.095
 3868SOL    HW112503   3.030   6.402   1.024
 3868SOL    HW212504   2.904   6.303   1.053
 3869SOL     OW12505   0.046   2.962   4.468
 3869SOL    HW112506   0.047   3.019   4.550
 3869SOL    HW212507   6.984   2.917   4.459
 3870SOL     OW12508   4.950   5.261   1.007
 3870SOL    HW112509   4.886   5.332   0.977
 3870SOL    HW212510   4.909   5.207   1.080
 3871SOL     OW12511   3.666   0.482   2.713
 3871SOL    HW112512   3.578   0.524   2.690
 3871SOL    HW212513   3.727   0.551   2.753
 3872SOL     OW12514   3.230   3.004   1.957
 3872SOL    HW112515   3.258   3.024   2.051
 3872SOL    HW212516   3.262   2.912   1.932
 3873SOL     OW12517   6.809   5.709   1.235
 3873SOL    HW112518   6.880   5.710   1.164
 3873SOL    HW212519   6.796   5.801   1.271
 3874SOL     OW12520   4.027   5.787   0.097
 3874SOL    HW112521   3.952   5.810   0.035
 3874SOL    HW212522   3.997   5.801   0.192
 3875SOL     OW12523   1.142   3.067   2.374
 3875SOL    HW112524   1.189   3.147   2.337
 3875SOL    HW212525   1.047   3.066   2.341
 3876SOL     OW12526   6.298   5.497   0.190
 3876SOL    HW112527   6.357   5.497   0.109
 3876SOL    HW212528   6.203   5.512   0.162
 3877SOL     OW12529   6.885   2.109   0.332
 3877SOL    HW112530   6.907   2.184   0.270
 3877SOL    HW212531   6.886   2.141   0.426
 3878SOL     OW12532   2.083   6.257   5.531
 3878SOL    HW112533   2.114   6.249   5.437
 3878SOL    HW212534   2.125   6.185   5.586
 3879SOL     OW12535   4.797   6.786   1.245
 3879SOL    HW112536   4.751   6.875   1.255
 3879SOL    HW212537   4.802   6.762   1.149
 3880SOL     OW12538   5.507   4.116   3.498
 3880SOL    HW112539   5.492   4.214   3.493
 3880SOL    HW212540   5.587   4.091   3.444
 3881SOL     OW12541   1.242   5.131   0.518
 3881SOL    HW112542   1.231   5.153   0.615
 3881SOL    HW212543   1.332   5.090   0.503
 3882SOL     OW12544   6.484   1.046   5.322
 3882SOL    HW112545   6.446   0.966   5.275
 3882SOL    HW212546   6.454   1.129   5.275
 3883SOL     OW12547   4.328   1.186   3.476
 3883SOL    HW112548   4.401   1.124   3.447
 3883SOL    HW212549   4.241   1.156   3.436
 3884SOL     OW12550   1.201   5.576   4.235
 3884SOL    HW112551   1.143   5.648   4.272
 3884SOL    HW212552   1.234   5.604   4.145
 3885SOL     OW12553   6.144   1.309   4.681
 3885SOL    HW112554   6.125   1.386   4.620
 3885SOL    HW212555   6.144   1.224   4.629
 3886SOL     OW12556   6.338   6.942   4.852
 3886SOL    HW112557   6.312   6.861   4.905
 3886SOL    HW212558   6.322   6.926   4.755
 3887SOL     OW12559   5.254   1.781   5.684
 3887SOL    HW112560   5.288   1.834   5.607
 3887SOL    HW212561   5.155   1.796   5.693
 3888SOL     OW12562   0.768   0.354   6.447
 3888SOL    HW112563   0.697   0.317   6.388
 3888SOL    HW212564   0.783   0.451   6.425
 3889SOL     OW12565   6.934   3.390   6.446
 3889SOL    HW112566   6.971   3.403   6.538
 3889SOL    HW212567   6.944   3.295   6.418
 3890SOL     OW12568   6.471   6.869   3.021
 3890SOL    HW112569   6.471   6.769   3.026
 3890SOL    HW212570   6.402   6.899   2.956
 3891SOL     OW12571   5.165   4.513   4.662
 3891SOL    HW112572   5.205   4.431   4.701
 3891SOL    HW212573   5.202   4.529   4.570
 3892SOL     OW12574   0.699   0.590   2.142
 3892SOL    HW112575   0.749   0.550   2.065
 3892SOL    HW212576   0.696   0.690   2.132
 3893SOL     OW12577   3.208   5.748   2.092
 3893SOL    HW112578   3.216   5.704   2.181
 3893SOL    HW212579   3.159   5.688   2.029
 3894SOL     OW12580   3.610   2.494   1.221
 3894SOL    HW112581   3.530   2.440   1.195
 3894SOL    HW212582   3.658   2.448   1.296
 3895SOL     OW12583   1.021   1.013   5.577
 3895SOL    HW112584   1.045   0.990   5.671
 3895SOL    HW212585   0.966   1.097   5.575
 3896SOL     OW12586   0.585   2.392   5.858
 3896SOL    HW112587   0.536   2.418   5.775
 3896SOL    HW212588   0.660   2.331   5.834
 3897SOL     OW12589   2.961   6.739   2.090
 3897SOL    HW112590   2.902   6.820   2.093
 3897SOL    HW212591   2.971   6.701   2.182
 3898SOL     OW12592   3.494   2.926   3.384
 3898SOL    HW112593   3.428   2.913   3.458
 3898SOL    HW212594   3.585   2.944   3.423
 3899SOL     OW12595   4.531   1.351   4.631
 3899SOL    HW112596   4.452   1.369   4.690
 3899SOL    HW212597   4.507   1.368   4.536
 3900SOL     OW12598   5.764   3.303   3.823
 3900SOL    HW112599   5.678   3.264   3.789
 3900SOL    HW212600   5.744   3.364   3.900
 3901SOL     OW12601   1.897   6.203   6.279
 3901SOL    HW112602   1.829   6.214   6.207
 3901SOL    HW212603   1.979   6.161   6.240
 3902SOL     OW12604   4.535   4.423   2.257
 3902SOL    HW112605   4.579   4.333   2.260
 3902SOL    HW212606   4.494   4.437   2.168
 3903SOL     OW12607   4.059   4.092   6.713
 3903SOL    HW112608   4.000   4.129   6.641
 3903SOL    HW212609   4.099   4.168   6.765
 3904SOL     OW12610   1.035   0.437   6.819
 3904SOL    HW112611   1.024   0.380   6.737
 3904SOL    HW212612   1.013   0.532   6.796
 3905SOL     OW12613   6.190   6.880   6.373
 3905SOL    HW112614   6.288   6.880   6.353
 3905SOL    HW212615   6.155   6.974   6.370
 3906SOL     OW12616   1.949   4.922   4.717
 3906SOL    HW112617   1.972   5.001   4.774
 3906SOL    HW212618   1.913   4.848   4.774
 3907SOL     OW12619   0.465   1.540   5.025
 3907SOL    HW112620   0.520   1.460   5.049
 3907SOL    HW212621   0.383   1.510   4.976
 3908SOL     OW12622   0.264   0.828   6.659
 3908SOL    HW112623   0.291   0.732   6.652
 3908SOL    HW212624   0.323   0.884   6.602
 3909SOL     OW12625   5.769   4.177   6.274
 3909SOL    HW112626   5.747   4.091   6.228
 3909SOL    HW212627   5.776   4.162   6.372
 3910SOL     OW12628   3.660   4.079   2.157
 3910SOL    HW112629   3.574   4.102   2.202
 3910SOL    HW212630   3.650   4.091   2.058
 3911SOL     OW12631   5.486   0.664   0.855
 3911SOL    HW112632   5.577   0.694   0.825
 3911SOL    HW212633   5.495   0.615   0.942
 3912SOL     OW12634   3.649   0.977   6.172
 3912SOL    HW112635   3.645   0.985   6.072
 3912SOL    HW212636   3.559   0.994   6.211
 3913SOL     OW12637   3.819   5.847   6.960
 3913SOL    HW112638   3.761   5.908   6.906
 3913SOL    HW212639   3.766   5.769   6.992
 3914SOL     OW12640   5.062   1.276   2.005
 3914SOL    HW112641   5.149   1.298   2.050
 3914SOL    HW212642   5.076   1.271   1.906
 3915SOL     OW12643   3.916   6.416   6.788
 3915SOL    HW112644   3.952   6.504   6.819
 3915SOL    HW212645   3.900   6.356   6.866
 3916SOL     OW12646   2.126   0.310   2.750
 3916SOL    HW112647   2.164   0.329   2.659
 3916SOL    HW212648   2.104   0.213   2.758
 3917SOL     OW12649   3.026   5.155   0.081
 3917SOL    HW112650   3.030   5.241   0.030
 3917SOL    HW212651   3.016   5.174   0.179
 3918SOL     OW12652   4.521   1.022   0.639
 3918SOL    HW112653   4.465   0.939   0.628
 3918SOL    HW212654   4.567   1.042   0.553
 3919SOL     OW12655   4.322   0.554   0.745
 3919SOL    HW112656   4.354   0.619   0.676
 3919SOL    HW212657   4.396   0.532   0.808
 3920SOL     OW12658   2.086   1.161   6.605
 3920SOL    HW112659   2.040   1.207   6.529
 3920SOL    HW212660   2.116   1.229   6.672
 3921SOL     OW12661   6.842   2.690   6.955
 3921SOL    HW112662   6.875   2.615   6.898
 3921SOL    HW212663   6.776   2.745   6.903
 3922SOL     OW12664   4.771   5.293   1.673
 3922SOL    HW112665   4.714   5.306   1.754
 3922SOL    HW212666   4.725   5.332   1.593
 3923SOL     OW12667   5.652   1.386   1.633
 3923SOL    HW112668   5.693   1.311   1.582
 3923SOL    HW212669   5.649   1.468   1.576
 3924SOL     OW12670   0.911   4.304   3.159
 3924SOL    HW112671   0.884   4.292   3.063
 3924SOL    HW212672   1.003   4.268   3.173
 3925SOL     OW12673   4.673   4.499   1.276
 3925SOL    HW112674   4.627   4.420   1.316
 3925SOL    HW212675   4.607   4.574   1.265
 3926SOL     OW12676   0.805   0.185   5.691
 3926SOL    HW112677   0.708   0.183   5.716
 3926SOL    HW212678   0.857   0.127   5.754
 3927SOL     OW12679   0.796   3.263   3.823
 3927SOL    HW112680   0.894   3.257   3.839
 3927SOL    HW212681   0.755   3.171   3.826
 3928SOL     OW12682   2.486   6.740   2.488
 3928SOL    HW112683   2.419   6.714   2.419
 3928SOL    HW212684   2.484   6.840   2.500
 3929SOL     OW12685   0.114   1.244   0.152
 3929SOL    HW112686   0.093   1.315   0.218
 3929SOL    HW212687   0.032   1.191   0.132
 3930SOL     OW12688   1.345   2.111   4.100
 3930SOL    HW112689   1.356   2.208   4.080
 3930SOL    HW212690   1.376   2.057   4.021
 3931SOL     OW12691   1.862   2.278   1.881
 3931SOL    HW112692   1.835   2.278   1.785
 3931SOL    HW212693   1.956   2.310   1.890
 3932SOL     OW12694   2.452   5.283   3.768
 3932SOL    HW112695   2.354   5.268   3.775
 3932SOL    HW212696   2.497   5.196   3.746
 3933SOL     OW12697   0.941   6.532   0.222
 3933SOL    HW112698   1.040   6.541   0.212
 3933SOL    HW212699   0.919   6.437   0.242
 3934SOL     OW12700   0.494   1.673   2.966
 3934SOL    HW112701   0.479   1.596   2.904
 3934SOL    HW212702   0.530   1.639   3.053
 3935SOL     OW12703   6.583   2.269   6.294
 3935SOL    HW112704   6.636   2.293   6.212
 3935SOL    HW212705   6.503   2.216   6.267
 3936SOL     OW12706   6.391   5.718   5.657
 3936SOL    HW112707   6.487   5.720   5.684
 3936SOL    HW212708   6.348   5.635   5.692
 3937SOL     OW12709   0.827   5.995   2.676
 3937SOL    HW112710   0.877   5.960   2.755
 3937SOL    HW212711   0.819   5.923   2.607
 3938SOL     OW12712   6.893   3.332   4.349
 3938SOL    HW112713   6.814   3.382   4.386
 3938SOL    HW212714   6.906   3.357   4.254
 3939SOL     OW12715   2.034   0.959   3.418
 3939SOL    HW112716   2.105   0.938   3.351
 3939SOL    HW212717   2.058   0.917   3.506
 3940SOL     OW12718   3.157   4.695   1.828
 3940SOL    HW112719   3.080   4.758   1.832
 3940SOL    HW212720   3.166   4.646   1.915
 3941SOL     OW12721   5.841   6.866   4.163
 3941SOL    HW112722   5.815   6.941   4.102
 3941SOL    HW212723   5.858   6.783   4.110
 3942SOL     OW12724   1.006   6.165   5.782
 3942SOL    HW112725   0.919   6.214   5.776
 3942SOL    HW212726   1.076   6.227   5.819
 3943SOL     OW12727   1.213   3.715   1.878
 3943SOL    HW112728   1.232   3.653   1.954
 3943SOL    HW212729   1.147   3.784   1.907
 3944SOL     OW12730   5.524   3.079   5.848
 3944SOL    HW112731   5.460   3.113   5.917
 3944SOL    HW212732   5.485   3.091   5.757
 3945SOL     OW12733   1.177   2.291   3.148
 3945SOL    HW112734   1.117   2.323   3.075
 3945SOL    HW212735   1.233   2.367   3.182
 3946SOL     OW12736   6.981   3.632   6.751
 3946SOL    HW112737   6.912   3.642   6.823
 3946SOL    HW212738   0.002   3.545   6.763
 3947SOL     OW12739   5.963   5.208   0.327
 3947SOL    HW112740   6.060   5.210   0.302
 3947SOL    HW212741   5.939   5.294   0.372
 3948SOL     OW12742   1.840   3.509   6.858
 3948SOL    HW112743   1.888   3.595   6.844
 3948SOL    HW212744   1.889   3.454   6.926
 3949SOL     OW12745   6.613   0.106   2.965
 3949SOL    HW112746   6.642   0.112   3.061
 3949SOL    HW212747   6.524   0.060   2.961
 3950SOL     OW12748   4.294   4.190   1.597
 3950SOL    HW112749   4.277   4.094   1.574
 3950SOL    HW212750   4.333   4.195   1.688
 3951SOL     OW12751   0.586   2.259   6.604
 3951SOL    HW112752   0.616   2.333   6.544
 3951SOL    HW212753   0.490   2.272   6.628
 3952SOL     OW12754   6.009   2.629   3.790
 3952SOL    HW112755   5.952   2.552   3.763
 3952SOL    HW212756   6.011   2.697   3.717
 3953SOL     OW12757   2.983   4.671   5.926
 3953SOL    HW112758   3.033   4.665   5.840
 3953SOL    HW212759   2.889   4.699   5.908
 3954SOL     OW12760   6.592   4.072   5.877
 3954SOL    HW112761   6.678   4.106   5.840
 3954SOL    HW212762   6.533   4.149   5.901
 3955SOL     OW12763   4.715   6.312   0.067
 3955SOL    HW112764   4.798   6.367   0.053
 3955SOL    HW212765   4.684   6.324   0.161
 3956SOL     OW12766   1.027   2.738   5.571
 3956SOL    HW112767   0.941   2.689   5.589
 3956SOL    HW212768   1.084   2.684   5.510
 3957SOL     OW12769   3.369   6.409   4.276
 3957SOL    HW112770   3.341   6.428   4.181
 3957SOL    HW212771   3.413   6.490   4.314
 3958SOL     OW12772   5.593   6.837   0.100
 3958SOL    HW112773   5.636   6.834   0.010
 3958SOL    HW212774   5.664   6.831   0.171
 3959SOL     OW12775   3.396   5.968   1.338
 3959SOL    HW112776   3.389   6.028   1.418
 3959SOL    HW212777   3.382   5.873   1.366
 3960SOL     OW12778   4.977   2.758   6.925
 3960SOL    HW112779   4.901   2.694   6.913
 3960SOL    HW212780   4.966   2.808   7.010
 3961SOL     OW12781   5.157   2.042   1.889
 3961SOL    HW112782   5.104   2.126   1.900
 3961SOL    HW212783   5.195   2.039   1.796
 3962SOL     OW12784   0.800   5.973   0.037
 3962SOL    HW112785   0.855   5.891   0.023
 3962SOL    HW212786   0.791   5.991   0.135
 3963SOL     OW12787   5.478   5.510   3.160
 3963SOL    HW112788   5.509   5.603   3.183
 3963SOL    HW212789   5.553   5.460   3.117
 3964SOL     OW12790   4.488   5.998   5.188
 3964SOL    HW112791   4.541   6.073   5.148
 3964SOL    HW212792   4.513   5.912   5.144
 3965SOL     OW12793   3.652   4.680   6.285
 3965SOL    HW112794   3.626   4.615   6.212
 3965SOL    HW212795   3.742   4.718   6.264
 3966SOL     OW12796   6.735   4.813   6.495
 3966SOL    HW112797   6.741   4.855   6.585
 3966SOL    HW212798   6.719   4.884   6.426
 3967SOL     OW12799   0.982   5.123   3.985
 3967SOL    HW112800   1.068   5.138   4.033
 3967SOL    HW212801   0.913   5.089   4.050
 3968SOL     OW12802   5.305   0.201   2.695
 3968SOL    HW112803   5.338   0.279   2.748
 3968SOL    HW212804   5.226   0.161   2.740
 3969SOL     OW12805   1.152   4.833   2.794
 3969SOL    HW112806   1.058   4.798   2.783
 3969SOL    HW212807   1.158   4.924   2.752
 3970SOL     OW12808   4.684   4.922   3.781
 3970SOL    HW112809   4.725   4.830   3.779
 3970SOL    HW212810   4.750   4.988   3.745
 3971SOL     OW12811   2.883   5.840   3.064
 3971SOL    HW112812   2.922   5.906   3.128
 3971SOL    HW212813   2.788   5.821   3.089
 3972SOL     OW12814   0.321   6.183   0.681
 3972SOL    HW112815   0.369   6.141   0.757
 3972SOL    HW212816   0.230   6.143   0.672
 3973SOL     OW12817   2.932   3.157   5.553
 3973SOL    HW112818   3.031   3.175   5.552
 3973SOL    HW212819   2.901   3.135   5.461
 3974SOL     OW12820   0.643   1.266   6.243
 3974SOL    HW112821   0.739   1.237   6.244
 3974SOL    HW212822   0.592   1.217   6.314
 3975SOL     OW12823   6.717   0.470   5.758
 3975SOL    HW112824   6.780   0.537   5.797
 3975SOL    HW212825   6.762   0.381   5.751
 3976SOL     OW12826   1.239   4.756   1.300
 3976SOL    HW112827   1.266   4.682   1.363
 3976SOL    HW212828   1.149   4.734   1.261
 3977SOL     OW12829   2.756   5.868   6.256
 3977SOL    HW112830   2.781   5.864   6.160
 3977SOL    HW212831   2.752   5.775   6.293
 3978SOL     OW12832   5.550   1.315   5.217
 3978SOL    HW112833   5.474   1.378   5.198
 3978SOL    HW212834   5.540   1.233   5.161
 3979SOL     OW12835   1.703   0.095   1.698
 3979SOL    HW112836   1.652   0.160   1.754
 3979SOL    HW212837   1.643   0.019   1.673
 3980SOL     OW12838   6.374   3.734   5.084
 3980SOL    HW112839   6.342   3.826   5.105
 3980SOL    HW212840   6.381   3.723   4.985
 3981SOL     OW12841   0.068   1.812   6.239
 3981SOL    HW112842   0.121   1.840   6.160
 3981SOL    HW212843   0.017   1.890   6.275
 3982SOL     OW12844   2.444   1.011   4.992
 3982SOL    HW112845   2.537   1.041   5.013
 3982SOL    HW212846   2.447   0.939   4.923
 3983SOL     OW12847   3.485   6.246   4.559
 3983SOL    HW112848   3.488   6.239   4.460
 3983SOL    HW212849   3.390   6.241   4.591
 3984SOL     OW12850   1.738   0.416   1.666
 3984SOL    HW112851   1.714   0.402   1.570
 3984SOL    HW212852   1.667   0.377   1.725
 3985SOL     OW12853   2.155   4.037   0.149
 3985SOL    HW112854   2.213   4.098   0.203
 3985SOL    HW212855   2.209   3.997   0.075
 3986SOL     OW12856   6.946   1.938   2.594
 3986SOL    HW112857   6.853   1.961   2.624
 3986SOL    HW212858   6.988   2.019   2.553
 3987SOL     OW12859   1.698   5.507   4.874
 3987SOL    HW112860   1.777   5.474   4.926
 3987SOL    HW212861   1.615   5.494   4.929
 3988SOL     OW12862   3.238   1.871   5.829
 3988SOL    HW112863   3.225   1.803   5.758
 3988SOL    HW212864   3.297   1.944   5.796
 3989SOL     OW12865   6.068   0.347   6.261
 3989SOL    HW112866   6.166   0.325   6.261
 3989SOL    HW212867   6.017   0.274   6.215
 3990SOL     OW12868   5.801   2.752   5.132
 3990SOL    HW112869   5.870   2.785   5.197
 3990SOL    HW212870   5.801   2.811   5.051
 3991SOL     OW12871   0.191   2.477   3.367
 3991SOL    HW112872   0.231   2.543   3.431
 3991SOL    HW212873   0.195   2.514   3.274
 3992SOL     OW12874   4.203   3.167   6.911
 3992SOL    HW112875   4.238   3.253   6.873
 3992SOL    HW212876   4.105   3.159   6.892
 3993SOL     OW12877   2.727   1.883   3.110
 3993SOL    HW112878   2.813   1.840   3.082
 3993SOL    HW212879   2.658   1.867   3.039
 3994SOL     OW12880   2.244   2.786   5.144
 3994SOL    HW112881   2.155   2.791   5.098
 3994SOL    HW212882   2.292   2.873   5.134
 3995SOL     OW12883   2.429   4.328   3.492
 3995SOL    HW112884   2.355   4.285   3.440
 3995SOL    HW212885   2.490   4.376   3.428
 3996SOL     OW12886   1.909   1.150   4.949
 3996SOL    HW112887   1.863   1.239   4.945
 3996SOL    HW212888   1.905   1.106   4.859
 3997SOL     OW12889   4.850   3.795   3.208
 3997SOL    HW112890   4.919   3.729   3.236
 3997SOL    HW212891   4.798   3.825   3.288
 3998SOL     OW12892   5.698   2.265   2.162
 3998SOL    HW112893   5.667   2.346   2.111
 3998SOL    HW212894   5.652   2.184   2.127
 3999SOL     OW12895   6.112   3.975   3.321
 3999SOL    HW112896   6.144   3.884   3.347
 3999SOL    HW212897   6.116   3.985   3.222
 4000SOL     OW12898   3.069   5.561   2.719
 4000SOL    HW112899   3.045   5.464   2.725
 4000SOL    HW212900   2.994   5.617   2.755
 4001SOL     OW12901   2.925   4.098   5.282
 4001SOL    HW112902   2.976   4.022   5.321
 4001SOL    HW212903   2.834   4.066   5.255
 4002SOL     OW12904   3.416   3.198   4.594
 4002SOL    HW112905   3.400   3.101   4.612
 4002SOL    HW212906   3.503   3.209   4.546
 4003SOL     OW12907   1.930   1.217   6.397
 4003SOL    HW112908   1.881   1.299   6.367
 4003SOL    HW212909   1.881   1.174   6.472
 4004SOL     OW12910   6.642   3.737   4.211
 4004SOL    HW112911   6.699   3.771   4.136
 4004SOL    HW212912   6.665   3.784   4.296
 4005SOL     OW12913   4.757   4.931   1.479
 4005SOL    HW112914   4.747   5.015   1.426
 4005SOL    HW212915   4.796   4.860   1.420
 4006SOL     OW12916   5.813   4.717   2.275
 4006SOL    HW112917   5.809   4.719   2.375
 4006SOL    HW212918   5.721   4.729   2.238
 4007SOL     OW12919   0.514   2.310   2.724
 4007SOL    HW112920   0.561   2.337   2.639
 4007SOL    HW212921   0.583   2.288   2.793
 4008SOL     OW12922   3.209   0.860   6.045
 4008SOL    HW112923   3.267   0.858   5.964
 4008SOL    HW212924   3.121   0.817   6.023
 4009SOL     OW12925   4.596   2.022   1.583
 4009SOL    HW112926   4.682   2.071   1.594
 4009SOL    HW212927   4.603   1.958   1.506
 4010SOL     OW12928   3.010   3.724   1.536
 4010SOL    HW112929   2.992   3.731   1.438
 4010SOL    HW212930   3.088   3.662   1.550
 4011SOL     OW12931   0.281   6.422   2.098
 4011SOL    HW112932   0.326   6.334   2.115
 4011SOL    HW212933   0.257   6.465   2.185
 4012SOL     OW12934   4.334   6.536   2.565
 4012SOL    HW112935   4.432   6.524   2.547
 4012SOL    HW212936   4.321   6.616   2.622
 4013SOL     OW12937   2.218   0.731   1.158
 4013SOL    HW112938   2.295   0.717   1.220
 4013SOL    HW212939   2.203   0.647   1.104
 4014SOL     OW12940   3.347   5.715   3.776
 4014SOL    HW112941   3.334   5.704   3.875
 4014SOL    HW212942   3.286   5.653   3.727
 4015SOL     OW12943   5.278   4.765   6.756
 4015SOL    HW112944   5.315   4.672   6.757
 4015SOL    HW212945   5.332   4.823   6.817
 4016SOL     OW12946   2.903   6.103   6.719
 4016SOL    HW112947   2.878   6.146   6.632
 4016SOL    HW212948   2.834   6.036   6.745
 4017SOL     OW12949   0.577   5.998   5.859
 4017SOL    HW112950   0.654   6.026   5.917
 4017SOL    HW212951   0.592   6.030   5.766
 4018SOL     OW12952   4.561   6.709   1.461
 4018SOL    HW112953   4.474   6.687   1.505
 4018SOL    HW212954   4.590   6.631   1.405
 4019SOL     OW12955   5.872   4.141   2.518
 4019SOL    HW112956   5.774   4.159   2.527
 4019SOL    HW212957   5.903   4.090   2.598
 4020SOL     OW12958   6.625   3.169   5.655
 4020SOL    HW112959   6.601   3.264   5.674
 4020SOL    HW212960   6.649   3.160   5.558
 4021SOL     OW12961   3.619   4.104   5.174
 4021SOL    HW112962   3.670   4.114   5.089
 4021SOL    HW212963   3.681   4.114   5.252
 4022SOL     OW12964   3.872   6.673   6.511
 4022SOL    HW112965   3.878   6.767   6.544
 4022SOL    HW212966   3.940   6.658   6.439
 4023SOL     OW12967   0.403   0.246   5.095
 4023SOL    HW112968   0.423   0.217   5.001
 4023SOL    HW212969   0.326   0.193   5.131
 4024SOL     OW12970   2.437   5.049   4.090
 4024SOL    HW112971   2.392   4.981   4.031
 4024SOL    HW212972   2.536   5.040   4.082
 4025SOL     OW12973   0.697   6.097   4.258
 4025SOL    HW112974   0.714   6.185   4.216
 4025SOL    HW212975   0.598   6.080   4.263
 4026SOL     OW12976   5.877   6.971   3.794
 4026SOL    HW112977   5.817   7.003   3.721
 4026SOL    HW212978   5.872   6.871   3.800
 4027SOL     OW12979   2.516   2.265   0.317
 4027SOL    HW112980   2.529   2.197   0.245
 4027SOL    HW212981   2.569   2.347   0.295
 4028SOL     OW12982   3.809   1.668   3.787
 4028SOL    HW112983   3.764   1.714   3.710
 4028SOL    HW212984   3.864   1.592   3.752
 4029SOL     OW12985   2.698   4.752   5.844
 4029SOL    HW112986   2.650   4.770   5.930
 4029SOL    HW212987   2.630   4.731   5.773
 4030SOL     OW12988   6.690   1.137   2.007
 4030SOL    HW112989   6.721   1.043   1.991
 4030SOL    HW212990   6.706   1.192   1.925
 4031SOL     OW12991   5.459   5.805   3.567
 4031SOL    HW112992   5.456   5.885   3.627
 4031SOL    HW212993   5.368   5.790   3.527
 4032SOL     OW12994   6.859   0.137   1.900
 4032SOL    HW112995   6.949   0.096   1.884
 4032SOL    HW212996   6.845   0.212   1.835
 4033SOL     OW12997   2.219   3.054   1.593
 4033SOL    HW112998   2.292   3.110   1.634
 4033SOL    HW212999   2.233   2.958   1.618
 4034SOL     OW13000   6.077   1.669   5.157
 4034SOL    HW113001   6.018   1.624   5.224
 4034SOL    HW213002   6.138   1.733   5.205
 4035SOL     OW13003   6.402   1.757   1.027
 4035SOL    HW113004   6.370   1.761   1.122
 4035SOL    HW213005   6.383   1.666   0.989
 4036SOL     OW13006   4.036   5.079   2.122
 4036SOL    HW113007   3.989   5.156   2.166
 4036SOL    HW213008   3.968   5.020   2.078
 4037SOL     OW13009   2.091   1.695   6.929
 4037SOL    HW113010   2.187   1.717   6.911
 4037SOL    HW213011   2.043   1.779   6.955
 4038SOL     OW13012   4.271   2.677   1.626
 4038SOL    HW113013   4.356   2.721   1.597
 4038SOL    HW213014   4.195   2.711   1.569
 4039SOL     OW13015   5.992   5.538   1.239
 4039SOL    HW113016   5.991   5.458   1.299
 4039SOL    HW213017   6.064   5.601   1.267
 4040SOL     OW13018   3.328   6.897   5.310
 4040SOL    HW113019   3.279   6.813   5.332
 4040SOL    HW213020   3.426   6.881   5.317
 4041SOL     OW13021   0.759   5.454   1.273
 4041SOL    HW113022   0.814   5.511   1.213
 4041SOL    HW213023   0.760   5.492   1.366
 4042SOL     OW13024   5.995   5.680   3.891
 4042SOL    HW113025   6.026   5.714   3.980
 4042SOL    HW213026   6.066   5.623   3.850
 4043SOL     OW13027   6.749   2.586   5.254
 4043SOL    HW113028   6.680   2.546   5.193
 4043SOL    HW213029   6.827   2.616   5.199
 4044SOL     OW13030   4.500   6.739   3.672
 4044SOL    HW113031   4.485   6.744   3.573
 4044SOL    HW213032   4.452   6.814   3.717
 4045SOL     OW13033   3.978   6.229   5.440
 4045SOL    HW113034   3.931   6.164   5.381
 4045SOL    HW213035   4.046   6.182   5.496
 4046SOL     OW13036   1.472   1.904   3.920
 4046SOL    HW113037   1.553   1.946   3.880
 4046SOL    HW213038   1.448   1.822   3.868
 4047SOL     OW13039   2.153   2.469   0.789
 4047SOL    HW113040   2.086   2.535   0.757
 4047SOL    HW213041   2.112   2.378   0.793
 4048SOL     OW13042   5.201   1.613   1.758
 4048SOL    HW113043   5.174   1.572   1.845
 4048SOL    HW213044   5.153   1.568   1.683
 4049SOL     OW13045   5.539   5.295   6.835
 4049SOL    HW113046   5.510   5.213   6.785
 4049SOL    HW213047   5.585   5.358   6.771
 4050SOL     OW13048   0.957   0.014   1.702
 4050SOL    HW113049   0.949   6.965   1.767
 4050SOL    HW213050   1.016   7.013   1.626
 4051SOL     OW13051   4.132   1.942   6.541
 4051SOL    HW113052   4.196   1.865   6.532
 4051SOL    HW213053   4.039   1.911   6.522
 4052SOL     OW13054   6.629   1.147   2.273
 4052SOL    HW113055   6.699   1.096   2.324
 4052SOL    HW213056   6.649   1.142   2.175
 4053SOL     OW13057   3.157   6.019   3.854
 4053SOL    HW113058   3.249   5.999   3.888
 4053SOL    HW213059   3.137   5.958   3.776
 4054SOL     OW13060   6.283   4.107   1.506
 4054SOL    HW113061   6.305   4.021   1.551
 4054SOL    HW213062   6.365   4.165   1.504
 4055SOL     OW13063   2.894   3.493   0.131
 4055SOL    HW113064   2.847   3.540   0.056
 4055SOL    HW213065   2.827   3.455   0.194
 4056SOL     OW13066   4.857   4.117   0.825
 4056SOL    HW113067   4.873   4.018   0.825
 4056SOL    HW213068   4.814   4.144   0.739
 4057SOL     OW13069   6.810   2.803   1.124
 4057SOL    HW113070   6.793   2.705   1.131
 4057SOL    HW213071   6.864   2.833   1.203
 4058SOL     OW13072   1.965   0.225   4.863
 4058SOL    HW113073   2.057   0.262   4.848
 4058SOL    HW213074   1.898   0.297   4.847
 4059SOL     OW13075   0.755   1.677   2.827
 4059SOL    HW113076   0.765   1.578   2.832
 4059SOL    HW213077   0.660   1.701   2.808
 4060SOL     OW13078   5.279   5.692   4.870
 4060SOL    HW113079   5.183   5.691   4.843
 4060SOL    HW213080   5.303   5.604   4.911
 4061SOL     OW13081   2.837   4.764   2.309
 4061SOL    HW113082   2.935   4.754   2.328
 4061SOL    HW213083   2.786   4.765   2.395
 4062SOL     OW13084   2.309   1.732   1.988
 4062SOL    HW113085   2.235   1.785   1.946
 4062SOL    HW213086   2.347   1.669   1.920
 4063SOL     OW13087   6.171   6.457   6.945
 4063SOL    HW113088   6.222   6.399   7.008
 4063SOL    HW213089   6.190   6.429   6.851
 4064SOL     OW13090   2.410   0.202   3.940
 4064SOL    HW113091   2.467   0.124   3.967
 4064SOL    HW213092   2.355   0.177   3.860
 4065SOL     OW13093   1.239   6.493   1.303
 4065SOL    HW113094   1.141   6.513   1.305
 4065SOL    HW213095   1.264   6.457   1.213
 4066SOL     OW13096   5.879   5.003   3.814
 4066SOL    HW113097   5.818   4.958   3.748
 4066SOL    HW213098   5.870   5.102   3.806
 4067SOL     OW13099   6.592   3.482   2.650
 4067SOL    HW113100   6.504   3.452   2.686
 4067SOL    HW213101   6.580   3.564   2.596
 4068SOL     OW13102   1.978   1.252   4.180
 4068SOL    HW113103   1.991   1.349   4.161
 4068SOL    HW213104   1.964   1.202   4.094
 4069SOL     OW13105   2.547   5.442   6.478
 4069SOL    HW113106   2.593   5.447   6.567
 4069SOL    HW213107   2.544   5.347   6.447
 4070SOL     OW13108   0.757   3.483   1.958
 4070SOL    HW113109   0.675   3.447   1.912
 4070SOL    HW213110   0.772   3.577   1.929
 4071SOL     OW13111   1.534   0.825   5.247
 4071SOL    HW113112   1.629   0.838   5.221
 4071SOL    HW213113   1.500   0.909   5.290
 4072SOL     OW13114   0.261   5.498   4.384
 4072SOL    HW113115   0.204   5.464   4.460
 4072SOL    HW213116   0.310   5.579   4.414
 4073SOL     OW13117   2.539   6.185   5.869
 4073SOL    HW113118   2.463   6.246   5.847
 4073SOL    HW213119   2.576   6.210   5.959
 4074SOL     OW13120   0.359   3.821   2.138
 4074SOL    HW113121   0.287   3.852   2.200
 4074SOL    HW213122   0.380   3.725   2.155
 4075SOL     OW13123   4.122   1.945   1.912
 4075SOL    HW113124   4.032   1.951   1.954
 4075SOL    HW213125   4.154   2.037   1.889
 4076SOL     OW13126   2.729   2.536   5.614
 4076SOL    HW113127   2.655   2.494   5.666
 4076SOL    HW213128   2.693   2.571   5.527
 4077SOL     OW13129   3.185   1.269   0.000
 4077SOL    HW113130   3.220   1.336   6.962
 4077SOL    HW213131   3.168   1.182   6.978
 4078SOL     OW13132   0.731   5.920   1.205
 4078SOL    HW113133   0.667   5.845   1.189
 4078SOL    HW213134   0.698   5.977   1.281
 4079SOL     OW13135   1.485   1.180   3.760
 4079SOL    HW113136   1.507   1.206   3.854
 4079SOL    HW213137   1.502   1.257   3.699
 4080SOL     OW13138   3.509   4.272   6.279
 4080SOL    HW113139   3.483   4.311   6.191
 4080SOL    HW213140   3.451   4.194   6.299
 4081SOL     OW13141   2.084   2.585   4.856
 4081SOL    HW113142   2.042   2.662   4.904
 4081SOL    HW213143   2.071   2.501   4.909
 4082SOL     OW13144   1.277   3.444   0.624
 4082SOL    HW113145   1.278   3.493   0.711
 4082SOL    HW213146   1.316   3.353   0.636
 4083SOL     OW13147   6.771   4.397   2.242
 4083SOL    HW113148   6.801   4.307   2.210
 4083SOL    HW213149   6.836   4.467   2.213
 4084SOL     OW13150   4.920   2.234   3.131
 4084SOL    HW113151   4.995   2.190   3.081
 4084SOL    HW213152   4.846   2.168   3.145
 4085SOL     OW13153   2.245   5.802   1.226
 4085SOL    HW113154   2.249   5.739   1.148
 4085SOL    HW213155   2.271   5.753   1.309
 4086SOL     OW13156   1.054   5.272   1.773
 4086SOL    HW113157   1.076   5.333   1.849
 4086SOL    HW213158   1.129   5.207   1.760
 4087SOL     OW13159   1.640   1.804   3.231
 4087SOL    HW113160   1.549   1.843   3.219
 4087SOL    HW213161   1.663   1.804   3.328
 4088SOL     OW13162   6.622   0.930   6.413
 4088SOL    HW113163   6.573   0.843   6.413
 4088SOL    HW213164   6.699   0.926   6.476
 4089SOL     OW13165   5.848   5.669   4.274
 4089SOL    HW113166   5.932   5.621   4.301
 4089SOL    HW213167   5.769   5.609   4.288
 4090SOL     OW13168   1.641   5.264   5.311
 4090SOL    HW113169   1.642   5.324   5.391
 4090SOL    HW213170   1.648   5.169   5.341
 4091SOL     OW13171   6.570   6.674   6.746
 4091SOL    HW113172   6.567   6.634   6.654
 4091SOL    HW213173   6.545   6.604   6.813
 4092SOL     OW13174   6.415   2.705   5.272
 4092SOL    HW113175   6.319   2.679   5.263
 4092SOL    HW213176   6.424   2.804   5.257
 4093SOL     OW13177   4.931   6.307   2.314
 4093SOL    HW113178   4.883   6.328   2.400
 4093SOL    HW213179   5.029   6.322   2.327
 4094SOL     OW13180   1.999   5.403   5.259
 4094SOL    HW113181   2.043   5.492   5.267
 4094SOL    HW213182   1.953   5.381   5.345
 4095SOL     OW13183   1.095   3.657   0.086
 4095SOL    HW113184   1.029   3.699   0.147
 4095SOL    HW213185   1.188   3.684   0.114
 4096SOL     OW13186   4.574   6.680   6.138
 4096SOL    HW113187   4.545   6.669   6.043
 4096SOL    HW213188   4.584   6.590   6.181
 4097SOL     OW13189   4.197   4.706   5.193
 4097SOL    HW113190   4.229   4.613   5.175
 4097SOL    HW213191   4.147   4.708   5.279
 4098SOL     OW13192   6.617   2.486   1.527
 4098SOL    HW113193   6.696   2.503   1.586
 4098SOL    HW213194   6.542   2.546   1.555
 4099SOL     OW13195   3.042   5.400   1.613
 4099SOL    HW113196   2.986   5.385   1.532
 4099SOL    HW213197   3.109   5.327   1.622
 4100SOL     OW13198   6.659   6.731   4.897
 4100SOL    HW113199   6.743   6.691   4.859
 4100SOL    HW213200   6.669   6.830   4.904
 4101SOL     OW13201   6.052   1.178   0.228
 4101SOL    HW113202   6.082   1.224   0.145
 4101SOL    HW213203   5.952   1.183   0.234
 4102SOL     OW13204   0.124   0.944   1.068
 4102SOL    HW113205   0.092   0.850   1.076
 4102SOL    HW213206   0.073   1.002   1.132
 4103SOL     OW13207   6.926   0.202   0.499
 4103SOL    HW113208   6.865   0.261   0.446
 4103SOL    HW213209   6.987   0.259   0.555
 4104SOL     OW13210   0.610   4.608   2.805
 4104SOL    HW113211   0.689   4.632   2.860
 4104SOL    HW213212   0.551   4.546   2.856
 4105SOL     OW13213   5.174   6.879   1.663
 4105SOL    HW113214   5.239   6.878   1.587
 4105SOL    HW213215   5.091   6.829   1.637
 4106SOL     OW13216   6.305   3.255   2.897
 4106SOL    HW113217   6.228   3.264   2.960
 4106SOL    HW213218   6.298   3.323   2.825
 4107SOL     OW13219   1.543   5.538   1.282
 4107SOL    HW113220   1.477   5.569   1.350
 4107SOL    HW213221   1.636   5.544   1.320
 4108SOL     OW13222   6.295   4.174   5.911
 4108SOL    HW113223   6.320   4.094   5.858
 4108SOL    HW213224   6.231   4.148   5.983
 4109SOL     OW13225   6.105   0.275   4.805
 4109SOL    HW113226   6.007   0.284   4.826
 4109SOL    HW213227   6.128   0.179   4.792
 4110SOL     OW13228   4.088   3.495   5.822
 4110SOL    HW113229   4.124   3.403   5.805
 4110SOL    HW213230   3.991   3.497   5.801
 4111SOL     OW13231   5.097   3.366   0.130
 4111SOL    HW113232   5.156   3.295   0.168
 4111SOL    HW213233   5.016   3.325   0.089
 4112SOL     OW13234   4.907   5.863   4.053
 4112SOL    HW113235   5.002   5.892   4.039
 4112SOL    HW213236   4.903   5.764   4.062
 4113SOL     OW13237   5.012   5.995   4.882
 4113SOL    HW113238   4.916   6.024   4.887
 4113SOL    HW213239   5.047   6.014   4.790
 4114SOL     OW13240   3.237   2.170   4.308
 4114SOL    HW113241   3.154   2.139   4.261
 4114SOL    HW213242   3.312   2.178   4.242
 4115SOL     OW13243   3.410   5.147   1.834
 4115SOL    HW113244   3.499   5.101   1.826
 4115SOL    HW213245   3.360   5.109   1.912
 4116SOL     OW13246   3.008   1.459   2.372
 4116SOL    HW113247   3.102   1.461   2.337
 4116SOL    HW213248   2.992   1.372   2.419
 4117SOL     OW13249   1.661   4.145   2.545
 4117SOL    HW113250   1.565   4.172   2.549
 4117SOL    HW213251   1.672   4.070   2.480
 4118SOL     OW13252   3.277   6.679   6.966
 4118SOL    HW113253   3.297   6.771   7.000
 4118SOL    HW213254   3.358   6.622   6.975
 4119SOL     OW13255   2.615   1.851   3.698
 4119SOL    HW113256   2.708   1.875   3.671
 4119SOL    HW213257   2.618   1.791   3.779
 4120SOL     OW13258   3.631   0.890   6.747
 4120SOL    HW113259   3.665   0.797   6.763
 4120SOL    HW213260   3.537   0.885   6.713
 4121SOL     OW13261   5.915   1.072   4.373
 4121SOL    HW113262   5.882   1.025   4.454
 4121SOL    HW213263   5.917   1.009   4.296
 4122SOL     OW13264   1.033   5.427   4.666
 4122SOL    HW113265   1.117   5.406   4.616
 4122SOL    HW213266   1.032   5.378   4.753
 4123SOL     OW13267   4.494   4.777   5.437
 4123SOL    HW113268   4.482   4.717   5.517
 4123SOL    HW213269   4.509   4.721   5.356
 4124SOL     OW13270   6.508   5.665   6.817
 4124SOL    HW113271   6.524   5.761   6.837
 4124SOL    HW213272   6.410   5.647   6.817
 4125SOL     OW13273   5.028   1.542   1.961
 4125SOL    HW113274   4.997   1.448   1.953
 4125SOL    HW213275   4.954   1.600   1.996
 4126SOL     OW13276   1.310   3.670   4.373
 4126SOL    HW113277   1.318   3.673   4.274
 4126SOL    HW213278   1.298   3.576   4.404
 4127SOL     OW13279   4.688   4.786   4.893
 4127SOL    HW113280   4.783   4.798   4.923
 4127SOL    HW213281   4.628   4.780   4.973
 4128SOL     OW13282   1.150   2.731   1.663
 4128SOL    HW113283   1.243   2.694   1.653
 4128SOL    HW213284   1.131   2.747   1.760
 4129SOL     OW13285   3.564   1.254   6.513
 4129SOL    HW113286   3.545   1.223   6.420
 4129SOL    HW213287   3.493   1.218   6.575
 4130SOL     OW13288   6.593   3.382   6.775
 4130SOL    HW113289   6.629   3.391   6.682
 4130SOL    HW213290   6.519   3.448   6.788
 4131SOL     OW13291   0.775   0.582   3.890
 4131SOL    HW113292   0.818   0.672   3.877
 4131SOL    HW213293   0.692   0.576   3.834
 4132SOL     OW13294   4.886   4.453   3.512
 4132SOL    HW113295   4.931   4.384   3.568
 4132SOL    HW213296   4.793   4.468   3.548
 4133SOL     OW13297   2.750   6.104   0.588
 4133SOL    HW113298   2.790   6.065   0.505
 4133SOL    HW213299   2.689   6.037   0.631
 4134SOL     OW13300   2.603   3.586   0.961
 4134SOL    HW113301   2.583   3.578   1.058
 4134SOL    HW213302   2.653   3.505   0.930
 4135SOL     OW13303   0.761   1.497   2.525
 4135SOL    HW113304   0.780   1.449   2.610
 4135SOL    HW213305   0.687   1.564   2.540
 4136SOL     OW13306   1.415   2.166   3.284
 4136SOL    HW113307   1.376   2.169   3.376
 4136SOL    HW213308   1.354   2.116   3.223
 4137SOL     OW13309   1.196   4.260   0.842
 4137SOL    HW113310   1.143   4.324   0.898
 4137SOL    HW213311   1.146   4.175   0.832
 4138SOL     OW13312   4.884   5.562   3.080
 4138SOL    HW113313   4.875   5.464   3.094
 4138SOL    HW213314   4.810   5.595   3.022
 4139SOL     OW13315   1.909   1.867   5.698
 4139SOL    HW113316   1.931   1.955   5.738
 4139SOL    HW213317   1.975   1.798   5.729
 4140SOL     OW13318   3.024   0.267   5.209
 4140SOL    HW113319   2.983   0.324   5.138
 4140SOL    HW213320   3.095   0.210   5.168
 4141SOL     OW13321   6.336   6.017   0.967
 4141SOL    HW113322   6.377   6.033   1.057
 4141SOL    HW213323   6.360   6.093   0.906
 4142SOL     OW13324   6.949   5.232   0.907
 4142SOL    HW113325   0.008   5.229   0.958
 4142SOL    HW213326   6.893   5.153   0.933
 4143SOL     OW13327   5.827   1.543   0.803
 4143SOL    HW113328   5.807   1.640   0.801
 4143SOL    HW213329   5.896   1.521   0.734
 4144SOL     OW13330   4.897   3.460   6.849
 4144SOL    HW113331   4.821   3.464   6.914
 4144SOL    HW213332   4.950   3.545   6.855
 4145SOL     OW13333   6.289   6.201   1.548
 4145SOL    HW113334   6.256   6.138   1.477
 4145SOL    HW213335   6.317   6.287   1.505
 4146SOL     OW13336   6.538   0.527   4.327
 4146SOL    HW113337   6.556   0.580   4.409
 4146SOL    HW213338   6.623   0.485   4.295
 4147SOL     OW13339   5.063   3.909   6.345
 4147SOL    HW113340   4.980   3.961   6.323
 4147SOL    HW213341   5.039   3.816   6.371
 4148SOL     OW13342   1.167   0.689   5.145
 4148SOL    HW113343   1.214   0.647   5.068
 4148SOL    HW213344   1.137   0.781   5.121
 4149SOL     OW13345   0.035   3.224   0.442
 4149SOL    HW113346   7.012   3.142   0.411
 4149SOL    HW213347   0.012   3.242   0.538
 4150SOL     OW13348   1.119   0.466   6.086
 4150SOL    HW113349   1.047   0.404   6.055
 4150SOL    HW213350   1.089   0.514   6.169
 4151SOL     OW13351   2.262   5.892   5.984
 4151SOL    HW113352   2.291   5.832   6.058
 4151SOL    HW213353   2.337   5.902   5.918
 4152SOL     OW13354   4.755   5.826   1.684
 4152SOL    HW113355   4.817   5.749   1.695
 4152SOL    HW213356   4.671   5.808   1.735
 4153SOL     OW13357   4.578   5.459   7.011
 4153SOL    HW113358   4.642   5.519   0.033
 4153SOL    HW213359   4.579   5.481   6.913
 4154SOL     OW13360   0.026   5.328   4.009
 4154SOL    HW113361   7.022   5.353   4.101
 4154SOL    HW213362   0.098   5.390   3.979
 4155SOL     OW13363   0.641   1.091   2.550
 4155SOL    HW113364   0.601   1.001   2.533
 4155SOL    HW213365   0.581   1.161   2.511
 4156SOL     OW13366   5.194   6.274   4.964
 4156SOL    HW113367   5.265   6.245   5.028
 4156SOL    HW213368   5.149   6.193   4.925
 4157SOL     OW13369   4.903   5.024   4.256
 4157SOL    HW113370   4.843   5.022   4.336
 4157SOL    HW213371   4.874   4.954   4.191
 4158SOL     OW13372   1.207   4.415   2.461
 4158SOL    HW113373   1.153   4.413   2.546
 4158SOL    HW213374   1.201   4.506   2.421
 4159SOL     OW13375   2.159   3.745   3.987
 4159SOL    HW113376   2.098   3.698   3.922
 4159SOL    HW213377   2.203   3.677   4.046
 4160SOL     OW13378   6.531   1.137   1.203
 4160SOL    HW113379   6.475   1.054   1.211
 4160SOL    HW213380   6.510   1.183   1.117
 4161SOL     OW13381   0.819   1.076   0.611
 4161SOL    HW113382   0.754   1.146   0.640
 4161SOL    HW213383   0.910   1.117   0.604
 4162SOL     OW13384   6.582   6.610   6.421
 4162SOL    HW113385   6.510   6.554   6.462
 4162SOL    HW213386   6.608   6.572   6.333
 4163SOL     OW13387   5.770   6.344   3.611
 4163SOL    HW113388   5.757   6.329   3.709
 4163SOL    HW213389   5.820   6.430   3.597
 4164SOL     OW13390   1.554   6.531   6.454
 4164SOL    HW113391   1.585   6.598   6.387
 4164SOL    HW213392   1.515   6.578   6.533
 4165SOL     OW13393   4.273   6.747   7.017
 4165SOL    HW113394   4.296   6.819   0.056
 4165SOL    HW213395   4.336   6.669   0.003
 4166SOL     OW13396   6.415   3.629   1.014
 4166SOL    HW113397   6.435   3.724   1.038
 4166SOL    HW213398   6.322   3.623   0.979
 4167SOL     OW13399   1.466   4.237   0.912
 4167SOL    HW113400   1.526   4.190   0.848
 4167SOL    HW213401   1.375   4.247   0.872
 4168SOL     OW13402   6.642   4.693   0.912
 4168SOL    HW113403   6.670   4.750   0.989
 4168SOL    HW213404   6.561   4.733   0.868
 4169SOL     OW13405   5.704   4.307   3.838
 4169SOL    HW113406   5.788   4.300   3.784
 4169SOL    HW213407   5.705   4.391   3.892
 4170SOL     OW13408   4.603   4.226   5.594
 4170SOL    HW113409   4.569   4.314   5.560
 4170SOL    HW213410   4.542   4.153   5.563
 4171SOL     OW13411   6.373   5.393   0.881
 4171SOL    HW113412   6.391   5.469   0.943
 4171SOL    HW213413   6.432   5.316   0.906
 4172SOL     OW13414   0.405   2.271   6.116
 4172SOL    HW113415   0.374   2.235   6.204
 4172SOL    HW213416   0.337   2.250   6.046
 4173SOL     OW13417   5.469   3.600   5.902
 4173SOL    HW113418   5.441   3.563   5.813
 4173SOL    HW213419   5.440   3.538   5.974
 4174SOL     OW13420   5.174   1.005   3.065
 4174SOL    HW113421   5.152   1.094   3.024
 4174SOL    HW213422   5.225   1.020   3.150
 4175SOL     OW13423   2.487   5.923   4.010
 4175SOL    HW113424   2.466   6.013   4.049
 4175SOL    HW213425   2.479   5.853   4.081
 4176SOL     OW13426   3.032   6.544   1.889
 4176SOL    HW113427   3.014   6.625   1.945
 4176SOL    HW213428   3.040   6.571   1.793
 4177SOL     OW13429   5.972   4.474   4.682
 4177SOL    HW113430   5.876   4.503   4.674
 4177SOL    HW213431   5.992   4.452   4.777
 4178SOL     OW13432   4.395   0.767   4.413
 4178SOL    HW113433   4.326   0.826   4.455
 4178SOL    HW213434   4.443   0.817   4.341
 4179SOL     OW13435   5.296   2.733   3.683
 4179SOL    HW113436   5.235   2.720   3.605
 4179SOL    HW213437   5.339   2.646   3.706
 4180SOL     OW13438   4.963   4.345   1.550
 4180SOL    HW113439   4.896   4.295   1.495
 4180SOL    HW213440   4.926   4.364   1.640
 4181SOL     OW13441   2.633   1.495   0.739
 4181SOL    HW113442   2.616   1.513   0.642
 4181SOL    HW213443   2.657   1.580   0.786
 4182SOL     OW13444   0.402   6.982   3.160
 4182SOL    HW113445   0.372   6.970   3.066
 4182SOL    HW213446   0.493   6.942   3.172
 4183SOL     OW13447   4.692   0.750   0.224
 4183SOL    HW113448   4.634   0.828   0.249
 4183SOL    HW213449   4.712   0.754   0.126
 4184SOL     OW13450   4.821   5.200   1.403
 4184SOL    HW113451   4.741   5.241   1.360
 4184SOL    HW213452   4.833   5.238   1.495
 4185SOL     OW13453   0.408   5.642   2.541
 4185SOL    HW113454   0.457   5.613   2.623
 4185SOL    HW213455   0.380   5.737   2.551
 4186SOL     OW13456   2.394   5.395   0.700
 4186SOL    HW113457   2.451   5.343   0.763
 4186SOL    HW213458   2.453   5.438   0.631
 4187SOL     OW13459   3.729   4.205   5.758
 4187SOL    HW113460   3.754   4.291   5.712
 4187SOL    HW213461   3.635   4.181   5.735
 4188SOL     OW13462   4.292   6.929   4.376
 4188SOL    HW113463   4.334   6.845   4.410
 4188SOL    HW213464   4.352   7.007   4.398
 4189SOL     OW13465   3.563   0.451   5.473
 4189SOL    HW113466   3.653   0.411   5.488
 4189SOL    HW213467   3.492   0.387   5.505
 4190SOL     OW13468   0.356   0.425   0.563
 4190SOL    HW113469   0.453   0.404   0.548
 4190SOL    HW213470   0.333   0.509   0.513
 4191SOL     OW13471   5.254   3.472   3.213
 4191SOL    HW113472   5.305   3.540   3.264
 4191SOL    HW213473   5.302   3.450   3.128
 4192SOL     OW13474   0.391   1.145   4.465
 4192SOL    HW113475   0.486   1.173   4.478
 4192SOL    HW213476   0.383   1.047   4.480
 4193SOL     OW13477   1.245   0.650   2.687
 4193SOL    HW113478   1.239   0.651   2.786
 4193SOL    HW213479   1.334   0.685   2.658
 4194SOL     OW13480   5.799   0.331   5.158
 4194SOL    HW113481   5.750   0.329   5.071
 4194SOL    HW213482   5.737   0.359   5.231
 4195SOL     OW13483   4.126   6.916   2.426
 4195SOL    HW113484   4.173   6.933   2.513
 4195SOL    HW213485   4.072   6.832   2.433
 4196SOL     OW13486   5.823   2.279   3.332
 4196SOL    HW113487   5.769   2.362   3.350
 4196SOL    HW213488   5.779   2.201   3.376
 4197SOL     OW13489   4.661   6.160   5.567
 4197SOL    HW113490   4.756   6.133   5.551
 4197SOL    HW213491   4.658   6.255   5.599
 4198SOL     OW13492   5.750   3.384   6.799
 4198SOL    HW113493   5.776   3.315   6.732
 4198SOL    HW213494   5.651   3.378   6.816
 4199SOL     OW13495   2.176   3.022   6.566
 4199SOL    HW113496   2.260   3.063   6.602
 4199SOL    HW213497   2.167   3.045   6.469
 4200SOL     OW13498   3.002   6.433   5.840
 4200SOL    HW113499   3.052   6.421   5.926
 4200SOL    HW213500   3.050   6.384   5.767
 4201SOL     OW13501   6.420   6.554   3.740
 4201SOL    HW113502   6.406   6.603   3.826
 4201SOL    HW213503   6.332   6.521   3.706
 4202SOL     OW13504   4.368   5.391   5.596
 4202SOL    HW113505   4.453   5.374   5.547
 4202SOL    HW213506   4.291   5.390   5.531
 4203SOL     OW13507   4.691   5.163   0.518
 4203SOL    HW113508   4.599   5.167   0.555
 4203SOL    HW213509   4.689   5.187   0.421
 4204SOL     OW13510   4.112   3.359   2.374
 4204SOL    HW113511   4.132   3.444   2.422
 4204SOL    HW213512   4.068   3.295   2.436
 4205SOL     OW13513   3.366   5.379   3.547
 4205SOL    HW113514   3.316   5.453   3.593
 4205SOL    HW213515   3.325   5.362   3.458
 4206SOL     OW13516   5.973   0.672   5.495
 4206SOL    HW113517   6.051   0.735   5.495
 4206SOL    HW213518   5.987   0.602   5.425
 4207SOL     OW13519   1.630   1.611   1.722
 4207SOL    HW113520   1.664   1.518   1.734
 4207SOL    HW213521   1.570   1.615   1.641
 4208SOL     OW13522   0.900   3.630   6.712
 4208SOL    HW113523   0.903   3.530   6.709
 4208SOL    HW213524   0.990   3.666   6.736
 4209SOL     OW13525   0.343   0.891   5.817
 4209SOL    HW113526   0.296   0.809   5.786
 4209SOL    HW213527   0.372   0.944   5.737
 4210SOL     OW13528   3.176   3.288   2.041
 4210SOL    HW113529   3.207   3.232   2.118
 4210SOL    HW213530   3.079   3.308   2.051
 4211SOL     OW13531   3.768   5.347   5.769
 4211SOL    HW113532   3.765   5.337   5.868
 4211SOL    HW213533   3.696   5.291   5.728
 4212SOL     OW13534   5.877   2.937   2.539
 4212SOL    HW113535   5.848   2.913   2.446
 4212SOL    HW213536   5.969   2.901   2.555
 4213SOL     OW13537   2.590   0.974   2.295
 4213SOL    HW113538   2.651   0.974   2.217
 4213SOL    HW213539   2.519   1.043   2.282
 4214SOL     OW13540   1.637   4.020   5.294
 4214SOL    HW113541   1.654   3.973   5.207
 4214SOL    HW213542   1.543   3.999   5.324
 4215SOL     OW13543   6.802   6.312   4.729
 4215SOL    HW113544   6.703   6.314   4.714
 4215SOL    HW213545   6.846   6.379   4.670
 4216SOL     OW13546   1.169   1.308   3.298
 4216SOL    HW113547   1.118   1.374   3.242
 4216SOL    HW213548   1.264   1.305   3.266
 4217SOL     OW13549   6.906   0.132   2.585
 4217SOL    HW113550   6.889   0.071   2.662
 4217SOL    HW213551   6.818   0.159   2.544
 4218SOL     OW13552   4.935   0.979   1.759
 4218SOL    HW113553   5.030   0.970   1.730
 4218SOL    HW213554   4.929   0.972   1.859
 4219SOL     OW13555   2.621   5.077   3.401
 4219SOL    HW113556   2.631   4.998   3.341
 4219SOL    HW213557   2.538   5.128   3.377
 4220SOL     OW13558   5.553   2.908   3.642
 4220SOL    HW113559   5.529   2.954   3.556
 4220SOL    HW213560   5.475   2.853   3.673
 4221SOL     OW13561   6.208   5.658   6.435
 4221SOL    HW113562   6.120   5.621   6.405
 4221SOL    HW213563   6.194   5.749   6.473
 4222SOL     OW13564   6.303   2.528   2.812
 4222SOL    HW113565   6.230   2.565   2.754
 4222SOL    HW213566   6.267   2.455   2.869
 4223SOL     OW13567   3.204   3.278   5.427
 4223SOL    HW113568   3.143   3.294   5.350
 4223SOL    HW213569   3.299   3.291   5.397
 4224SOL     OW13570   5.122   3.048   3.492
 4224SOL    HW113571   5.093   3.080   3.402
 4224SOL    HW213572   5.208   3.093   3.517
 4225SOL     OW13573   4.425   0.685   5.685
 4225SOL    HW113574   4.407   0.587   5.688
 4225SOL    HW213575   4.473   0.707   5.600
 4226SOL     OW13576   0.578   0.483   2.941
 4226SOL    HW113577   0.622   0.488   3.031
 4226SOL    HW213578   0.559   0.576   2.909
 4227SOL     OW13579   3.575   5.053   6.779
 4227SOL    HW113580   3.515   5.084   6.705
 4227SOL    HW213581   3.643   5.124   6.798
 4228SOL     OW13582   0.827   3.773   3.824
 4228SOL    HW113583   0.921   3.806   3.811
 4228SOL    HW213584   0.822   3.677   3.795
 4229SOL     OW13585   4.903   5.211   5.408
 4229SOL    HW113586   4.866   5.265   5.332
 4229SOL    HW213587   4.834   5.146   5.439
 4230SOL     OW13588   2.254   0.585   4.294
 4230SOL    HW113589   2.241   0.683   4.308
 4230SOL    HW213590   2.166   0.542   4.273
 4231SOL     OW13591   5.465   6.068   4.811
 4231SOL    HW113592   5.490   5.972   4.821
 4231SOL    HW213593   5.517   6.123   4.877
 4232SOL     OW13594   0.205   4.385   1.818
 4232SOL    HW113595   0.110   4.410   1.839
 4232SOL    HW213596   0.227   4.415   1.725
 4233SOL     OW13597   6.582   0.762   7.021
 4233SOL    HW113598   6.516   0.810   6.963
 4233SOL    HW213599   6.659   0.731   6.965
 4234SOL     OW13600   1.348   0.077   5.692
 4234SOL    HW113601   1.355   0.169   5.730
 4234SOL    HW213602   1.259   0.037   5.716
 4235SOL     OW13603   5.259   3.876   5.550
 4235SOL    HW113604   5.201   3.893   5.470
 4235SOL    HW213605   5.348   3.841   5.519
 4236SOL     OW13606   0.307   3.607   2.816
 4236SOL    HW113607   0.374   3.665   2.861
 4236SOL    HW213608   0.239   3.664   2.770
 4237SOL     OW13609   6.455   5.346   3.418
 4237SOL    HW113610   6.508   5.265   3.393
 4237SOL    HW213611   6.399   5.375   3.340
 4238SOL     OW13612   3.698   4.914   2.820
 4238SOL    HW113613   3.645   4.834   2.846
 4238SOL    HW213614   3.650   4.997   2.850
 4239SOL     OW13615   5.624   1.185   4.118
 4239SOL    HW113616   5.641   1.107   4.178
 4239SOL    HW213617   5.616   1.268   4.173
 4240SOL     OW13618   2.200   6.782   0.067
 4240SOL    HW113619   2.158   6.762   7.005
 4240SOL    HW213620   2.298   6.798   0.054
 4241SOL     OW13621   5.803   1.165   1.202
 4241SOL    HW113622   5.807   1.220   1.119
 4241SOL    HW213623   5.770   1.073   1.181
 4242SOL     OW13624   1.791   0.542   3.659
 4242SOL    HW113625   1.770   0.469   3.725
 4242SOL    HW213626   1.837   0.502   3.579
 4243SOL     OW13627   0.623   3.797   3.999
 4243SOL    HW113628   0.545   3.758   3.951
 4243SOL    HW213629   0.701   3.804   3.936
 4244SOL     OW13630   5.220   5.489   1.109
 4244SOL    HW113631   5.189   5.535   1.192
 4244SOL    HW213632   5.259   5.556   1.047
 4245SOL     OW13633   6.310   0.945   6.487
 4245SOL    HW113634   6.213   0.922   6.478
 4245SOL    HW213635   6.365   0.867   6.458
 4246SOL     OW13636   6.113   2.818   3.613
 4246SOL    HW113637   6.106   2.897   3.552
 4246SOL    HW213638   6.201   2.820   3.660
 4247SOL     OW13639   1.987   5.107   3.308
 4247SOL    HW113640   1.983   5.009   3.287
 4247SOL    HW213641   2.016   5.119   3.403
 4248SOL     OW13642   1.608   1.012   3.385
 4248SOL    HW113643   1.516   1.015   3.344
 4248SOL    HW213644   1.645   1.105   3.390
 4249SOL     OW13645   5.025   1.855   3.505
 4249SOL    HW113646   5.070   1.784   3.450
 4249SOL    HW213647   4.928   1.833   3.515
 4250SOL     OW13648   5.925   6.117   4.594
 4250SOL    HW113649   6.010   6.073   4.624
 4250SOL    HW213650   5.925   6.126   4.494
 4251SOL     OW13651   6.375   3.326   1.121
 4251SOL    HW113652   6.448   3.391   1.141
 4251SOL    HW213653   6.399   3.273   1.040
 4252SOL     OW13654   5.283   5.892   5.895
 4252SOL    HW113655   5.250   5.908   5.802
 4252SOL    HW213656   5.340   5.968   5.924
 4253SOL     OW13657   3.176   6.703   1.588
 4253SOL    HW113658   3.099   6.639   1.597
 4253SOL    HW213659   3.250   6.673   1.648
 4254SOL     OW13660   2.153   3.869   2.002
 4254SOL    HW113661   2.095   3.948   2.023
 4254SOL    HW213662   2.228   3.864   2.068
 4255SOL     OW13663   6.927   4.210   3.905
 4255SOL    HW113664   6.969   4.220   3.995
 4255SOL    HW213665   6.997   4.194   3.836
 4256SOL     OW13666   0.731   6.018   0.854
 4256SOL    HW113667   0.787   6.051   0.930
 4256SOL    HW213668   0.723   5.918   0.859
 4257SOL     OW13669   4.108   1.695   4.314
 4257SOL    HW113670   4.057   1.651   4.240
 4257SOL    HW213671   4.145   1.782   4.283
 4258SOL     OW13672   3.205   6.106   0.874
 4258SOL    HW113673   3.242   6.196   0.852
 4258SOL    HW213674   3.196   6.097   0.973
 4259SOL     OW13675   1.497   6.381   0.692
 4259SOL    HW113676   1.590   6.414   0.710
 4259SOL    HW213677   1.488   6.288   0.729
 4260SOL     OW13678   5.576   0.896   3.289
 4260SOL    HW113679   5.640   0.926   3.219
 4260SOL    HW213680   5.548   0.974   3.346
 4261SOL     OW13681   1.744   0.801   2.929
 4261SOL    HW113682   1.790   0.828   2.845
 4261SOL    HW213683   1.778   0.856   3.005
 4262SOL     OW13684   1.232   4.091   6.293
 4262SOL    HW113685   1.133   4.082   6.301
 4262SOL    HW213686   1.261   4.063   6.201
 4263SOL     OW13687   2.264   0.726   3.478
 4263SOL    HW113688   2.312   0.640   3.494
 4263SOL    HW213689   2.327   0.792   3.436
 4264SOL     OW13690   6.568   2.257   4.652
 4264SOL    HW113691   6.589   2.165   4.619
 4264SOL    HW213692   6.487   2.254   4.710
 4265SOL     OW13693   3.718   0.981   0.923
 4265SOL    HW113694   3.623   0.982   0.956
 4265SOL    HW213695   3.732   0.898   0.869
 4266SOL     OW13696   2.205   6.298   6.279
 4266SOL    HW113697   2.196   6.313   6.378
 4266SOL    HW213698   2.173   6.206   6.256
 4267SOL     OW13699   2.202   4.002   4.306
 4267SOL    HW113700   2.184   4.090   4.263
 4267SOL    HW213701   2.227   3.935   4.236
 4268SOL     OW13702   1.602   5.546   6.898
 4268SOL    HW113703   1.526   5.526   6.960
 4268SOL    HW213704   1.676   5.589   6.949
 4269SOL     OW13705   2.835   0.402   3.395
 4269SOL    HW113706   2.833   0.359   3.485
 4269SOL    HW213707   2.769   0.355   3.335
 4270SOL     OW13708   3.571   2.955   2.129
 4270SOL    HW113709   3.577   3.015   2.209
 4270SOL    HW213710   3.540   2.864   2.158
 4271SOL     OW13711   0.287   0.741   0.725
 4271SOL    HW113712   0.200   0.730   0.676
 4271SOL    HW213713   0.328   0.652   0.742
 4272SOL     OW13714   6.787   2.730   4.807
 4272SOL    HW113715   6.792   2.654   4.742
 4272SOL    HW213716   6.754   2.812   4.760
 4273SOL     OW13717   4.821   6.519   4.519
 4273SOL    HW113718   4.827   6.436   4.575
 4273SOL    HW213719   4.730   6.525   4.479
 4274SOL     OW13720   1.386   6.947   2.124
 4274SOL    HW113721   1.327   6.902   2.057
 4274SOL    HW213722   1.338   7.026   2.162
 4275SOL     OW13723   7.025   1.771   3.958
 4275SOL    HW113724   0.070   1.815   3.904
 4275SOL    HW213725   6.970   1.711   3.899
 4276SOL     OW13726   2.827   5.278   4.071
 4276SOL    HW113727   2.818   5.271   4.171
 4276SOL    HW213728   2.763   5.346   4.037
 4277SOL     OW13729   6.925   4.513   2.803
 4277SOL    HW113730   6.885   4.604   2.811
 4277SOL    HW213731   7.023   4.521   2.785
 4278SOL     OW13732   6.937   6.708   4.758
 4278SOL    HW113733   6.983   6.792   4.787
 4278SOL    HW213734   6.957   6.635   4.823
 4279SOL     OW13735   1.904   1.338   2.998
 4279SOL    HW113736   1.842   1.415   3.014
 4279SOL    HW213737   1.929   1.297   3.085
 4280SOL     OW13738   6.173   0.027   5.604
 4280SOL    HW113739   6.112   0.002   5.529
 4280SOL    HW213740   6.240   0.094   5.571
 4281SOL     OW13741   5.734   5.328   3.320
 4281SOL    HW113742   5.666   5.399   3.338
 4281SOL    HW213743   5.825   5.361   3.347
 4282SOL     OW13744   3.110   4.364   0.705
 4282SOL    HW113745   3.182   4.361   0.636
 4282SOL    HW213746   3.089   4.459   0.727
 4283SOL     OW13747   2.916   1.521   3.514
 4283SOL    HW113748   2.996   1.462   3.526
 4283SOL    HW213749   2.905   1.579   3.595
 4284SOL     OW13750   4.216   4.927   0.883
 4284SOL    HW113751   4.235   4.909   0.786
 4284SOL    HW213752   4.118   4.919   0.900
 4285SOL     OW13753   2.385   1.256   5.985
 4285SOL    HW113754   2.384   1.340   5.930
 4285SOL    HW213755   2.450   1.191   5.945
 4286SOL     OW13756   5.553   6.667   5.721
 4286SOL    HW113757   5.489   6.664   5.644
 4286SOL    HW213758   5.504   6.694   5.804
 4287SOL     OW13759   4.534   1.157   5.811
 4287SOL    HW113760   4.475   1.136   5.889
 4287SOL    HW213761   4.621   1.109   5.820
 4288SOL     OW13762   0.653   5.621   3.667
 4288SOL    HW113763   0.656   5.646   3.764
 4288SOL    HW213764   0.586   5.678   3.620
 4289SOL     OW13765   0.844   2.226   5.860
 4289SOL    HW113766   0.917   2.256   5.921
 4289SOL    HW213767   0.883   2.191   5.775
 4290SOL     OW13768   0.830   6.247   4.901
 4290SOL    HW113769   0.799   6.211   4.813
 4290SOL    HW213770   0.873   6.336   4.887
 4291SOL     OW13771   4.892   3.736   6.770
 4291SOL    HW113772   4.890   3.836   6.772
 4291SOL    HW213773   4.799   3.701   6.755
 4292SOL     OW13774   6.357   2.790   0.367
 4292SOL    HW113775   6.410   2.865   0.328
 4292SOL    HW213776   6.390   2.770   0.459
 4293SOL     OW13777   3.646   4.631   0.263
 4293SOL    HW113778   3.581   4.682   0.207
 4293SOL    HW213779   3.689   4.693   0.329
 4294SOL     OW13780   1.805   0.855   6.333
 4294SOL    HW113781   1.833   0.870   6.238
 4294SOL    HW213782   1.872   0.895   6.394
 4295SOL     OW13783   5.608   5.815   3.965
 4295SOL    HW113784   5.663   5.733   3.950
 4295SOL    HW213785   5.548   5.831   3.886
 4296SOL     OW13786   2.956   6.908   6.992
 4296SOL    HW113787   2.980   6.820   6.952
 4296SOL    HW213788   2.994   6.914   0.057
 4297SOL     OW13789   5.843   0.227   2.232
 4297SOL    HW113790   5.784   0.277   2.169
 4297SOL    HW213791   5.936   0.262   2.225
 4298SOL     OW13792   3.677   5.958   1.319
 4298SOL    HW113793   3.579   5.975   1.311
 4298SOL    HW213794   3.696   5.861   1.305
 4299SOL     OW13795   1.240   2.760   6.999
 4299SOL    HW113796   1.264   2.722   6.910
 4299SOL    HW213797   1.268   2.697   0.045
 4300SOL     OW13798   2.864   6.844   0.288
 4300SOL    HW113799   2.897   6.767   0.233
 4300SOL    HW213800   2.765   6.835   0.303
 4301SOL     OW13801   4.407   6.991   1.404
 4301SOL    HW113802   4.455   0.038   1.452
 4301SOL    HW213803   4.461   6.907   1.407
 4302SOL     OW13804   6.856   0.718   6.331
 4302SOL    HW113805   6.850   0.656   6.409
 4302SOL    HW213806   6.765   0.730   6.292
 4303SOL     OW13807   0.346   4.364   4.045
 4303SOL    HW113808   0.418   4.429   4.066
 4303SOL    HW213809   0.283   4.357   4.122
 4304SOL     OW13810   3.297   3.392   2.491
 4304SOL    HW113811   3.374   3.416   2.432
 4304SOL    HW213812   3.211   3.418   2.446
 4305SOL     OW13813   0.676   6.917   5.816
 4305SOL    HW113814   0.632   6.925   5.726
 4305SOL    HW213815   0.772   6.941   5.808
 4306SOL     OW13816   4.746   4.662   4.419
 4306SOL    HW113817   4.843   4.681   4.431
 4306SOL    HW213818   4.714   4.603   4.493
 4307SOL     OW13819   5.654   3.518   5.237
 4307SOL    HW113820   5.702   3.594   5.281
 4307SOL    HW213821   5.720   3.445   5.217
 4308SOL     OW13822   6.218   5.681   1.293
 4308SOL    HW113823   6.215   5.663   1.391
 4308SOL    HW213824   6.304   5.649   1.255
 4309SOL     OW13825   1.163   1.195   0.500
 4309SOL    HW113826   1.172   1.292   0.520
 4309SOL    HW213827   1.147   1.145   0.585
 4310SOL     OW13828   1.506   2.623   1.345
 4310SOL    HW113829   1.456   2.593   1.264
 4310SOL    HW213830   1.604   2.620   1.327
 4311SOL     OW13831   0.260   5.886   2.875
 4311SOL    HW113832   0.290   5.972   2.835
 4311SOL    HW213833   0.198   5.904   2.951
 4312SOL     OW13834   1.532   5.643   2.841
 4312SOL    HW113835   1.445   5.647   2.890
 4312SOL    HW213836   1.519   5.675   2.747
 4313SOL     OW13837   4.573   2.072   0.572
 4313SOL    HW113838   4.568   1.986   0.624
 4313SOL    HW213839   4.533   2.146   0.626
 4314SOL     OW13840   5.790   1.934   5.425
 4314SOL    HW113841   5.808   2.032   5.434
 4314SOL    HW213842   5.746   1.901   5.508
 4315SOL     OW13843   2.110   0.156   3.471
 4315SOL    HW113844   2.079   0.241   3.428
 4315SOL    HW213845   2.036   0.089   3.472
 4316SOL     OW13846   4.245   0.206   2.066
 4316SOL    HW113847   4.201   0.294   2.082
 4316SOL    HW213848   4.299   0.210   1.982
 4317SOL     OW13849   5.309   1.501   5.608
 4317SOL    HW113850   5.274   1.591   5.634
 4317SOL    HW213851   5.235   1.434   5.615
 4318SOL     OW13852   1.357   2.012   5.131
 4318SOL    HW113853   1.340   1.974   5.222
 4318SOL    HW213854   1.366   1.938   5.065
 4319SOL     OW13855   1.954   1.856   0.922
 4319SOL    HW113856   2.021   1.888   0.854
 4319SOL    HW213857   1.899   1.933   0.954
 4320SOL     OW13858   3.885   5.290   0.711
 4320SOL    HW113859   3.939   5.216   0.670
 4320SOL    HW213860   3.856   5.353   0.638
 4321SOL     OW13861   0.060   4.480   4.574
 4321SOL    HW113862   0.012   4.437   4.651
 4321SOL    HW213863   0.004   4.471   4.492
 4322SOL     OW13864   6.449   3.115   6.810
 4322SOL    HW113865   6.367   3.158   6.848
 4322SOL    HW213866   6.518   3.185   6.790
 4323SOL     OW13867   5.048   4.764   0.145
 4323SOL    HW113868   4.993   4.768   0.062
 4323SOL    HW213869   5.025   4.842   0.204
 4324SOL     OW13870   6.175   4.355   6.242
 4324SOL    HW113871   6.191   4.383   6.337
 4324SOL    HW213872   6.119   4.424   6.196
 4325SOL     OW13873   3.141   1.807   2.092
 4325SOL    HW113874   3.216   1.812   2.158
 4325SOL    HW213875   3.060   1.851   2.129
 4326SOL     OW13876   5.325   4.656   2.194
 4326SOL    HW113877   5.286   4.639   2.284
 4326SOL    HW213878   5.253   4.654   2.125
 4327SOL     OW13879   4.977   6.030   2.268
 4327SOL    HW113880   4.987   6.124   2.236
 4327SOL    HW213881   5.064   5.982   2.259
 4328SOL     OW13882   5.812   4.671   5.533
 4328SOL    HW113883   5.887   4.733   5.559
 4328SOL    HW213884   5.773   4.630   5.616
 4329SOL     OW13885   4.874   2.946   5.380
 4329SOL    HW113886   4.897   2.881   5.309
 4329SOL    HW213887   4.848   3.033   5.338
 4330SOL     OW13888   2.025   6.030   4.415
 4330SOL    HW113889   2.118   6.018   4.382
 4330SOL    HW213890   2.013   6.123   4.450
 4331SOL     OW13891   5.630   0.935   1.530
 4331SOL    HW113892   5.583   0.853   1.562
 4331SOL    HW213893   5.600   1.014   1.583
 4332SOL     OW13894   5.755   3.258   2.704
 4332SOL    HW113895   5.750   3.356   2.685
 4332SOL    HW213896   5.839   3.237   2.753
 4333SOL     OW13897   4.535   1.555   4.970
 4333SOL    HW113898   4.482   1.472   4.949
 4333SOL    HW213899   4.492   1.604   5.045
 4334SOL     OW13900   2.043   2.649   2.072
 4334SOL    HW113901   2.041   2.691   1.981
 4334SOL    HW213902   2.101   2.702   2.133
 4335SOL     OW13903   3.554   3.201   1.973
 4335SOL    HW113904   3.612   3.261   2.029
 4335SOL    HW213905   3.548   3.111   2.016
 4336SOL     OW13906   2.601   5.872   5.603
 4336SOL    HW113907   2.580   5.940   5.532
 4336SOL    HW213908   2.692   5.834   5.587
 4337SOL     OW13909   2.459   4.682   1.658
 4337SOL    HW113910   2.427   4.695   1.564
 4337SOL    HW213911   2.559   4.686   1.660
 4338SOL     OW13912   6.353   6.791   5.728
 4338SOL    HW113913   6.313   6.862   5.670
 4338SOL    HW213914   6.298   6.781   5.811
 4339SOL     OW13915   4.016   2.914   6.575
 4339SOL    HW113916   4.089   2.982   6.576
 4339SOL    HW213917   4.050   2.829   6.616
 4340SOL     OW13918   6.364   3.893   1.660
 4340SOL    HW113919   6.459   3.864   1.673
 4340SOL    HW213920   6.326   3.924   1.746
 4341SOL     OW13921   1.567   5.586   1.002
 4341SOL    HW113922   1.550   5.564   1.098
 4341SOL    HW213923   1.629   5.664   0.996
 4342SOL     OW13924   5.434   3.840   3.193
 4342SOL    HW113925   5.355   3.897   3.169
 4342SOL    HW213926   5.411   3.782   3.270
 4343SOL     OW13927   3.139   5.905   4.720
 4343SOL    HW113928   3.186   5.832   4.770
 4343SOL    HW213929   3.173   5.994   4.751
 4344SOL     OW13930   1.109   3.628   2.932
 4344SOL    HW113931   1.021   3.675   2.936
 4344SOL    HW213932   1.182   3.691   2.961
 4345SOL     OW13933   3.574   4.161   4.751
 4345SOL    HW113934   3.592   4.143   4.654
 4345SOL    HW213935   3.476   4.177   4.764
 4346SOL     OW13936   2.277   2.747   3.097
 4346SOL    HW113937   2.278   2.804   3.178
 4346SOL    HW213938   2.241   2.799   3.019
 4347SOL     OW13939   5.551   6.199   2.771
 4347SOL    HW113940   5.490   6.143   2.828
 4347SOL    HW213941   5.498   6.242   2.698
 4348SOL     OW13942   0.246   5.880   4.188
 4348SOL    HW113943   0.339   5.844   4.184
 4348SOL    HW213944   0.211   5.893   4.095
 4349SOL     OW13945   6.410   2.064   3.452
 4349SOL    HW113946   6.330   2.070   3.392
 4349SOL    HW213947   6.461   1.980   3.431
 4350SOL     OW13948   3.954   1.804   3.980
 4350SOL    HW113949   3.887   1.771   3.914
 4350SOL    HW213950   3.983   1.897   3.956
 4351SOL     OW13951   1.241   6.083   1.430
 4351SOL    HW113952   1.320   6.035   1.393
 4351SOL    HW213953   1.255   6.182   1.424
 4352SOL     OW13954   6.257   4.355   2.209
 4352SOL    HW113955   6.310   4.437   2.190
 4352SOL    HW213956   6.206   4.367   2.294
 4353SOL     OW13957   3.698   3.318   6.672
 4353SOL    HW113958   3.667   3.372   6.751
 4353SOL    HW213959   3.619   3.278   6.626
 4354SOL     OW13960   1.935   1.239   6.050
 4354SOL    HW113961   1.904   1.329   6.021
 4354SOL    HW213962   2.027   1.246   6.089
 4355SOL     OW13963   1.669   0.190   2.757
 4355SOL    HW113964   1.700   0.218   2.666
 4355SOL    HW213965   1.699   0.256   2.825
 4356SOL     OW13966   4.738   3.341   6.279
 4356SOL    HW113967   4.797   3.260   6.277
 4356SOL    HW213968   4.789   3.418   6.320
 4357SOL     OW13969   7.000   1.030   1.265
 4357SOL    HW113970   0.027   0.971   1.326
 4357SOL    HW213971   6.978   1.115   1.312
 4358SOL     OW13972   6.676   0.612   0.864
 4358SOL    HW113973   6.674   0.526   0.814
 4358SOL    HW213974   6.723   0.599   0.951
 4359SOL     OW13975   1.451   1.224   6.810
 4359SOL    HW113976   1.460   1.308   6.756
 4359SOL    HW213977   1.529   1.216   6.872
 4360SOL     OW13978   0.414   3.557   4.133
 4360SOL    HW113979   0.483   3.486   4.121
 4360SOL    HW213980   0.396   3.602   4.046
 4361SOL     OW13981   2.437   3.951   1.409
 4361SOL    HW113982   2.504   4.015   1.372
 4361SOL    HW213983   2.357   3.948   1.349
 4362SOL     OW13984   6.768   5.709   4.406
 4362SOL    HW113985   6.750   5.613   4.383
 4362SOL    HW213986   6.799   5.758   4.325
 4363SOL     OW13987   4.544   1.304   1.623
 4363SOL    HW113988   4.599   1.314   1.706
 4363SOL    HW213989   4.520   1.395   1.588
 4364SOL     OW13990   3.195   3.880   3.453
 4364SOL    HW113991   3.251   3.841   3.526
 4364SOL    HW213992   3.232   3.969   3.427
 4365SOL     OW13993   2.503   0.585   2.142
 4365SOL    HW113994   2.440   0.661   2.128
 4365SOL    HW213995   2.499   0.523   2.063
 4366SOL     OW13996   6.033   6.715   6.544
 4366SOL    HW113997   6.054   6.770   6.463
 4366SOL    HW213998   6.080   6.753   6.623
 4367SOL     OW13999   2.491   4.791   3.646
 4367SOL    HW114000   2.547   4.773   3.566
 4367SOL    HW214001   2.398   4.758   3.630
 4368SOL     OW14002   3.910   5.736   1.959
 4368SOL    HW114003   3.863   5.807   2.012
 4368SOL    HW214004   3.950   5.778   1.877
 4369SOL     OW14005   4.734   5.014   3.175
 4369SOL    HW114006   4.721   5.003   3.273
 4369SOL    HW214007   4.655   5.062   3.136
 4370SOL     OW14008   3.672   4.544   1.496
 4370SOL    HW114009   3.618   4.608   1.441
 4370SOL    HW214010   3.699   4.588   1.582
 4371SOL     OW14011   2.224   2.017   2.707
 4371SOL    HW114012   2.259   2.027   2.800
 4371SOL    HW214013   2.138   2.068   2.698
 4372SOL     OW14014   2.367   2.616   4.493
 4372SOL    HW114015   2.346   2.711   4.470
 4372SOL    HW214016   2.313   2.589   4.572
 4373SOL     OW14017   4.591   1.026   0.141
 4373SOL    HW114018   4.615   1.025   0.044
 4373SOL    HW214019   4.493   1.044   0.150
 4374SOL     OW14020   1.462   1.569   1.508
 4374SOL    HW114021   1.412   1.656   1.514
 4374SOL    HW214022   1.397   1.493   1.506
 4375SOL     OW14023   4.056   5.846   2.727
 4375SOL    HW114024   3.983   5.889   2.780
 4375SOL    HW214025   4.074   5.755   2.764
 4376SOL     OW14026   5.984   0.457   2.436
 4376SOL    HW114027   6.039   0.516   2.496
 4376SOL    HW214028   6.044   0.397   2.384
 4377SOL     OW14029   5.607   5.482   0.362
 4377SOL    HW114030   5.666   5.429   0.302
 4377SOL    HW214031   5.530   5.426   0.392
 4378SOL     OW14032   1.803   3.104   2.806
 4378SOL    HW114033   1.848   3.189   2.833
 4378SOL    HW214034   1.855   3.026   2.840
 4379SOL     OW14035   2.059   1.833   1.849
 4379SOL    HW114036   2.012   1.883   1.922
 4379SOL    HW214037   2.055   1.735   1.867
 4380SOL     OW14038   2.015   5.885   4.034
 4380SOL    HW114039   2.004   5.982   4.056
 4380SOL    HW214040   2.046   5.875   3.940
 4381SOL     OW14041   2.265   4.210   4.819
 4381SOL    HW114042   2.337   4.273   4.789
 4381SOL    HW214043   2.300   4.153   4.893
 4382SOL     OW14044   6.325   3.073   6.154
 4382SOL    HW114045   6.286   3.091   6.244
 4382SOL    HW214046   6.262   3.016   6.100
 4383SOL     OW14047   0.758   3.051   5.508
 4383SOL    HW114048   0.817   2.973   5.527
 4383SOL    HW214049   0.752   3.109   5.589
 4384SOL     OW14050   5.630   0.904   6.422
 4384SOL    HW114051   5.687   0.894   6.504
 4384SOL    HW214052   5.681   0.952   6.351
 4385SOL     OW14053   6.940   2.413   4.675
 4385SOL    HW114054   6.874   2.351   4.717
 4385SOL    HW214055   0.002   2.404   4.720
 4386SOL     OW14056   1.714   3.671   6.463
 4386SOL    HW114057   1.634   3.666   6.522
 4386SOL    HW214058   1.795   3.640   6.513
 4387SOL     OW14059   1.060   1.516   1.480
 4387SOL    HW114060   1.082   1.555   1.570
 4387SOL    HW214061   0.965   1.486   1.480
 4388SOL     OW14062   4.686   1.280   6.269
 4388SOL    HW114063   4.608   1.247   6.322
 4388SOL    HW214064   4.653   1.320   6.183
 4389SOL     OW14065   5.724   1.946   0.502
 4389SOL    HW114066   5.644   1.948   0.441
 4389SOL    HW214067   5.805   1.974   0.452
 4390SOL     OW14068   4.102   1.619   2.306
 4390SOL    HW114069   4.128   1.561   2.229
 4390SOL    HW214070   4.121   1.715   2.284
 4391SOL     OW14071   1.688   5.760   5.963
 4391SOL    HW114072   1.696   5.741   5.865
 4391SOL    HW214073   1.749   5.699   6.014
 4392SOL     OW14074   6.408   3.581   5.318
 4392SOL    HW114075   6.415   3.654   5.249
 4392SOL    HW214076   6.499   3.552   5.346
 4393SOL     OW14077   5.514   6.414   3.354
 4393SOL    HW114078   5.461   6.454   3.429
 4393SOL    HW214079   5.597   6.469   3.340
 4394SOL     OW14080   6.421   5.486   2.991
 4394SOL    HW114081   6.413   5.555   2.919
 4394SOL    HW214082   6.505   5.434   2.977
 4395SOL     OW14083   3.834   0.920   1.873
 4395SOL    HW114084   3.782   0.974   1.807
 4395SOL    HW214085   3.899   0.861   1.823
 4396SOL     OW14086   2.506   2.090   4.348
 4396SOL    HW114087   2.570   2.167   4.345
 4396SOL    HW214088   2.473   2.071   4.256
 4397SOL     OW14089   0.529   1.776   5.146
 4397SOL    HW114090   0.457   1.833   5.107
 4397SOL    HW214091   0.527   1.686   5.102
 4398SOL     OW14092   1.010   4.533   4.831
 4398SOL    HW114093   0.922   4.552   4.787
 4398SOL    HW214094   1.039   4.440   4.806
 4399SOL     OW14095   1.563   0.674   1.930
 4399SOL    HW114096   1.648   0.624   1.943
 4399SOL    HW214097   1.543   0.728   2.011
 4400SOL     OW14098   2.399   0.006   5.119
 4400SOL    HW114099   2.411   0.031   5.023
 4400SOL    HW214100   2.482   0.027   5.170
 4401SOL     OW14101   5.179   6.993   6.921
 4401SOL    HW114102   5.269   6.952   6.911
 4401SOL    HW214103   5.172   0.048   6.864
 4402SOL     OW14104   2.051   6.841   1.998
 4402SOL    HW114105   2.091   6.799   1.916
 4402SOL    HW214106   1.960   6.877   1.976
 4403SOL     OW14107   0.306   6.966   4.019
 4403SOL    HW114108   0.322   7.013   4.106
 4403SOL    HW214109   0.286   0.006   3.947
 4404SOL     OW14110   0.995   4.148   5.864
 4404SOL    HW114111   1.059   4.188   5.930
 4404SOL    HW214112   0.940   4.078   5.910
 4405SOL     OW14113   2.865   4.266   0.759
 4405SOL    HW114114   2.953   4.307   0.736
 4405SOL    HW214115   2.873   4.212   0.842
 4406SOL     OW14116   6.734   4.754   1.404
 4406SOL    HW114117   6.730   4.818   1.481
 4406SOL    HW214118   6.669   4.782   1.333
 4407SOL     OW14119   0.576   4.285   0.354
 4407SOL    HW114120   0.628   4.225   0.294
 4407SOL    HW214121   0.530   4.230   0.424
 4408SOL     OW14122   4.414   1.336   1.281
 4408SOL    HW114123   4.405   1.240   1.252
 4408SOL    HW214124   4.350   1.355   1.355
 4409SOL     OW14125   4.289   6.968   1.764
 4409SOL    HW114126   4.331   0.031   1.777
 4409SOL    HW214127   4.348   6.898   1.805
 4410SOL     OW14128   1.440   5.557   0.569
 4410SOL    HW114129   1.505   5.632   0.571
 4410SOL    HW214130   1.470   5.488   0.502
 4411SOL     OW14131   3.590   3.097   4.022
 4411SOL    HW114132   3.669   3.143   4.063
 4411SOL    HW214133   3.511   3.158   4.025
 4412SOL     OW14134   3.142   1.142   4.973
 4412SOL    HW114135   3.126   1.079   4.897
 4412SOL    HW214136   3.240   1.160   4.981
 4413SOL     OW14137   4.882   5.534   4.583
 4413SOL    HW114138   4.891   5.463   4.513
 4413SOL    HW214139   4.791   5.575   4.578
 4414SOL     OW14140   3.952   5.162   1.805
 4414SOL    HW114141   3.958   5.062   1.797
 4414SOL    HW214142   3.939   5.202   1.715
 4415SOL     OW14143   4.277   3.743   6.189
 4415SOL    HW114144   4.376   3.736   6.176
 4415SOL    HW214145   4.231   3.731   6.101
 4416SOL     OW14146   2.743   0.412   4.087
 4416SOL    HW114147   2.652   0.451   4.094
 4416SOL    HW214148   2.799   0.440   4.165
 4417SOL     OW14149   6.149   4.405   3.044
 4417SOL    HW114150   6.233   4.351   3.035
 4417SOL    HW214151   6.135   4.429   3.140
 4418SOL     OW14152   5.098   0.774   3.268
 4418SOL    HW114153   5.048   0.690   3.248
 4418SOL    HW214154   5.174   0.784   3.203
 4419SOL     OW14155   5.291   6.052   0.451
 4419SOL    HW114156   5.258   6.146   0.446
 4419SOL    HW214157   5.314   6.029   0.545
 4420SOL     OW14158   5.375   1.729   1.567
 4420SOL    HW114159   5.317   1.683   1.634
 4420SOL    HW214160   5.397   1.821   1.598
 4421SOL     OW14161   2.054   1.197   3.744
 4421SOL    HW114162   2.047   1.263   3.669
 4421SOL    HW214163   2.017   1.109   3.715
 4422SOL     OW14164   2.467   4.008   5.886
 4422SOL    HW114165   2.558   3.968   5.898
 4422SOL    HW214166   2.438   4.051   5.972
 4423SOL     OW14167   1.234   2.648   5.356
 4423SOL    HW114168   1.307   2.694   5.408
 4423SOL    HW214169   1.248   2.664   5.258
 4424SOL     OW14170   5.157   0.310   4.120
 4424SOL    HW114171   5.141   0.229   4.064
 4424SOL    HW214172   5.131   0.291   4.215
 4425SOL     OW14173   3.808   5.817   6.349
 4425SOL    HW114174   3.827   5.897   6.291
 4425SOL    HW214175   3.881   5.750   6.339
 4426SOL     OW14176   0.104   1.928   4.580
 4426SOL    HW114177   0.069   1.865   4.511
 4426SOL    HW214178   0.119   1.879   4.666
 4427SOL     OW14179   6.712   6.708   3.159
 4427SOL    HW114180   6.721   6.720   3.258
 4427SOL    HW214181   6.734   6.613   3.135
 4428SOL     OW14182   3.630   5.584   2.110
 4428SOL    HW114183   3.606   5.644   2.186
 4428SOL    HW214184   3.569   5.602   2.033
 4429SOL     OW14185   2.815   0.211   2.994
 4429SOL    HW114186   2.716   0.210   2.982
 4429SOL    HW214187   2.851   0.300   2.964
 4430SOL     OW14188   5.076   3.251   5.081
 4430SOL    HW114189   5.097   3.192   5.160
 4430SOL    HW214190   5.123   3.339   5.093
 4431SOL     OW14191   1.472   0.768   2.150
 4431SOL    HW114192   1.511   0.739   2.237
 4431SOL    HW214193   1.377   0.797   2.163
 4432SOL     OW14194   3.439   4.157   4.143
 4432SOL    HW114195   3.484   4.122   4.060
 4432SOL    HW214196   3.346   4.119   4.148
 4433SOL     OW14197   5.628   0.331   4.732
 4433SOL    HW114198   5.660   0.273   4.656
 4433SOL    HW214199   5.669   0.422   4.724
 4434SOL     OW14200   3.564   1.976   3.610
 4434SOL    HW114201   3.538   1.994   3.515
 4434SOL    HW214202   3.506   2.029   3.671
 4435SOL     OW14203   4.244   4.017   1.033
 4435SOL    HW114204   4.215   4.030   1.128
 4435SOL    HW214205   4.318   3.949   1.029
 4436SOL     OW14206   4.248   1.501   1.138
 4436SOL    HW114207   4.316   1.436   1.173
 4436SOL    HW214208   4.216   1.559   1.213
 4437SOL     OW14209   5.317   1.238   4.003
 4437SOL    HW114210   5.235   1.202   4.047
 4437SOL    HW214211   5.397   1.215   4.058
 4438SOL     OW14212   4.883   1.060   0.403
 4438SOL    HW114213   4.891   0.963   0.427
 4438SOL    HW214214   4.786   1.087   0.407
 4439SOL     OW14215   0.639   6.372   1.623
 4439SOL    HW114216   0.626   6.305   1.696
 4439SOL    HW214217   0.561   6.435   1.621
 4440SOL     OW14218   1.893   4.724   0.791
 4440SOL    HW114219   1.904   4.712   0.692
 4440SOL    HW214220   1.960   4.790   0.824
 4441SOL     OW14221   6.540   1.842   2.616
 4441SOL    HW114222   6.572   1.854   2.522
 4441SOL    HW214223   6.603   1.888   2.679
 4442SOL     OW14224   2.939   5.730   5.247
 4442SOL    HW114225   2.864   5.795   5.256
 4442SOL    HW214226   3.004   5.763   5.178
 4443SOL     OW14227   6.952   3.269   1.106
 4443SOL    HW114228   6.921   3.320   1.186
 4443SOL    HW214229   0.022   3.247   1.116
 4444SOL     OW14230   4.429   5.411   6.231
 4444SOL    HW114231   4.449   5.336   6.167
 4444SOL    HW214232   4.375   5.481   6.184
 4445SOL     OW14233   6.545   0.387   1.121
 4445SOL    HW114234   6.528   0.346   1.031
 4445SOL    HW214235   6.477   0.354   1.187
 4446SOL     OW14236   6.268   2.011   1.792
 4446SOL    HW114237   6.367   2.015   1.781
 4446SOL    HW214238   6.243   2.033   1.886
 4447SOL     OW14239   5.851   3.411   6.232
 4447SOL    HW114240   5.837   3.379   6.138
 4447SOL    HW214241   5.788   3.362   6.293
 4448SOL     OW14242   3.090   4.355   0.982
 4448SOL    HW114243   3.115   4.285   1.048
 4448SOL    HW214244   3.100   4.318   0.889
 4449SOL     OW14245   4.494   1.014   6.231
 4449SOL    HW114246   4.481   1.060   6.319
 4449SOL    HW214247   4.557   0.938   6.241
 4450SOL     OW14248   4.094   3.512   4.068
 4450SOL    HW114249   4.088   3.428   4.122
 4450SOL    HW214250   4.002   3.544   4.046
 4451SOL     OW14251   5.933   4.285   3.470
 4451SOL    HW114252   5.999   4.228   3.518
 4451SOL    HW214253   5.910   4.364   3.526
 4452SOL     OW14254   5.360   6.782   4.257
 4452SOL    HW114255   5.428   6.714   4.284
 4452SOL    HW214256   5.404   6.851   4.199
 4453SOL     OW14257   0.118   2.914   1.603
 4453SOL    HW114258   0.046   2.897   1.536
 4453SOL    HW214259   0.078   2.931   1.692
 4454SOL     OW14260   6.253   2.078   6.847
 4454SOL    HW114261   6.295   2.104   6.760
 4454SOL    HW214262   6.288   1.988   6.876
 4455SOL     OW14263   3.790   0.309   6.597
 4455SOL    HW114264   3.733   0.363   6.535
 4455SOL    HW214265   3.886   0.315   6.568
 4456SOL     OW14266   2.819   5.413   2.278
 4456SOL    HW114267   2.871   5.338   2.237
 4456SOL    HW214268   2.725   5.384   2.292
 4457SOL     OW14269   4.285   2.603   0.364
 4457SOL    HW114270   4.197   2.627   0.405
 4457SOL    HW214271   4.311   2.510   0.393
 4458SOL     OW14272   1.296   4.018   6.967
 4458SOL    HW114273   1.351   4.068   6.899
 4458SOL    HW214274   1.332   3.926   6.978
 4459SOL     OW14275   4.518   0.632   3.893
 4459SOL    HW114276   4.450   0.559   3.888
 4459SOL    HW214277   4.565   0.628   3.981
 4460SOL     OW14278   2.786   3.041   5.345
 4460SOL    HW114279   2.689   3.065   5.336
 4460SOL    HW214280   2.837   3.082   5.269
 4461SOL     OW14281   1.191   0.525   2.473
 4461SOL    HW114282   1.120   0.455   2.487
 4461SOL    HW214283   1.209   0.572   2.559
 4462SOL     OW14284   6.877   3.723   1.737
 4462SOL    HW114285   6.794   3.778   1.742
 4462SOL    HW214286   6.957   3.780   1.754
 4463SOL     OW14287   4.170   2.908   0.224
 4463SOL    HW114288   4.228   2.974   0.175
 4463SOL    HW214289   4.221   2.822   0.235
 4464SOL     OW14290   6.706   4.861   0.035
 4464SOL    HW114291   6.674   4.790   6.998
 4464SOL    HW214292   6.638   4.933   0.041
 4465SOL     OW14293   2.517   5.523   2.655
 4465SOL    HW114294   2.499   5.618   2.680
 4465SOL    HW214295   2.607   5.517   2.611
 4466SOL     OW14296   1.521   1.139   3.117
 4466SOL    HW114297   1.521   1.153   3.018
 4466SOL    HW214298   1.613   1.156   3.152
 4467SOL     OW14299   1.411   6.985   3.360
 4467SOL    HW114300   1.417   6.922   3.437
 4467SOL    HW214301   1.402   6.933   3.275
 4468SOL     OW14302   1.647   2.710   0.752
 4468SOL    HW114303   1.578   2.685   0.683
 4468SOL    HW214304   1.608   2.777   0.815
 4469SOL     OW14305   3.923   0.340   1.324
 4469SOL    HW114306   4.012   0.295   1.331
 4469SOL    HW214307   3.859   0.297   1.388
 4470SOL     OW14308   6.061   3.142   1.833
 4470SOL    HW114309   6.016   3.056   1.814
 4470SOL    HW214310   5.993   3.212   1.855
 4471SOL     OW14311   0.079   1.971   0.238
 4471SOL    HW114312   0.006   2.026   0.279
 4471SOL    HW214313   0.100   2.006   0.147
 4472SOL     OW14314   1.721   3.019   3.744
 4472SOL    HW114315   1.680   2.935   3.779
 4472SOL    HW214316   1.770   3.065   3.817
 4473SOL     OW14317   6.843   2.692   3.888
 4473SOL    HW114318   6.763   2.682   3.829
 4473SOL    HW214319   6.921   2.723   3.834
 4474SOL     OW14320   3.730   0.532   2.002
 4474SOL    HW114321   3.798   0.522   2.075
 4474SOL    HW214322   3.762   0.484   1.920
 4475SOL     OW14323   1.822   3.633   2.601
 4475SOL    HW114324   1.805   3.561   2.534
 4475SOL    HW214325   1.763   3.620   2.681
 4476SOL     OW14326   4.966   6.411   4.230
 4476SOL    HW114327   5.003   6.417   4.323
 4476SOL    HW214328   4.941   6.502   4.199
 4477SOL     OW14329   1.410   0.309   5.806
 4477SOL    HW114330   1.472   0.388   5.816
 4477SOL    HW214331   1.400   0.263   5.894
 4478SOL     OW14332   3.516   6.366   2.581
 4478SOL    HW114333   3.526   6.281   2.633
 4478SOL    HW214334   3.603   6.414   2.580
 4479SOL     OW14335   0.738   0.989   1.188
 4479SOL    HW114336   0.775   0.935   1.111
 4479SOL    HW214337   0.739   1.086   1.164
 4480SOL     OW14338   2.044   3.699   5.486
 4480SOL    HW114339   1.956   3.744   5.470
 4480SOL    HW214340   2.112   3.737   5.424
 4481SOL     OW14341   2.352   6.464   5.001
 4481SOL    HW114342   2.435   6.462   5.057
 4481SOL    HW214343   2.279   6.509   5.053
 4482SOL     OW14344   0.694   4.213   4.013
 4482SOL    HW114345   0.771   4.212   3.949
 4482SOL    HW214346   0.682   4.304   4.051
 4483SOL     OW14347   4.918   3.402   2.292
 4483SOL    HW114348   4.904   3.307   2.267
 4483SOL    HW214349   4.991   3.441   2.237
 4484SOL     OW14350   3.263   2.964   5.390
 4484SOL    HW114351   3.352   3.005   5.409
 4484SOL    HW214352   3.265   2.917   5.302
 4485SOL     OW14353   5.070   1.873   5.038
 4485SOL    HW114354   4.980   1.855   4.999
 4485SOL    HW214355   5.077   1.970   5.064
 4486SOL     OW14356   5.153   4.053   4.564
 4486SOL    HW114357   5.207   4.026   4.484
 4486SOL    HW214358   5.058   4.026   4.551
 4487SOL     OW14359   2.664   3.110   6.488
 4487SOL    HW114360   2.666   3.190   6.427
 4487SOL    HW214361   2.717   3.129   6.570
 4488SOL     OW14362   6.122   3.629   5.723
 4488SOL    HW114363   6.184   3.598   5.796
 4488SOL    HW214364   6.073   3.550   5.686
 4489SOL     OW14365   5.903   5.356   4.364
 4489SOL    HW114366   5.976   5.297   4.398
 4489SOL    HW214367   5.821   5.301   4.348
 4490SOL     OW14368   6.345   2.628   3.320
 4490SOL    HW114369   6.300   2.585   3.398
 4490SOL    HW214370   6.433   2.584   3.304
 4491SOL     OW14371   0.297   2.869   4.665
 4491SOL    HW114372   0.272   2.928   4.742
 4491SOL    HW214373   0.255   2.904   4.582
 4492SOL     OW14374   5.372   3.911   1.492
 4492SOL    HW114375   5.378   3.853   1.412
 4492SOL    HW214376   5.292   3.970   1.485
 4493SOL     OW14377   4.423   6.427   5.249
 4493SOL    HW114378   4.419   6.502   5.182
 4493SOL    HW214379   4.507   6.375   5.235
 4494SOL     OW14380   0.020   1.509   6.010
 4494SOL    HW114381   6.947   1.520   6.007
 4494SOL    HW214382   0.050   1.456   5.930
 4495SOL     OW14383   4.774   5.829   4.425
 4495SOL    HW114384   4.692   5.779   4.451
 4495SOL    HW214385   4.748   5.919   4.388
 4496SOL     OW14386   5.259   5.528   1.390
 4496SOL    HW114387   5.278   5.626   1.394
 4496SOL    HW214388   5.330   5.478   1.441
 4497SOL     OW14389   4.464   0.813   6.549
 4497SOL    HW114390   4.552   0.858   6.561
 4497SOL    HW214391   4.390   0.879   6.559
 4498SOL     OW14392   6.659   3.296   6.489
 4498SOL    HW114393   6.712   3.264   6.567
 4498SOL    HW214394   6.713   3.362   6.437
 4499SOL     OW14395   6.919   3.582   3.797
 4499SOL    HW114396   6.975   3.506   3.828
 4499SOL    HW214397   6.977   3.662   3.780
 4500SOL     OW14398   2.947   3.502   3.757
 4500SOL    HW114399   3.016   3.573   3.769
 4500SOL    HW214400   2.951   3.439   3.834
 4501SOL     OW14401   0.020   2.843   5.385
 4501SOL    HW114402   0.027   2.748   5.354
 4501SOL    HW214403   6.950   2.866   5.399
 4502SOL     OW14404   1.166   1.802   6.771
 4502SOL    HW114405   1.184   1.897   6.795
 4502SOL    HW214406   1.234   1.770   6.706
 4503SOL     OW14407   3.419   0.133   2.384
 4503SOL    HW114408   3.348   0.184   2.432
 4503SOL    HW214409   3.489   0.197   2.350
 4504SOL     OW14410   6.505   1.584   4.764
 4504SOL    HW114411   6.500   1.671   4.814
 4504SOL    HW214412   6.466   1.511   4.820
 4505SOL     OW14413   6.328   5.803   3.114
 4505SOL    HW114414   6.281   5.891   3.124
 4505SOL    HW214415   6.425   5.815   3.134
 4506SOL     OW14416   4.675   2.200   3.667
 4506SOL    HW114417   4.743   2.201   3.593
 4506SOL    HW214418   4.589   2.164   3.632
 4507SOL     OW14419   5.822   4.841   2.522
 4507SOL    HW114420   5.764   4.898   2.581
 4507SOL    HW214421   5.863   4.898   2.451
 4508SOL     OW14422   1.207   4.644   6.176
 4508SOL    HW114423   1.136   4.637   6.106
 4508SOL    HW214424   1.295   4.667   6.133
 4509SOL     OW14425   5.183   2.894   2.893
 4509SOL    HW114426   5.095   2.887   2.941
 4509SOL    HW214427   5.211   2.802   2.863
 4510SOL     OW14428   4.688   0.517   4.696
 4510SOL    HW114429   4.606   0.563   4.729
 4510SOL    HW214430   4.750   0.501   4.773
 4511SOL     OW14431   6.837   3.164   6.658
 4511SOL    HW114432   6.874   3.112   6.580
 4511SOL    HW214433   6.819   3.102   6.734
 4512SOL     OW14434   2.637   6.922   5.648
 4512SOL    HW114435   2.645   6.825   5.672
 4512SOL    HW214436   2.556   6.935   5.589
 4513SOL     OW14437   5.031   6.329   0.525
 4513SOL    HW114438   4.936   6.315   0.498
 4513SOL    HW214439   5.042   6.418   0.568
 4514SOL     OW14440   4.893   1.398   5.098
 4514SOL    HW114441   4.849   1.484   5.071
 4514SOL    HW214442   4.958   1.416   5.171
 4515SOL     OW14443   0.450   3.260   5.844
 4515SOL    HW114444   0.491   3.203   5.915
 4515SOL    HW214445   0.369   3.306   5.881
 4516SOL     OW14446   1.710   0.275   6.667
 4516SOL    HW114447   1.726   0.177   6.677
 4516SOL    HW214448   1.793   0.325   6.691
 4517SOL     OW14449   2.729   0.898   6.602
 4517SOL    HW114450   2.777   0.952   6.671
 4517SOL    HW214451   2.784   0.893   6.519
 4518SOL     OW14452   6.625   1.059   3.321
 4518SOL    HW114453   6.710   1.111   3.320
 4518SOL    HW214454   6.553   1.113   3.364
 4519SOL     OW14455   5.490   0.210   2.173
 4519SOL    HW114456   5.514   0.122   2.214
 4519SOL    HW214457   5.474   0.277   2.245
 4520SOL     OW14458   5.094   6.153   3.551
 4520SOL    HW114459   5.144   6.233   3.518
 4520SOL    HW214460   4.997   6.162   3.525
 4521SOL     OW14461   5.836   2.040   3.751
 4521SOL    HW114462   5.750   2.083   3.723
 4521SOL    HW214463   5.820   1.943   3.768
 4522SOL     OW14464   5.729   7.024   3.604
 4522SOL    HW114465   5.635   6.996   3.623
 4522SOL    HW214466   5.729   0.091   3.568
 4523SOL     OW14467   1.578   4.554   0.163
 4523SOL    HW114468   1.534   4.635   0.124
 4523SOL    HW214469   1.650   4.582   0.226
 4524SOL     OW14470   5.674   2.417   3.894
 4524SOL    HW114471   5.693   2.486   3.964
 4524SOL    HW214472   5.625   2.340   3.935
 4525SOL     OW14473   5.224   1.282   3.471
 4525SOL    HW114474   5.239   1.358   3.534
 4525SOL    HW214475   5.288   1.289   3.395
 4526SOL     OW14476   5.225   0.618   1.069
 4526SOL    HW114477   5.233   0.712   1.104
 4526SOL    HW214478   5.131   0.603   1.036
 4527SOL     OW14479   3.983   1.463   3.669
 4527SOL    HW114480   4.051   1.502   3.607
 4527SOL    HW214481   3.947   1.378   3.629
 4528SOL     OW14482   4.637   6.675   6.891
 4528SOL    HW114483   4.580   6.606   6.936
 4528SOL    HW214484   4.709   6.629   6.839
 4529SOL     OW14485   3.707   1.853   4.806
 4529SOL    HW114486   3.663   1.774   4.763
 4529SOL    HW214487   3.663   1.937   4.774
 4530SOL     OW14488   0.238   3.359   5.941
 4530SOL    HW114489   0.262   3.442   5.991
 4530SOL    HW214490   0.158   3.377   5.884
 4531SOL     OW14491   0.604   3.364   4.067
 4531SOL    HW114492   0.524   3.326   4.021
 4531SOL    HW214493   0.686   3.344   4.012
 4532SOL     OW14494   6.060   1.740   3.812
 4532SOL    HW114495   6.046   1.714   3.716
 4532SOL    HW214496   6.133   1.808   3.818
 4533SOL     OW14497   1.615   0.672   2.351
 4533SOL    HW114498   1.700   0.720   2.373
 4533SOL    HW214499   1.635   0.596   2.289
 4534SOL     OW14500   5.127   4.279   4.997
 4534SOL    HW114501   5.124   4.182   5.020
 4534SOL    HW214502   5.151   4.289   4.901
 4535SOL     OW14503   4.629   1.590   2.519
 4535SOL    HW114504   4.536   1.581   2.555
 4535SOL    HW214505   4.692   1.610   2.594
 4536SOL     OW14506   3.765   2.120   4.207
 4536SOL    HW114507   3.794   2.056   4.135
 4536SOL    HW214508   3.781   2.078   4.297
 4537SOL     OW14509   3.679   3.069   5.833
 4537SOL    HW114510   3.695   3.037   5.740
 4537SOL    HW214511   3.709   3.164   5.842
 4538SOL     OW14512   2.659   0.677   4.530
 4538SOL    HW114513   2.594   0.748   4.557
 4538SOL    HW214514   2.661   0.605   4.599
 4539SOL     OW14515   2.242   1.210   4.261
 4539SOL    HW114516   2.276   1.127   4.307
 4539SOL    HW214517   2.143   1.203   4.249
 4540SOL     OW14518   3.047   3.436   4.776
 4540SOL    HW114519   3.127   3.465   4.830
 4540SOL    HW214520   2.993   3.517   4.753
 4541SOL     OW14521   6.029   1.539   0.635
 4541SOL    HW114522   6.094   1.536   0.558
 4541SOL    HW214523   6.055   1.613   0.697
 4542SOL     OW14524   6.298   0.781   2.694
 4542SOL    HW114525   6.293   0.862   2.752
 4542SOL    HW214526   6.377   0.726   2.720
 4543SOL     OW14527   5.323   1.895   1.318
 4543SOL    HW114528   5.380   1.900   1.400
 4543SOL    HW214529   5.345   1.812   1.267
 4544SOL     OW14530   3.316   6.368   6.447
 4544SOL    HW114531   3.324   6.301   6.521
 4544SOL    HW214532   3.256   6.333   6.376
 4545SOL     OW14533   5.480   3.050   4.796
 4545SOL    HW114534   5.570   3.061   4.752
 4545SOL    HW214535   5.411   3.032   4.725
 4546SOL     OW14536   2.103   1.419   6.443
 4546SOL    HW114537   2.059   1.333   6.419
 4546SOL    HW214538   2.035   1.482   6.481
 4547SOL     OW14539   6.444   2.771   2.911
 4547SOL    HW114540   6.536   2.773   2.872
 4547SOL    HW214541   6.398   2.686   2.885
 4548SOL     OW14542   1.140   4.246   4.848
 4548SOL    HW114543   1.072   4.173   4.848
 4548SOL    HW214544   1.195   4.240   4.765
 4549SOL     OW14545   5.691   3.791   2.304
 4549SOL    HW114546   5.613   3.834   2.349
 4549SOL    HW214547   5.751   3.750   2.373
 4550SOL     OW14548   1.392   6.338   3.082
 4550SOL    HW114549   1.474   6.395   3.072
 4550SOL    HW214550   1.385   6.276   3.003
 4551SOL     OW14551   6.075   1.271   6.115
 4551SOL    HW114552   6.110   1.179   6.132
 4551SOL    HW214553   5.976   1.267   6.102
 4552SOL     OW14554   6.322   2.373   0.954
 4552SOL    HW114555   6.257   2.315   1.003
 4552SOL    HW214556   6.330   2.341   0.859
 4553SOL     OW14557   4.160   4.247   6.897
 4553SOL    HW114558   4.168   4.193   6.980
 4553SOL    HW214559   4.187   4.342   6.916
 4554SOL     OW14560   4.535   0.349   1.608
 4554SOL    HW114561   4.523   0.394   1.697
 4554SOL    HW214562   4.553   0.418   1.538
 4555SOL     OW14563   3.458   1.487   5.978
 4555SOL    HW114564   3.484   1.517   5.886
 4555SOL    HW214565   3.396   1.554   6.019
 4556SOL     OW14566   4.337   2.409   3.839
 4556SOL    HW114567   4.298   2.367   3.921
 4556SOL    HW214568   4.436   2.398   3.839
 4557SOL     OW14569   4.627   6.724   4.683
 4557SOL    HW114570   4.673   6.753   4.599
 4557SOL    HW214571   4.543   6.676   4.661
 4558SOL     OW14572   0.222   3.664   5.518
 4558SOL    HW114573   0.228   3.740   5.453
 4558SOL    HW214574   0.156   3.687   5.590
 4559SOL     OW14575   0.900   4.252   1.372
 4559SOL    HW114576   0.964   4.285   1.303
 4559SOL    HW214577   0.831   4.194   1.329
 4560SOL     OW14578   5.145   4.674   2.952
 4560SOL    HW114579   5.079   4.633   3.015
 4560SOL    HW214580   5.190   4.752   2.996
 4561SOL     OW14581   2.589   0.568   1.138
 4561SOL    HW114582   2.591   0.568   1.238
 4561SOL    HW214583   2.641   0.647   1.104
 4562SOL     OW14584   3.275   6.402   5.381
 4562SOL    HW114585   3.245   6.406   5.476
 4562SOL    HW214586   3.335   6.322   5.369
 4563SOL     OW14587   0.928   4.098   0.765
 4563SOL    HW114588   0.860   4.039   0.807
 4563SOL    HW214589   0.980   4.046   0.697
 4564SOL     OW14590   0.553   6.566   0.947
 4564SOL    HW114591   0.597   6.489   0.900
 4564SOL    HW214592   0.621   6.637   0.965
 4565SOL     OW14593   6.820   1.042   5.811
 4565SOL    HW114594   6.807   0.967   5.876
 4565SOL    HW214595   6.814   1.129   5.859
 4566SOL     OW14596   0.054   1.773   0.587
 4566SOL    HW114597   0.091   1.815   0.505
 4566SOL    HW214598   0.128   1.726   0.636
 4567SOL     OW14599   0.009   0.487   0.418
 4567SOL    HW114600   6.941   0.502   0.450
 4567SOL    HW214601   0.047   0.406   0.463
 4568SOL     OW14602   1.152   4.378   5.549
 4568SOL    HW114603   1.200   4.372   5.461
 4568SOL    HW214604   1.152   4.287   5.592
 4569SOL     OW14605   1.705   1.277   3.312
 4569SOL    HW114606   1.796   1.240   3.295
 4569SOL    HW214607   1.712   1.375   3.330
 4570SOL     OW14608   0.876   6.268   2.913
 4570SOL    HW114609   0.837   6.355   2.883
 4570SOL    HW214610   0.864   6.258   3.012
 4571SOL     OW14611   3.058   3.145   6.402
 4571SOL    HW114612   3.000   3.194   6.466
 4571SOL    HW214613   3.005   3.120   6.321
 4572SOL     OW14614   1.217   6.818   6.807
 4572SOL    HW114615   1.220   6.725   6.843
 4572SOL    HW214616   1.141   6.868   6.848
 4573SOL     OW14617   6.302   6.237   0.009
 4573SOL    HW114618   6.387   6.190   0.034
 4573SOL    HW214619   6.224   6.178   0.027
 4574SOL     OW14620   6.663   3.584   1.440
 4574SOL    HW114621   6.718   3.663   1.466
 4574SOL    HW214622   6.672   3.512   1.509
 4575SOL     OW14623   5.805   1.921   6.149
 4575SOL    HW114624   5.902   1.942   6.142
 4575SOL    HW214625   5.755   1.972   6.079
 4576SOL     OW14626   2.200   5.837   6.418
 4576SOL    HW114627   2.145   5.756   6.434
 4576SOL    HW214628   2.249   5.861   6.502
 4577SOL     OW14629   1.072   2.025   4.050
 4577SOL    HW114630   1.162   2.052   4.084
 4577SOL    HW214631   1.084   1.968   3.968
 4578SOL     OW14632   1.379   3.365   3.900
 4578SOL    HW114633   1.469   3.321   3.894
 4578SOL    HW214634   1.386   3.447   3.956
 4579SOL     OW14635   4.763   2.440   2.622
 4579SOL    HW114636   4.706   2.360   2.604
 4579SOL    HW214637   4.732   2.486   2.706
 4580SOL     OW14638   4.795   5.256   6.780
 4580SOL    HW114639   4.731   5.325   6.746
 4580SOL    HW214640   4.829   5.283   6.870
 4581SOL     OW14641   3.082   5.133   2.948
 4581SOL    HW114642   3.035   5.171   3.027
 4581SOL    HW214643   3.126   5.047   2.973
 4582SOL     OW14644   5.562   6.467   4.953
 4582SOL    HW114645   5.504   6.456   4.872
 4582SOL    HW214646   5.516   6.527   5.019
 4583SOL     OW14647   3.009   1.519   5.574
 4583SOL    HW114648   2.971   1.578   5.502
 4583SOL    HW214649   2.935   1.468   5.617
 4584SOL     OW14650   0.279   5.191   5.848
 4584SOL    HW114651   0.265   5.277   5.799
 4584SOL    HW214652   0.193   5.159   5.887
 4585SOL     OW14653   2.531   6.551   2.866
 4585SOL    HW114654   2.547   6.519   2.772
 4585SOL    HW214655   2.606   6.612   2.893
 4586SOL     OW14656   4.013   4.925   0.378
 4586SOL    HW114657   4.081   4.934   0.305
 4586SOL    HW214658   4.014   4.832   0.414
 4587SOL     OW14659   3.998   3.895   2.030
 4587SOL    HW114660   4.010   3.803   2.068
 4587SOL    HW214661   4.064   3.957   2.074
 4588SOL     OW14662   4.221   4.286   5.486
 4588SOL    HW114663   4.139   4.256   5.437
 4588SOL    HW214664   4.256   4.210   5.542
 4589SOL     OW14665   5.216   1.406   2.351
 4589SOL    HW114666   5.312   1.424   2.375
 4589SOL    HW214667   5.189   1.318   2.389
 4590SOL     OW14668   4.949   5.543   0.491
 4590SOL    HW114669   4.976   5.562   0.585
 4590SOL    HW214670   5.015   5.481   0.449
 4591SOL     OW14671   0.579   6.038   5.001
 4591SOL    HW114672   0.576   6.025   4.901
 4591SOL    HW214673   0.508   6.104   5.027
 4592SOL     OW14674   3.852   1.928   2.284
 4592SOL    HW114675   3.888   1.922   2.191
 4592SOL    HW214676   3.858   2.023   2.316
 4593SOL     OW14677   4.160   6.042   3.768
 4593SOL    HW114678   4.197   6.009   3.681
 4593SOL    HW214679   4.146   5.965   3.830
 4594SOL     OW14680   3.121   0.758   1.769
 4594SOL    HW114681   3.195   0.812   1.729
 4594SOL    HW214682   3.069   0.815   1.833
 4595SOL     OW14683   3.326   2.307   6.015
 4595SOL    HW114684   3.386   2.234   6.048
 4595SOL    HW214685   3.344   2.391   6.066
 4596SOL     OW14686   5.732   6.575   3.348
 4596SOL    HW114687   5.735   6.657   3.292
 4596SOL    HW214688   5.792   6.586   3.427
 4597SOL     OW14689   4.871   4.449   6.571
 4597SOL    HW114690   4.873   4.366   6.515
 4597SOL    HW214691   4.792   4.447   6.632
 4598SOL     OW14692   2.197   5.287   0.167
 4598SOL    HW114693   2.267   5.306   0.237
 4598SOL    HW214694   2.241   5.256   0.083
 4599SOL     OW14695   1.468   5.364   0.367
 4599SOL    HW114696   1.544   5.302   0.384
 4599SOL    HW214697   1.382   5.316   0.381
 4600SOL     OW14698   1.113   4.893   5.175
 4600SOL    HW114699   1.090   4.833   5.098
 4600SOL    HW214700   1.212   4.904   5.180
 4601SOL     OW14701   1.450   6.808   5.633
 4601SOL    HW114702   1.360   6.846   5.657
 4601SOL    HW214703   1.438   6.716   5.596
 4602SOL     OW14704   1.045   5.677   1.387
 4602SOL    HW114705   0.972   5.684   1.456
 4602SOL    HW214706   1.021   5.733   1.308
 4603SOL     OW14707   3.597   6.213   1.003
 4603SOL    HW114708   3.624   6.117   0.997
 4603SOL    HW214709   3.575   6.235   1.098
 4604SOL     OW14710   4.419   0.178   1.824
 4604SOL    HW114711   4.510   0.195   1.863
 4604SOL    HW214712   4.406   0.236   1.744
 4605SOL     OW14713   3.493   0.848   3.848
 4605SOL    HW114714   3.484   0.901   3.764
 4605SOL    HW214715   3.424   0.776   3.850
 4606SOL     OW14716   1.045   6.964   1.238
 4606SOL    HW114717   1.006   6.915   1.161
 4606SOL    HW214718   0.971   7.005   1.293
 4607SOL     OW14719   2.435   2.379   1.002
 4607SOL    HW114720   2.413   2.454   0.939
 4607SOL    HW214721   2.516   2.330   0.968
 4608SOL     OW14722   0.868   5.844   3.524
 4608SOL    HW114723   0.896   5.797   3.608
 4608SOL    HW214724   0.855   5.941   3.544
 4609SOL     OW14725   4.434   5.025   6.146
 4609SOL    HW114726   4.440   5.108   6.092
 4609SOL    HW214727   4.495   5.032   6.225
 4610SOL     OW14728   5.019   2.219   0.740
 4610SOL    HW114729   5.065   2.170   0.665
 4610SOL    HW214730   5.062   2.308   0.752
 4611SOL     OW14731   6.977   6.213   6.155
 4611SOL    HW114732   6.964   6.130   6.101
 4611SOL    HW214733   6.907   6.280   6.130
 4612SOL     OW14734   0.796   5.625   0.158
 4612SOL    HW114735   0.875   5.670   0.118
 4612SOL    HW214736   0.826   5.554   0.221
 4613SOL     OW14737   2.370   6.180   2.086
 4613SOL    HW114738   2.302   6.214   2.151
 4613SOL    HW214739   2.461   6.193   2.124
 4614SOL     OW14740   0.546   3.964   4.682
 4614SOL    HW114741   0.458   3.999   4.715
 4614SOL    HW214742   0.544   3.864   4.682
 4615SOL     OW14743   2.396   0.990   0.056
 4615SOL    HW114744   2.429   1.079   0.087
 4615SOL    HW214745   2.441   0.965   6.997
 4616SOL     OW14746   5.566   0.345   5.305
 4616SOL    HW114747   5.513   0.328   5.222
 4616SOL    HW214748   5.505   0.357   5.382
 4617SOL     OW14749   0.841   2.525   1.906
 4617SOL    HW114750   0.771   2.454   1.919
 4617SOL    HW214751   0.800   2.605   1.864
 4618SOL     OW14752   2.245   2.831   5.430
 4618SOL    HW114753   2.207   2.796   5.345
 4618SOL    HW214754   2.221   2.927   5.440
 4619SOL     OW14755   3.289   6.270   3.121
 4619SOL    HW114756   3.239   6.348   3.083
 4619SOL    HW214757   3.245   6.185   3.092
 4620SOL     OW14758   3.568   4.335   0.135
 4620SOL    HW114759   3.473   4.309   0.153
 4620SOL    HW214760   3.604   4.385   0.214
 4621SOL     OW14761   4.863   1.381   2.800
 4621SOL    HW114762   4.765   1.378   2.818
 4621SOL    HW214763   4.887   1.472   2.764
 4622SOL     OW14764   2.261   4.225   0.323
 4622SOL    HW114765   2.279   4.310   0.274
 4622SOL    HW214766   2.208   4.246   0.406
 4623SOL     OW14767   6.779   6.171   0.974
 4623SOL    HW114768   6.698   6.220   1.006
 4623SOL    HW214769   6.760   6.073   0.971
 4624SOL     OW14770   5.664   0.077   3.213
 4624SOL    HW114771   5.707   0.061   3.124
 4624SOL    HW214772   5.640   0.174   3.221
 4625SOL     OW14773   1.868   4.501   0.235
 4625SOL    HW114774   1.902   4.588   0.202
 4625SOL    HW214775   1.843   4.442   0.158
 4626SOL     OW14776   5.656   5.457   2.758
 4626SOL    HW114777   5.729   5.523   2.738
 4626SOL    HW214778   5.683   5.400   2.835
 4627SOL     OW14779   2.978   5.213   3.829
 4627SOL    HW114780   2.906   5.202   3.761
 4627SOL    HW214781   2.941   5.259   3.910
 4628SOL     OW14782   5.665   3.928   4.013
 4628SOL    HW114783   5.746   3.929   3.954
 4628SOL    HW214784   5.592   3.878   3.968
 4629SOL     OW14785   2.428   5.324   5.288
 4629SOL    HW114786   2.514   5.302   5.243
 4629SOL    HW214787   2.352   5.290   5.233
 4630SOL     OW14788   3.911   5.412   2.464
 4630SOL    HW114789   3.878   5.497   2.421
 4630SOL    HW214790   3.865   5.400   2.552
 4631SOL     OW14791   2.397   6.487   3.690
 4631SOL    HW114792   2.493   6.485   3.660
 4631SOL    HW214793   2.341   6.531   3.620
 4632SOL     OW14794   4.076   5.172   2.662
 4632SOL    HW114795   4.083   5.197   2.566
 4632SOL    HW214796   4.096   5.074   2.673
 4633SOL     OW14797   5.583   1.647   3.939
 4633SOL    HW114798   5.494   1.691   3.945
 4633SOL    HW214799   5.572   1.556   3.898
 4634SOL     OW14800   2.525   4.791   6.151
 4634SOL    HW114801   2.512   4.699   6.113
 4634SOL    HW214802   2.574   4.784   6.238
 4635SOL     OW14803   5.384   3.678   2.007
 4635SOL    HW114804   5.416   3.632   2.089
 4635SOL    HW214805   5.288   3.704   2.018
 4636SOL     OW14806   2.308   4.479   0.124
 4636SOL    HW114807   2.392   4.444   0.084
 4636SOL    HW214808   2.235   4.477   0.056
 4637SOL     OW14809   1.049   0.301   0.167
 4637SOL    HW114810   1.128   0.362   0.169
 4637SOL    HW214811   1.022   0.283   0.073
 4638SOL     OW14812   4.597   2.870   0.242
 4638SOL    HW114813   4.561   2.855   0.149
 4638SOL    HW214814   4.537   2.824   0.308
 4639SOL     OW14815   2.437   4.405   4.693
 4639SOL    HW114816   2.482   4.484   4.736
 4639SOL    HW214817   2.449   4.411   4.594
 4640SOL     OW14818   4.978   4.820   3.599
 4640SOL    HW114819   5.007   4.913   3.622
 4640SOL    HW214820   4.905   4.792   3.661
 4641SOL     OW14821   3.070   6.036   4.490
 4641SOL    HW114822   3.103   5.996   4.576
 4641SOL    HW214823   3.133   6.013   4.416
 4642SOL     OW14824   0.476   5.677   4.164
 4642SOL    HW114825   0.538   5.675   4.242
 4642SOL    HW214826   0.456   5.583   4.134
 4643SOL     OW14827   5.899   2.774   1.498
 4643SOL    HW114828   5.825   2.709   1.519
 4643SOL    HW214829   5.974   2.725   1.455
 4644SOL     OW14830   0.472   4.716   5.153
 4644SOL    HW114831   0.484   4.815   5.149
 4644SOL    HW214832   0.378   4.693   5.126
 4645SOL     OW14833   0.850   1.115   4.933
 4645SOL    HW114834   0.841   1.031   4.988
 4645SOL    HW214835   0.933   1.163   4.960
 4646SOL     OW14836   2.335   5.976   3.333
 4646SOL    HW114837   2.361   6.013   3.244
 4646SOL    HW214838   2.415   5.969   3.391
 4647SOL     OW14839   1.340   0.508   3.840
 4647SOL    HW114840   1.262   0.446   3.847
 4647SOL    HW214841   1.417   0.471   3.892
 4648SOL     OW14842   4.105   0.743   2.114
 4648SOL    HW114843   4.016   0.788   2.104
 4648SOL    HW214844   4.163   0.797   2.176
 4649SOL     OW14845   5.357   0.297   5.938
 4649SOL    HW114846   5.291   0.225   5.919
 4649SOL    HW214847   5.365   0.310   6.037
 4650SOL     OW14848   4.662   5.740   3.713
 4650SOL    HW114849   4.673   5.786   3.801
 4650SOL    HW214850   4.663   5.641   3.727
 4651SOL     OW14851   6.656   1.666   0.899
 4651SOL    HW114852   6.746   1.706   0.884
 4651SOL    HW214853   6.594   1.735   0.934
 4652SOL     OW14854   0.345   0.283   4.348
 4652SOL    HW114855   0.292   0.297   4.265
 4652SOL    HW214856   0.301   0.330   4.424
 4653SOL     OW14857   5.930   4.984   0.016
 4653SOL    HW114858   5.919   5.082   0.000
 4653SOL    HW214859   6.016   4.967   0.064
 4654SOL     OW14860   0.250   6.411   0.316
 4654SOL    HW114861   0.342   6.374   0.308
 4654SOL    HW214862   0.200   6.394   0.231
 4655SOL     OW14863   6.920   5.449   1.548
 4655SOL    HW114864   6.842   5.410   1.598
 4655SOL    HW214865   6.905   5.547   1.534
 4656SOL     OW14866   1.008   0.436   3.720
 4656SOL    HW114867   0.928   0.428   3.779
 4656SOL    HW214868   1.061   0.351   3.726
 4657SOL     OW14869   5.056   6.330   1.335
 4657SOL    HW114870   5.022   6.416   1.297
 4657SOL    HW214871   5.028   6.323   1.431
 4658SOL     OW14872   4.528   1.180   2.406
 4658SOL    HW114873   4.619   1.222   2.407
 4658SOL    HW214874   4.458   1.251   2.413
 4659SOL     OW14875   2.865   4.346   5.341
 4659SOL    HW114876   2.874   4.419   5.273
 4659SOL    HW214877   2.914   4.265   5.310
 4660SOL     OW14878   1.208   3.157   5.589
 4660SOL    HW114879   1.239   3.165   5.494
 4660SOL    HW214880   1.164   3.243   5.617
 4661SOL     OW14881   3.463   3.975   5.747
 4661SOL    HW114882   3.415   4.062   5.743
 4661SOL    HW214883   3.469   3.944   5.842
 4662SOL     OW14884   3.825   6.985   5.060
 4662SOL    HW114885   3.750   6.982   4.994
 4662SOL    HW214886   3.893   6.915   5.038
 4663SOL     OW14887   0.278   1.846   2.996
 4663SOL    HW114888   0.183   1.821   2.979
 4663SOL    HW214889   0.336   1.764   2.991
 4664SOL     OW14890   1.996   1.418   0.778
 4664SOL    HW114891   2.092   1.435   0.802
 4664SOL    HW214892   1.992   1.350   0.705
 4665SOL     OW14893   3.202   6.627   0.299
 4665SOL    HW114894   3.229   6.675   0.382
 4665SOL    HW214895   3.186   6.693   0.226
 4666SOL     OW14896   1.430   2.048   1.050
 4666SOL    HW114897   1.437   1.980   0.977
 4666SOL    HW214898   1.518   2.055   1.097
 4667SOL     OW14899   6.444   4.307   1.973
 4667SOL    HW114900   6.349   4.278   1.965
 4667SOL    HW214901   6.502   4.248   1.917
 4668SOL     OW14902   5.390   1.893   3.259
 4668SOL    HW114903   5.390   1.822   3.329
 4668SOL    HW214904   5.425   1.854   3.173
 4669SOL     OW14905   4.399   6.386   6.742
 4669SOL    HW114906   4.330   6.447   6.703
 4669SOL    HW214907   4.378   6.291   6.717
 4670SOL     OW14908   3.094   2.418   5.428
 4670SOL    HW114909   3.140   2.425   5.339
 4670SOL    HW214910   3.149   2.465   5.497
 4671SOL     OW14911   6.614   2.445   2.216
 4671SOL    HW114912   6.539   2.466   2.154
 4671SOL    HW214913   6.599   2.492   2.303
 4672SOL     OW14914   2.751   4.178   6.122
 4672SOL    HW114915   2.658   4.211   6.139
 4672SOL    HW214916   2.803   4.248   6.073
 4673SOL     OW14917   4.974   6.585   1.287
 4673SOL    HW114918   4.886   6.633   1.283
 4673SOL    HW214919   5.029   6.608   1.207
 4674SOL     OW14920   4.715   0.002   6.571
 4674SOL    HW114921   4.629   0.040   6.605
 4674SOL    HW214922   4.792   0.055   6.608
 4675SOL     OW14923   0.278   2.286   6.409
 4675SOL    HW114924   0.322   2.241   6.487
 4675SOL    HW214925   0.264   2.383   6.430
 4676SOL     OW14926   6.702   6.111   3.659
 4676SOL    HW114927   6.722   6.172   3.583
 4676SOL    HW214928   6.785   6.094   3.712
 4677SOL     OW14929   2.833   1.305   0.130
 4677SOL    HW114930   2.748   1.256   0.150
 4677SOL    HW214931   2.896   1.244   0.082
 4678SOL     OW14932   1.953   4.572   2.757
 4678SOL    HW114933   1.971   4.547   2.662
 4678SOL    HW214934   1.879   4.515   2.793
 4679SOL     OW14935   3.981   6.958   1.238
 4679SOL    HW114936   3.921   6.906   1.178
 4679SOL    HW214937   3.943   6.960   1.330
 4680SOL     OW14938   3.837   1.235   6.840
 4680SOL    HW114939   3.926   1.197   6.863
 4680SOL    HW214940   3.765   1.170   6.863
 4681SOL     OW14941   5.675   4.973   6.930
 4681SOL    HW114942   5.686   4.988   6.832
 4681SOL    HW214943   5.763   4.951   6.971
 4682SOL     OW14944   4.928   4.483   5.541
 4682SOL    HW114945   4.887   4.423   5.473
 4682SOL    HW214946   4.880   4.571   5.542
 4683SOL     OW14947   4.739   5.098   2.811
 4683SOL    HW114948   4.700   5.034   2.743
 4683SOL    HW214949   4.829   5.066   2.838
 4684SOL     OW14950   5.264   0.229   5.401
 4684SOL    HW114951   5.335   0.198   5.465
 4684SOL    HW214952   5.232   0.319   5.428
 4685SOL     OW14953   1.774   5.222   5.967
 4685SOL    HW114954   1.737   5.157   6.034
 4685SOL    HW214955   1.833   5.173   5.903
 4686SOL     OW14956   4.622   5.501   6.732
 4686SOL    HW114957   4.541   5.460   6.690
 4686SOL    HW214958   4.641   5.590   6.690
 4687SOL     OW14959   5.179   3.235   4.245
 4687SOL    HW114960   5.136   3.217   4.333
 4687SOL    HW214961   5.133   3.311   4.200
 4688SOL     OW14962   5.660   3.845   5.032
 4688SOL    HW114963   5.693   3.936   5.009
 4688SOL    HW214964   5.738   3.783   5.043
 4689SOL     OW14965   4.745   0.709   6.993
 4689SOL    HW114966   4.687   0.645   6.943
 4689SOL    HW214967   4.802   0.760   6.929
 4690SOL     OW14968   1.078   0.209   0.436
 4690SOL    HW114969   1.062   0.226   0.339
 4690SOL    HW214970   1.023   0.272   0.491
 4691SOL     OW14971   2.863   3.958   0.455
 4691SOL    HW114972   2.813   3.881   0.414
 4691SOL    HW214973   2.934   3.922   0.516
 4692SOL     OW14974   5.691   5.430   2.349
 4692SOL    HW114975   5.728   5.350   2.397
 4692SOL    HW214976   5.592   5.425   2.346
 4693SOL     OW14977   1.160   1.615   2.850
 4693SOL    HW114978   1.194   1.700   2.809
 4693SOL    HW214979   1.238   1.560   2.881
 4694SOL     OW14980   2.518   1.226   0.146
 4694SOL    HW114981   2.487   1.241   0.240
 4694SOL    HW214982   2.508   1.311   0.094
 4695SOL     OW14983   1.665   4.552   1.932
 4695SOL    HW114984   1.585   4.508   1.974
 4695SOL    HW214985   1.676   4.518   1.839
 4696SOL     OW14986   0.170   3.976   6.920
 4696SOL    HW114987   0.115   4.054   6.952
 4696SOL    HW214988   0.164   3.902   6.986
 4697SOL     OW14989   1.698   3.979   1.288
 4697SOL    HW114990   1.780   4.035   1.273
 4697SOL    HW214991   1.647   4.017   1.365
 4698SOL     OW14992   4.502   5.949   2.911
 4698SOL    HW114993   4.595   5.984   2.894
 4698SOL    HW214994   4.496   5.920   3.007
 4699SOL     OW14995   1.138   6.441   2.366
 4699SOL    HW114996   1.161   6.480   2.455
 4699SOL    HW214997   1.222   6.412   2.320
 4700SOL     OW14998   6.653   1.305   2.888
 4700SOL    HW114999   6.712   1.374   2.847
 4700SOL    HW215000   6.629   1.236   2.820
 4701SOL     OW15001   3.200   2.479   0.497
 4701SOL    HW115002   3.182   2.411   0.568
 4701SOL    HW215003   3.176   2.570   0.532
 4702SOL     OW15004   4.970   4.964   0.331
 4702SOL    HW115005   4.996   5.027   0.404
 4702SOL    HW215006   4.903   4.899   0.366
 4703SOL     OW15007   0.396   0.332   2.278
 4703SOL    HW115008   0.298   0.325   2.292
 4703SOL    HW215009   0.443   0.266   2.337
 4704SOL     OW15010   6.467   6.881   6.344
 4704SOL    HW115011   6.514   6.804   6.388
 4704SOL    HW215012   6.522   6.914   6.267
 4705SOL     OW15013   4.042   2.715   1.199
 4705SOL    HW115014   4.128   2.665   1.189
 4705SOL    HW215015   3.971   2.669   1.146
 4706SOL     OW15016   2.649   0.200   0.103
 4706SOL    HW115017   2.601   0.156   0.027
 4706SOL    HW215018   2.733   0.243   0.069
 4707SOL     OW15019   1.421   6.887   0.212
 4707SOL    HW115020   1.445   6.983   0.227
 4707SOL    HW215021   1.504   6.833   0.197
 4708SOL     OW15022   1.269   2.492   6.239
 4708SOL    HW115023   1.185   2.453   6.202
 4708SOL    HW215024   1.284   2.583   6.200
 4709SOL     OW15025   4.467   5.374   5.268
 4709SOL    HW115026   4.398   5.302   5.260
 4709SOL    HW215027   4.424   5.457   5.302
 4710SOL     OW15028   4.690   0.111   5.950
 4710SOL    HW115029   4.775   0.063   5.972
 4710SOL    HW215030   4.639   0.058   5.882
 4711SOL     OW15031   6.349   1.585   1.675
 4711SOL    HW115032   6.435   1.558   1.719
 4711SOL    HW215033   6.272   1.567   1.736
 4712SOL     OW15034   2.752   5.239   6.121
 4712SOL    HW115035   2.802   5.325   6.132
 4712SOL    HW215036   2.790   5.188   6.044
 4713SOL     OW15037   3.513   4.460   0.852
 4713SOL    HW115038   3.505   4.388   0.921
 4713SOL    HW215039   3.608   4.492   0.849
 4714SOL     OW15040   0.982   1.456   6.123
 4714SOL    HW115041   0.962   1.481   6.028
 4714SOL    HW215042   0.903   1.475   6.180
 4715SOL     OW15043   5.818   3.409   2.393
 4715SOL    HW115044   5.847   3.423   2.299
 4715SOL    HW215045   5.763   3.326   2.399
 4716SOL     OW15046   4.147   6.806   6.276
 4716SOL    HW115047   4.168   6.904   6.280
 4716SOL    HW215048   4.070   6.792   6.214
 4717SOL     OW15049   0.587   6.183   3.704
 4717SOL    HW115050   0.644   6.263   3.722
 4717SOL    HW215051   0.615   6.140   3.618
 4718SOL     OW15052   6.123   2.143   1.001
 4718SOL    HW115053   6.131   2.101   1.091
 4718SOL    HW215054   6.032   2.125   0.964
 4719SOL     OW15055   4.749   2.938   1.639
 4719SOL    HW115056   4.698   2.959   1.722
 4719SOL    HW215057   4.741   3.015   1.575
 4720SOL     OW15058   2.072   5.158   5.751
 4720SOL    HW115059   2.089   5.251   5.784
 4720SOL    HW215060   1.993   5.157   5.690
 4721SOL     OW15061   6.451   1.602   2.742
 4721SOL    HW115062   6.449   1.697   2.711
 4721SOL    HW215063   6.461   1.542   2.663
 4722SOL     OW15064   1.158   6.063   6.630
 4722SOL    HW115065   1.096   6.094   6.558
 4722SOL    HW215066   1.240   6.120   6.630
 4723SOL     OW15067   2.546   3.360   5.838
 4723SOL    HW115068   2.524   3.262   5.841
 4723SOL    HW215069   2.602   3.384   5.918
 4724SOL     OW15070   6.125   0.070   3.938
 4724SOL    HW115071   6.028   0.064   3.914
 4724SOL    HW215072   6.139   0.030   4.029
 4725SOL     OW15073   6.749   4.997   0.800
 4725SOL    HW115074   6.818   4.948   0.854
 4725SOL    HW215075   6.758   4.971   0.704
 4726SOL     OW15076   1.202   3.167   6.263
 4726SOL    HW115077   1.207   3.070   6.286
 4726SOL    HW215078   1.263   3.187   6.187
 4727SOL     OW15079   1.018   6.566   1.487
 4727SOL    HW115080   0.966   6.636   1.439
 4727SOL    HW215081   0.973   6.477   1.474
 4728SOL     OW15082   5.608   1.615   1.805
 4728SOL    HW115083   5.617   1.526   1.760
 4728SOL    HW215084   5.673   1.621   1.881
 4729SOL     OW15085   4.788   1.373   0.960
 4729SOL    HW115086   4.747   1.292   0.917
 4729SOL    HW215087   4.882   1.352   0.988
 4730SOL     OW15088   3.575   5.671   4.968
 4730SOL    HW115089   3.549   5.765   4.948
 4730SOL    HW215090   3.561   5.654   5.066
 4731SOL     OW15091   3.065   0.150   0.557
 4731SOL    HW115092   3.097   0.227   0.501
 4731SOL    HW215093   2.980   0.114   0.518
 4732SOL     OW15094   0.990   3.993   5.369
 4732SOL    HW115095   1.007   4.024   5.462
 4732SOL    HW215096   1.038   4.053   5.305
 4733SOL     OW15097   2.147   4.013   3.545
 4733SOL    HW115098   2.170   4.083   3.478
 4733SOL    HW215099   2.197   4.031   3.630
 4734SOL     OW15100   4.747   3.644   0.040
 4734SOL    HW115101   4.690   3.671   6.989
 4734SOL    HW215102   4.830   3.699   0.040
 4735SOL     OW15103   0.184   5.117   4.883
 4735SOL    HW115104   0.279   5.147   4.868
 4735SOL    HW215105   0.183   5.045   4.952
 4736SOL     OW15106   6.150   1.541   5.823
 4736SOL    HW115107   6.160   1.523   5.921
 4736SOL    HW215108   6.124   1.636   5.808
 4737SOL     OW15109   3.292   4.311   1.494
 4737SOL    HW115110   3.212   4.362   1.526
 4737SOL    HW215111   3.271   4.213   1.497
 4738SOL     OW15112   1.834   6.525   2.985
 4738SOL    HW115113   1.852   6.535   3.083
 4738SOL    HW215114   1.886   6.593   2.934
 4739SOL     OW15115   4.656   1.921   2.689
 4739SOL    HW115116   4.743   1.898   2.646
 4739SOL    HW215117   4.634   1.854   2.759
 4740SOL     OW15118   0.395   1.801   0.769
 4740SOL    HW115119   0.367   1.723   0.713
 4740SOL    HW215120   0.315   1.855   0.794
 4741SOL     OW15121   5.529   3.951   0.514
 4741SOL    HW115122   5.599   3.881   0.522
 4741SOL    HW215123   5.457   3.921   0.452
 4742SOL     OW15124   3.023   0.157   6.848
 4742SOL    HW115125   3.000   0.072   6.896
 4742SOL    HW215126   2.979   0.157   6.758
 4743SOL     OW15127   1.950   3.450   5.338
 4743SOL    HW115128   2.008   3.513   5.390
 4743SOL    HW215129   2.007   3.398   5.274
 4744SOL     OW15130   2.832   3.646   6.055
 4744SOL    HW115131   2.794   3.712   5.990
 4744SOL    HW215132   2.793   3.663   6.146
 4745SOL     OW15133   3.117   5.444   6.327
 4745SOL    HW115134   3.216   5.457   6.323
 4745SOL    HW215135   3.093   5.395   6.410
 4746SOL     OW15136   5.694   6.460   2.279
 4746SOL    HW115137   5.770   6.498   2.226
 4746SOL    HW215138   5.710   6.362   2.295
 4747SOL     OW15139   2.087   4.085   6.336
 4747SOL    HW115140   2.029   4.096   6.417
 4747SOL    HW215141   2.049   4.139   6.260
 4748SOL     OW15142   1.022   4.844   0.872
 4748SOL    HW115143   0.954   4.773   0.887
 4748SOL    HW215144   1.113   4.802   0.864
 4749SOL     OW15145   3.016   6.039   5.366
 4749SOL    HW115146   3.067   6.033   5.452
 4749SOL    HW215147   2.947   6.111   5.372
 4750SOL     OW15148   0.450   3.604   3.386
 4750SOL    HW115149   0.425   3.656   3.305
 4750SOL    HW215150   0.430   3.507   3.370
 4751SOL     OW15151   3.050   2.544   1.059
 4751SOL    HW115152   3.027   2.466   1.117
 4751SOL    HW215153   2.972   2.607   1.055
 4752SOL     OW15154   3.397   0.509   6.667
 4752SOL    HW115155   3.306   0.497   6.706
 4752SOL    HW215156   3.454   0.429   6.689
 4753SOL     OW15157   4.889   0.604   3.938
 4753SOL    HW115158   4.941   0.690   3.935
 4753SOL    HW215159   4.793   0.625   3.952
 4754SOL     OW15160   6.111   0.117   4.529
 4754SOL    HW115161   6.026   0.073   4.499
 4754SOL    HW215162   6.186   0.050   4.526
 4755SOL     OW15163   2.500   0.534   0.855
 4755SOL    HW115164   2.548   0.619   0.833
 4755SOL    HW215165   2.470   0.536   0.950
 4756SOL     OW15166   6.214   3.503   1.257
 4756SOL    HW115167   6.201   3.594   1.217
 4756SOL    HW215168   6.266   3.446   1.194
 4757SOL     OW15169   2.197   1.696   0.700
 4757SOL    HW115170   2.281   1.714   0.751
 4757SOL    HW215171   2.220   1.665   0.607
 4758SOL     OW15172   1.946   6.142   4.146
 4758SOL    HW115173   1.955   6.123   4.243
 4758SOL    HW215174   1.902   6.231   4.134
 4759SOL     OW15175   5.443   4.925   4.730
 4759SOL    HW115176   5.393   4.987   4.790
 4759SOL    HW215177   5.411   4.831   4.745
 4760SOL     OW15178   3.418   2.035   0.293
 4760SOL    HW115179   3.432   1.970   0.218
 4760SOL    HW215180   3.418   2.128   0.258
 4761SOL     OW15181   0.466   6.027   7.014
 4761SOL    HW115182   0.405   5.957   0.025
 4761SOL    HW215183   0.477   6.014   6.915
 4762SOL     OW15184   1.724   5.792   2.996
 4762SOL    HW115185   1.668   5.850   3.055
 4762SOL    HW215186   1.665   5.741   2.933
 4763SOL     OW15187   6.641   6.296   3.442
 4763SOL    HW115188   6.649   6.395   3.439
 4763SOL    HW215189   6.561   6.270   3.495
 4764SOL     OW15190   4.857   3.845   5.139
 4764SOL    HW115191   4.873   3.888   5.050
 4764SOL    HW215192   4.846   3.746   5.126
 4765SOL     OW15193   4.394   1.079   4.280
 4765SOL    HW115194   4.381   1.168   4.236
 4765SOL    HW215195   4.431   1.015   4.213
 4766SOL     OW15196   5.047   5.681   3.799
 4766SOL    HW115197   5.071   5.775   3.822
 4766SOL    HW215198   5.059   5.666   3.701
 4767SOL     OW15199   3.730   5.121   5.997
 4767SOL    HW115200   3.715   5.027   6.029
 4767SOL    HW215201   3.653   5.148   5.940
 4768SOL     OW15202   3.924   1.183   5.382
 4768SOL    HW115203   3.866   1.258   5.349
 4768SOL    HW215204   4.020   1.205   5.364
 4769SOL     OW15205   5.359   4.582   0.332
 4769SOL    HW115206   5.352   4.607   0.236
 4769SOL    HW215207   5.440   4.526   0.346
 4770SOL     OW15208   1.033   0.554   4.340
 4770SOL    HW115209   0.993   0.594   4.423
 4770SOL    HW215210   0.974   0.573   4.262
 4771SOL     OW15211   3.322   5.563   5.935
 4771SOL    HW115212   3.361   5.603   6.018
 4771SOL    HW215213   3.395   5.545   5.869
 4772SOL     OW15214   3.231   4.567   1.313
 4772SOL    HW115215   3.304   4.565   1.245
 4772SOL    HW215216   3.246   4.494   1.380
 4773SOL     OW15217   6.865   5.810   4.972
 4773SOL    HW115218   6.919   5.726   4.966
 4773SOL    HW215219   6.772   5.788   5.002
 4774SOL     OW15220   1.210   2.250   1.920
 4774SOL    HW115221   1.262   2.302   1.989
 4774SOL    HW215222   1.258   2.164   1.901
 4775SOL     OW15223   5.183   6.445   2.353
 4775SOL    HW115224   5.163   6.445   2.255
 4775SOL    HW215225   5.264   6.389   2.371
 4776SOL     OW15226   1.078   5.843   5.487
 4776SOL    HW115227   1.015   5.921   5.490
 4776SOL    HW215228   1.087   5.804   5.579
 4777SOL     OW15229   2.900   5.037   0.945
 4777SOL    HW115230   2.877   5.109   0.880
 4777SOL    HW215231   2.821   4.978   0.960
 4778SOL     OW15232   6.734   2.867   3.430
 4778SOL    HW115233   6.644   2.901   3.402
 4778SOL    HW215234   6.784   2.837   3.349
 4779SOL     OW15235   6.510   6.707   2.532
 4779SOL    HW115236   6.435   6.720   2.467
 4779SOL    HW215237   6.558   6.794   2.545
 4780SOL     OW15238   6.565   0.702   0.481
 4780SOL    HW115239   6.529   0.795   0.489
 4780SOL    HW215240   6.492   0.637   0.503
 4781SOL     OW15241   1.927   5.987   2.095
 4781SOL    HW115242   1.958   5.923   2.024
 4781SOL    HW215243   1.897   6.072   2.052
 4782SOL     OW15244   4.336   5.806   0.203
 4782SOL    HW115245   4.255   5.861   0.185
 4782SOL    HW215246   4.325   5.715   0.161
 4783SOL     OW15247   5.334   4.709   0.101
 4783SOL    HW115248   5.234   4.711   0.103
 4783SOL    HW215249   5.367   4.791   0.055
 4784SOL     OW15250   5.647   4.109   6.599
 4784SOL    HW115251   5.729   4.118   6.656
 4784SOL    HW215252   5.645   4.017   6.558
 4785SOL     OW15253   6.820   5.949   2.145
 4785SOL    HW115254   6.771   6.001   2.075
 4785SOL    HW215255   6.904   5.912   2.106
 4786SOL     OW15256   2.616   1.858   0.257
 4786SOL    HW115257   2.657   1.772   0.227
 4786SOL    HW215258   2.640   1.874   0.353
 4787SOL     OW15259   4.350   1.397   2.443
 4787SOL    HW115260   4.331   1.495   2.437
 4787SOL    HW215261   4.294   1.357   2.516
 4788SOL     OW15262   0.786   5.650   5.716
 4788SOL    HW115263   0.842   5.583   5.666
 4788SOL    HW215264   0.793   5.632   5.814
 4789SOL     OW15265   5.544   1.498   1.225
 4789SOL    HW115266   5.643   1.504   1.214
 4789SOL    HW215267   5.520   1.412   1.269
 4790SOL     OW15268   6.538   2.475   5.103
 4790SOL    HW115269   6.522   2.540   5.029
 4790SOL    HW215270   6.463   2.478   5.168
 4791SOL     OW15271   6.397   2.495   2.006
 4791SOL    HW115272   6.368   2.573   1.951
 4791SOL    HW215273   6.324   2.427   2.007
 4792SOL     OW15274   2.126   3.536   3.030
 4792SOL    HW115275   2.171   3.580   3.108
 4792SOL    HW215276   2.120   3.601   2.954
 4793SOL     OW15277   2.391   2.727   5.804
 4793SOL    HW115278   2.437   2.703   5.719
 4793SOL    HW215279   2.303   2.769   5.783
 4794SOL     OW15280   4.133   0.645   3.431
 4794SOL    HW115281   4.150   0.550   3.404
 4794SOL    HW215282   4.035   0.657   3.447
 4795SOL     OW15283   6.218   2.523   4.203
 4795SOL    HW115284   6.261   2.553   4.289
 4795SOL    HW215285   6.276   2.454   4.160
 4796SOL     OW15286   5.045   1.630   5.410
 4796SOL    HW115287   5.066   1.534   5.393
 4796SOL    HW215288   5.037   1.646   5.509
 4797SOL     OW15289   1.173   6.287   5.958
 4797SOL    HW115290   1.257   6.247   5.994
 4797SOL    HW215291   1.157   6.375   6.003
 4798SOL     OW15292   0.007   3.269   4.592
 4798SOL    HW115293   6.989   3.275   4.502
 4798SOL    HW215294   0.090   3.324   4.591
 4799SOL     OW15295   5.247   2.412   6.743
 4799SOL    HW115296   5.316   2.447   6.807
 4799SOL    HW215297   5.233   2.314   6.760
 4800SOL     OW15298   3.191   3.072   6.103
 4800SOL    HW115299   3.203   3.053   6.006
 4800SOL    HW215300   3.094   3.087   6.123
 4801SOL     OW15301   2.839   2.294   0.055
 4801SOL    HW115302   2.907   2.248   7.024
 4801SOL    HW215303   2.859   2.275   0.151
 4802SOL     OW15304   0.755   5.872   2.072
 4802SOL    HW115305   0.839   5.858   2.125
 4802SOL    HW215306   0.760   5.819   1.987
 4803SOL     OW15307   1.020   5.553   1.130
 4803SOL    HW115308   1.039   5.567   1.227
 4803SOL    HW215309   1.104   5.566   1.077
 4804SOL     OW15310   5.351   5.720   6.812
 4804SOL    HW115311   5.367   5.817   6.791
 4804SOL    HW215312   5.291   5.713   6.892
 4805SOL     OW15313   5.089   0.990   2.251
 4805SOL    HW115314   5.152   0.996   2.329
 4805SOL    HW215315   5.052   1.081   2.231
 4806SOL     OW15316   0.785   4.718   2.979
 4806SOL    HW115317   0.817   4.812   2.989
 4806SOL    HW215318   0.770   4.679   3.070
 4807SOL     OW15319   0.835   4.494   0.129
 4807SOL    HW115320   0.839   4.592   0.148
 4807SOL    HW215321   0.848   4.442   0.214
 4808SOL     OW15322   5.568   3.833   6.836
 4808SOL    HW115323   5.668   3.828   6.833
 4808SOL    HW215324   5.537   3.831   6.931
 4809SOL     OW15325   3.635   4.412   6.922
 4809SOL    HW115326   3.733   4.417   6.901
 4809SOL    HW215327   3.623   4.379   7.015
 4810SOL     OW15328   1.411   5.141   2.494
 4810SOL    HW115329   1.411   5.041   2.497
 4810SOL    HW215330   1.367   5.176   2.577
 4811SOL     OW15331   2.712   4.101   1.656
 4811SOL    HW115332   2.706   4.201   1.666
 4811SOL    HW215333   2.748   4.079   1.566
 4812SOL     OW15334   6.509   5.136   4.109
 4812SOL    HW115335   6.426   5.141   4.164
 4812SOL    HW215336   6.585   5.177   4.159
 4813SOL     OW15337   5.122   2.023   1.514
 4813SOL    HW115338   5.054   1.960   1.551
 4813SOL    HW215339   5.160   1.984   1.430
 4814SOL     OW15340   6.599   4.004   0.567
 4814SOL    HW115341   6.622   4.098   0.543
 4814SOL    HW215342   6.500   3.991   0.560
 4815SOL     OW15343   5.606   4.852   2.988
 4815SOL    HW115344   5.622   4.792   3.066
 4815SOL    HW215345   5.613   4.799   2.903
 4816SOL     OW15346   1.584   5.078   1.085
 4816SOL    HW115347   1.588   4.996   1.143
 4816SOL    HW215348   1.559   5.157   1.140
 4817SOL     OW15349   0.388   1.911   6.618
 4817SOL    HW115350   0.357   1.944   6.529
 4817SOL    HW215351   0.336   1.957   6.690
 4818SOL     OW15352   0.997   6.385   4.680
 4818SOL    HW115353   1.049   6.332   4.612
 4818SOL    HW215354   0.906   6.405   4.643
 4819SOL     OW15355   1.496   1.782   0.327
 4819SOL    HW115356   1.567   1.780   0.257
 4819SOL    HW215357   1.534   1.751   0.414
 4820SOL     OW15358   6.081   2.665   1.960
 4820SOL    HW115359   6.106   2.581   1.912
 4820SOL    HW215360   6.114   2.744   1.909
 4821SOL     OW15361   1.099   6.162   2.792
 4821SOL    HW115362   1.110   6.063   2.797
 4821SOL    HW215363   1.018   6.190   2.843
 4822SOL     OW15364   2.713   1.848   5.231
 4822SOL    HW115365   2.707   1.833   5.330
 4822SOL    HW215366   2.664   1.932   5.207
 4823SOL     OW15367   1.676   0.987   4.549
 4823SOL    HW115368   1.655   0.956   4.456
 4823SOL    HW215369   1.689   1.086   4.549
 4824SOL     OW15370   4.947   2.505   5.132
 4824SOL    HW115371   4.931   2.498   5.230
 4824SOL    HW215372   5.031   2.456   5.108
 4825SOL     OW15373   1.968   2.808   5.062
 4825SOL    HW115374   1.974   2.868   5.141
 4825SOL    HW215375   1.966   2.863   4.978
 4826SOL     OW15376   5.345   1.787   6.991
 4826SOL    HW115377   5.248   1.764   6.984
 4826SOL    HW215378   5.379   1.817   6.902
 4827SOL     OW15379   6.469   1.682   0.638
 4827SOL    HW115380   6.497   1.770   0.675
 4827SOL    HW215381   6.502   1.609   0.697
 4828SOL     OW15382   5.129   2.098   0.988
 4828SOL    HW115383   5.067   2.100   0.909
 4828SOL    HW215384   5.122   2.010   1.033
 4829SOL     OW15385   4.102   6.647   5.539
 4829SOL    HW115386   4.115   6.579   5.466
 4829SOL    HW215387   4.033   6.713   5.510
 4830SOL     OW15388   4.327   6.202   4.537
 4830SOL    HW115389   4.350   6.133   4.469
 4830SOL    HW215390   4.237   6.239   4.517
 4831SOL     OW15391   1.499   4.412   6.157
 4831SOL    HW115392   1.513   4.490   6.095
 4831SOL    HW215393   1.402   4.390   6.161
 4832SOL     OW15394   3.803   3.980   3.678
 4832SOL    HW115395   3.837   4.009   3.768
 4832SOL    HW215396   3.716   4.027   3.660
 4833SOL     OW15397   5.665   1.502   2.824
 4833SOL    HW115398   5.724   1.566   2.774
 4833SOL    HW215399   5.571   1.537   2.824
 4834SOL     OW15400   3.059   6.226   1.578
 4834SOL    HW115401   3.093   6.291   1.511
 4834SOL    HW215402   3.040   6.138   1.533
 4835SOL     OW15403   5.493   1.886   6.492
 4835SOL    HW115404   5.494   1.957   6.422
 4835SOL    HW215405   5.525   1.800   6.453
 4836SOL     OW15406   5.290   2.171   4.735
 4836SOL    HW115407   5.239   2.085   4.730
 4836SOL    HW215408   5.387   2.152   4.752
 4837SOL     OW15409   0.165   3.879   2.904
 4837SOL    HW115410   0.195   3.879   2.809
 4837SOL    HW215411   0.237   3.918   2.962
 4838SOL     OW15412   1.125   5.278   0.290
 4838SOL    HW115413   1.163   5.202   0.238
 4838SOL    HW215414   1.158   5.274   0.384
 4839SOL     OW15415   1.753   3.702   0.254
 4839SOL    HW115416   1.719   3.788   0.216
 4839SOL    HW215417   1.851   3.710   0.273
 4840SOL     OW15418   7.003   4.715   6.457
 4840SOL    HW115419   6.909   4.702   6.491
 4840SOL    HW215420   0.023   4.783   6.513
 4841SOL     OW15421   2.381   5.348   2.822
 4841SOL    HW115422   2.416   5.411   2.753
 4841SOL    HW215423   2.442   5.348   2.901
 4842SOL     OW15424   3.803   5.163   2.399
 4842SOL    HW115425   3.875   5.100   2.427
 4842SOL    HW215426   3.841   5.255   2.388
 4843SOL     OW15427   6.210   3.202   1.607
 4843SOL    HW115428   6.163   3.178   1.692
 4843SOL    HW215429   6.213   3.122   1.547
 4844SOL     OW15430   0.303   2.868   6.579
 4844SOL    HW115431   0.308   2.775   6.617
 4844SOL    HW215432   0.210   2.885   6.547
 4845SOL     OW15433   5.412   5.057   6.611
 4845SOL    HW115434   5.506   5.024   6.626
 4845SOL    HW215435   5.358   4.985   6.567
 4846SOL     OW15436   7.013   2.287   3.384
 4846SOL    HW115437   6.990   2.279   3.287
 4846SOL    HW215438   0.067   2.344   3.395
 4847SOL     OW15439   2.472   1.002   6.281
 4847SOL    HW115440   2.420   1.083   6.311
 4847SOL    HW215441   2.568   1.027   6.270
 4848SOL     OW15442   1.871   0.978   4.727
 4848SOL    HW115443   1.811   0.976   4.648
 4848SOL    HW215444   1.826   0.933   4.805
 4849SOL     OW15445   1.472   5.995   6.948
 4849SOL    HW115446   1.458   5.917   7.009
 4849SOL    HW215447   1.438   5.972   6.857
 4850SOL     OW15448   4.118   1.243   1.755
 4850SOL    HW115449   4.068   1.179   1.697
 4850SOL    HW215450   4.208   1.206   1.776
 4851SOL     OW15451   3.439   6.693   5.915
 4851SOL    HW115452   3.404   6.665   6.004
 4851SOL    HW215453   3.460   6.791   5.917
 4852SOL     OW15454   2.214   5.754   5.050
 4852SOL    HW115455   2.176   5.807   4.975
 4852SOL    HW215456   2.301   5.795   5.080
 4853SOL     OW15457   3.188   1.379   3.618
 4853SOL    HW115458   3.165   1.295   3.667
 4853SOL    HW215459   3.219   1.448   3.683
 4854SOL     OW15460   4.271   6.441   2.319
 4854SOL    HW115461   4.240   6.525   2.276
 4854SOL    HW215462   4.310   6.461   2.409
 4855SOL     OW15463   5.736   2.882   4.444
 4855SOL    HW115464   5.776   2.944   4.512
 4855SOL    HW215465   5.700   2.801   4.490
 4856SOL     OW15466   1.631   3.252   2.618
 4856SOL    HW115467   1.685   3.329   2.584
 4856SOL    HW215468   1.684   3.201   2.686
 4857SOL     OW15469   2.851   2.197   3.581
 4857SOL    HW115470   2.804   2.274   3.625
 4857SOL    HW215471   2.807   2.112   3.608
 4858SOL     OW15472   6.895   0.162   4.883
 4858SOL    HW115473   6.963   0.214   4.936
 4858SOL    HW215474   6.841   0.104   4.944
 4859SOL     OW15475   0.584   5.416   3.141
 4859SOL    HW115476   0.546   5.405   3.233
 4859SOL    HW215477   0.552   5.342   3.082
 4860SOL     OW15478   4.748   4.806   0.695
 4860SOL    HW115479   4.737   4.710   0.719
 4860SOL    HW215480   4.811   4.850   0.759
 4861SOL     OW15481   6.072   4.994   6.714
 4861SOL    HW115482   6.009   5.072   6.714
 4861SOL    HW215483   6.162   5.024   6.681
 4862SOL     OW15484   2.041   4.366   4.858
 4862SOL    HW115485   1.997   4.299   4.919
 4862SOL    HW215486   2.132   4.333   4.833
 4863SOL     OW15487   5.205   3.201   2.151
 4863SOL    HW115488   5.278   3.251   2.103
 4863SOL    HW215489   5.128   3.263   2.167
 4864SOL     OW15490   3.484   1.552   2.301
 4864SOL    HW115491   3.435   1.620   2.356
 4864SOL    HW215492   3.538   1.599   2.231
 4865SOL     OW15493   1.735   6.202   4.710
 4865SOL    HW115494   1.655   6.193   4.650
 4865SOL    HW215495   1.717   6.271   4.780
 4866SOL     OW15496   6.371   4.888   1.564
 4866SOL    HW115497   6.337   4.893   1.470
 4866SOL    HW215498   6.338   4.804   1.607
 4867SOL     OW15499   4.697   5.747   2.475
 4867SOL    HW115500   4.611   5.747   2.423
 4867SOL    HW215501   4.696   5.672   2.540
 4868SOL     OW15502   0.803   5.253   1.993
 4868SOL    HW115503   0.880   5.287   2.046
 4868SOL    HW215504   0.824   5.160   1.960
 4869SOL     OW15505   0.245   2.135   1.876
 4869SOL    HW115506   0.152   2.105   1.854
 4869SOL    HW215507   0.266   2.110   1.970
 4870SOL     OW15508   6.755   5.991   1.597
 4870SOL    HW115509   6.817   6.029   1.665
 4870SOL    HW215510   6.661   5.997   1.630
 4871SOL     OW15511   0.413   1.496   4.572
 4871SOL    HW115512   0.499   1.452   4.543
 4871SOL    HW215513   0.421   1.595   4.561
 4872SOL     OW15514   6.923   5.941   4.324
 4872SOL    HW115515   6.943   5.947   4.421
 4872SOL    HW215516   7.008   5.932   4.272
 4873SOL     OW15517   6.998   4.694   3.993
 4873SOL    HW115518   0.028   4.666   3.915
 4873SOL    HW215519   6.938   4.769   3.965
 4874SOL     OW15520   6.083   3.384   3.408
 4874SOL    HW115521   6.093   3.483   3.396
 4874SOL    HW215522   6.015   3.365   3.479
 4875SOL     OW15523   5.051   3.190   1.380
 4875SOL    HW115524   5.101   3.107   1.405
 4875SOL    HW215525   5.084   3.266   1.435
 4876SOL     OW15526   5.525   1.203   4.660
 4876SOL    HW115527   5.432   1.176   4.634
 4876SOL    HW215528   5.550   1.286   4.610
 4877SOL     OW15529   6.900   1.839   6.960
 4877SOL    HW115530   6.883   1.826   6.862
 4877SOL    HW215531   6.939   1.755   6.998
 4878SOL     OW15532   5.974   1.316   3.403
 4878SOL    HW115533   5.998   1.381   3.331
 4878SOL    HW215534   5.971   1.223   3.365
 4879SOL     OW15535   4.494   5.144   3.505
 4879SOL    HW115536   4.446   5.124   3.590
 4879SOL    HW215537   4.529   5.238   3.508
 4880SOL     OW15538   6.017   3.207   6.663
 4880SOL    HW115539   6.020   3.295   6.615
 4880SOL    HW215540   5.934   3.158   6.638
 4881SOL     OW15541   2.155   6.934   6.667
 4881SOL    HW115542   2.114   6.849   6.702
 4881SOL    HW215543   2.116   6.955   6.578
 4882SOL     OW15544   5.760   1.669   4.153
 4882SOL    HW115545   5.705   1.640   4.231
 4882SOL    HW215546   5.707   1.658   4.068
 4883SOL     OW15547   5.082   4.886   2.335
 4883SOL    HW115548   4.988   4.893   2.369
 4883SOL    HW215549   5.121   4.798   2.362
 4884SOL     OW15550   3.973   0.273   1.068
 4884SOL    HW115551   3.931   0.303   1.153
 4884SOL    HW215552   4.027   0.348   1.029
 4885SOL     OW15553   2.984   5.940   1.817
 4885SOL    HW115554   2.989   6.033   1.853
 4885SOL    HW215555   3.014   5.876   1.888
 4886SOL     OW15556   6.540   5.753   6.449
 4886SOL    HW115557   6.532   5.709   6.360
 4886SOL    HW215558   6.469   5.718   6.510
 4887SOL     OW15559   7.016   0.491   2.996
 4887SOL    HW115560   0.083   0.453   2.990
 4887SOL    HW215561   7.016   0.584   2.959
 4888SOL     OW15562   1.815   6.409   4.556
 4888SOL    HW115563   1.785   6.330   4.608
 4888SOL    HW215564   1.876   6.465   4.612
 4889SOL     OW15565   6.258   0.558   6.562
 4889SOL    HW115566   6.334   0.495   6.576
 4889SOL    HW215567   6.211   0.535   6.477
 4890SOL     OW15568   0.550   2.078   5.571
 4890SOL    HW115569   0.492   2.160   5.571
 4890SOL    HW215570   0.549   2.037   5.662
 4891SOL     OW15571   1.407   5.938   0.857
 4891SOL    HW115572   1.326   5.984   0.822
 4891SOL    HW215573   1.382   5.880   0.934
 4892SOL     OW15574   2.312   6.527   2.039
 4892SOL    HW115575   2.345   6.593   1.971
 4892SOL    HW215576   2.268   6.450   1.994
 4893SOL     OW15577   7.002   4.252   0.448
 4893SOL    HW115578   6.991   4.208   0.359
 4893SOL    HW215579   6.952   4.199   0.517
 4894SOL     OW15580   2.058   2.365   2.064
 4894SOL    HW115581   2.045   2.457   2.101
 4894SOL    HW215582   1.983   2.306   2.095
 4895SOL     OW15583   0.367   4.437   2.654
 4895SOL    HW115584   0.352   4.346   2.615
 4895SOL    HW215585   0.410   4.428   2.744
 4896SOL     OW15586   2.226   5.322   1.993
 4896SOL    HW115587   2.288   5.400   1.998
 4896SOL    HW215588   2.266   5.251   1.934
 4897SOL     OW15589   2.329   5.075   5.506
 4897SOL    HW115590   2.321   5.060   5.604
 4897SOL    HW215591   2.408   5.134   5.487
 4898SOL     OW15592   4.893   1.005   4.530
 4898SOL    HW115593   4.882   0.907   4.551
 4898SOL    HW215594   4.879   1.019   4.432
 4899SOL     OW15595   6.301   4.911   3.616
 4899SOL    HW115596   6.397   4.910   3.587
 4899SOL    HW215597   6.251   4.980   3.563
 4900SOL     OW15598   1.694   5.712   5.184
 4900SOL    HW115599   1.628   5.638   5.176
 4900SOL    HW215600   1.748   5.719   5.100
 4901SOL     OW15601   2.895   6.563   5.433
 4901SOL    HW115602   2.951   6.594   5.510
 4901SOL    HW215603   2.920   6.613   5.351
 4902SOL     OW15604   2.628   2.363   4.968
 4902SOL    HW115605   2.624   2.385   5.065
 4902SOL    HW215606   2.654   2.267   4.957
 4903SOL     OW15607   2.858   6.581   6.643
 4903SOL    HW115608   2.803   6.661   6.619
 4903SOL    HW215609   2.907   6.599   6.729
 4904SOL     OW15610   0.882   0.373   4.058
 4904SOL    HW115611   0.833   0.444   4.008
 4904SOL    HW215612   0.862   0.380   4.155
 4905SOL     OW15613   4.074   1.174   2.173
 4905SOL    HW115614   4.131   1.245   2.132
 4905SOL    HW215615   3.985   1.173   2.128
 4906SOL     OW15616   4.008   1.448   6.879
 4906SOL    HW115617   4.046   1.471   6.789
 4906SOL    HW215618   3.940   1.376   6.869
 4907SOL     OW15619   4.960   6.130   1.171
 4907SOL    HW115620   5.016   6.197   1.221
 4907SOL    HW215621   4.966   6.149   1.073
 4908SOL     OW15622   5.252   4.883   6.458
 4908SOL    HW115623   5.179   4.951   6.450
 4908SOL    HW215624   5.214   4.797   6.492
 4909SOL     OW15625   6.842   0.414   5.347
 4909SOL    HW115626   6.926   0.450   5.387
 4909SOL    HW215627   6.831   0.448   5.254
 4910SOL     OW15628   5.262   6.761   4.518
 4910SOL    HW115629   5.325   6.796   4.449
 4910SOL    HW215630   5.287   6.796   4.608
 4911SOL     OW15631   6.752   2.827   5.384
 4911SOL    HW115632   6.730   2.795   5.477
 4911SOL    HW215633   6.733   2.754   5.319
 4912SOL     OW15634   5.380   2.639   1.422
 4912SOL    HW115635   5.362   2.610   1.328
 4912SOL    HW215636   5.404   2.736   1.424
 4913SOL     OW15637   4.035   3.518   3.588
 4913SOL    HW115638   4.029   3.559   3.498
 4913SOL    HW215639   4.017   3.587   3.658
 4914SOL     OW15640   2.830   6.700   5.025
 4914SOL    HW115641   2.860   6.740   5.112
 4914SOL    HW215642   2.833   6.600   5.031
 4915SOL     OW15643   4.184   0.292   4.468
 4915SOL    HW115644   4.250   0.217   4.458
 4915SOL    HW215645   4.223   0.375   4.429
 4916SOL     OW15646   2.070   1.403   3.531
 4916SOL    HW115647   2.163   1.414   3.496
 4916SOL    HW215648   2.041   1.488   3.574
 4917SOL     OW15649   1.488   4.972   0.581
 4917SOL    HW115650   1.480   4.882   0.538
 4917SOL    HW215651   1.463   4.966   0.677
 4918SOL     OW15652   2.514   6.906   2.831
 4918SOL    HW115653   2.565   6.859   2.904
 4918SOL    HW215654   2.423   6.866   2.823
 4919SOL     OW15655   1.702   1.559   0.337
 4919SOL    HW115656   1.727   1.599   0.425
 4919SOL    HW215657   1.780   1.564   0.274
 4920SOL     OW15658   4.941   0.596   6.202
 4920SOL    HW115659   4.843   0.603   6.180
 4920SOL    HW215660   4.979   0.514   6.159
 4921SOL     OW15661   1.757   4.399   1.128
 4921SOL    HW115662   1.794   4.307   1.123
 4921SOL    HW215663   1.719   4.425   1.040
 4922SOL     OW15664   1.967   3.026   4.870
 4922SOL    HW115665   1.905   3.043   4.793
 4922SOL    HW215666   2.034   3.100   4.875
 4923SOL     OW15667   3.299   1.186   0.734
 4923SOL    HW115668   3.328   1.255   0.800
 4923SOL    HW215669   3.199   1.177   0.736
 4924SOL     OW15670   1.843   2.467   6.029
 4924SOL    HW115671   1.872   2.551   6.075
 4924SOL    HW215672   1.891   2.389   6.070
 4925SOL     OW15673   5.700   6.532   0.933
 4925SOL    HW115674   5.613   6.579   0.914
 4925SOL    HW215675   5.683   6.455   0.994
 4926SOL     OW15676   4.856   2.476   1.072
 4926SOL    HW115677   4.940   2.434   1.104
 4926SOL    HW215678   4.805   2.514   1.149
 4927SOL     OW15679   3.960   3.882   4.231
 4927SOL    HW115680   4.005   3.800   4.267
 4927SOL    HW215681   3.947   3.948   4.305
 4928SOL     OW15682   0.096   0.124   6.859
 4928SOL    HW115683   0.123   0.031   6.834
 4928SOL    HW215684   0.167   0.166   6.915
 4929SOL     OW15685   1.629   4.409   5.000
 4929SOL    HW115686   1.605   4.317   4.968
 4929SOL    HW215687   1.550   4.451   5.044
 4930SOL     OW15688   5.911   0.628   2.143
 4930SOL    HW115689   5.942   0.543   2.102
 4930SOL    HW215690   5.812   0.624   2.157
 4931SOL     OW15691   6.817   6.811   1.523
 4931SOL    HW115692   6.735   6.866   1.512
 4931SOL    HW215693   6.890   6.868   1.561
 4932SOL     OW15694   2.259   2.795   1.626
 4932SOL    HW115695   2.294   2.810   1.718
 4932SOL    HW215696   2.309   2.720   1.583
 4933SOL     OW15697   2.830   6.463   3.949
 4933SOL    HW115698   2.889   6.383   3.937
 4933SOL    HW215699   2.848   6.528   3.875
 4934SOL     OW15700   1.846   5.046   2.895
 4934SOL    HW115701   1.806   5.056   2.986
 4934SOL    HW215702   1.819   4.959   2.855
 4935SOL     OW15703   1.165   1.483   6.727
 4935SOL    HW115704   1.222   1.564   6.716
 4935SOL    HW215705   1.149   1.466   6.824
 4936SOL     OW15706   2.543   5.361   2.220
 4936SOL    HW115707   2.473   5.380   2.290
 4936SOL    HW215708   2.506   5.382   2.130
 4937SOL     OW15709   6.812   3.079   5.823
 4937SOL    HW115710   6.905   3.084   5.786
 4937SOL    HW215711   6.746   3.108   5.754
 4938SOL     OW15712   2.615   5.518   0.532
 4938SOL    HW115713   2.678   5.441   0.516
 4938SOL    HW215714   2.645   5.570   0.611
 4939SOL     OW15715   1.181   1.637   4.169
 4939SOL    HW115716   1.171   1.588   4.082
 4939SOL    HW215717   1.275   1.669   4.179
 4940SOL     OW15718   0.770   1.270   5.845
 4940SOL    HW115719   0.734   1.200   5.906
 4940SOL    HW215720   0.763   1.360   5.888
 4941SOL     OW15721   4.235   2.342   5.374
 4941SOL    HW115722   4.284   2.372   5.456
 4941SOL    HW215723   4.165   2.410   5.351
 4942SOL     OW15724   5.310   3.075   5.000
 4942SOL    HW115725   5.240   3.145   4.989
 4942SOL    HW215726   5.376   3.082   4.925
 4943SOL     OW15727   5.187   4.132   5.613
 4943SOL    HW115728   5.154   4.115   5.705
 4943SOL    HW215729   5.238   4.053   5.579
 4944SOL     OW15730   2.413   4.437   1.818
 4944SOL    HW115731   2.471   4.395   1.748
 4944SOL    HW215732   2.397   4.532   1.795
 4945SOL     OW15733   1.261   6.724   5.013
 4945SOL    HW115734   1.311   6.809   5.031
 4945SOL    HW215735   1.258   6.708   4.914
 4946SOL     OW15736   1.095   5.376   0.048
 4946SOL    HW115737   1.005   5.383   0.006
 4946SOL    HW215738   1.086   5.345   0.142
 4947SOL     OW15739   2.618   0.293   0.813
 4947SOL    HW115740   2.586   0.387   0.826
 4947SOL    HW215741   2.546   0.240   0.768
 4948SOL     OW15742   2.135   2.433   2.325
 4948SOL    HW115743   2.146   2.404   2.420
 4948SOL    HW215744   2.043   2.468   2.311
 4949SOL     OW15745   6.559   4.041   5.591
 4949SOL    HW115746   6.555   4.047   5.691
 4949SOL    HW215747   6.504   3.963   5.560
 4950SOL     OW15748   2.056   4.381   5.282
 4950SOL    HW115749   2.100   4.370   5.193
 4950SOL    HW215750   2.045   4.293   5.326
 4951SOL     OW15751   6.298   1.037   4.279
 4951SOL    HW115752   6.274   1.064   4.186
 4951SOL    HW215753   6.319   0.939   4.281
 4952SOL     OW15754   0.181   0.019   6.261
 4952SOL    HW115755   0.251   0.018   6.332
 4952SOL    HW215756   0.121   6.966   6.271
 4953SOL     OW15757   1.333   6.944   3.862
 4953SOL    HW115758   1.233   6.939   3.873
 4953SOL    HW215759   1.360   0.014   3.852
 4954SOL     OW15760   3.078   3.273   0.062
 4954SOL    HW115761   2.984   3.243   0.046
 4954SOL    HW215762   3.095   3.359   0.013
 4955SOL     OW15763   2.825   6.647   6.951
 4955SOL    HW115764   2.731   6.618   6.969
 4955SOL    HW215765   2.874   6.657   0.011
 4956SOL     OW15766   2.883   6.974   5.560
 4956SOL    HW115767   2.851   7.007   5.472
 4956SOL    HW215768   2.807   6.929   5.608
 4957SOL     OW15769   6.121   2.498   1.702
 4957SOL    HW115770   6.115   2.403   1.673
 4957SOL    HW215771   6.158   2.554   1.628
 4958SOL     OW15772   0.996   5.267   6.037
 4958SOL    HW115773   1.077   5.245   5.983
 4958SOL    HW215774   1.019   5.336   6.105
 4959SOL     OW15775   6.301   1.791   0.450
 4959SOL    HW115776   6.264   1.716   0.396
 4959SOL    HW215777   6.364   1.754   0.519
 4960SOL     OW15778   3.896   4.943   3.684
 4960SOL    HW115779   3.800   4.935   3.709
 4960SOL    HW215780   3.952   4.892   3.749
 4961SOL     OW15781   3.619   0.901   5.781
 4961SOL    HW115782   3.631   0.808   5.816
 4961SOL    HW215783   3.708   0.944   5.768
 4962SOL     OW15784   5.998   2.763   0.532
 4962SOL    HW115785   5.943   2.680   0.544
 4962SOL    HW215786   6.002   2.813   0.618
 4963SOL     OW15787   0.569   5.884   0.507
 4963SOL    HW115788   0.476   5.920   0.509
 4963SOL    HW215789   0.599   5.871   0.413
 4964SOL     OW15790   2.440   0.153   4.878
 4964SOL    HW115791   2.384   0.233   4.898
 4964SOL    HW215792   2.401   0.105   4.799
 4965SOL     OW15793   0.877   0.178   1.908
 4965SOL    HW115794   0.877   0.129   1.822
 4965SOL    HW215795   0.969   0.213   1.927
 4966SOL     OW15796   2.849   6.426   5.055
 4966SOL    HW115797   2.919   6.372   5.102
 4966SOL    HW215798   2.820   6.377   4.972
 4967SOL     OW15799   3.701   4.938   5.458
 4967SOL    HW115800   3.603   4.951   5.474
 4967SOL    HW215801   3.751   4.953   5.544
 4968SOL     OW15802   0.030   1.052   3.536
 4968SOL    HW115803   0.034   1.122   3.465
 4968SOL    HW215804   0.018   1.096   3.626
 4969SOL     OW15805   1.680   6.133   2.774
 4969SOL    HW115806   1.634   6.083   2.847
 4969SOL    HW215807   1.677   6.078   2.690
 4970SOL     OW15808   2.706   2.061   1.345
 4970SOL    HW115809   2.695   2.137   1.409
 4970SOL    HW215810   2.692   1.974   1.393
 4971SOL     OW15811   5.915   5.376   2.894
 4971SOL    HW115812   5.914   5.281   2.864
 4971SOL    HW215813   5.994   5.423   2.856
 4972SOL     OW15814   1.030   3.540   1.413
 4972SOL    HW115815   1.075   3.494   1.489
 4972SOL    HW215816   1.044   3.638   1.420
 4973SOL     OW15817   1.571   0.249   1.864
 4973SOL    HW115818   1.591   0.182   1.935
 4973SOL    HW215819   1.492   0.304   1.892
 4974SOL     OW15820   6.840   4.560   0.751
 4974SOL    HW115821   6.810   4.476   0.705
 4974SOL    HW215822   6.765   4.597   0.805
 4975SOL     OW15823   6.146   3.899   5.710
 4975SOL    HW115824   6.123   3.802   5.708
 4975SOL    HW215825   6.088   3.946   5.777
 4976SOL     OW15826   2.331   1.776   4.003
 4976SOL    HW115827   2.346   1.714   4.080
 4976SOL    HW215828   2.326   1.724   3.918
 4977SOL     OW15829   4.909   5.048   0.090
 4977SOL    HW115830   4.828   4.995   0.063
 4977SOL    HW215831   4.925   5.036   0.188
 4978SOL     OW15832   6.550   4.411   5.400
 4978SOL    HW115833   6.487   4.488   5.392
 4978SOL    HW215834   6.643   4.441   5.375
 4979SOL     OW15835   6.597   6.859   5.867
 4979SOL    HW115836   6.667   6.790   5.853
 4979SOL    HW215837   6.525   6.848   5.798
 4980SOL     OW15838   5.231   5.592   3.229
 4980SOL    HW115839   5.177   5.531   3.286
 4980SOL    HW215840   5.322   5.552   3.214
 4981SOL     OW15841   3.948   4.943   0.903
 4981SOL    HW115842   3.976   5.009   0.972
 4981SOL    HW215843   3.866   4.895   0.934
 4982SOL     OW15844   3.217   1.289   6.000
 4982SOL    HW115845   3.214   1.221   5.927
 4982SOL    HW215846   3.309   1.295   6.038
 4983SOL     OW15847   6.288   3.547   5.914
 4983SOL    HW115848   6.368   3.592   5.955
 4983SOL    HW215849   6.273   3.459   5.959
 4984SOL     OW15850   5.986   4.444   3.266
 4984SOL    HW115851   5.896   4.462   3.226
 4984SOL    HW215852   5.977   4.373   3.336
 4985SOL     OW15853   5.836   6.989   3.029
 4985SOL    HW115854   5.848   6.934   2.946
 4985SOL    HW215855   5.866   0.057   3.011
 4986SOL     OW15856   0.179   4.986   0.880
 4986SOL    HW115857   0.234   5.062   0.914
 4986SOL    HW215858   0.182   4.985   0.780
 4987SOL     OW15859   0.263   6.345   2.588
 4987SOL    HW115860   0.357   6.373   2.567
 4987SOL    HW215861   0.204   6.426   2.595
 4988SOL     OW15862   5.215   0.984   2.764
 4988SOL    HW115863   5.128   0.938   2.782
 4988SOL    HW215864   5.240   1.040   2.844
 4989SOL     OW15865   5.256   6.534   1.486
 4989SOL    HW115866   5.171   6.582   1.508
 4989SOL    HW215867   5.253   6.441   1.524
 4990SOL     OW15868   2.663   2.177   6.048
 4990SOL    HW115869   2.649   2.220   6.138
 4990SOL    HW215870   2.578   2.134   6.018
 4991SOL     OW15871   6.387   5.376   3.709
 4991SOL    HW115872   6.395   5.285   3.751
 4991SOL    HW215873   6.423   5.373   3.616
 4992SOL     OW15874   4.603   0.510   1.820
 4992SOL    HW115875   4.664   0.443   1.863
 4992SOL    HW215876   4.578   0.580   1.886
 4993SOL     OW15877   3.697   6.085   5.072
 4993SOL    HW115878   3.780   6.029   5.071
 4993SOL    HW215879   3.632   6.049   5.005
 4994SOL     OW15880   1.604   0.305   4.572
 4994SOL    HW115881   1.606   0.205   4.573
 4994SOL    HW215882   1.667   0.340   4.640
 4995SOL     OW15883   0.715   1.942   5.247
 4995SOL    HW115884   0.694   2.039   5.256
 4995SOL    HW215885   0.630   1.890   5.233
 4996SOL     OW15886   0.328   1.379   3.036
 4996SOL    HW115887   0.242   1.328   3.030
 4996SOL    HW215888   0.315   1.458   3.097
 4997SOL     OW15889   4.755   2.606   2.397
 4997SOL    HW115890   4.762   2.566   2.489
 4997SOL    HW215891   4.688   2.556   2.344
 4998SOL     OW15892   2.181   3.354   5.124
 4998SOL    HW115893   2.194   3.258   5.146
 4998SOL    HW215894   2.232   3.410   5.189
 4999SOL     OW15895   6.649   3.586   6.103
 4999SOL    HW115896   6.741   3.576   6.140
 4999SOL    HW215897   6.653   3.638   6.017
 5000SOL     OW15898   3.754   6.729   3.170
 5000SOL    HW115899   3.683   6.799   3.165
 5000SOL    HW215900   3.791   6.714   3.078
 5001SOL     OW15901   0.604   4.267   2.278
 5001SOL    HW115902   0.638   4.274   2.372
 5001SOL    HW215903   0.649   4.336   2.221
 5002SOL     OW15904   0.974   3.293   2.042
 5002SOL    HW115905   0.907   3.367   2.026
 5002SOL    HW215906   1.046   3.298   1.974
 5003SOL     OW15907   3.273   5.257   2.565
 5003SOL    HW115908   3.194   5.259   2.626
 5003SOL    HW215909   3.243   5.253   2.470
 5004SOL     OW15910   2.759   5.043   5.302
 5004SOL    HW115911   2.758   5.038   5.402
 5004SOL    HW215912   2.753   4.950   5.264
 5005SOL     OW15913   3.382   3.046   0.759
 5005SOL    HW115914   3.341   2.979   0.821
 5005SOL    HW215915   3.410   3.127   0.810
 5006SOL     OW15916   4.959   0.604   0.929
 5006SOL    HW115917   4.962   0.686   0.986
 5006SOL    HW215918   4.867   0.594   0.890
 5007SOL     OW15919   0.914   6.387   0.706
 5007SOL    HW115920   0.940   6.335   0.625
 5007SOL    HW215921   0.942   6.483   0.694
 5008SOL     OW15922   5.526   6.217   1.512
 5008SOL    HW115923   5.570   6.196   1.600
 5008SOL    HW215924   5.578   6.289   1.466
 5009SOL     OW15925   0.201   1.297   0.695
 5009SOL    HW115926   0.190   1.207   0.653
 5009SOL    HW215927   0.113   1.328   0.731
 5010SOL     OW15928   4.162   3.368   2.098
 5010SOL    HW115929   4.072   3.336   2.072
 5010SOL    HW215930   4.172   3.364   2.197
 5011SOL     OW15931   1.835   4.223   2.039
 5011SOL    HW115932   1.864   4.315   2.064
 5011SOL    HW215933   1.739   4.210   2.064
 5012SOL     OW15934   5.744   3.791   5.365
 5012SOL    HW115935   5.665   3.850   5.349
 5012SOL    HW215936   5.813   3.842   5.418
 5013SOL     OW15937   5.216   1.440   6.785
 5013SOL    HW115938   5.149   1.378   6.745
 5013SOL    HW215939   5.279   1.388   6.843
 5014SOL     OW15940   6.352   4.375   1.303
 5014SOL    HW115941   6.343   4.456   1.244
 5014SOL    HW215942   6.448   4.364   1.328
 5015SOL     OW15943   4.793   1.806   4.562
 5015SOL    HW115944   4.701   1.838   4.585
 5015SOL    HW215945   4.795   1.706   4.565
 5016SOL     OW15946   1.441   2.902   6.544
 5016SOL    HW115947   1.540   2.908   6.561
 5016SOL    HW215948   1.399   2.840   6.610
 5017SOL     OW15949   2.408   2.898   1.011
 5017SOL    HW115950   2.434   2.811   1.052
 5017SOL    HW215951   2.354   2.882   0.929
 5018SOL     OW15952   1.355   4.066   2.284
 5018SOL    HW115953   1.261   4.062   2.317
 5018SOL    HW215954   1.356   4.050   2.185
 5019SOL     OW15955   0.893   4.837   5.884
 5019SOL    HW115956   0.924   4.880   5.799
 5019SOL    HW215957   0.920   4.895   5.961
 5020SOL     OW15958   5.437   0.239   6.893
 5020SOL    HW115959   5.521   0.272   6.850
 5020SOL    HW215960   5.424   0.286   6.981
 5021SOL     OW15961   0.573   1.288   0.132
 5021SOL    HW115962   0.587   1.304   0.230
 5021SOL    HW215963   0.549   1.192   0.118
 5022SOL     OW15964   1.552   1.033   0.565
 5022SOL    HW115965   1.641   1.021   0.610
 5022SOL    HW215966   1.515   0.944   0.540
 5023SOL     OW15967   0.205   3.445   1.623
 5023SOL    HW115968   0.122   3.492   1.593
 5023SOL    HW215969   0.198   3.424   1.721
 5024SOL     OW15970   6.443   5.412   1.693
 5024SOL    HW115971   6.383   5.364   1.758
 5024SOL    HW215972   6.446   5.509   1.716
 5025SOL     OW15973   3.994   1.508   2.850
 5025SOL    HW115974   4.008   1.440   2.778
 5025SOL    HW215975   3.898   1.505   2.880
 5026SOL     OW15976   5.920   6.004   5.244
 5026SOL    HW115977   5.899   6.100   5.262
 5026SOL    HW215978   5.958   5.963   5.327
 5027SOL     OW15979   0.260   6.284   1.682
 5027SOL    HW115980   0.209   6.236   1.611
 5027SOL    HW215981   0.294   6.371   1.646
 5028SOL     OW15982   0.113   2.207   2.363
 5028SOL    HW115983   0.198   2.186   2.412
 5028SOL    HW215984   0.067   2.283   2.408
 5029SOL     OW15985   6.565   2.346   1.856
 5029SOL    HW115986   6.494   2.414   1.877
 5029SOL    HW215987   6.643   2.391   1.813
 5030SOL     OW15988   6.800   6.591   0.123
 5030SOL    HW115989   6.809   6.644   0.207
 5030SOL    HW215990   6.831   6.645   0.045
 5031SOL     OW15991   6.233   0.239   5.945
 5031SOL    HW115992   6.238   0.326   5.896
 5031SOL    HW215993   6.167   0.179   5.901
 5032SOL     OW15994   1.849   2.275   7.011
 5032SOL    HW115995   1.771   2.229   0.027
 5032SOL    HW215996   1.933   2.249   0.033
 5033SOL     OW15997   2.367   6.696   5.470
 5033SOL    HW115998   2.286   6.692   5.412
 5033SOL    HW215999   2.381   6.607   5.515
 5034SOL     OW16000   5.694   0.256   3.519
 5034SOL    HW116001   5.700   0.337   3.577
 5034SOL    HW216002   5.647   0.280   3.434
 5035SOL     OW16003   0.996   3.446   6.955
 5035SOL    HW116004   1.028   3.536   6.982
 5035SOL    HW216005   1.030   3.424   6.864
 5036SOL     OW16006   0.699   4.976   6.613
 5036SOL    HW116007   0.757   4.922   6.674
 5036SOL    HW216008   0.624   4.920   6.579
 5037SOL     OW16009   5.750   4.094   2.249
 5037SOL    HW116010   5.748   3.996   2.272
 5037SOL    HW216011   5.803   4.143   2.317
 5038SOL     OW16012   3.528   3.966   6.012
 5038SOL    HW116013   3.574   3.878   5.999
 5038SOL    HW216014   3.491   3.971   6.104
 5039SOL     OW16015   2.925   4.453   5.682
 5039SOL    HW116016   2.903   4.359   5.656
 5039SOL    HW216017   2.987   4.492   5.613
 5040SOL     OW16018   1.528   6.122   5.728
 5040SOL    HW116019   1.612   6.091   5.772
 5040SOL    HW216020   1.471   6.044   5.705
 5041SOL     OW16021   2.053   1.745   2.598
 5041SOL    HW116022   2.070   1.841   2.616
 5041SOL    HW216023   2.064   1.727   2.500
 5042SOL     OW16024   6.673   2.758   0.178
 5042SOL    HW116025   6.709   2.712   0.097
 5042SOL    HW216026   6.661   2.691   0.252
 5043SOL     OW16027   3.148   0.105   5.973
 5043SOL    HW116028   3.138   0.023   6.029
 5043SOL    HW216029   3.237   0.147   5.990
 5044SOL     OW16030   0.420   6.552   7.010
 5044SOL    HW116031   0.434   6.632   6.952
 5044SOL    HW216032   0.351   6.492   6.968
 5045SOL     OW16033   4.808   0.518   6.586
 5045SOL    HW116034   4.860   0.450   6.535
 5045SOL    HW216035   4.866   0.562   6.654
 5046SOL     OW16036   3.262   4.091   2.602
 5046SOL    HW116037   3.322   4.156   2.555
 5046SOL    HW216038   3.290   3.998   2.580
 5047SOL     OW16039   1.105   4.130   2.404
 5047SOL    HW116040   1.099   4.216   2.353
 5047SOL    HW216041   1.014   4.089   2.411
 5048SOL     OW16042   0.918   1.795   2.620
 5048SOL    HW116043   0.870   1.721   2.667
 5048SOL    HW216044   0.904   1.786   2.521
 5049SOL     OW16045   5.352   2.184   6.113
 5049SOL    HW116046   5.303   2.269   6.136
 5049SOL    HW216047   5.407   2.199   6.031
 5050SOL     OW16048   1.631   1.602   1.299
 5050SOL    HW116049   1.671   1.692   1.284
 5050SOL    HW216050   1.575   1.604   1.383
 5051SOL     OW16051   4.884   4.887   0.945
 5051SOL    HW116052   4.805   4.947   0.959
 5051SOL    HW216053   4.947   4.896   1.022
 5052SOL     OW16054   2.295   1.198   6.376
 5052SOL    HW116055   2.237   1.240   6.306
 5052SOL    HW216056   2.237   1.149   6.441
 5053SOL     OW16057   2.118   3.762   3.307
 5053SOL    HW116058   2.064   3.820   3.368
 5053SOL    HW216059   2.107   3.666   3.334
 5054SOL     OW16060   3.762   5.505   5.341
 5054SOL    HW116061   3.783   5.411   5.313
 5054SOL    HW216062   3.765   5.512   5.440
 5055SOL     OW16063   1.991   2.056   6.033
 5055SOL    HW116064   2.086   2.088   6.036
 5055SOL    HW216065   1.933   2.119   6.084
 5056SOL     OW16066   6.690   4.328   6.651
 5056SOL    HW116067   6.639   4.297   6.570
 5056SOL    HW216068   6.627   4.340   6.728
 5057SOL     OW16069   6.794   5.714   4.099
 5057SOL    HW116070   6.731   5.763   4.038
 5057SOL    HW216071   6.888   5.726   4.066
 5058SOL     OW16072   2.783   3.428   5.660
 5058SOL    HW116073   2.792   3.468   5.568
 5058SOL    HW216074   2.690   3.392   5.671
 5059SOL     OW16075   5.689   1.052   3.872
 5059SOL    HW116076   5.681   1.118   3.797
 5059SOL    HW216077   5.681   1.100   3.959
 5060SOL     OW16078   0.868   2.155   5.577
 5060SOL    HW116079   0.883   2.095   5.498
 5060SOL    HW216080   0.772   2.179   5.582
 5061SOL     OW16081   4.209   2.415   1.722
 5061SOL    HW116082   4.227   2.506   1.685
 5061SOL    HW216083   4.116   2.412   1.757
 5062SOL     OW16084   4.899   0.903   3.092
 5062SOL    HW116085   4.965   0.850   3.145
 5062SOL    HW216086   4.946   0.952   3.019
 5063SOL     OW16087   1.089   6.689   2.231
 5063SOL    HW116088   1.040   6.668   2.146
 5063SOL    HW216089   1.113   6.605   2.278
 5064SOL     OW16090   5.098   4.059   1.393
 5064SOL    HW116091   5.114   4.148   1.350
 5064SOL    HW216092   5.075   3.992   1.322
 5065SOL     OW16093   1.784   0.320   3.854
 5065SOL    HW116094   1.882   0.301   3.849
 5065SOL    HW216095   1.733   0.236   3.835
 5066SOL     OW16096   4.782   5.034   1.889
 5066SOL    HW116097   4.697   5.080   1.916
 5066SOL    HW216098   4.788   5.033   1.789
 5067SOL     OW16099   4.812   0.770   1.587
 5067SOL    HW116100   4.855   0.822   1.660
 5067SOL    HW216101   4.761   0.832   1.527
 5068SOL     OW16102   3.314   4.699   0.153
 5068SOL    HW116103   3.351   4.618   0.106
 5068SOL    HW216104   3.297   4.771   0.086
 5069SOL     OW16105   2.148   3.636   5.753
 5069SOL    HW116106   2.131   3.638   5.654
 5069SOL    HW216107   2.178   3.544   5.780
 5070SOL     OW16108   4.614   4.949   4.039
 5070SOL    HW116109   4.634   4.938   3.941
 5070SOL    HW216110   4.666   4.881   4.091
 5071SOL     OW16111   4.159   2.157   3.042
 5071SOL    HW116112   4.173   2.224   3.115
 5071SOL    HW216113   4.061   2.139   3.031
 5072SOL     OW16114   1.291   0.193   1.219
 5072SOL    HW116115   1.347   0.185   1.302
 5072SOL    HW216116   1.257   0.103   1.193
 5073SOL     OW16117   0.116   5.835   1.814
 5073SOL    HW116118   0.055   5.768   1.857
 5073SOL    HW216119   0.209   5.799   1.810
 5074SOL     OW16120   3.205   2.935   0.967
 5074SOL    HW116121   3.201   2.892   1.057
 5074SOL    HW216122   3.174   3.030   0.973
 5075SOL     OW16123   1.102   1.787   6.438
 5075SOL    HW116124   1.031   1.847   6.401
 5075SOL    HW216125   1.169   1.842   6.487
 5076SOL     OW16126   3.983   1.249   0.777
 5076SOL    HW116127   3.977   1.206   0.686
 5076SOL    HW216128   4.048   1.325   0.773
 5077SOL     OW16129   1.802   4.743   5.483
 5077SOL    HW116130   1.901   4.733   5.495
 5077SOL    HW216131   1.764   4.796   5.558
 5078SOL     OW16132   1.228   0.594   4.152
 5078SOL    HW116133   1.212   0.530   4.076
 5078SOL    HW216134   1.152   0.587   4.217
 5079SOL     OW16135   2.220   3.042   6.296
 5079SOL    HW116136   2.193   2.954   6.255
 5079SOL    HW216137   2.319   3.054   6.287
 5080SOL     OW16138   6.210   6.750   5.971
 5080SOL    HW116139   6.228   6.848   5.976
 5080SOL    HW216140   6.137   6.733   5.905
 5081SOL     OW16141   2.948   3.217   4.933
 5081SOL    HW116142   2.861   3.176   4.906
 5081SOL    HW216143   2.986   3.268   4.856
 5082SOL     OW16144   4.623   5.905   0.677
 5082SOL    HW116145   4.661   5.821   0.641
 5082SOL    HW216146   4.652   5.982   0.620
 5083SOL     OW16147   1.904   6.837   2.575
 5083SOL    HW116148   1.937   6.788   2.494
 5083SOL    HW216149   1.805   6.850   2.568
 5084SOL     OW16150   0.188   4.707   4.681
 5084SOL    HW116151   0.136   4.632   4.641
 5084SOL    HW216152   0.211   4.774   4.610
 5085SOL     OW16153   4.969   3.128   0.045
 5085SOL    HW116154   5.034   3.146   6.998
 5085SOL    HW216155   4.997   3.046   0.095
 5086SOL     OW16156   1.102   5.564   3.164
 5086SOL    HW116157   1.020   5.522   3.126
 5086SOL    HW216158   1.081   5.602   3.255
 5087SOL     OW16159   1.367   5.312   2.266
 5087SOL    HW116160   1.312   5.243   2.219
 5087SOL    HW216161   1.387   5.281   2.359
 5088SOL     OW16162   6.751   0.860   5.191
 5088SOL    HW116163   6.800   0.831   5.108
 5088SOL    HW216164   6.798   0.937   5.233
 5089SOL     OW16165   4.866   3.930   4.401
 5089SOL    HW116166   4.878   4.029   4.401
 5089SOL    HW216167   4.888   3.894   4.310
 5090SOL     OW16168   2.155   3.863   2.589
 5090SOL    HW116169   2.198   3.814   2.513
 5090SOL    HW216170   2.058   3.877   2.569
 5091SOL     OW16171   0.658   0.280   2.527
 5091SOL    HW116172   0.742   0.294   2.474
 5091SOL    HW216173   0.681   0.264   2.623
 5092SOL     OW16174   3.813   3.254   1.628
 5092SOL    HW116175   3.784   3.159   1.632
 5092SOL    HW216176   3.736   3.313   1.654
 5093SOL     OW16177   2.593   1.354   1.532
 5093SOL    HW116178   2.505   1.319   1.563
 5093SOL    HW216179   2.657   1.357   1.609
 5094SOL     OW16180   2.242   5.595   5.605
 5094SOL    HW116181   2.274   5.690   5.605
 5094SOL    HW216182   2.217   5.569   5.512
 5095SOL     OW16183   5.799   2.580   4.855
 5095SOL    HW116184   5.741   2.547   4.930
 5095SOL    HW216185   5.742   2.627   4.788
 5096SOL     OW16186   4.199   4.346   0.511
 5096SOL    HW116187   4.252   4.421   0.551
 5096SOL    HW216188   4.254   4.262   0.512
 5097SOL     OW16189   1.348   0.864   6.830
 5097SOL    HW116190   1.381   0.773   6.804
 5097SOL    HW216191   1.323   0.864   6.927
 5098SOL     OW16192   1.612   0.789   1.647
 5098SOL    HW116193   1.658   0.730   1.713
 5098SOL    HW216194   1.556   0.734   1.586
 5099SOL     OW16195   0.653   6.217   0.012
 5099SOL    HW116196   0.566   6.168   0.017
 5099SOL    HW216197   0.728   6.153   0.025
 5100SOL     OW16198   4.073   5.590   5.587
 5100SOL    HW116199   4.106   5.528   5.517
 5100SOL    HW216200   4.140   5.663   5.601
 5101SOL     OW16201   5.011   6.153   0.083
 5101SOL    HW116202   4.959   6.106   0.153
 5101SOL    HW216203   4.990   6.251   0.086
 5102SOL     OW16204   5.199   0.591   4.113
 5102SOL    HW116205   5.231   0.623   4.024
 5102SOL    HW216206   5.178   0.493   4.108
 5103SOL     OW16207   0.000   1.963   4.147
 5103SOL    HW116208   7.021   1.888   4.081
 5103SOL    HW216209   6.962   1.946   4.222
 5104SOL     OW16210   1.573   6.692   2.745
 5104SOL    HW116211   1.629   6.771   2.721
 5104SOL    HW216212   1.629   6.610   2.747
 5105SOL     OW16213   3.773   3.024   0.489
 5105SOL    HW116214   3.784   2.935   0.533
 5105SOL    HW216215   3.676   3.041   0.473
 5106SOL     OW16216   3.226   1.079   0.291
 5106SOL    HW116217   3.145   1.137   0.306
 5106SOL    HW216218   3.305   1.137   0.271
 5107SOL     OW16219   3.314   0.561   0.482
 5107SOL    HW116220   3.404   0.573   0.524
 5107SOL    HW216221   3.323   0.571   0.383
 5108SOL     OW16222   3.081   3.941   4.767
 5108SOL    HW116223   2.989   3.971   4.741
 5108SOL    HW216224   3.076   3.870   4.836
 5109SOL     OW16225   1.211   0.728   0.728
 5109SOL    HW116226   1.311   0.735   0.733
 5109SOL    HW216227   1.186   0.645   0.679
 5110SOL     OW16228   0.319   0.565   6.619
 5110SOL    HW116229   0.395   0.519   6.666
 5110SOL    HW216230   0.303   0.519   6.531
 5111SOL     OW16231   2.461   1.650   5.586
 5111SOL    HW116232   2.395   1.575   5.593
 5111SOL    HW216233   2.457   1.706   5.668
 5112SOL     OW16234   1.044   6.973   2.986
 5112SOL    HW116235   1.111   0.002   3.035
 5112SOL    HW216236   1.073   6.877   2.986
 5113SOL     OW16237   2.193   6.515   1.553
 5113SOL    HW116238   2.231   6.533   1.644
 5113SOL    HW216239   2.242   6.569   1.485
 5114SOL     OW16240   3.503   1.902   6.920
 5114SOL    HW116241   3.595   1.906   6.960
 5114SOL    HW216242   3.496   1.821   6.862
 5115SOL     OW16243   2.309   5.027   4.328
 5115SOL    HW116244   2.350   5.040   4.238
 5115SOL    HW216245   2.318   5.112   4.381
 5116SOL     OW16246   5.751   6.800   6.585
 5116SOL    HW116247   5.776   6.884   6.537
 5116SOL    HW216248   5.828   6.737   6.586
 5117SOL     OW16249   2.928   4.834   4.820
 5117SOL    HW116250   2.882   4.771   4.882
 5117SOL    HW216251   2.937   4.791   4.730
 5118SOL     OW16252   5.007   0.706   0.180
 5118SOL    HW116253   4.908   0.693   0.170
 5118SOL    HW216254   5.042   0.760   0.104
 5119SOL     OW16255   5.259   0.707   1.775
 5119SOL    HW116256   5.208   0.624   1.756
 5119SOL    HW216257   5.295   0.704   1.868
 5120SOL     OW16258   3.963   1.578   4.126
 5120SOL    HW116259   3.992   1.499   4.072
 5120SOL    HW216260   3.931   1.651   4.065
 5121SOL     OW16261   2.595   2.039   6.906
 5121SOL    HW116262   2.589   2.129   6.862
 5121SOL    HW216263   2.603   1.968   6.837
 5122SOL     OW16264   3.087   0.198   3.126
 5122SOL    HW116265   3.001   0.201   3.076
 5122SOL    HW216266   3.100   0.283   3.176
 5123SOL     OW16267   5.713   1.461   5.412
 5123SOL    HW116268   5.662   1.406   5.347
 5123SOL    HW216269   5.659   1.473   5.496
 5124SOL     OW16270   3.168   5.031   4.591
 5124SOL    HW116271   3.122   4.942   4.590
 5124SOL    HW216272   3.201   5.051   4.684
 5125SOL     OW16273   6.818   3.108   4.169
 5125SOL    HW116274   6.785   3.100   4.263
 5125SOL    HW216275   6.758   3.057   4.108
 5126SOL     OW16276   6.052   5.380   5.816
 5126SOL    HW116277   6.024   5.306   5.878
 5126SOL    HW216278   5.986   5.455   5.822
 5127SOL     OW16279   0.702   3.989   0.497
 5127SOL    HW116280   0.792   4.029   0.513
 5127SOL    HW216281   0.677   4.001   0.401
 5128SOL     OW16282   6.838   0.435   6.978
 5128SOL    HW116283   6.934   0.451   7.001
 5128SOL    HW216284   6.830   0.349   6.928
 5129SOL     OW16285   4.622   0.182   2.885
 5129SOL    HW116286   4.523   0.164   2.885
 5129SOL    HW216287   4.663   0.145   2.802
 5130SOL     OW16288   1.629   5.375   4.147
 5130SOL    HW116289   1.572   5.297   4.170
 5130SOL    HW216290   1.587   5.427   4.072
 5131SOL     OW16291   2.712   5.030   4.041
 5131SOL    HW116292   2.778   5.106   4.048
 5131SOL    HW216293   2.671   5.030   3.950
 5132SOL     OW16294   3.702   1.743   6.391
 5132SOL    HW116295   3.674   1.769   6.298
 5132SOL    HW216296   3.636   1.678   6.428
 5133SOL     OW16297   2.259   4.833   6.709
 5133SOL    HW116298   2.227   4.752   6.660
 5133SOL    HW216299   2.298   4.898   6.644
 5134SOL     OW16300   6.400   1.009   1.842
 5134SOL    HW116301   6.444   1.061   1.769
 5134SOL    HW216302   6.466   0.946   1.883
 5135SOL     OW16303   5.050   3.565   4.310
 5135SOL    HW116304   4.996   3.488   4.344
 5135SOL    HW216305   5.091   3.614   4.386
 5136SOL     OW16306   5.465   0.821   6.688
 5136SOL    HW116307   5.394   0.772   6.638
 5136SOL    HW216308   5.555   0.792   6.655
 5137SOL     OW16309   5.116   3.163   5.346
 5137SOL    HW116310   5.051   3.093   5.377
 5137SOL    HW216311   5.135   3.226   5.421
 5138SOL     OW16312   4.020   3.798   4.574
 5138SOL    HW116313   3.963   3.872   4.539
 5138SOL    HW216314   4.102   3.789   4.518
 5139SOL     OW16315   0.748   6.964   4.327
 5139SOL    HW116316   0.693   0.021   4.339
 5139SOL    HW216317   0.807   6.975   4.247
 5140SOL     OW16318   3.793   1.694   5.649
 5140SOL    HW116319   3.760   1.788   5.649
 5140SOL    HW216320   3.888   1.692   5.682
 5141SOL     OW16321   6.417   3.837   1.249
 5141SOL    HW116322   6.351   3.912   1.243
 5141SOL    HW216323   6.369   3.752   1.271
 5142SOL     OW16324   5.265   6.408   4.229
 5142SOL    HW116325   5.346   6.456   4.263
 5142SOL    HW216326   5.205   6.474   4.184
 5143SOL     OW16327   0.457   4.431   4.416
 5143SOL    HW116328   0.375   4.443   4.360
 5143SOL    HW216329   0.483   4.519   4.456
 5144SOL     OW16330   1.424   4.921   5.507
 5144SOL    HW116331   1.327   4.932   5.490
 5144SOL    HW216332   1.476   4.977   5.442
 5145SOL     OW16333   3.628   5.917   6.522
 5145SOL    HW116334   3.697   5.874   6.463
 5145SOL    HW216335   3.620   6.014   6.497
 5146SOL     OW16336   3.439   3.994   5.365
 5146SOL    HW116337   3.460   3.900   5.392
 5146SOL    HW216338   3.496   4.020   5.287
 5147SOL     OW16339   6.492   5.695   4.018
 5147SOL    HW116340   6.541   5.613   3.989
 5147SOL    HW216341   6.421   5.717   3.951
 5148SOL     OW16342   6.996   1.013   2.251
 5148SOL    HW116343   0.005   1.090   2.303
 5148SOL    HW216344   0.022   1.003   2.166
 5149SOL     OW16345   6.248   5.405   4.535
 5149SOL    HW116346   6.214   5.319   4.498
 5149SOL    HW216347   6.222   5.413   4.631
 5150SOL     OW16348   2.095   5.158   3.543
 5150SOL    HW116349   2.048   5.118   3.621
 5150SOL    HW216350   2.112   5.255   3.560
 5151SOL     OW16351   0.262   4.041   1.874
 5151SOL    HW116352   0.261   3.978   1.951
 5151SOL    HW216353   0.332   4.111   1.889
 5152SOL     OW16354   1.594   5.197   6.905
 5152SOL    HW116355   1.524   5.255   6.946
 5152SOL    HW216356   1.644   5.248   6.835
 5153SOL     OW16357   0.687   1.991   0.991
 5153SOL    HW116358   0.734   1.905   1.013
 5153SOL    HW216359   0.661   2.038   1.075
 5154SOL     OW16360   0.913   2.658   6.069
 5154SOL    HW116361   0.890   2.597   5.994
 5154SOL    HW216362   0.967   2.734   6.034
 5155SOL     OW16363   3.804   0.208   2.041
 5155SOL    HW116364   3.895   0.214   2.000
 5155SOL    HW216365   3.771   0.114   2.037
 5156SOL     OW16366   5.568   4.564   5.444
 5156SOL    HW116367   5.650   4.601   5.488
 5156SOL    HW216368   5.556   4.469   5.472
 5157SOL     OW16369   3.182   2.186   2.837
 5157SOL    HW116370   3.121   2.234   2.899
 5157SOL    HW216371   3.276   2.216   2.853
 5158SOL     OW16372   4.299   2.316   1.104
 5158SOL    HW116373   4.366   2.251   1.139
 5158SOL    HW216374   4.217   2.267   1.076
 5159SOL     OW16375   5.955   3.036   5.638
 5159SOL    HW116376   5.880   3.082   5.590
 5159SOL    HW216377   6.038   3.041   5.583
 5160SOL     OW16378   0.027   4.497   3.265
 5160SOL    HW116379   6.967   4.447   3.255
 5160SOL    HW216380   0.017   4.589   3.227
 5161SOL     OW16381   1.974   3.317   6.964
 5161SOL    HW116382   1.971   3.281   0.031
 5161SOL    HW216383   1.961   3.241   6.900
 5162SOL     OW16384   0.863   5.455   3.073
 5162SOL    HW116385   0.774   5.456   3.119
 5162SOL    HW216386   0.851   5.430   2.977
 5163SOL     OW16387   3.110   6.871   0.725
 5163SOL    HW116388   3.033   6.853   0.663
 5163SOL    HW216389   3.075   6.906   0.812
 5164SOL     OW16390   3.905   3.259   0.456
 5164SOL    HW116391   3.859   3.171   0.444
 5164SOL    HW216392   3.875   3.323   0.385
 5165SOL     OW16393   0.829   3.942   6.051
 5165SOL    HW116394   0.747   3.891   6.075
 5165SOL    HW216395   0.870   3.981   6.134
 5166SOL     OW16396   2.117   5.025   2.276
 5166SOL    HW116397   2.125   4.959   2.202
 5166SOL    HW216398   2.124   5.118   2.239
 5167SOL     OW16399   6.291   4.378   5.717
 5167SOL    HW116400   6.344   4.326   5.650
 5167SOL    HW216401   6.254   4.315   5.786
 5168SOL     OW16402   5.175   3.555   2.653
 5168SOL    HW116403   5.256   3.502   2.679
 5168SOL    HW216404   5.093   3.498   2.663
 5169SOL     OW16405   4.023   2.036   3.373
 5169SOL    HW116406   4.051   2.021   3.468
 5169SOL    HW216407   3.951   1.971   3.349
 5170SOL     OW16408   1.397   3.691   4.952
 5170SOL    HW116409   1.321   3.726   4.898
 5170SOL    HW216410   1.372   3.691   5.049
 5171SOL     OW16411   0.431   3.556   6.021
 5171SOL    HW116412   0.526   3.524   6.026
 5171SOL    HW216413   0.416   3.625   6.092
 5172SOL     OW16414   1.763   3.412   2.428
 5172SOL    HW116415   1.820   3.463   2.362
 5172SOL    HW216416   1.722   3.334   2.382
 5173SOL     OW16417   3.924   5.180   5.567
 5173SOL    HW116418   3.957   5.188   5.661
 5173SOL    HW216419   3.840   5.232   5.556
 5174SOL     OW16420   2.529   4.876   3.239
 5174SOL    HW116421   2.469   4.843   3.312
 5174SOL    HW216422   2.474   4.926   3.172
 5175SOL     OW16423   2.946   3.458   6.370
 5175SOL    HW116424   3.026   3.477   6.427
 5175SOL    HW216425   2.975   3.444   6.275
 5176SOL     OW16426   5.132   3.828   6.867
 5176SOL    HW116427   5.062   3.772   6.824
 5176SOL    HW216428   5.156   3.904   6.807
 5177SOL     OW16429   5.150   6.716   0.780
 5177SOL    HW116430   5.134   6.629   0.733
 5177SOL    HW216431   5.110   6.790   0.727
 5178SOL     OW16432   1.429   4.208   2.711
 5178SOL    HW116433   1.494   4.284   2.718
 5178SOL    HW216434   1.467   4.127   2.756
 5179SOL     OW16435   4.583   4.549   3.876
 5179SOL    HW116436   4.501   4.572   3.823
 5179SOL    HW216437   4.560   4.541   3.972
 5180SOL     OW16438   3.232   1.612   1.347
 5180SOL    HW116439   3.237   1.618   1.446
 5180SOL    HW216440   3.265   1.522   1.317
 5181SOL     OW16441   5.140   0.741   2.171
 5181SOL    HW116442   5.130   0.828   2.219
 5181SOL    HW216443   5.219   0.692   2.208
 5182SOL     OW16444   4.580   4.565   1.957
 5182SOL    HW116445   4.497   4.585   2.009
 5182SOL    HW216446   4.585   4.467   1.939
 5183SOL     OW16447   3.394   1.781   2.959
 5183SOL    HW116448   3.324   1.804   3.027
 5183SOL    HW216449   3.373   1.692   2.919
 5184SOL     OW16450   1.370   2.461   3.618
 5184SOL    HW116451   1.440   2.512   3.568
 5184SOL    HW216452   1.280   2.493   3.593
 5185SOL     OW16453   4.945   1.128   2.891
 5185SOL    HW116454   4.853   1.167   2.884
 5185SOL    HW216455   4.957   1.058   2.820
 5186SOL     OW16456   5.851   1.000   6.600
 5186SOL    HW116457   5.931   1.021   6.656
 5186SOL    HW216458   5.802   1.084   6.580
 5187SOL     OW16459   1.266   5.955   5.316
 5187SOL    HW116460   1.185   5.925   5.367
 5187SOL    HW216461   1.273   6.054   5.321
 5188SOL     OW16462   6.873   5.707   1.542
 5188SOL    HW116463   6.914   5.799   1.548
 5188SOL    HW216464   6.793   5.710   1.483
 5189SOL     OW16465   4.345   5.888   0.755
 5189SOL    HW116466   4.290   5.881   0.672
 5189SOL    HW216467   4.421   5.823   0.751
 5190SOL     OW16468   0.697   3.455   4.401
 5190SOL    HW116469   0.628   3.394   4.363
 5190SOL    HW216470   0.755   3.489   4.327
 5191SOL     OW16471   3.780   6.814   2.552
 5191SOL    HW116472   3.831   6.780   2.473
 5191SOL    HW216473   3.689   6.844   2.523
 5192SOL     OW16474   1.813   5.972   1.489
 5192SOL    HW116475   1.897   5.935   1.528
 5192SOL    HW216476   1.778   6.045   1.548
 5193SOL     OW16477   5.392   5.611   5.768
 5193SOL    HW116478   5.462   5.682   5.756
 5193SOL    HW216479   5.386   5.587   5.865
 5194SOL     OW16480   4.012   2.299   0.135
 5194SOL    HW116481   3.972   2.214   0.100
 5194SOL    HW216482   3.975   2.376   0.084
 5195SOL     OW16483   0.346   0.506   4.013
 5195SOL    HW116484   0.409   0.496   3.936
 5195SOL    HW216485   0.303   0.418   4.033
 5196SOL     OW16486   4.851   0.070   2.047
 5196SOL    HW116487   4.880   7.004   2.023
 5196SOL    HW216488   4.796   0.068   2.131
 5197SOL     OW16489   2.338   3.977   6.521
 5197SOL    HW116490   2.320   3.882   6.545
 5197SOL    HW216491   2.331   3.988   6.422
 5198SOL     OW16492   4.823   6.179   3.491
 5198SOL    HW116493   4.768   6.095   3.490
 5198SOL    HW216494   4.768   6.254   3.527
 5199SOL     OW16495   1.009   6.233   0.217
 5199SOL    HW116496   0.951   6.154   0.236
 5199SOL    HW216497   1.102   6.202   0.196
 5200SOL     OW16498   6.881   3.868   5.420
 5200SOL    HW116499   6.819   3.931   5.374
 5200SOL    HW216500   6.945   3.829   5.354
 5201SOL     OW16501   0.784   6.793   2.789
 5201SOL    HW116502   0.794   6.864   2.719
 5201SOL    HW216503   0.801   6.703   2.749
 5202SOL     OW16504   4.644   2.801   6.438
 5202SOL    HW116505   4.698   2.810   6.522
 5202SOL    HW216506   4.548   2.822   6.459
 5203SOL     OW16507   2.191   2.459   6.753
 5203SOL    HW116508   2.202   2.558   6.738
 5203SOL    HW216509   2.096   2.440   6.777
 5204SOL     OW16510   3.443   5.135   6.533
 5204SOL    HW116511   3.507   5.127   6.456
 5204SOL    HW216512   3.362   5.080   6.513
 5205SOL     OW16513   0.494   6.746   0.678
 5205SOL    HW116514   0.418   6.709   0.732
 5205SOL    HW216515   0.534   6.824   0.726
 5206SOL     OW16516   0.090   4.031   5.602
 5206SOL    HW116517   0.005   3.984   5.579
 5206SOL    HW216518   0.149   4.034   5.521
 5207SOL     OW16519   0.897   6.081   3.715
 5207SOL    HW116520   0.953   6.077   3.798
 5207SOL    HW216521   0.803   6.104   3.740
 5208SOL     OW16522   3.245   1.900   6.644
 5208SOL    HW116523   3.224   1.867   6.552
 5208SOL    HW216524   3.344   1.906   6.655
 5209SOL     OW16525   5.830   6.108   3.499
 5209SOL    HW116526   5.756   6.044   3.519
 5209SOL    HW216527   5.802   6.200   3.524
 5210SOL     OW16528   5.425   2.355   5.459
 5210SOL    HW116529   5.386   2.397   5.541
 5210SOL    HW216530   5.400   2.409   5.378
 5211SOL     OW16531   3.388   2.963   4.751
 5211SOL    HW116532   3.430   2.886   4.798
 5211SOL    HW216533   3.321   3.006   4.812
 5212SOL     OW16534   6.094   1.729   0.845
 5212SOL    HW116535   6.173   1.785   0.822
 5212SOL    HW216536   6.010   1.778   0.820
 5213SOL     OW16537   4.537   3.957   6.882
 5213SOL    HW116538   4.541   4.013   6.799
 5213SOL    HW216539   4.625   3.962   6.930
 5214SOL     OW16540   4.599   1.606   5.605
 5214SOL    HW116541   4.618   1.609   5.507
 5214SOL    HW216542   4.635   1.521   5.643
 5215SOL     OW16543   5.935   4.861   3.357
 5215SOL    HW116544   5.939   4.955   3.324
 5215SOL    HW216545   6.001   4.805   3.307
 5216SOL     OW16546   4.383   5.390   1.731
 5216SOL    HW116547   4.316   5.363   1.800
 5216SOL    HW216548   4.397   5.316   1.666
 5217SOL     OW16549   3.133   5.569   4.603
 5217SOL    HW116550   3.205   5.518   4.556
 5217SOL    HW216551   3.080   5.621   4.536
 5218SOL     OW16552   1.267   0.875   4.081
 5218SOL    HW116553   1.245   0.792   4.132
 5218SOL    HW216554   1.287   0.851   3.986
 5219SOL     OW16555   4.151   0.763   5.862
 5219SOL    HW116556   4.240   0.737   5.826
 5219SOL    HW216557   4.161   0.800   5.954
 5220SOL     OW16558   1.538   5.714   2.576
 5220SOL    HW116559   1.626   5.676   2.549
 5220SOL    HW216560   1.480   5.725   2.495
 5221SOL     OW16561   5.565   2.164   3.974
 5221SOL    HW116562   5.498   2.117   3.915
 5221SOL    HW216563   5.614   2.096   4.028
 5222SOL     OW16564   3.218   6.174   3.526
 5222SOL    HW116565   3.205   6.078   3.550
 5222SOL    HW216566   3.290   6.181   3.457
 5223SOL     OW16567   5.915   1.711   1.080
 5223SOL    HW116568   5.974   1.680   1.006
 5223SOL    HW216569   5.875   1.632   1.127
 5224SOL     OW16570   0.191   2.535   3.995
 5224SOL    HW116571   0.211   2.485   3.911
 5224SOL    HW216572   0.123   2.484   4.048
 5225SOL     OW16573   0.390   0.399   3.205
 5225SOL    HW116574   0.334   0.425   3.126
 5225SOL    HW216575   0.331   0.356   3.274
 5226SOL     OW16576   0.103   5.708   4.817
 5226SOL    HW116577   0.172   5.639   4.794
 5226SOL    HW216578   0.147   5.787   4.860
 5227SOL     OW16579   1.528   3.617   3.959
 5227SOL    HW116580   1.564   3.576   3.875
 5227SOL    HW216581   1.586   3.694   3.986
 5228SOL     OW16582   6.476   2.177   1.181
 5228SOL    HW116583   6.533   2.185   1.099
 5228SOL    HW216584   6.380   2.169   1.154
 5229SOL     OW16585   2.027   5.476   0.212
 5229SOL    HW116586   1.999   5.475   0.116
 5229SOL    HW216587   2.088   5.398   0.230
 5230SOL     OW16588   0.667   6.338   0.839
 5230SOL    HW116589   0.750   6.380   0.802
 5230SOL    HW216590   0.685   6.242   0.861
 5231SOL     OW16591   4.157   3.527   5.163
 5231SOL    HW116592   4.085   3.583   5.204
 5231SOL    HW216593   4.240   3.533   5.219
 5232SOL     OW16594   3.367   2.086   5.656
 5232SOL    HW116595   3.327   2.070   5.566
 5232SOL    HW216596   3.366   2.184   5.675
 5233SOL     OW16597   5.806   0.520   1.834
 5233SOL    HW116598   5.859   0.604   1.834
 5233SOL    HW216599   5.715   0.539   1.797
 5234SOL     OW16600   2.577   0.620   0.142
 5234SOL    HW116601   2.485   0.655   0.125
 5234SOL    HW216602   2.573   0.522   0.161
 5235SOL     OW16603   2.020   3.209   1.083
 5235SOL    HW116604   1.969   3.228   1.167
 5235SOL    HW216605   2.092   3.143   1.102
 5236SOL     OW16606   5.665   3.925   2.751
 5236SOL    HW116607   5.762   3.933   2.732
 5236SOL    HW216608   5.633   3.833   2.728
 5237SOL     OW16609   1.899   0.576   5.149
 5237SOL    HW116610   1.822   0.513   5.161
 5237SOL    HW216611   1.951   0.582   5.234
 5238SOL     OW16612   1.658   4.477   0.680
 5238SOL    HW116613   1.655   4.536   0.761
 5238SOL    HW216614   1.734   4.413   0.687
 5239SOL     OW16615   4.121   3.257   4.159
 5239SOL    HW116616   4.105   3.216   4.069
 5239SOL    HW216617   4.218   3.252   4.181
 5240SOL     OW16618   3.237   1.995   6.300
 5240SOL    HW116619   3.320   2.027   6.256
 5240SOL    HW216620   3.159   2.048   6.267
 5241SOL     OW16621   0.454   5.448   5.864
 5241SOL    HW116622   0.505   5.533   5.851
 5241SOL    HW216623   0.519   5.374   5.883
 5242SOL     OW16624   6.568   6.282   6.298
 5242SOL    HW116625   6.527   6.254   6.211
 5242SOL    HW216626   6.551   6.212   6.367
 5243SOL     OW16627   1.174   5.732   1.744
 5243SOL    HW116628   1.102   5.677   1.786
 5243SOL    HW216629   1.256   5.676   1.733
 5244SOL     OW16630   3.448   4.269   5.781
 5244SOL    HW116631   3.426   4.296   5.875
 5244SOL    HW216632   3.375   4.298   5.720
 5245SOL     OW16633   5.062   4.551   0.325
 5245SOL    HW116634   5.149   4.563   0.373
 5245SOL    HW216635   5.045   4.630   0.266
 5246SOL     OW16636   5.622   4.213   2.541
 5246SOL    HW116637   5.580   4.126   2.567
 5246SOL    HW216638   5.572   4.252   2.464
 5247SOL     OW16639   1.011   6.878   0.251
 5247SOL    HW116640   1.068   6.797   0.252
 5247SOL    HW216641   0.917   6.852   0.229
 5248SOL     OW16642   5.719   0.702   4.429
 5248SOL    HW116643   5.756   0.780   4.480
 5248SOL    HW216644   5.703   0.729   4.335
 5249SOL     OW16645   6.821   4.621   4.725
 5249SOL    HW116646   6.869   4.696   4.678
 5249SOL    HW216647   6.887   4.569   4.779
 5250SOL     OW16648   0.711   1.131   5.576
 5250SOL    HW116649   0.706   1.037   5.610
 5250SOL    HW216650   0.692   1.195   5.651
 5251SOL     OW16651   0.683   3.496   0.338
 5251SOL    HW116652   0.667   3.492   0.240
 5251SOL    HW216653   0.766   3.444   0.361
 5252SOL     OW16654   2.274   5.830   0.800
 5252SOL    HW116655   2.316   5.779   0.875
 5252SOL    HW216656   2.268   5.772   0.719
 5253SOL     OW16657   5.476   3.743   4.651
 5253SOL    HW116658   5.558   3.747   4.594
 5253SOL    HW216659   5.479   3.818   4.718
 5254SOL     OW16660   4.623   1.413   3.182
 5254SOL    HW116661   4.621   1.390   3.280
 5254SOL    HW216662   4.718   1.410   3.150
 5255SOL     OW16663   4.620   0.786   5.871
 5255SOL    HW116664   4.539   0.771   5.814
 5255SOL    HW216665   4.654   0.879   5.856
 5256SOL     OW16666   4.538   0.731   3.656
 5256SOL    HW116667   4.518   0.702   3.749
 5256SOL    HW216668   4.595   0.663   3.611
 5257SOL     OW16669   4.708   6.504   2.025
 5257SOL    HW116670   4.617   6.486   2.062
 5257SOL    HW216671   4.710   6.596   1.985
 5258SOL     OW16672   5.204   3.369   1.517
 5258SOL    HW116673   5.268   3.367   1.593
 5258SOL    HW216674   5.141   3.446   1.530
 5259SOL     OW16675   4.701   5.990   0.943
 5259SOL    HW116676   4.672   5.975   0.849
 5259SOL    HW216677   4.633   5.952   1.005
 5260SOL     OW16678   5.512   3.624   0.731
 5260SOL    HW116679   5.606   3.652   0.712
 5260SOL    HW216680   5.472   3.583   0.650
 5261SOL     OW16681   1.960   3.188   6.718
 5261SOL    HW116682   1.879   3.133   6.741
 5261SOL    HW216683   2.012   3.141   6.647
 5262SOL     OW16684   2.566   0.556   2.948
 5262SOL    HW116685   2.475   0.520   2.970
 5262SOL    HW216686   2.556   0.636   2.888
 5263SOL     OW16687   1.279   0.818   5.409
 5263SOL    HW116688   1.218   0.885   5.368
 5263SOL    HW216689   1.318   0.760   5.338
 5264SOL     OW16690   5.685   1.104   2.241
 5264SOL    HW116691   5.687   1.051   2.326
 5264SOL    HW216692   5.675   1.042   2.163
 5265SOL     OW16693   5.201   4.213   3.421
 5265SOL    HW116694   5.284   4.246   3.375
 5265SOL    HW216695   5.121   4.255   3.378
 5266SOL     OW16696   2.746   0.183   2.076
 5266SOL    HW116697   2.658   0.227   2.096
 5266SOL    HW216698   2.815   0.254   2.060
 5267SOL     OW16699   4.841   4.295   5.730
 5267SOL    HW116700   4.891   4.333   5.653
 5267SOL    HW216701   4.758   4.250   5.698
 5268SOL     OW16702   6.068   0.088   6.482
 5268SOL    HW116703   6.107   0.122   6.568
 5268SOL    HW216704   5.972   0.117   6.475
 5269SOL     OW16705   1.903   6.874   4.341
 5269SOL    HW116706   1.971   6.929   4.294
 5269SOL    HW216707   1.812   6.897   4.306
 5270SOL     OW16708   5.083   2.086   2.181
 5270SOL    HW116709   5.101   2.057   2.087
 5270SOL    HW216710   5.159   2.059   2.240
 5271SOL     OW16711   5.507   5.026   5.183
 5271SOL    HW116712   5.588   5.085   5.186
 5271SOL    HW216713   5.507   4.967   5.264
 5272SOL     OW16714   1.946   6.612   2.091
 5272SOL    HW116715   1.951   6.566   2.003
 5272SOL    HW216716   1.997   6.698   2.086
 5273SOL     OW16717   6.788   3.164   3.204
 5273SOL    HW116718   6.757   3.152   3.299
 5273SOL    HW216719   6.760   3.085   3.150
 5274SOL     OW16720   6.510   6.261   2.491
 5274SOL    HW116721   6.595   6.233   2.447
 5274SOL    HW216722   6.448   6.182   2.497
 5275SOL     OW16723   3.643   2.245   6.312
 5275SOL    HW116724   3.731   2.280   6.278
 5275SOL    HW216725   3.659   2.180   6.386
 5276SOL     OW16726   1.348   0.769   1.093
 5276SOL    HW116727   1.316   0.682   1.132
 5276SOL    HW216728   1.387   0.752   1.002
 5277SOL     OW16729   1.669   2.167   3.072
 5277SOL    HW116730   1.592   2.167   3.137
 5277SOL    HW216731   1.736   2.235   3.100
 5278SOL     OW16732   4.626   0.225   4.144
 5278SOL    HW116733   4.613   0.150   4.079
 5278SOL    HW216734   4.701   0.204   4.206
 5279SOL     OW16735   1.384   5.137   6.505
 5279SOL    HW116736   1.346   5.057   6.551
 5279SOL    HW216737   1.312   5.204   6.490
 5280SOL     OW16738   3.219   6.384   5.665
 5280SOL    HW116739   3.255   6.328   5.739
 5280SOL    HW216740   3.266   6.473   5.665
 5281SOL     OW16741   0.973   1.465   3.219
 5281SOL    HW116742   0.903   1.477   3.289
 5281SOL    HW216743   0.986   1.551   3.169
 5282SOL     OW16744   2.251   1.547   3.338
 5282SOL    HW116745   2.282   1.512   3.250
 5282SOL    HW216746   2.169   1.602   3.325
 5283SOL     OW16747   3.441   6.898   2.090
 5283SOL    HW116748   3.401   6.941   2.170
 5283SOL    HW216749   3.533   6.933   2.075
 5284SOL     OW16750   5.529   3.460   3.010
 5284SOL    HW116751   5.563   3.551   2.986
 5284SOL    HW216752   5.502   3.412   2.927
 5285SOL     OW16753   1.737   4.088   4.422
 5285SOL    HW116754   1.800   4.037   4.363
 5285SOL    HW216755   1.656   4.112   4.369
 5286SOL     OW16756   0.196   3.950   0.969
 5286SOL    HW116757   0.151   3.884   1.029
 5286SOL    HW216758   0.160   4.041   0.987
 5287SOL     OW16759   1.730   6.174   1.684
 5287SOL    HW116760   1.634   6.168   1.712
 5287SOL    HW216761   1.785   6.208   1.759
 5288SOL     OW16762   3.755   0.753   2.457
 5288SOL    HW116763   3.693   0.715   2.526
 5288SOL    HW216764   3.723   0.726   2.366
 5289SOL     OW16765   1.687   5.481   6.436
 5289SOL    HW116766   1.658   5.417   6.507
 5289SOL    HW216767   1.708   5.430   6.352
 5290SOL     OW16768   1.801   4.296   5.461
 5290SOL    HW116769   1.788   4.366   5.391
 5290SOL    HW216770   1.878   4.237   5.435
 5291SOL     OW16771   3.031   4.950   5.538
 5291SOL    HW116772   2.931   4.954   5.547
 5291SOL    HW216773   3.061   5.017   5.471
 5292SOL     OW16774   6.300   4.992   0.361
 5292SOL    HW116775   6.277   5.089   0.364
 5292SOL    HW216776   6.395   4.979   0.390
 5293SOL     OW16777   1.160   0.323   4.004
 5293SOL    HW116778   1.159   0.299   3.907
 5293SOL    HW216779   1.066   0.329   4.038
 5294SOL     OW16780   6.365   2.948   4.618
 5294SOL    HW116781   6.356   2.889   4.697
 5294SOL    HW216782   6.313   2.910   4.541
 5295SOL     OW16783   4.163   0.832   2.642
 5295SOL    HW116784   4.233   0.832   2.571
 5295SOL    HW216785   4.198   0.785   2.723
 5296SOL     OW16786   2.357   5.037   0.584
 5296SOL    HW116787   2.433   5.004   0.528
 5296SOL    HW216788   2.393   5.074   0.670
 5297SOL     OW16789   3.074   2.363   0.724
 5297SOL    HW116790   3.033   2.454   0.728
 5297SOL    HW216791   3.084   2.327   0.816
 5298SOL     OW16792   1.375   5.840   6.658
 5298SOL    HW116793   1.293   5.797   6.697
 5298SOL    HW216794   1.446   5.772   6.646
 5299SOL     OW16795   2.714   2.279   0.870
 5299SOL    HW116796   2.791   2.341   0.859
 5299SOL    HW216797   2.742   2.199   0.924
 5300SOL     OW16798   0.897   6.316   1.510
 5300SOL    HW116799   0.810   6.332   1.558
 5300SOL    HW216800   0.966   6.287   1.576
 5301SOL     OW16801   3.446   2.495   6.386
 5301SOL    HW116802   3.544   2.491   6.408
 5301SOL    HW216803   3.431   2.458   6.295
 5302SOL     OW16804   5.742   5.475   3.664
 5302SOL    HW116805   5.707   5.450   3.573
 5302SOL    HW216806   5.840   5.493   3.658
 5303SOL     OW16807   6.822   6.011   3.005
 5303SOL    HW116808   6.905   6.034   2.954
 5303SOL    HW216809   6.805   6.081   3.074
 5304SOL     OW16810   5.270   1.688   6.368
 5304SOL    HW116811   5.307   1.673   6.459
 5304SOL    HW216812   5.214   1.771   6.367
 5305SOL     OW16813   1.186   5.346   3.329
 5305SOL    HW116814   1.101   5.304   3.363
 5305SOL    HW216815   1.164   5.432   3.282
 5306SOL     OW16816   0.707   4.498   5.343
 5306SOL    HW116817   0.652   4.446   5.409
 5306SOL    HW216818   0.665   4.492   5.253
 5307SOL     OW16819   4.224   0.268   0.673
 5307SOL    HW116820   4.269   0.356   0.690
 5307SOL    HW216821   4.130   0.271   0.709
 5308SOL     OW16822   0.859   6.215   3.428
 5308SOL    HW116823   0.793   6.164   3.484
 5308SOL    HW216824   0.938   6.239   3.484
 5309SOL     OW16825   4.202   4.675   1.526
 5309SOL    HW116826   4.268   4.750   1.533
 5309SOL    HW216827   4.152   4.683   1.440
 5310SOL     OW16828   6.494   3.622   1.968
 5310SOL    HW116829   6.514   3.715   1.997
 5310SOL    HW216830   6.404   3.595   2.003
 5311SOL     OW16831   6.724   6.155   0.397
 5311SOL    HW116832   6.727   6.201   0.486
 5311SOL    HW216833   6.717   6.056   0.410
 5312SOL     OW16834   0.831   5.018   1.856
 5312SOL    HW116835   0.777   4.935   1.871
 5312SOL    HW216836   0.817   5.050   1.762
 5313SOL     OW16837   2.003   4.415   6.432
 5313SOL    HW116838   1.980   4.429   6.336
 5313SOL    HW216839   1.973   4.323   6.460
 5314SOL     OW16840   3.537   6.294   6.729
 5314SOL    HW116841   3.497   6.210   6.692
 5314SOL    HW216842   3.508   6.307   6.823
 5315SOL     OW16843   4.694   3.804   1.586
 5315SOL    HW116844   4.733   3.812   1.494
 5315SOL    HW216845   4.601   3.769   1.581
 5316SOL     OW16846   0.134   4.537   5.110
 5316SOL    HW116847   0.096   4.602   5.176
 5316SOL    HW216848   0.185   4.586   5.040
 5317SOL     OW16849   6.615   7.021   4.893
 5317SOL    HW116850   6.519   6.997   4.908
 5317SOL    HW216851   6.631   0.088   4.926
 5318SOL     OW16852   7.008   2.277   6.356
 5318SOL    HW116853   0.038   2.327   6.291
 5318SOL    HW216854   6.955   2.207   6.307
 5319SOL     OW16855   4.265   6.822   6.755
 5319SOL    HW116856   4.256   6.737   6.702
 5319SOL    HW216857   4.288   6.799   6.850
 5320SOL     OW16858   6.149   4.863   0.134
 5320SOL    HW116859   6.218   4.906   0.193
 5320SOL    HW216860   6.194   4.802   0.070
 5321SOL     OW16861   1.099   3.977   3.484
 5321SOL    HW116862   1.011   4.011   3.517
 5321SOL    HW216863   1.130   4.035   3.408
 5322SOL     OW16864   4.571   6.188   6.469
 5322SOL    HW116865   4.512   6.134   6.528
 5322SOL    HW216866   4.516   6.258   6.422
 5323SOL     OW16867   3.823   2.740   6.779
 5323SOL    HW116868   3.770   2.822   6.759
 5323SOL    HW216869   3.765   2.659   6.770
 5324SOL     OW16870   4.271   2.841   0.808
 5324SOL    HW116871   4.181   2.801   0.792
 5324SOL    HW216872   4.333   2.815   0.734
 5325SOL     OW16873   4.352   0.501   4.402
 5325SOL    HW116874   4.361   0.487   4.304
 5325SOL    HW216875   4.368   0.597   4.425
 5326SOL     OW16876   0.380   5.412   4.148
 5326SOL    HW116877   0.328   5.410   4.234
 5326SOL    HW216878   0.399   5.319   4.118
 5327SOL     OW16879   5.414   3.664   5.285
 5327SOL    HW116880   5.426   3.680   5.383
 5327SOL    HW216881   5.491   3.610   5.250
 5328SOL     OW16882   3.953   2.774   5.773
 5328SOL    HW116883   3.871   2.801   5.724
 5328SOL    HW216884   3.956   2.820   5.861
 5329SOL     OW16885   7.000   4.145   7.005
 5329SOL    HW116886   6.955   4.190   0.055
 5329SOL    HW216887   7.022   4.213   6.935
 5330SOL     OW16888   3.926   4.417   5.534
 5330SOL    HW116889   3.968   4.429   5.624
 5330SOL    HW216890   3.845   4.476   5.528
 5331SOL     OW16891   5.054   1.364   1.044
 5331SOL    HW116892   5.040   1.407   1.133
 5331SOL    HW216893   5.120   1.290   1.053
 5332SOL     OW16894   0.432   4.078   1.109
 5332SOL    HW116895   0.397   4.135   1.184
 5332SOL    HW216896   0.356   4.046   1.053
 5333SOL     OW16897   0.946   0.976   3.449
 5333SOL    HW116898   1.009   0.922   3.506
 5333SOL    HW216899   0.852   0.956   3.477
 5334SOL     OW16900   3.876   6.751   4.728
 5334SOL    HW116901   3.934   6.817   4.681
 5334SOL    HW216902   3.920   6.661   4.726
 5335SOL     OW16903   6.465   5.698   2.396
 5335SOL    HW116904   6.371   5.666   2.407
 5335SOL    HW216905   6.528   5.621   2.403
 5336SOL     OW16906   1.919   2.203   3.197
 5336SOL    HW116907   2.001   2.247   3.158
 5336SOL    HW216908   1.906   2.236   3.291
 5337SOL     OW16909   5.659   4.478   2.353
 5337SOL    HW116910   5.749   4.497   2.312
 5337SOL    HW216911   5.603   4.428   2.287
 5338SOL     OW16912   5.685   0.754   5.499
 5338SOL    HW116913   5.763   0.692   5.504
 5338SOL    HW216914   5.718   0.849   5.502
 5339SOL     OW16915   6.621   2.210   3.357
 5339SOL    HW116916   6.535   2.175   3.395
 5339SOL    HW216917   6.610   2.227   3.259
 5340SOL     OW16918   5.436   3.391   1.174
 5340SOL    HW116919   5.431   3.301   1.217
 5340SOL    HW216920   5.364   3.450   1.210
 5341SOL     OW16921   3.411   4.988   6.184
 5341SOL    HW116922   3.370   4.899   6.165
 5341SOL    HW216923   3.340   5.057   6.192
 5342SOL     OW16924   4.461   6.407   4.371
 5342SOL    HW116925   4.456   6.331   4.435
 5342SOL    HW216926   4.515   6.380   4.291
 5343SOL     OW16927   3.654   3.604   4.674
 5343SOL    HW116928   3.666   3.699   4.645
 5343SOL    HW216929   3.693   3.590   4.765
 5344SOL     OW16930   1.789   1.795   1.187
 5344SOL    HW116931   1.750   1.779   1.096
 5344SOL    HW216932   1.847   1.876   1.184
 5345SOL     OW16933   3.680   6.370   0.268
 5345SOL    HW116934   3.657   6.467   0.255
 5345SOL    HW216935   3.647   6.340   0.357
 5346SOL     OW16936   3.320   5.687   4.064
 5346SOL    HW116937   3.377   5.625   4.118
 5346SOL    HW216938   3.245   5.722   4.122
 5347SOL     OW16939   7.001   2.840   2.104
 5347SOL    HW116940   6.950   2.902   2.045
 5347SOL    HW216941   0.059   2.885   2.135
 5348SOL     OW16942   6.577   1.960   0.668
 5348SOL    HW116943   6.552   1.959   0.571
 5348SOL    HW216944   6.650   1.893   0.684
 5349SOL     OW16945   2.361   2.777   0.500
 5349SOL    HW116946   2.429   2.841   0.465
 5349SOL    HW216947   2.398   2.684   0.501
 5350SOL     OW16948   1.415   6.945   5.041
 5350SOL    HW116949   1.460   6.939   5.130
 5350SOL    HW216950   1.411   0.014   5.012
 5351SOL     OW16951   6.588   5.227   2.222
 5351SOL    HW116952   6.631   5.152   2.272
 5351SOL    HW216953   6.489   5.211   2.217
 5352SOL     OW16954   1.704   5.193   3.328
 5352SOL    HW116955   1.792   5.186   3.375
 5352SOL    HW216956   1.704   5.133   3.248
 5353SOL     OW16957   3.800   5.412   4.256
 5353SOL    HW116958   3.716   5.366   4.287
 5353SOL    HW216959   3.879   5.373   4.304
 5354SOL     OW16960   1.932   4.948   1.116
 5354SOL    HW116961   1.900   4.881   1.183
 5354SOL    HW216962   1.993   5.014   1.160
 5355SOL     OW16963   6.186   4.613   4.577
 5355SOL    HW116964   6.229   4.671   4.645
 5355SOL    HW216965   6.104   4.571   4.615
 5356SOL     OW16966   6.688   3.828   2.376
 5356SOL    HW116967   6.755   3.755   2.364
 5356SOL    HW216968   6.613   3.795   2.433
 5357SOL     OW16969   3.007   6.056   7.005
 5357SOL    HW116970   2.909   6.063   7.025
 5357SOL    HW216971   3.032   6.124   6.936
 5358SOL     OW16972   4.939   1.430   0.265
 5358SOL    HW116973   4.930   1.415   0.167
 5358SOL    HW216974   4.908   1.348   0.314
 5359SOL     OW16975   1.871   0.946   5.825
 5359SOL    HW116976   1.964   0.912   5.813
 5359SOL    HW216977   1.866   1.042   5.798
 5360SOL     OW16978   3.456   5.993   3.756
 5360SOL    HW116979   3.512   5.913   3.734
 5360SOL    HW216980   3.372   5.990   3.702
 5361SOL     OW16981   2.719   1.016   4.681
 5361SOL    HW116982   2.649   1.011   4.610
 5361SOL    HW216983   2.707   1.100   4.734
 5362SOL     OW16984   6.221   6.375   2.688
 5362SOL    HW116985   6.144   6.433   2.665
 5362SOL    HW216986   6.306   6.429   2.685
 5363SOL     OW16987   6.681   6.748   5.521
 5363SOL    HW116988   6.741   6.734   5.442
 5363SOL    HW216989   6.732   6.794   5.594
 5364SOL     OW16990   6.910   0.153   2.168
 5364SOL    HW116991   6.841   0.208   2.216
 5364SOL    HW216992   6.882   0.139   2.074
 5365SOL     OW16993   4.362   3.116   1.420
 5365SOL    HW116994   4.324   3.177   1.490
 5365SOL    HW216995   4.297   3.042   1.402
 5366SOL     OW16996   6.000   5.885   1.137
 5366SOL    HW116997   5.950   5.799   1.136
 5366SOL    HW216998   5.986   5.933   1.051
 5367SOL     OW16999   0.322   6.900   0.890
 5367SOL    HW117000   0.308   6.992   0.854
 5367SOL    HW217001   0.353   6.905   0.985
 5368SOL     OW17002   5.443   7.018   2.575
 5368SOL    HW117003   5.393   0.065   2.621
 5368SOL    HW217004   5.414   7.013   2.479
 5369SOL     OW17005   2.738   6.723   0.933
 5369SOL    HW117006   2.771   6.690   1.022
 5369SOL    HW217007   2.695   6.813   0.945
 5370SOL     OW17008   4.661   2.565   1.248
 5370SOL    HW117009   4.589   2.632   1.234
 5370SOL    HW217010   4.626   2.488   1.302
 5371SOL     OW17011   0.234   4.098   5.376
 5371SOL    HW117012   0.265   4.041   5.301
 5371SOL    HW217013   0.313   4.127   5.431
 5372SOL     OW17014   1.303   5.962   3.159
 5372SOL    HW117015   1.304   6.007   3.248
 5372SOL    HW217016   1.215   5.917   3.146
 5373SOL     OW17017   3.756   6.682   5.013
 5373SOL    HW117018   3.662   6.715   5.005
 5373SOL    HW217019   3.805   6.699   4.928
 5374SOL     OW17020   2.141   4.309   0.588
 5374SOL    HW117021   2.219   4.246   0.594
 5374SOL    HW217022   2.125   4.350   0.678
 5375SOL     OW17023   0.293   5.562   4.719
 5375SOL    HW117024   0.339   5.474   4.729
 5375SOL    HW217025   0.354   5.626   4.673
 5376SOL     OW17026   1.163   2.306   1.397
 5376SOL    HW117027   1.080   2.303   1.451
 5376SOL    HW217028   1.240   2.268   1.449
 5377SOL     OW17029   0.306   6.817   2.239
 5377SOL    HW117030   0.397   6.840   2.205
 5377SOL    HW217031   0.237   6.857   2.178
 5378SOL     OW17032   0.141   0.169   2.557
 5378SOL    HW117033   0.156   0.235   2.484
 5378SOL    HW217034   0.045   0.142   2.559
 5379SOL     OW17035   0.872   4.351   4.659
 5379SOL    HW117036   0.838   4.337   4.753
 5379SOL    HW217037   0.934   4.277   4.635
 5380SOL     OW17038   2.717   0.888   3.147
 5380SOL    HW117039   2.690   0.883   3.050
 5380SOL    HW217040   2.641   0.855   3.203
 5381SOL     OW17041   6.607   5.201   1.930
 5381SOL    HW117042   6.608   5.207   2.030
 5381SOL    HW217043   6.605   5.293   1.891
 5382SOL     OW17044   2.470   1.288   1.887
 5382SOL    HW117045   2.440   1.379   1.857
 5382SOL    HW217046   2.479   1.287   1.986
 5383SOL     OW17047   2.081   2.093   5.183
 5383SOL    HW117048   2.078   2.023   5.254
 5383SOL    HW217049   2.163   2.149   5.195
 5384SOL     OW17050   5.587   0.219   4.996
 5384SOL    HW117051   5.579   0.240   4.899
 5384SOL    HW217052   5.636   0.133   5.008
 5385SOL     OW17053   3.563   3.628   4.159
 5385SOL    HW117054   3.514   3.593   4.239
 5385SOL    HW217055   3.562   3.728   4.161
 5386SOL     OW17056   4.851   1.355   4.093
 5386SOL    HW117057   4.773   1.414   4.115
 5386SOL    HW217058   4.896   1.325   4.177
 5387SOL     OW17059   2.055   6.757   3.694
 5387SOL    HW117060   2.154   6.776   3.689
 5387SOL    HW217061   2.007   6.840   3.723
 5388SOL     OW17062   0.221   1.606   3.209
 5388SOL    HW117063   0.281   1.651   3.275
 5388SOL    HW217064   0.144   1.667   3.188
 5389SOL     OW17065   3.373   1.479   3.377
 5389SOL    HW117066   3.360   1.404   3.312
 5389SOL    HW217067   3.300   1.477   3.445
 5390SOL     OW17068   4.717   4.171   3.401
 5390SOL    HW117069   4.668   4.224   3.470
 5390SOL    HW217070   4.746   4.083   3.440
 5391SOL     OW17071   2.826   1.125   1.159
 5391SOL    HW117072   2.732   1.149   1.137
 5391SOL    HW217073   2.826   1.065   1.239
 5392SOL     OW17074   5.699   3.416   1.227
 5392SOL    HW117075   5.605   3.431   1.198
 5392SOL    HW217076   5.757   3.490   1.192
 5393SOL     OW17077   4.808   0.575   5.482
 5393SOL    HW117078   4.766   0.574   5.392
 5393SOL    HW217079   4.903   0.546   5.475
 5394SOL     OW17080   0.464   5.807   1.113
 5394SOL    HW117081   0.391   5.844   1.170
 5394SOL    HW217082   0.426   5.775   1.026
 5395SOL     OW17083   4.770   1.329   1.429
 5395SOL    HW117084   4.673   1.331   1.455
 5395SOL    HW217085   4.822   1.391   1.488
 5396SOL     OW17086   5.498   4.266   1.879
 5396SOL    HW117087   5.526   4.185   1.829
 5396SOL    HW217088   5.411   4.300   1.842
 5397SOL     OW17089   0.412   3.066   1.430
 5397SOL    HW117090   0.389   2.969   1.434
 5397SOL    HW217091   0.473   3.082   1.352
 5398SOL     OW17092   2.787   2.337   4.086
 5398SOL    HW117093   2.747   2.316   4.175
 5398SOL    HW217094   2.718   2.379   4.027
 5399SOL     OW17095   2.620   6.457   0.923
 5399SOL    HW117096   2.671   6.541   0.904
 5399SOL    HW217097   2.524   6.480   0.943
 5400SOL     OW17098   3.468   3.610   7.009
 5400SOL    HW117099   3.467   3.549   0.062
 5400SOL    HW217100   3.485   3.704   0.013
 5401SOL     OW17101   6.604   4.674   2.368
 5401SOL    HW117102   6.515   4.647   2.330
 5401SOL    HW217103   6.633   4.607   2.436
 5402SOL     OW17104   2.142   6.365   1.888
 5402SOL    HW117105   2.075   6.294   1.868
 5402SOL    HW217106   2.232   6.336   1.853
 5403SOL     OW17107   5.939   2.908   5.339
 5403SOL    HW117108   5.958   2.949   5.428
 5403SOL    HW217109   6.025   2.895   5.289
 5404SOL     OW17110   0.802   0.514   3.094
 5404SOL    HW117111   0.843   0.574   3.163
 5404SOL    HW217112   0.868   0.497   3.021
 5405SOL     OW17113   5.720   5.781   0.441
 5405SOL    HW117114   5.665   5.861   0.419
 5405SOL    HW217115   5.746   5.734   0.356
 5406SOL     OW17116   1.669   6.955   5.631
 5406SOL    HW117117   1.574   6.924   5.625
 5406SOL    HW217118   1.729   6.877   5.645
 5407SOL     OW17119   3.714   1.612   1.349
 5407SOL    HW117120   3.669   1.667   1.419
 5407SOL    HW217121   3.754   1.672   1.280
 5408SOL     OW17122   3.280   0.592   5.760
 5408SOL    HW117123   3.297   0.565   5.854
 5408SOL    HW217124   3.302   0.689   5.749
 5409SOL     OW17125   0.021   1.778   3.008
 5409SOL    HW117126   7.010   1.777   3.101
 5409SOL    HW217127   6.983   1.823   2.946
 5410SOL     OW17128   1.313   2.563   6.495
 5410SOL    HW117129   1.312   2.478   6.548
 5410SOL    HW217130   1.284   2.544   6.401
 5411SOL     OW17131   5.948   5.210   6.024
 5411SOL    HW117132   6.026   5.175   6.076
 5411SOL    HW217133   5.865   5.161   6.052
 5412SOL     OW17134   3.680   1.058   6.958
 5412SOL    HW117135   3.697   1.000   0.012
 5412SOL    HW217136   3.665   1.001   6.878
 5413SOL     OW17137   0.265   0.308   1.062
 5413SOL    HW117138   0.195   0.367   1.021
 5413SOL    HW217139   0.303   0.248   0.991
 5414SOL     OW17140   6.117   3.618   4.844
 5414SOL    HW117141   6.095   3.602   4.939
 5414SOL    HW217142   6.217   3.621   4.833
 5415SOL     OW17143   1.297   6.072   1.916
 5415SOL    HW117144   1.272   6.119   2.000
 5415SOL    HW217145   1.214   6.044   1.868
 5416SOL     OW17146   3.118   5.386   5.933
 5416SOL    HW117147   3.124   5.311   6.000
 5416SOL    HW217148   3.198   5.445   5.942
 5417SOL     OW17149   4.341   6.659   4.442
 5417SOL    HW117150   4.382   6.577   4.402
 5417SOL    HW217151   4.319   6.641   4.538
 5418SOL     OW17152   4.900   0.827   4.166
 5418SOL    HW117153   4.989   0.869   4.179
 5418SOL    HW217154   4.844   0.885   4.107
 5419SOL     OW17155   3.925   5.557   6.975
 5419SOL    HW117156   3.932   5.480   6.912
 5419SOL    HW217157   4.016   5.581   7.008
 5420SOL     OW17158   1.863   3.318   1.716
 5420SOL    HW117159   1.960   3.328   1.737
 5420SOL    HW217160   1.849   3.238   1.657
 5421SOL     OW17161   2.834   4.817   3.245
 5421SOL    HW117162   2.788   4.902   3.220
 5421SOL    HW217163   2.900   4.833   3.317
 5422SOL     OW17164   0.920   5.455   5.016
 5422SOL    HW117165   0.919   5.365   5.060
 5422SOL    HW217166   0.826   5.483   4.997
 5423SOL     OW17167   6.133   3.770   0.029
 5423SOL    HW117168   6.205   3.767   6.986
 5423SOL    HW217169   6.051   3.810   7.016
 5424SOL     OW17170   5.723   3.826   4.290
 5424SOL    HW117171   5.723   3.855   4.194
 5424SOL    HW217172   5.659   3.751   4.301
 5425SOL     OW17173   5.367   2.062   4.139
 5425SOL    HW117174   5.446   2.119   4.114
 5425SOL    HW217175   5.378   2.030   4.233
 5426SOL     OW17176   6.462   5.103   3.812
 5426SOL    HW117177   6.499   5.102   3.905
 5426SOL    HW217178   6.380   5.046   3.808
 5427SOL     OW17179   5.435   4.433   0.870
 5427SOL    HW117180   5.410   4.346   0.826
 5427SOL    HW217181   5.516   4.471   0.826
 5428SOL     OW17182   6.103   6.860   1.973
 5428SOL    HW117183   6.130   6.956   1.964
 5428SOL    HW217184   6.182   6.801   1.956
 5429SOL     OW17185   1.108   0.937   5.046
 5429SOL    HW117186   1.194   0.928   4.995
 5429SOL    HW217187   1.121   1.002   5.121
 5430SOL     OW17188   2.446   2.660   6.354
 5430SOL    HW117189   2.374   2.724   6.327
 5430SOL    HW217190   2.417   2.567   6.338
 5431SOL     OW17191   3.414   4.625   5.931
 5431SOL    HW117192   3.499   4.677   5.921
 5431SOL    HW217193   3.366   4.622   5.843
 5432SOL     OW17194   3.424   5.775   6.379
 5432SOL    HW117195   3.501   5.758   6.318
 5432SOL    HW217196   3.443   5.855   6.436
 5433SOL     OW17197   0.165   1.091   3.195
 5433SOL    HW117198   0.264   1.075   3.201
 5433SOL    HW217199   0.118   1.028   3.256
 5434SOL     OW17200   4.562   1.188   4.927
 5434SOL    HW117201   4.576   1.239   4.842
 5434SOL    HW217202   4.480   1.223   4.973
 5435SOL     OW17203   6.221   2.045   1.238
 5435SOL    HW117204   6.170   1.963   1.262
 5435SOL    HW217205   6.262   2.085   1.320
 5436SOL     OW17206   5.460   4.313   4.483
 5436SOL    HW117207   5.507   4.226   4.468
 5436SOL    HW217208   5.496   4.356   4.566
 5437SOL     OW17209   2.947   5.266   5.759
 5437SOL    HW117210   3.014   5.288   5.830
 5437SOL    HW217211   2.872   5.213   5.800
 5438SOL     OW17212   6.485   3.915   2.079
 5438SOL    HW117213   6.400   3.953   2.043
 5438SOL    HW217214   6.463   3.848   2.151
 5439SOL     OW17215   6.928   2.271   0.105
 5439SOL    HW117216   6.992   2.336   0.146
 5439SOL    HW217217   6.876   2.316   0.032
 5440SOL     OW17218   6.638   0.317   3.384
 5440SOL    HW117219   6.670   0.367   3.303
 5440SOL    HW217220   6.541   0.293   3.371
 5441SOL     OW17221   4.709   2.872   3.410
 5441SOL    HW117222   4.722   2.828   3.499
 5441SOL    HW217223   4.627   2.929   3.413
 5442SOL     OW17224   2.771   6.786   3.415
 5442SOL    HW117225   2.852   6.803   3.359
 5442SOL    HW217226   2.689   6.797   3.359
 5443SOL     OW17227   3.160   5.766   4.286
 5443SOL    HW117228   3.187   5.862   4.279
 5443SOL    HW217229   3.074   5.760   4.336
 5444SOL     OW17230   0.347   0.763   3.224
 5444SOL    HW117231   0.431   0.749   3.277
 5444SOL    HW217232   0.272   0.787   3.285
 5445SOL     OW17233   6.361   4.379   3.983
 5445SOL    HW117234   6.379   4.407   4.077
 5445SOL    HW217235   6.445   4.342   3.942
 5446SOL     OW17236   5.534   5.257   4.797
 5446SOL    HW117237   5.578   5.173   4.828
 5446SOL    HW217238   5.593   5.335   4.819
 5447SOL     OW17239   1.234   1.756   0.597
 5447SOL    HW117240   1.181   1.839   0.579
 5447SOL    HW217241   1.218   1.690   0.525
 5448SOL     OW17242   5.820   4.544   4.362
 5448SOL    HW117243   5.850   4.449   4.369
 5448SOL    HW217244   5.728   4.547   4.323
 5449SOL     OW17245   1.759   1.741   0.573
 5449SOL    HW117246   1.798   1.726   0.664
 5449SOL    HW217247   1.660   1.743   0.578
 5450SOL     OW17248   3.275   0.378   0.727
 5450SOL    HW117249   3.208   0.403   0.657
 5450SOL    HW217250   3.239   0.301   0.781
 5451SOL     OW17251   2.438   6.171   4.088
 5451SOL    HW117252   2.404   6.206   4.000
 5451SOL    HW217253   2.442   6.246   4.154
 5452SOL     OW17254   3.290   3.907   6.728
 5452SOL    HW117255   3.340   3.820   6.733
 5452SOL    HW217256   3.199   3.891   6.690
 5453SOL     OW17257   5.455   3.983   2.046
 5453SOL    HW117258   5.462   3.889   2.014
 5453SOL    HW217259   5.447   4.044   1.967
 5454SOL     OW17260   5.179   5.277   6.307
 5454SOL    HW117261   5.201   5.312   6.398
 5454SOL    HW217262   5.088   5.235   6.307
 5455SOL     OW17263   0.317   2.108   2.825
 5455SOL    HW117264   0.367   2.030   2.863
 5455SOL    HW217265   0.382   2.174   2.787
 5456SOL     OW17266   2.891   0.097   0.352
 5456SOL    HW117267   2.824   0.142   0.293
 5456SOL    HW217268   2.907   0.003   0.320
 5457SOL     OW17269   7.008   2.419   1.849
 5457SOL    HW117270   0.061   2.387   1.797
 5457SOL    HW217271   6.973   2.345   1.906
 5458SOL     OW17272   0.878   4.944   0.682
 5458SOL    HW117273   0.937   4.905   0.752
 5458SOL    HW217274   0.915   4.924   0.591
 5459SOL     OW17275   3.510   3.952   6.412
 5459SOL    HW117276   3.426   3.969   6.361
 5459SOL    HW217277   3.514   4.014   6.491
 5460SOL     OW17278   3.311   6.742   3.049
 5460SOL    HW117279   3.330   6.671   2.981
 5460SOL    HW217280   3.394   6.795   3.065
 5461SOL     OW17281   0.402   1.078   5.644
 5461SOL    HW117282   0.497   1.100   5.622
 5461SOL    HW217283   0.342   1.150   5.610
 5462SOL     OW17284   5.667   6.538   0.391
 5462SOL    HW117285   5.702   6.521   0.299
 5462SOL    HW217286   5.641   6.634   0.400
 5463SOL     OW17287   0.284   1.204   6.915
 5463SOL    HW117288   0.244   1.205   7.006
 5463SOL    HW217289   0.346   1.282   6.904
 5464SOL     OW17290   6.337   0.199   4.301
 5464SOL    HW117291   6.375   0.220   4.391
 5464SOL    HW217292   6.355   0.275   4.238
 5465SOL     OW17293   4.818   0.501   4.370
 5465SOL    HW117294   4.916   0.523   4.374
 5465SOL    HW217295   4.772   0.541   4.449
 5466SOL     OW17296   4.897   3.035   4.796
 5466SOL    HW117297   4.848   2.976   4.861
 5466SOL    HW217298   4.887   3.130   4.823
 5467SOL     OW17299   5.114   3.909   3.398
 5467SOL    HW117300   5.114   3.996   3.446
 5467SOL    HW217301   5.128   3.835   3.464
 5468SOL     OW17302   6.658   2.870   3.720
 5468SOL    HW117303   6.592   2.946   3.717
 5468SOL    HW217304   6.639   2.806   3.646
 5469SOL     OW17305   2.768   6.544   5.818
 5469SOL    HW117306   2.754   6.599   5.736
 5469SOL    HW217307   2.865   6.520   5.826
 5470SOL     OW17308   3.612   5.499   3.419
 5470SOL    HW117309   3.541   5.547   3.366
 5470SOL    HW217310   3.577   5.477   3.510
 5471SOL     OW17311   6.023   0.135   3.431
 5471SOL    HW117312   5.967   0.057   3.405
 5471SOL    HW217313   6.114   0.104   3.457
 5472SOL     OW17314   2.844   3.669   6.654
 5472SOL    HW117315   2.837   3.653   6.752
 5472SOL    HW217316   2.815   3.587   6.604
 5473SOL     OW17317   1.323   3.371   1.929
 5473SOL    HW117318   1.365   3.296   1.878
 5473SOL    HW217319   1.381   3.396   2.006
 5474SOL     OW17320   1.022   4.285   4.029
 5474SOL    HW117321   0.952   4.268   3.959
 5474SOL    HW217322   0.982   4.338   4.104
 5475SOL     OW17323   1.943   2.830   0.974
 5475SOL    HW117324   1.899   2.854   1.061
 5475SOL    HW217325   2.009   2.757   0.988
 5476SOL     OW17326   2.245   4.375   5.089
 5476SOL    HW117327   2.300   4.327   5.158
 5476SOL    HW217328   2.304   4.436   5.036
 5477SOL     OW17329   2.277   4.388   2.473
 5477SOL    HW117330   2.270   4.308   2.533
 5477SOL    HW217331   2.199   4.448   2.487
 5478SOL     OW17332   3.225   6.286   4.482
 5478SOL    HW117333   3.154   6.216   4.471
 5478SOL    HW217334   3.274   6.297   4.395
 5479SOL     OW17335   5.495   1.179   6.236
 5479SOL    HW117336   5.455   1.268   6.259
 5479SOL    HW217337   5.423   1.110   6.235
 5480SOL     OW17338   5.711   5.564   3.942
 5480SOL    HW117339   5.809   5.559   3.962
 5480SOL    HW217340   5.696   5.536   3.847
 5481SOL     OW17341   4.485   1.691   4.340
 5481SOL    HW117342   4.573   1.728   4.311
 5481SOL    HW217343   4.458   1.732   4.427
 5482SOL     OW17344   3.813   4.720   1.668
 5482SOL    HW117345   3.749   4.703   1.743
 5482SOL    HW217346   3.878   4.791   1.696
 5483SOL     OW17347   6.901   2.135   5.226
 5483SOL    HW117348   6.837   2.207   5.199
 5483SOL    HW217349   6.987   2.146   5.177
 5484SOL     OW17350   3.777   1.332   3.942
 5484SOL    HW117351   3.740   1.250   3.900
 5484SOL    HW217352   3.873   1.343   3.917
 5485SOL     OW17353   3.901   6.932   4.094
 5485SOL    HW117354   3.983   6.988   4.109
 5485SOL    HW217355   3.858   6.912   4.182
 5486SOL     OW17356   1.801   6.027   5.457
 5486SOL    HW117357   1.716   6.010   5.407
 5486SOL    HW217358   1.880   6.006   5.399
 5487SOL     OW17359   6.027   2.881   6.582
 5487SOL    HW117360   6.122   2.914   6.584
 5487SOL    HW217361   6.012   2.817   6.657
 5488SOL     OW17362   5.844   0.350   1.334
 5488SOL    HW117363   5.866   0.363   1.238
 5488SOL    HW217364   5.857   0.436   1.383
 5489SOL     OW17365   0.605   4.331   1.664
 5489SOL    HW117366   0.539   4.406   1.664
 5489SOL    HW217367   0.584   4.268   1.739
 5490SOL     OW17368   3.179   6.974   1.543
 5490SOL    HW117369   3.173   6.880   1.577
 5490SOL    HW217370   3.275   7.000   1.536
 5491SOL     OW17371   1.451   3.878   0.846
 5491SOL    HW117372   1.474   3.933   0.926
 5491SOL    HW217373   1.357   3.844   0.855
 5492SOL     OW17374   0.337   3.043   5.681
 5492SOL    HW117375   0.374   3.134   5.695
 5492SOL    HW217376   0.373   2.981   5.751
 5493SOL     OW17377   3.173   4.059   4.122
 5493SOL    HW117378   3.098   4.107   4.077
 5493SOL    HW217379   3.200   3.980   4.067
 5494SOL     OW17380   6.954   2.864   6.132
 5494SOL    HW117381   6.973   2.840   6.037
 5494SOL    HW217382   6.955   2.964   6.143
 5495SOL     OW17383   3.858   1.417   1.263
 5495SOL    HW117384   3.878   1.425   1.166
 5495SOL    HW217385   3.807   1.498   1.294
 5496SOL     OW17386   3.468   1.199   3.945
 5496SOL    HW117387   3.409   1.119   3.960
 5496SOL    HW217388   3.435   1.276   3.998
 5497SOL     OW17389   0.162   1.779   4.914
 5497SOL    HW117390   0.132   1.713   4.845
 5497SOL    HW217391   0.094   1.851   4.923
 5498SOL     OW17392   6.528   5.889   1.324
 5498SOL    HW117393   6.481   5.970   1.290
 5498SOL    HW217394   6.627   5.906   1.325
 5499SOL     OW17395   0.521   0.560   4.627
 5499SOL    HW117396   0.539   0.648   4.670
 5499SOL    HW217397   0.600   0.499   4.639
 5500SOL     OW17398   1.001   0.571   0.795
 5500SOL    HW117399   0.910   0.604   0.822
 5500SOL    HW217400   1.069   0.640   0.817
 5501SOL     OW17401   3.518   1.075   0.589
 5501SOL    HW117402   3.429   1.072   0.634
 5501SOL    HW217403   3.535   0.989   0.542
 5502SOL     OW17404   5.353   3.793   0.035
 5502SOL    HW117405   5.286   3.802   6.987
 5502SOL    HW217406   5.404   3.708   0.022
 5503SOL     OW17407   0.368   4.570   2.247
 5503SOL    HW117408   0.442   4.548   2.311
 5503SOL    HW217409   0.378   4.514   2.165
 5504SOL     OW17410   4.176   1.319   5.360
 5504SOL    HW117411   4.157   1.392   5.425
 5504SOL    HW217412   4.239   1.253   5.402
 5505SOL     OW17413   1.989   5.013   3.755
 5505SOL    HW117414   1.909   5.033   3.811
 5505SOL    HW217415   2.043   4.941   3.799
 5506SOL     OW17416   0.964   2.623   0.353
 5506SOL    HW117417   0.965   2.704   0.294
 5506SOL    HW217418   0.870   2.592   0.366
 5507SOL     OW17419   3.740   1.284   4.552
 5507SOL    HW117420   3.754   1.359   4.616
 5507SOL    HW217421   3.653   1.296   4.504
 5508SOL     OW17422   1.585   0.927   0.050
 5508SOL    HW117423   1.622   0.931   6.983
 5508SOL    HW217424   1.602   1.014   0.096
 5509SOL     OW17425   0.272   6.341   6.888
 5509SOL    HW117426   0.366   6.306   6.887
 5509SOL    HW217427   0.240   6.351   6.794
 5510SOL     OW17428   4.825   5.508   0.251
 5510SOL    HW117429   4.868   5.577   0.194
 5510SOL    HW217430   4.814   5.543   0.344
 5511SOL     OW17431   1.864   0.785   3.724
 5511SOL    HW117432   1.848   0.775   3.822
 5511SOL    HW217433   1.831   0.705   3.675
 5512SOL     OW17434   5.224   2.591   1.149
 5512SOL    HW117435   5.202   2.493   1.149
 5512SOL    HW217436   5.268   2.615   1.063
 5513SOL     OW17437   4.535   4.568   5.934
 5513SOL    HW117438   4.623   4.523   5.949
 5513SOL    HW217439   4.509   4.618   6.017
 5514SOL     OW17440   4.148   6.946   3.587
 5514SOL    HW117441   4.208   7.024   3.608
 5514SOL    HW217442   4.117   6.904   3.672
 5515SOL     OW17443   1.007   5.811   2.160
 5515SOL    HW117444   1.100   5.784   2.138
 5515SOL    HW217445   1.008   5.890   2.222
 5516SOL     OW17446   1.933   4.174   6.568
 5516SOL    HW117447   1.849   4.136   6.529
 5516SOL    HW217448   1.927   4.174   6.668
 5517SOL     OW17449   2.335   2.834   1.891
 5517SOL    HW117450   2.415   2.882   1.855
 5517SOL    HW217451   2.260   2.899   1.902
 5518SOL     OW17452   6.016   6.412   6.500
 5518SOL    HW117453   6.032   6.501   6.458
 5518SOL    HW217454   5.988   6.347   6.430
 5519SOL     OW17455   5.715   3.795   3.229
 5519SOL    HW117456   5.617   3.813   3.216
 5519SOL    HW217457   5.761   3.879   3.254
 5520SOL     OW17458   6.625   0.219   2.525
 5520SOL    HW117459   6.529   0.197   2.507
 5520SOL    HW217460   6.631   0.276   2.608
 5521SOL     OW17461   5.606   6.087   1.791
 5521SOL    HW117462   5.547   6.016   1.751
 5521SOL    HW217463   5.660   6.047   1.865
 5522SOL     OW17464   6.099   5.006   0.752
 5522SOL    HW117465   6.195   4.980   0.759
 5522SOL    HW217466   6.041   4.926   0.765
 5523SOL     OW17467   3.585   1.035   2.036
 5523SOL    HW117468   3.623   1.024   1.944
 5523SOL    HW217469   3.570   0.945   2.077
 5524SOL     OW17470   5.204   0.434   4.510
 5524SOL    HW117471   5.177   0.508   4.448
 5524SOL    HW217472   5.299   0.448   4.539
 5525SOL     OW17473   0.191   1.966   0.832
 5525SOL    HW117474   0.107   1.978   0.779
 5525SOL    HW217475   0.218   2.054   0.870
 5526SOL     OW17476   4.735   5.882   3.489
 5526SOL    HW117477   4.713   5.814   3.559
 5526SOL    HW217478   4.786   5.839   3.415
 5527SOL     OW17479   5.159   3.625   4.069
 5527SOL    HW117480   5.231   3.556   4.062
 5527SOL    HW217481   5.118   3.620   4.161
 5528SOL     OW17482   1.240   1.147   6.971
 5528SOL    HW117483   1.278   1.091   0.018
 5528SOL    HW217484   1.313   1.179   6.912
 5529SOL     OW17485   2.984   6.927   3.289
 5529SOL    HW117486   3.066   6.870   3.297
 5529SOL    HW217487   2.984   6.996   3.362
 5530SOL     OW17488   6.092   2.361   1.340
 5530SOL    HW117489   6.047   2.348   1.251
 5530SOL    HW217490   6.175   2.305   1.342
 5531SOL     OW17491   3.189   3.496   1.834
 5531SOL    HW117492   3.285   3.493   1.807
 5531SOL    HW217493   3.168   3.415   1.888
 5532SOL     OW17494   0.937   3.508   0.912
 5532SOL    HW117495   0.900   3.590   0.955
 5532SOL    HW217496   1.028   3.489   0.947
 5533SOL     OW17497   3.657   1.816   3.080
 5533SOL    HW117498   3.566   1.827   3.040
 5533SOL    HW217499   3.725   1.813   3.006
 5534SOL     OW17500   0.336   1.533   6.490
 5534SOL    HW117501   0.354   1.535   6.392
 5534SOL    HW217502   0.286   1.450   6.513
 5535SOL     OW17503   0.484   2.875   3.189
 5535SOL    HW117504   0.458   2.794   3.137
 5535SOL    HW217505   0.461   2.957   3.137
 5536SOL     OW17506   3.148   0.828   4.415
 5536SOL    HW117507   3.226   0.793   4.362
 5536SOL    HW217508   3.067   0.829   4.357
 5537SOL     OW17509   2.723   0.993   2.576
 5537SOL    HW117510   2.676   1.072   2.615
 5537SOL    HW217511   2.692   0.978   2.482
 5538SOL     OW17512   2.248   5.870   5.647
 5538SOL    HW117513   2.280   5.921   5.727
 5538SOL    HW217514   2.294   5.904   5.565
 5539SOL     OW17515   1.370   3.648   1.502
 5539SOL    HW117516   1.301   3.713   1.469
 5539SOL    HW217517   1.326   3.561   1.523
 5540SOL     OW17518   4.563   4.661   3.480
 5540SOL    HW117519   4.581   4.598   3.556
 5540SOL    HW217520   4.524   4.610   3.403
 5541SOL     OW17521   5.726   0.075   6.131
 5541SOL    HW117522   5.671   7.018   6.121
 5541SOL    HW217523   5.667   0.155   6.117
 5542SOL     OW17524   5.280   3.623   6.236
 5542SOL    HW117525   5.224   3.540   6.232
 5542SOL    HW217526   5.263   3.678   6.154
 5543SOL     OW17527   3.499   5.209   5.727
 5543SOL    HW117528   3.490   5.110   5.738
 5543SOL    HW217529   3.478   5.254   5.814
 5544SOL     OW17530   4.687   5.741   6.187
 5544SOL    HW117531   4.685   5.641   6.186
 5544SOL    HW217532   4.746   5.774   6.114
 5545SOL     OW17533   4.211   1.419   2.128
 5545SOL    HW117534   4.291   1.451   2.180
 5545SOL    HW217535   4.223   1.443   2.032
 5546SOL     OW17536   0.454   5.301   4.714
 5546SOL    HW117537   0.512   5.304   4.795
 5546SOL    HW217538   0.484   5.227   4.654
 5547SOL     OW17539   2.375   6.384   5.316
 5547SOL    HW117540   2.446   6.391   5.245
 5547SOL    HW217541   2.307   6.315   5.289
 5548SOL     OW17542   6.379   2.244   4.861
 5548SOL    HW117543   6.381   2.317   4.929
 5548SOL    HW217544   6.305   2.180   4.882
 5549SOL     OW17545   4.596   4.582   6.436
 5549SOL    HW117546   4.519   4.543   6.385
 5549SOL    HW217547   4.605   4.535   6.524
 5550SOL     OW17548   2.672   5.830   2.072
 5550SOL    HW117549   2.614   5.752   2.047
 5550SOL    HW217550   2.767   5.800   2.081
 5551SOL     OW17551   1.960   0.672   3.131
 5551SOL    HW117552   1.931   0.693   3.038
 5551SOL    HW217553   1.904   0.722   3.196
 5552SOL     OW17554   6.455   0.919   6.807
 5552SOL    HW117555   6.364   0.888   6.783
 5552SOL    HW217556   6.517   0.906   6.730
 5553SOL     OW17557   4.383   6.125   0.042
 5553SOL    HW117558   4.470   6.098   0.001
 5553SOL    HW217559   4.397   6.146   0.139
 5554SOL     OW17560   3.246   1.343   5.673
 5554SOL    HW117561   3.183   1.416   5.648
 5554SOL    HW217562   3.337   1.381   5.690
 5555SOL     OW17563   0.863   4.278   3.799
 5555SOL    HW117564   0.809   4.361   3.796
 5555SOL    HW217565   0.910   4.264   3.712
 5556SOL     OW17566   0.301   2.785   4.079
 5556SOL    HW117567   0.223   2.723   4.084
 5556SOL    HW217568   0.386   2.732   4.075
 5557SOL     OW17569   3.390   5.903   2.850
 5557SOL    HW117570   3.364   5.838   2.778
 5557SOL    HW217571   3.430   5.985   2.808
 5558SOL     OW17572   4.915   3.352   6.517
 5558SOL    HW117573   4.852   3.276   6.497
 5558SOL    HW217574   4.941   3.349   6.613
 5559SOL     OW17575   2.276   6.936   2.121
 5559SOL    HW117576   2.271   6.901   2.215
 5559SOL    HW217577   2.189   6.919   2.074
 5560SOL     OW17578   0.483   6.735   3.419
 5560SOL    HW117579   0.553   6.751   3.350
 5560SOL    HW217580   0.434   6.821   3.437
 5561SOL     OW17581   2.370   2.311   4.127
 5561SOL    HW117582   2.439   2.366   4.174
 5561SOL    HW217583   2.289   2.303   4.184
 5562SOL     OW17584   2.592   2.714   0.169
 5562SOL    HW117585   2.674   2.661   0.150
 5562SOL    HW217586   2.512   2.667   0.130
 5563SOL     OW17587   4.584   6.430   2.532
 5563SOL    HW117588   4.643   6.455   2.455
 5563SOL    HW217589   4.569   6.331   2.532
 5564SOL     OW17590   4.303   1.734   1.912
 5564SOL    HW117591   4.260   1.661   1.857
 5564SOL    HW217592   4.238   1.809   1.922
 5565SOL     OW17593   4.878   1.883   6.783
 5565SOL    HW117594   4.972   1.849   6.774
 5565SOL    HW217595   4.822   1.848   6.708
 5566SOL     OW17596   1.748   5.208   0.872
 5566SOL    HW117597   1.684   5.215   0.795
 5566SOL    HW217598   1.710   5.147   0.941
 5567SOL     OW17599   0.930   4.414   2.222
 5567SOL    HW117600   0.919   4.445   2.316
 5567SOL    HW217601   0.854   4.448   2.166
 5568SOL     OW17602   5.036   2.416   2.526
 5568SOL    HW117603   4.955   2.392   2.580
 5568SOL    HW217604   5.025   2.380   2.433
 5569SOL     OW17605   3.248   1.481   1.662
 5569SOL    HW117606   3.336   1.435   1.651
 5569SOL    HW217607   3.250   1.537   1.744
 5570SOL     OW17608   5.518   4.343   4.740
 5570SOL    HW117609   5.575   4.419   4.772
 5570SOL    HW217610   5.544   4.260   4.788
 5571SOL     OW17611   0.760   7.006   6.739
 5571SOL    HW117612   0.662   6.996   6.721
 5571SOL    HW217613   0.779   0.074   6.765
 5572SOL     OW17614   1.885   2.776   6.071
 5572SOL    HW117615   1.859   2.845   6.139
 5572SOL    HW217616   1.804   2.741   6.025
 5573SOL     OW17617   1.931   2.996   6.912
 5573SOL    HW117618   1.942   2.914   6.856
 5573SOL    HW217619   1.833   3.015   6.925
 5574SOL     OW17620   6.551   1.160   3.873
 5574SOL    HW117621   6.470   1.210   3.843
 5574SOL    HW217622   6.630   1.192   3.821
 5575SOL     OW17623   0.727   1.497   1.698
 5575SOL    HW117624   0.646   1.451   1.735
 5575SOL    HW217625   0.775   1.435   1.636
 5576SOL     OW17626   6.627   5.945   1.954
 5576SOL    HW117627   6.567   6.022   1.935
 5576SOL    HW217628   6.628   5.883   1.876
 5577SOL     OW17629   2.897   2.825   6.312
 5577SOL    HW117630   2.830   2.805   6.384
 5577SOL    HW217631   2.989   2.827   6.353
 5578SOL     OW17632   4.283   3.534   0.701
 5578SOL    HW117633   4.370   3.516   0.656
 5578SOL    HW217634   4.293   3.525   0.800
 5579SOL     OW17635   6.347   3.762   6.872
 5579SOL    HW117636   6.310   3.780   6.781
 5579SOL    HW217637   6.393   3.843   6.906
 5580SOL     OW17638   4.585   2.026   6.495
 5580SOL    HW117639   4.533   2.041   6.411
 5580SOL    HW217640   4.529   2.052   6.574
 5581SOL     OW17641   2.508   0.028   1.169
 5581SOL    HW117642   2.484   7.018   1.078
 5581SOL    HW217643   2.530   0.125   1.161
 5582SOL     OW17644   3.366   3.283   3.598
 5582SOL    HW117645   3.456   3.293   3.640
 5582SOL    HW217646   3.310   3.222   3.655
 5583SOL     OW17647   3.776   6.579   2.685
 5583SOL    HW117648   3.844   6.523   2.640
 5583SOL    HW217649   3.772   6.669   2.641
 5584SOL     OW17650   5.567   4.186   4.164
 5584SOL    HW117651   5.598   4.157   4.255
 5584SOL    HW217652   5.562   4.107   4.103
 5585SOL     OW17653   4.822   0.597   3.603
 5585SOL    HW117654   4.914   0.565   3.624
 5585SOL    HW217655   4.826   0.686   3.557
 5586SOL     OW17656   1.242   2.545   0.175
 5586SOL    HW117657   1.283   2.482   0.109
 5586SOL    HW217658   1.225   2.497   0.261
 5587SOL     OW17659   4.336   6.502   1.974
 5587SOL    HW117660   4.381   6.454   2.050
 5587SOL    HW217661   4.279   6.438   1.923
 5588SOL     OW17662   1.054   6.597   4.305
 5588SOL    HW117663   0.957   6.573   4.316
 5588SOL    HW217664   1.111   6.534   4.357
 5589SOL     OW17665   5.060   2.949   6.774
 5589SOL    HW117666   5.157   2.931   6.757
 5589SOL    HW217667   5.024   2.881   6.837
 5590SOL     OW17668   6.888   5.607   2.891
 5590SOL    HW117669   6.881   5.654   2.980
 5590SOL    HW217670   6.964   5.645   2.839
 5591SOL     OW17671   5.448   0.485   6.302
 5591SOL    HW117672   5.474   0.461   6.396
 5591SOL    HW217673   5.471   0.581   6.285
 5592SOL     OW17674   2.453   5.047   2.786
 5592SOL    HW117675   2.408   5.136   2.790
 5592SOL    HW217676   2.484   5.030   2.692
 5593SOL     OW17677   0.209   2.654   5.633
 5593SOL    HW117678   0.240   2.724   5.568
 5593SOL    HW217679   0.144   2.695   5.697
 5594SOL     OW17680   2.841   1.110   6.771
 5594SOL    HW117681   2.805   1.176   6.705
 5594SOL    HW217682   2.780   1.105   6.850
 5595SOL     OW17683   6.131   0.884   5.258
 5595SOL    HW117684   6.034   0.877   5.236
 5595SOL    HW217685   6.183   0.825   5.196
 5596SOL     OW17686   5.029   0.366   2.955
 5596SOL    HW117687   5.100   0.298   2.937
 5596SOL    HW217688   5.053   0.452   2.911
 5597SOL     OW17689   5.158   2.349   5.156
 5597SOL    HW117690   5.161   2.369   5.254
 5597SOL    HW217691   5.241   2.385   5.112
 5598SOL     OW17692   5.289   2.644   3.994
 5598SOL    HW117693   5.367   2.675   3.941
 5598SOL    HW217694   5.280   2.545   3.985
 5599SOL     OW17695   6.329   3.948   2.447
 5599SOL    HW117696   6.420   3.985   2.468
 5599SOL    HW217697   6.338   3.862   2.397
 5600SOL     OW17698   2.587   0.426   2.379
 5600SOL    HW117699   2.571   0.503   2.319
 5600SOL    HW217700   2.553   0.342   2.336
 5601SOL     OW17701   4.478   2.083   6.000
 5601SOL    HW117702   4.535   2.114   5.923
 5601SOL    HW217703   4.395   2.041   5.965
 5602SOL     OW17704   6.873   0.948   3.186
 5602SOL    HW117705   6.864   1.033   3.135
 5602SOL    HW217706   6.824   0.956   3.273
 5603SOL     OW17707   4.797   2.363   4.951
 5603SOL    HW117708   4.842   2.429   5.010
 5603SOL    HW217709   4.806   2.390   4.856
 5604SOL     OW17710   1.297   1.951   4.533
 5604SOL    HW117711   1.306   2.034   4.589
 5604SOL    HW217712   1.383   1.934   4.486
 5605SOL     OW17713   1.245   0.250   5.313
 5605SOL    HW117714   1.281   0.250   5.220
 5605SOL    HW217715   1.275   0.332   5.360
 5606SOL     OW17716   4.291   1.084   0.792
 5606SOL    HW117717   4.314   1.064   0.887
 5606SOL    HW217718   4.375   1.088   0.738
 5607SOL     OW17719   6.070   2.096   3.644
 5607SOL    HW117720   5.980   2.091   3.687
 5607SOL    HW217721   6.063   2.071   3.547
 5608SOL     OW17722   6.166   1.188   2.946
 5608SOL    HW117723   6.210   1.105   2.981
 5608SOL    HW217724   6.098   1.164   2.878
 5609SOL     OW17725   4.838   6.008   0.242
 5609SOL    HW117726   4.745   5.970   0.235
 5609SOL    HW217727   4.897   5.942   0.289
 5610SOL     OW17728   5.765   3.691   1.048
 5610SOL    HW117729   5.668   3.706   1.032
 5610SOL    HW217730   5.817   3.770   1.017
 5611SOL     OW17731   0.954   4.875   2.135
 5611SOL    HW117732   0.920   4.942   2.068
 5611SOL    HW217733   1.010   4.922   2.203
 5612SOL     OW17734   3.189   2.722   0.590
 5612SOL    HW117735   3.186   2.728   0.690
 5612SOL    HW217736   3.129   2.792   0.551
 5613SOL     OW17737   6.810   4.720   5.221
 5613SOL    HW117738   6.837   4.765   5.136
 5613SOL    HW217739   6.798   4.789   5.293
 5614SOL     OW17740   6.202   2.429   4.583
 5614SOL    HW117741   6.128   2.465   4.525
 5614SOL    HW217742   6.289   2.470   4.556
 5615SOL     OW17743   0.051   1.547   2.874
 5615SOL    HW117744   0.086   1.472   2.930
 5615SOL    HW217745   0.054   1.632   2.926
 5616SOL     OW17746   2.590   2.094   5.107
 5616SOL    HW117747   2.522   2.034   5.064
 5616SOL    HW217748   2.544   2.160   5.166
 5617SOL     OW17749   1.879   4.346   4.639
 5617SOL    HW117750   1.942   4.365   4.714
 5617SOL    HW217751   1.871   4.247   4.626
 5618SOL     OW17752   6.796   5.323   3.227
 5618SOL    HW117753   6.770   5.342   3.132
 5618SOL    HW217754   6.737   5.250   3.263
 5619SOL     OW17755   3.413   2.920   3.688
 5619SOL    HW117756   3.389   2.878   3.776
 5619SOL    HW217757   3.510   2.906   3.669
 5620SOL     OW17758   4.921   3.880   5.984
 5620SOL    HW117759   4.897   3.836   5.897
 5620SOL    HW217760   5.005   3.839   6.019
 5621SOL     OW17761   0.954   3.323   6.414
 5621SOL    HW117762   0.890   3.346   6.340
 5621SOL    HW217763   1.009   3.244   6.388
 5622SOL     OW17764   4.500   6.659   5.453
 5622SOL    HW117765   4.426   6.599   5.483
 5622SOL    HW217766   4.551   6.615   5.379
 5623SOL     OW17767   4.747   6.738   5.188
 5623SOL    HW117768   4.724   6.706   5.096
 5623SOL    HW217769   4.743   6.662   5.253
 5624SOL     OW17770   0.897   5.292   3.422
 5624SOL    HW117771   0.929   5.242   3.502
 5624SOL    HW217772   0.852   5.377   3.451
 5625SOL     OW17773   0.810   4.768   4.980
 5625SOL    HW117774   0.907   4.754   4.960
 5625SOL    HW217775   0.759   4.684   4.959
 5626SOL     OW17776   2.480   4.921   4.507
 5626SOL    HW117777   2.435   4.867   4.578
 5626SOL    HW217778   2.415   4.943   4.435
 5627SOL     OW17779   6.908   5.917   6.192
 5627SOL    HW117780   6.845   5.984   6.153
 5627SOL    HW217781   6.928   5.847   6.124
 5628SOL     OW17782   3.265   2.930   1.578
 5628SOL    HW117783   3.230   2.925   1.672
 5628SOL    HW217784   3.199   2.890   1.515
 5629SOL     OW17785   4.067   3.170   1.589
 5629SOL    HW117786   4.007   3.240   1.628
 5629SOL    HW217787   4.025   3.132   1.507
 5630SOL     OW17788   1.799   3.924   6.217
 5630SOL    HW117789   1.892   3.902   6.189
 5630SOL    HW217790   1.801   3.997   6.285
 5631SOL     OW17791   5.218   0.974   1.713
 5631SOL    HW117792   5.246   0.878   1.722
 5631SOL    HW217793   5.293   1.027   1.674
 5632SOL     OW17794   4.954   1.822   5.690
 5632SOL    HW117795   4.940   1.896   5.756
 5632SOL    HW217796   4.913   1.847   5.602
 5633SOL     OW17797   6.786   5.116   4.779
 5633SOL    HW117798   6.699   5.164   4.793
 5633SOL    HW217799   6.809   5.117   4.681
 5634SOL     OW17800   1.614   4.600   3.631
 5634SOL    HW117801   1.650   4.517   3.674
 5634SOL    HW217802   1.600   4.670   3.701
 5635SOL     OW17803   2.513   6.352   6.903
 5635SOL    HW117804   2.581   6.370   6.831
 5635SOL    HW217805   2.550   6.383   6.991
 5636SOL     OW17806   5.501   0.736   5.693
 5636SOL    HW117807   5.582   0.743   5.635
 5636SOL    HW217808   5.467   0.827   5.715
 5637SOL     OW17809   4.979   0.344   3.899
 5637SOL    HW117810   5.013   0.324   3.990
 5637SOL    HW217811   4.946   0.438   3.894
 5638SOL     OW17812   5.891   5.612   0.914
 5638SOL    HW117813   5.983   5.607   0.952
 5638SOL    HW217814   5.896   5.600   0.814
 5639SOL     OW17815   1.157   0.727   1.854
 5639SOL    HW117816   1.217   0.706   1.931
 5639SOL    HW217817   1.116   0.643   1.819
 5640SOL     OW17818   2.787   0.061   2.451
 5640SOL    HW117819   2.709   0.103   2.404
 5640SOL    HW217820   2.856   0.034   2.383
 5641SOL     OW17821   0.449   4.261   6.309
 5641SOL    HW117822   0.389   4.279   6.388
 5641SOL    HW217823   0.504   4.342   6.291
 5642SOL     OW17824   1.030   4.977   5.677
 5642SOL    HW117825   1.088   4.939   5.605
 5642SOL    HW217826   1.088   5.005   5.754
 5643SOL     OW17827   3.291   0.609   5.143
 5643SOL    HW117828   3.318   0.551   5.067
 5643SOL    HW217829   3.342   0.695   5.139
 5644SOL     OW17830   4.003   0.481   3.940
 5644SOL    HW117831   3.987   0.552   3.872
 5644SOL    HW217832   4.018   0.524   4.030
 5645SOL     OW17833   6.791   4.390   3.165
 5645SOL    HW117834   6.695   4.399   3.192
 5645SOL    HW217835   6.797   4.373   3.067
 5646SOL     OW17836   2.084   5.440   3.519
 5646SOL    HW117837   2.065   5.495   3.600
 5646SOL    HW217838   2.061   5.493   3.437
 5647SOL     OW17839   6.040   7.007   6.946
 5647SOL    HW117840   6.128   7.001   6.993
 5647SOL    HW217841   6.003   6.915   6.931
 5648SOL     OW17842   1.563   1.564   2.843
 5648SOL    HW117843   1.659   1.571   2.868
 5648SOL    HW217844   1.545   1.621   2.762
 5649SOL     OW17845   0.897   6.555   6.109
 5649SOL    HW117846   0.864   6.499   6.033
 5649SOL    HW217847   0.820   6.589   6.162
 5650SOL     OW17848   0.468   5.557   1.332
 5650SOL    HW117849   0.479   5.637   1.274
 5650SOL    HW217850   0.538   5.489   1.309
 5651SOL     OW17851   0.445   1.133   2.023
 5651SOL    HW117852   0.409   1.046   1.989
 5651SOL    HW217853   0.523   1.115   2.084
 5652SOL     OW17854   5.897   6.505   1.741
 5652SOL    HW117855   5.854   6.428   1.788
 5652SOL    HW217856   5.884   6.588   1.794
 5653SOL     OW17857   0.305   6.650   6.538
 5653SOL    HW117858   0.321   6.566   6.589
 5653SOL    HW217859   0.391   6.684   6.500
 5654SOL     OW17860   6.523   6.578   5.654
 5654SOL    HW117861   6.430   6.603   5.679
 5654SOL    HW217862   6.569   6.658   5.614
 5655SOL     OW17863   1.345   3.403   4.491
 5655SOL    HW117864   1.401   3.476   4.531
 5655SOL    HW217865   1.328   3.332   4.559
 5656SOL     OW17866   1.931   4.273   0.421
 5656SOL    HW117867   2.008   4.287   0.484
 5656SOL    HW217868   1.921   4.354   0.362
 5657SOL     OW17869   5.468   0.493   1.078
 5657SOL    HW117870   5.371   0.516   1.077
 5657SOL    HW217871   5.482   0.406   1.125
 5658SOL     OW17872   3.276   5.886   6.112
 5658SOL    HW117873   3.213   5.816   6.078
 5658SOL    HW217874   3.364   5.844   6.133
 5659SOL     OW17875   3.529   4.122   3.347
 5659SOL    HW117876   3.437   4.115   3.309
 5659SOL    HW217877   3.581   4.189   3.296
 5660SOL     OW17878   5.719   0.039   5.369
 5660SOL    HW117879   5.714   0.127   5.322
 5660SOL    HW217880   5.780   7.004   5.319
 5661SOL     OW17881   0.147   4.318   6.037
 5661SOL    HW117882   0.226   4.379   6.037
 5661SOL    HW217883   0.178   4.223   6.043
 5662SOL     OW17884   2.737   5.500   3.696
 5662SOL    HW117885   2.691   5.421   3.736
 5662SOL    HW217886   2.668   5.565   3.663
 5663SOL     OW17887   1.962   3.874   0.048
 5663SOL    HW117888   2.032   3.924   0.100
 5663SOL    HW217889   1.876   3.925   0.052
 5664SOL     OW17890   0.026   4.192   4.160
 5664SOL    HW117891   0.118   4.153   4.162
 5664SOL    HW217892   7.020   4.207   4.253
 5665SOL     OW17893   1.953   1.914   7.003
 5665SOL    HW117894   1.892   1.865   0.039
 5665SOL    HW217895   1.962   2.009   0.006
 5666SOL     OW17896   5.480   6.276   0.812
 5666SOL    HW117897   5.554   6.229   0.859
 5666SOL    HW217898   5.513   6.309   0.723
 5667SOL     OW17899   1.456   3.959   3.709
 5667SOL    HW117900   1.367   3.994   3.739
 5667SOL    HW217901   1.502   4.029   3.655
 5668SOL     OW17902   5.611   1.777   5.581
 5668SOL    HW117903   5.592   1.679   5.589
 5668SOL    HW217904   5.570   1.826   5.658
 5669SOL     OW17905   0.310   2.624   6.711
 5669SOL    HW117906   0.263   2.625   6.800
 5669SOL    HW217907   0.409   2.616   6.726
 5670SOL     OW17908   0.161   3.111   3.932
 5670SOL    HW117909   0.146   3.077   4.025
 5670SOL    HW217910   0.088   3.079   3.872
 5671SOL     OW17911   1.085   6.820   6.395
 5671SOL    HW117912   1.114   6.854   6.305
 5671SOL    HW217913   1.032   6.891   6.441
 5672SOL     OW17914   4.617   4.427   6.667
 5672SOL    HW117915   4.527   4.400   6.635
 5672SOL    HW217916   4.608   4.489   6.745
 5673SOL     OW17917   1.078   5.980   1.757
 5673SOL    HW117918   0.979   5.979   1.745
 5673SOL    HW217919   1.113   5.886   1.752
 5674SOL     OW17920   6.739   4.101   3.758
 5674SOL    HW117921   6.814   4.155   3.795
 5674SOL    HW217922   6.678   4.074   3.833
 5675SOL     OW17923   4.145   2.144   6.152
 5675SOL    HW117924   4.153   2.058   6.101
 5675SOL    HW217925   4.215   2.208   6.121
 5676SOL     OW17926   2.157   2.040   2.052
 5676SOL    HW117927   2.178   2.100   2.128
 5676SOL    HW217928   2.123   1.952   2.086
 5677SOL     OW17929   0.678   2.556   2.840
 5677SOL    HW117930   0.670   2.467   2.884
 5677SOL    HW217931   0.767   2.597   2.862
 5678SOL     OW17932   2.366   6.620   3.057
 5678SOL    HW117933   2.434   6.601   2.987
 5678SOL    HW217934   2.394   6.578   3.144
 5679SOL     OW17935   1.231   0.442   3.200
 5679SOL    HW117936   1.315   0.406   3.240
 5679SOL    HW217937   1.234   0.542   3.203
 5680SOL     OW17938   1.000   5.465   0.604
 5680SOL    HW117939   1.085   5.458   0.657
 5680SOL    HW217940   0.937   5.394   0.634
 5681SOL     OW17941   0.316   3.600   6.628
 5681SOL    HW117942   0.343   3.608   6.532
 5681SOL    HW217943   0.235   3.656   6.644
 5682SOL     OW17944   2.269   4.781   5.360
 5682SOL    HW117945   2.309   4.856   5.308
 5682SOL    HW217946   2.336   4.706   5.366
 5683SOL     OW17947   3.690   1.286   0.140
 5683SOL    HW117948   3.717   1.222   0.212
 5683SOL    HW217949   3.672   1.235   0.056
 5684SOL     OW17950   3.798   2.932   4.823
 5684SOL    HW117951   3.795   2.967   4.729
 5684SOL    HW217952   3.857   2.852   4.827
 5685SOL     OW17953   1.543   3.379   2.158
 5685SOL    HW117954   1.591   3.334   2.233
 5685SOL    HW217955   1.599   3.376   2.076
 5686SOL     OW17956   2.711   0.104   6.426
 5686SOL    HW117957   2.619   0.117   6.462
 5686SOL    HW217958   2.706   0.094   6.327
 5687SOL     OW17959   0.484   3.847   5.428
 5687SOL    HW117960   0.482   3.944   5.453
 5687SOL    HW217961   0.503   3.791   5.509
 5688SOL     OW17962   6.343   1.850   6.944
 5688SOL    HW117963   6.364   1.758   6.911
 5688SOL    HW217964   6.399   1.871   7.024
 5689SOL     OW17965   4.668   0.502   0.278
 5689SOL    HW117966   4.654   0.471   0.372
 5689SOL    HW217967   4.683   0.601   0.278
 5690SOL     OW17968   2.456   6.409   0.468
 5690SOL    HW117969   2.513   6.368   0.539
 5690SOL    HW217970   2.378   6.349   0.450
 5691SOL     OW17971   2.634   6.166   1.735
 5691SOL    HW117972   2.719   6.218   1.737
 5691SOL    HW217973   2.618   6.133   1.642
 5692SOL     OW17974   6.868   3.123   6.094
 5692SOL    HW117975   6.804   3.179   6.146
 5692SOL    HW217976   6.832   3.110   6.001
 5693SOL     OW17977   6.106   2.583   2.646
 5693SOL    HW117978   6.119   2.674   2.606
 5693SOL    HW217979   6.136   2.513   2.582
 5694SOL     OW17980   1.169   1.680   3.627
 5694SOL    HW117981   1.129   1.595   3.662
 5694SOL    HW217982   1.107   1.756   3.646
 5695SOL     OW17983   1.181   2.861   3.375
 5695SOL    HW117984   1.210   2.899   3.463
 5695SOL    HW217985   1.261   2.846   3.317
 5696SOL     OW17986   1.205   0.427   2.909
 5696SOL    HW117987   1.216   0.431   3.008
 5696SOL    HW217988   1.111   0.452   2.885
 5697SOL     OW17989   6.273   1.942   0.857
 5697SOL    HW117990   6.320   1.908   0.938
 5697SOL    HW217991   6.214   2.019   0.883
 5698SOL     OW17992   0.357   3.239   2.315
 5698SOL    HW117993   0.377   3.155   2.365
 5698SOL    HW217994   0.336   3.218   2.220
 5699SOL     OW17995   6.201   2.144   3.236
 5699SOL    HW117996   6.264   2.097   3.174
 5699SOL    HW217997   6.169   2.228   3.194
 5700SOL     OW17998   6.572   6.595   4.469
 5700SOL    HW117999   6.535   6.685   4.443
 5700SOL    HW218000   6.653   6.575   4.415
 5701SOL     OW18001   1.102   6.203   3.239
 5701SOL    HW118002   1.163   6.152   3.178
 5701SOL    HW218003   1.019   6.149   3.254
 5702SOL     OW18004   1.641   0.128   5.301
 5702SOL    HW118005   1.542   0.134   5.312
 5702SOL    HW218006   1.678   0.065   5.370
 5703SOL     OW18007   5.371   4.173   1.261
 5703SOL    HW118008   5.425   4.215   1.188
 5703SOL    HW218009   5.312   4.242   1.303
 5704SOL     OW18010   4.308   5.524   2.034
 5704SOL    HW118011   4.238   5.466   1.992
 5704SOL    HW218012   4.373   5.554   1.964
 5705SOL     OW18013   5.002   1.438   0.770
 5705SOL    HW118014   5.020   1.348   0.810
 5705SOL    HW218015   5.060   1.507   0.815
 5706SOL     OW18016   0.805   1.942   0.336
 5706SOL    HW118017   0.771   1.853   0.304
 5706SOL    HW218018   0.729   1.997   0.368
 5707SOL     OW18019   0.530   0.113   0.601
 5707SOL    HW118020   0.598   0.151   0.537
 5707SOL    HW218021   0.497   0.026   0.566
 5708SOL     OW18022   5.086   6.623   1.055
 5708SOL    HW118023   5.149   6.559   1.012
 5708SOL    HW218024   5.008   6.638   0.994
 5709SOL     OW18025   1.218   0.113   3.515
 5709SOL    HW118026   1.222   0.194   3.457
 5709SOL    HW218027   1.303   0.060   3.504
 5710SOL     OW18028   2.741   3.424   6.627
 5710SOL    HW118029   2.710   3.358   6.695
 5710SOL    HW218030   2.706   3.397   6.537
 5711SOL     OW18031   4.135   0.670   2.884
 5711SOL    HW118032   4.180   0.587   2.850
 5711SOL    HW218033   4.202   0.727   2.932
 5712SOL     OW18034   0.858   5.670   5.993
 5712SOL    HW118035   0.803   5.682   6.075
 5712SOL    HW218036   0.943   5.623   6.017
 5713SOL     OW18037   1.350   1.972   1.863
 5713SOL    HW118038   1.438   1.931   1.839
 5713SOL    HW218039   1.284   1.954   1.791
 5714SOL     OW18040   0.215   6.309   6.622
 5714SOL    HW118041   0.151   6.322   6.547
 5714SOL    HW218042   0.276   6.232   6.600
 5715SOL     OW18043   1.370   6.601   3.587
 5715SOL    HW118044   1.329   6.571   3.673
 5715SOL    HW218045   1.309   6.578   3.511
 5716SOL     OW18046   1.493   4.752   7.022
 5716SOL    HW118047   1.427   4.685   6.987
 5716SOL    HW218048   1.543   4.792   6.945
 5717SOL     OW18049   1.928   6.264   1.012
 5717SOL    HW118050   1.843   6.215   1.031
 5717SOL    HW218051   2.005   6.200   1.023
 5718SOL     OW18052   1.227   3.456   6.291
 5718SOL    HW118053   1.195   3.376   6.240
 5718SOL    HW218054   1.149   3.515   6.312
 5719SOL     OW18055   2.170   1.300   6.165
 5719SOL    HW118056   2.239   1.275   6.098
 5719SOL    HW218057   2.178   1.397   6.188
 5720SOL     OW18058   0.928   4.793   4.261
 5720SOL    HW118059   0.912   4.731   4.338
 5720SOL    HW218060   1.026   4.803   4.246
 5721SOL     OW18061   0.196   3.622   0.655
 5721SOL    HW118062   0.256   3.687   0.703
 5721SOL    HW218063   0.234   3.602   0.564
 5722SOL     OW18064   6.191   2.036   5.006
 5722SOL    HW118065   6.255   1.976   5.054
 5722SOL    HW218066   6.143   1.985   4.935
 5723SOL     OW18067   4.331   3.908   0.047
 5723SOL    HW118068   4.342   3.825   0.103
 5723SOL    HW218069   4.408   3.916   7.010
 5724SOL     OW18070   4.201   2.720   5.324
 5724SOL    HW118071   4.123   2.780   5.306
 5724SOL    HW218072   4.185   2.630   5.283
 5725SOL     OW18073   6.180   5.485   3.836
 5725SOL    HW118074   6.189   5.426   3.917
 5725SOL    HW218075   6.261   5.472   3.778
 5726SOL     OW18076   6.384   3.885   3.854
 5726SOL    HW118077   6.458   3.932   3.901
 5726SOL    HW218078   6.297   3.930   3.875
 5727SOL     OW18079   0.946   2.620   4.126
 5727SOL    HW118080   0.871   2.564   4.160
 5727SOL    HW218081   0.923   2.653   4.034
 5728SOL     OW18082   4.735   1.246   6.827
 5728SOL    HW118083   4.717   1.153   6.859
 5728SOL    HW218084   4.648   1.292   6.809
 5729SOL     OW18085   0.777   1.497   0.099
 5729SOL    HW118086   0.802   1.505   0.002
 5729SOL    HW218087   0.717   1.417   0.111
 5730SOL     OW18088   4.403   5.113   5.712
 5730SOL    HW118089   4.380   5.065   5.627
 5730SOL    HW218090   4.374   5.208   5.706
 5731SOL     OW18091   2.018   6.442   4.127
 5731SOL    HW118092   1.988   6.497   4.204
 5731SOL    HW218093   1.955   6.453   4.050
 5732SOL     OW18094   6.819   4.967   5.644
 5732SOL    HW118095   6.787   4.940   5.735
 5732SOL    HW218096   6.807   5.066   5.633
 5733SOL     OW18097   2.889   0.367   5.620
 5733SOL    HW118098   2.914   0.386   5.715
 5733SOL    HW218099   2.789   0.365   5.612
 5734SOL     OW18100   1.364   6.174   6.090
 5734SOL    HW118101   1.402   6.211   6.175
 5734SOL    HW218102   1.384   6.076   6.084
 5735SOL     OW18103   4.126   1.145   2.481
 5735SOL    HW118104   4.095   1.206   2.408
 5735SOL    HW218105   4.061   1.071   2.494
 5736SOL     OW18106   5.792   4.113   1.224
 5736SOL    HW118107   5.722   4.176   1.192
 5736SOL    HW218108   5.750   4.042   1.281
 5737SOL     OW18109   5.629   5.654   6.818
 5737SOL    HW118110   5.531   5.644   6.836
 5737SOL    HW218111   5.643   5.676   6.721
 5738SOL     OW18112   3.378   2.438   6.774
 5738SOL    HW118113   3.289   2.472   6.807
 5738SOL    HW218114   3.363   2.375   6.698
 5739SOL     OW18115   0.934   6.095   5.468
 5739SOL    HW118116   0.838   6.071   5.456
 5739SOL    HW218117   0.944   6.195   5.470
 5740SOL     OW18118   4.207   4.399   1.017
 5740SOL    HW118119   4.167   4.422   0.928
 5740SOL    HW218120   4.259   4.314   1.009
 5741SOL     OW18121   6.721   3.818   4.671
 5741SOL    HW118122   6.677   3.860   4.751
 5741SOL    HW218123   6.786   3.748   4.702
 5742SOL     OW18124   4.477   6.072   2.125
 5742SOL    HW118125   4.390   6.028   2.102
 5742SOL    HW218126   4.546   6.048   2.058
 5743SOL     OW18127   1.978   5.836   5.602
 5743SOL    HW118128   2.059   5.848   5.660
 5743SOL    HW218129   1.906   5.898   5.633
 5744SOL     OW18130   4.613   1.585   1.528
 5744SOL    HW118131   4.581   1.652   1.461
 5744SOL    HW218132   4.700   1.615   1.568
 5745SOL     OW18133   1.991   1.273   3.260
 5745SOL    HW118134   1.995   1.269   3.360
 5745SOL    HW218135   2.066   1.221   3.221
 5746SOL     OW18136   4.654   0.252   1.951
 5746SOL    HW118137   4.626   0.292   2.039
 5746SOL    HW218138   4.693   0.162   1.967
 5747SOL     OW18139   1.591   5.407   1.816
 5747SOL    HW118140   1.654   5.485   1.805
 5747SOL    HW218141   1.618   5.354   1.896
 5748SOL     OW18142   1.464   0.381   1.082
 5748SOL    HW118143   1.477   0.469   1.128
 5748SOL    HW218144   1.404   0.323   1.136
 5749SOL     OW18145   1.217   6.240   5.005
 5749SOL    HW118146   1.313   6.213   5.012
 5749SOL    HW218147   1.162   6.160   4.982
 5750SOL     OW18148   6.129   6.103   4.881
 5750SOL    HW118149   6.146   6.047   4.800
 5750SOL    HW218150   6.142   6.048   4.963
 5751SOL     OW18151   2.270   2.840   4.856
 5751SOL    HW118152   2.327   2.898   4.915
 5751SOL    HW218153   2.303   2.745   4.861
 5752SOL     OW18154   5.465   0.391   0.129
 5752SOL    HW118155   5.365   0.380   0.128
 5752SOL    HW218156   5.487   0.487   0.147
 5753SOL     OW18157   3.907   4.020   4.447
 5753SOL    HW118158   3.813   4.002   4.476
 5753SOL    HW218159   3.928   4.117   4.460
 5754SOL     OW18160   6.931   5.573   2.187
 5754SOL    HW118161   6.926   5.640   2.261
 5754SOL    HW218162   0.000   5.545   2.175
 5755SOL     OW18163   1.946   2.406   6.780
 5755SOL    HW118164   1.878   2.472   6.748
 5755SOL    HW218165   1.921   2.373   6.871
 5756SOL     OW18166   6.807   0.380   2.863
 5756SOL    HW118167   6.883   0.401   2.925
 5756SOL    HW218168   6.766   0.293   2.888
 5757SOL     OW18169   0.157   5.500   2.998
 5757SOL    HW118170   0.080   5.527   3.056
 5757SOL    HW218171   0.141   5.410   2.960
 5758SOL     OW18172   2.487   1.471   3.821
 5758SOL    HW118173   2.490   1.422   3.908
 5758SOL    HW218174   2.518   1.411   3.748
 5759SOL     OW18175   5.023   0.597   6.784
 5759SOL    HW118176   5.087   0.662   6.823
 5759SOL    HW218177   5.016   0.517   6.843
 5760SOL     OW18178   6.930   3.053   0.899
 5760SOL    HW118179   6.927   3.121   0.971
 5760SOL    HW218180   6.852   3.066   0.838
 5761SOL     OW18181   5.711   5.006   6.045
 5761SOL    HW118182   5.619   5.027   6.013
 5761SOL    HW218183   5.754   4.942   5.981
 5762SOL     OW18184   5.051   3.886   1.168
 5762SOL    HW118185   5.005   3.801   1.194
 5762SOL    HW218186   4.985   3.950   1.129
 5763SOL     OW18187   6.489   5.770   0.693
 5763SOL    HW118188   6.518   5.865   0.691
 5763SOL    HW218189   6.394   5.765   0.721
 5764SOL     OW18190   5.331   4.694   5.386
 5764SOL    HW118191   5.408   4.641   5.423
 5764SOL    HW218192   5.360   4.789   5.374
 5765SOL     OW18193   6.398   2.935   0.928
 5765SOL    HW118194   6.431   3.005   0.865
 5765SOL    HW218195   6.299   2.925   0.919
 5766SOL     OW18196   1.730   1.676   5.824
 5766SOL    HW118197   1.780   1.726   5.752
 5766SOL    HW218198   1.691   1.742   5.888
 5767SOL     OW18199   2.007   0.589   0.896
 5767SOL    HW118200   1.992   0.568   0.799
 5767SOL    HW218201   2.034   0.685   0.905
 5768SOL     OW18202   1.119   6.162   4.199
 5768SOL    HW118203   1.168   6.242   4.163
 5768SOL    HW218204   1.070   6.189   4.282
 5769SOL     OW18205   2.270   5.492   4.287
 5769SOL    HW118206   2.313   5.524   4.372
 5769SOL    HW218207   2.210   5.563   4.251
 5770SOL     OW18208   6.489   6.045   6.448
 5770SOL    HW118209   6.546   5.963   6.449
 5770SOL    HW218210   6.486   6.085   6.540
 5771SOL     OW18211   1.002   6.829   4.444
 5771SOL    HW118212   0.985   6.924   4.416
 5771SOL    HW218213   1.020   6.773   4.363
 5772SOL     OW18214   5.467   1.038   1.927
 5772SOL    HW118215   5.429   1.126   1.956
 5772SOL    HW218216   5.564   1.034   1.954
 5773SOL     OW18217   3.864   0.633   3.444
 5773SOL    HW118218   3.773   0.668   3.465
 5773SOL    HW218219   3.856   0.545   3.398
 5774SOL     OW18220   3.247   6.506   4.048
 5774SOL    HW118221   3.164   6.539   4.092
 5774SOL    HW218222   3.229   6.416   4.008
 5775SOL     OW18223   1.483   0.761   2.578
 5775SOL    HW118224   1.471   0.860   2.590
 5775SOL    HW218225   1.505   0.742   2.483
 5776SOL     OW18226   0.103   0.566   4.306
 5776SOL    HW118227   0.083   0.468   4.297
 5776SOL    HW218228   0.136   0.585   4.399
 5777SOL     OW18229   6.756   0.675   4.947
 5777SOL    HW118230   6.772   0.634   4.857
 5777SOL    HW218231   6.659   0.700   4.955
 5778SOL     OW18232   1.433   0.461   0.782
 5778SOL    HW118233   1.508   0.467   0.717
 5778SOL    HW218234   1.458   0.508   0.866
 5779SOL     OW18235   4.037   2.693   0.768
 5779SOL    HW118236   4.010   2.704   0.673
 5779SOL    HW218237   3.964   2.726   0.828
 5780SOL     OW18238   6.371   5.803   4.229
 5780SOL    HW118239   6.419   5.764   4.150
 5780SOL    HW218240   6.365   5.733   4.301
 5781SOL     OW18241   6.526   5.241   4.472
 5781SOL    HW118242   6.483   5.155   4.501
 5781SOL    HW218243   6.605   5.220   4.413
 5782SOL     OW18244   1.416   1.377   0.422
 5782SOL    HW118245   1.473   1.459   0.427
 5782SOL    HW218246   1.402   1.340   0.514
 5783SOL     OW18247   1.326   0.276   1.672
 5783SOL    HW118248   1.345   0.320   1.760
 5783SOL    HW218249   1.229   0.286   1.650
 5784SOL     OW18250   6.792   5.849   6.428
 5784SOL    HW118251   6.808   5.872   6.332
 5784SOL    HW218252   6.697   5.820   6.440
 5785SOL     OW18253   2.556   1.585   0.491
 5785SOL    HW118254   2.470   1.603   0.442
 5785SOL    HW218255   2.610   1.669   0.494
 5786SOL     OW18256   1.331   3.865   0.240
 5786SOL    HW118257   1.277   3.948   0.255
 5786SOL    HW218258   1.287   3.788   0.285
 5787SOL     OW18259   3.572   2.084   4.705
 5787SOL    HW118260   3.621   2.141   4.638
 5787SOL    HW218261   3.475   2.108   4.703
 5788SOL     OW18262   3.148   1.414   1.032
 5788SOL    HW118263   3.120   1.318   1.037
 5788SOL    HW218264   3.077   1.466   0.983
 5789SOL     OW18265   3.357   4.575   6.690
 5789SOL    HW118266   3.414   4.651   6.659
 5789SOL    HW218267   3.271   4.611   6.727
 5790SOL     OW18268   0.913   4.584   4.490
 5790SOL    HW118269   0.869   4.540   4.568
 5790SOL    HW218270   0.931   4.517   4.419
 5791SOL     OW18271   3.259   1.371   2.888
 5791SOL    HW118272   3.161   1.386   2.906
 5791SOL    HW218273   3.291   1.439   2.822
 5792SOL     OW18274   6.182   3.130   2.585
 5792SOL    HW118275   6.222   3.079   2.661
 5792SOL    HW218276   6.244   3.128   2.506
 5793SOL     OW18277   4.800   0.847   3.782
 5793SOL    HW118278   4.875   0.781   3.789
 5793SOL    HW218279   4.720   0.802   3.740
 5794SOL     OW18280   2.334   0.732   0.180
 5794SOL    HW118281   2.359   0.823   0.146
 5794SOL    HW218282   2.235   0.724   0.184
 5795SOL     OW18283   6.417   0.009   6.717
 5795SOL    HW118284   6.319   7.017   6.707
 5795SOL    HW218285   6.457   6.971   6.782
 5796SOL     OW18286   5.058   1.510   6.042
 5796SOL    HW118287   5.104   1.421   6.043
 5796SOL    HW218288   5.125   1.583   6.057
 5797SOL     OW18289   4.814   2.556   6.765
 5797SOL    HW118290   4.792   2.461   6.746
 5797SOL    HW218291   4.730   2.605   6.792
 5798SOL     OW18292   1.096   4.836   4.879
 5798SOL    HW118293   1.070   4.830   4.783
 5798SOL    HW218294   1.136   4.748   4.908
 5799SOL     OW18295   0.284   0.627   3.476
 5799SOL    HW118296   0.365   0.569   3.464
 5799SOL    HW218297   0.237   0.638   3.388
 5800SOL     OW18298   6.346   6.443   2.332
 5800SOL    HW118299   6.284   6.373   2.368
 5800SOL    HW218300   6.440   6.422   2.361
 5801SOL     OW18301   1.704   2.491   3.287
 5801SOL    HW118302   1.690   2.400   3.325
 5801SOL    HW218303   1.801   2.514   3.290
 5802SOL     OW18304   0.611   3.849   2.014
 5802SOL    HW118305   0.687   3.812   1.961
 5802SOL    HW218306   0.529   3.794   1.999
 5803SOL     OW18307   2.401   5.547   1.966
 5803SOL    HW118308   2.360   5.633   1.935
 5803SOL    HW218309   2.485   5.529   1.915
 5804SOL     OW18310   0.412   5.961   3.749
 5804SOL    HW118311   0.429   5.933   3.843
 5804SOL    HW218312   0.473   6.037   3.725
 5805SOL     OW18313   2.307   3.289   0.211
 5805SOL    HW118314   2.354   3.369   0.248
 5805SOL    HW218315   2.234   3.261   0.274
 5806SOL     OW18316   6.638   5.300   5.020
 5806SOL    HW118317   6.710   5.361   5.055
 5806SOL    HW218318   6.593   5.342   4.942
 5807SOL     OW18319   0.823   3.834   1.569
 5807SOL    HW118320   0.835   3.737   1.591
 5807SOL    HW218321   0.902   3.886   1.600
 5808SOL     OW18322   6.489   5.584   4.785
 5808SOL    HW118323   6.501   5.655   4.716
 5808SOL    HW218324   6.499   5.624   4.876
 5809SOL     OW18325   5.651   2.270   4.559
 5809SOL    HW118326   5.601   2.188   4.587
 5809SOL    HW218327   5.744   2.244   4.530
 5810SOL     OW18328   4.036   1.719   4.583
 5810SOL    HW118329   3.953   1.667   4.603
 5810SOL    HW218330   4.071   1.692   4.493
 5811SOL     OW18331   2.978   0.954   5.132
 5811SOL    HW118332   2.992   0.989   5.040
 5811SOL    HW218333   3.059   0.972   5.188
 5812SOL     OW18334   6.368   2.606   4.416
 5812SOL    HW118335   6.425   2.594   4.497
 5812SOL    HW218336   6.410   2.674   4.356
 5813SOL     OW18337   1.619   1.711   0.977
 5813SOL    HW118338   1.702   1.682   0.930
 5813SOL    HW218339   1.568   1.774   0.918
 5814SOL     OW18340   6.562   4.076   2.447
 5814SOL    HW118341   6.600   3.997   2.399
 5814SOL    HW218342   6.513   4.134   2.382
 5815SOL     OW18343   4.159   1.956   4.662
 5815SOL    HW118344   4.122   1.865   4.642
 5815SOL    HW218345   4.084   2.019   4.680
 5816SOL     OW18346   4.577   5.063   0.167
 5816SOL    HW118347   4.581   5.146   0.222
 5816SOL    HW218348   4.561   5.086   0.071
 5817SOL     OW18349   5.825   3.623   5.636
 5817SOL    HW118350   5.799   3.616   5.540
 5817SOL    HW218351   5.869   3.538   5.666
 5818SOL     OW18352   6.874   5.948   4.713
 5818SOL    HW118353   6.783   5.989   4.715
 5818SOL    HW218354   6.890   5.899   4.798
 5819SOL     OW18355   3.327   6.984   6.537
 5819SOL    HW118356   3.323   6.921   6.615
 5819SOL    HW218357   3.409   0.014   6.545
 5820SOL     OW18358   4.773   5.333   3.576
 5820SOL    HW118359   4.697   5.381   3.531
 5820SOL    HW218360   4.773   5.356   3.673
 5821SOL     OW18361   0.008   6.720   1.276
 5821SOL    HW118362   7.003   6.687   1.187
 5821SOL    HW218363   6.964   6.702   1.344
 5822SOL     OW18364   1.497   2.330   1.205
 5822SOL    HW118365   1.398   2.323   1.191
 5822SOL    HW218366   1.541   2.353   1.118
 5823SOL     OW18367   1.844   0.324   5.408
 5823SOL    HW118368   1.836   0.420   5.433
 5823SOL    HW218369   1.767   0.298   5.350
 5824SOL     OW18370   6.825   5.756   2.383
 5824SOL    HW118371   6.755   5.781   2.450
 5824SOL    HW218372   6.827   5.825   2.310
 5825SOL     OW18373   0.114   1.866   5.456
 5825SOL    HW118374   0.189   1.904   5.401
 5825SOL    HW218375   0.111   1.767   5.443
 5826SOL     OW18376   0.071   4.670   6.207
 5826SOL    HW118377   0.045   4.682   6.303
 5826SOL    HW218378   0.005   4.717   6.148
 5827SOL     OW18379   2.153   3.839   4.852
 5827SOL    HW118380   2.122   3.869   4.761
 5827SOL    HW218381   2.203   3.914   4.896
 5828SOL     OW18382   6.422   1.837   1.528
 5828SOL    HW118383   6.408   1.935   1.543
 5828SOL    HW218384   6.401   1.787   1.613
 5829SOL     OW18385   0.878   0.621   3.323
 5829SOL    HW118386   0.924   0.705   3.354
 5829SOL    HW218387   0.832   0.578   3.401
 5830SOL     OW18388   4.941   6.469   5.913
 5830SOL    HW118389   4.853   6.516   5.913
 5830SOL    HW218390   4.927   6.372   5.932
 5831SOL     OW18391   1.384   1.556   5.593
 5831SOL    HW118392   1.395   1.475   5.650
 5831SOL    HW218393   1.326   1.534   5.514
 5832SOL     OW18394   2.722   4.491   6.628
 5832SOL    HW118395   2.734   4.590   6.618
 5832SOL    HW218396   2.631   4.472   6.663
 5833SOL     OW18397   3.764   3.741   4.930
 5833SOL    HW118398   3.842   3.796   4.901
 5833SOL    HW218399   3.774   3.717   5.026
 5834SOL     OW18400   0.117   2.777   0.544
 5834SOL    HW118401   0.081   2.855   0.594
 5834SOL    HW218402   0.206   2.800   0.506
 5835SOL     OW18403   5.554   3.083   3.433
 5835SOL    HW118404   5.621   3.040   3.372
 5835SOL    HW218405   5.501   3.150   3.382
 5836SOL     OW18406   2.541   6.792   2.110
 5836SOL    HW118407   2.452   6.824   2.142
 5836SOL    HW218408   2.532   6.756   2.017
 5837SOL     OW18409   3.729   4.240   6.054
 5837SOL    HW118410   3.655   4.193   6.104
 5837SOL    HW218411   3.717   4.226   5.956
 5838SOL     OW18412   2.727   1.812   0.515
 5838SOL    HW118413   2.804   1.748   0.503
 5838SOL    HW218414   2.753   1.882   0.581
 5839SOL     OW18415   0.782   2.017   2.483
 5839SOL    HW118416   0.867   2.048   2.527
 5839SOL    HW218417   0.777   2.055   2.391
 5840SOL     OW18418   0.340   5.549   6.557
 5840SOL    HW118419   0.241   5.545   6.567
 5840SOL    HW218420   0.376   5.455   6.555
 5841SOL     OW18421   4.924   1.938   2.356
 5841SOL    HW118422   4.925   1.992   2.440
 5841SOL    HW218423   4.952   1.995   2.279
 5842SOL     OW18424   4.505   2.819   1.530
 5842SOL    HW118425   4.602   2.825   1.509
 5842SOL    HW218426   4.485   2.872   1.613
 5843SOL     OW18427   1.524   3.897   3.196
 5843SOL    HW118428   1.511   3.863   3.289
 5843SOL    HW218429   1.563   3.989   3.200
 5844SOL     OW18430   2.030   6.065   5.922
 5844SOL    HW118431   2.051   6.159   5.948
 5844SOL    HW218432   2.101   6.003   5.957
 5845SOL     OW18433   0.732   0.290   2.800
 5845SOL    HW118434   0.785   0.226   2.856
 5845SOL    HW218435   0.687   0.357   2.859
 5846SOL     OW18436   6.648   2.934   4.677
 5846SOL    HW118437   6.685   2.959   4.588
 5846SOL    HW218438   6.556   2.972   4.686
 5847SOL     OW18439   2.969   2.171   1.560
 5847SOL    HW118440   2.870   2.181   1.565
 5847SOL    HW218441   2.997   2.163   1.465
 5848SOL     OW18442   1.492   5.990   2.937
 5848SOL    HW118443   1.425   5.972   3.009
 5848SOL    HW218444   1.453   5.965   2.849
 5849SOL     OW18445   0.957   0.763   6.025
 5849SOL    HW118446   0.989   0.857   6.032
 5849SOL    HW218447   0.975   0.715   6.110
 5850SOL     OW18448   6.880   3.508   1.918
 5850SOL    HW118449   6.835   3.543   2.000
 5850SOL    HW218450   6.858   3.567   1.840
 5851SOL     OW18451   4.806   3.910   2.980
 5851SOL    HW118452   4.779   3.862   2.896
 5851SOL    HW218453   4.844   3.846   3.045
 5852SOL     OW18454   6.168   6.040   3.119
 5852SOL    HW118455   6.176   6.121   3.061
 5852SOL    HW218456   6.112   6.062   3.199
 5853SOL     OW18457   3.606   5.809   4.149
 5853SOL    HW118458   3.563   5.869   4.082
 5853SOL    HW218459   3.668   5.863   4.207
 5854SOL     OW18460   4.640   4.392   6.205
 5854SOL    HW118461   4.686   4.411   6.292
 5854SOL    HW218462   4.705   4.399   6.130
 5855SOL     OW18463   0.658   1.810   4.890
 5855SOL    HW118464   0.673   1.715   4.865
 5855SOL    HW218465   0.641   1.817   4.988
 5856SOL     OW18466   2.047   5.916   3.701
 5856SOL    HW118467   2.114   5.966   3.756
 5856SOL    HW218468   2.053   5.946   3.606
 5857SOL     OW18469   6.368   2.138   6.167
 5857SOL    HW118470   6.340   2.053   6.213
 5857SOL    HW218471   6.412   2.115   6.080
 5858SOL     OW18472   2.849   1.853   2.260
 5858SOL    HW118473   2.770   1.896   2.303
 5858SOL    HW218474   2.917   1.924   2.237
 5859SOL     OW18475   6.124   6.354   1.260
 5859SOL    HW118476   6.096   6.262   1.289
 5859SOL    HW218477   6.075   6.422   1.315
 5860SOL     OW18478   0.886   3.566   1.685
 5860SOL    HW118479   0.974   3.518   1.678
 5860SOL    HW218480   0.812   3.499   1.687
 5861SOL     OW18481   4.380   1.861   4.564
 5861SOL    HW118482   4.306   1.905   4.615
 5861SOL    HW218483   4.440   1.813   4.628
 5862SOL     OW18484   6.204   5.201   1.396
 5862SOL    HW118485   6.215   5.141   1.317
 5862SOL    HW218486   6.288   5.253   1.410
 5863SOL     OW18487   3.421   1.995   5.250
 5863SOL    HW118488   3.322   1.997   5.232
 5863SOL    HW218489   3.451   2.083   5.285
 5864SOL     OW18490   4.081   3.648   2.131
 5864SOL    HW118491   4.117   3.554   2.134
 5864SOL    HW218492   4.092   3.690   2.221
 5865SOL     OW18493   6.103   0.400   4.538
 5865SOL    HW118494   6.124   0.311   4.578
 5865SOL    HW218495   6.104   0.393   4.439
 5866SOL     OW18496   4.167   4.519   6.935
 5866SOL    HW118497   4.211   4.561   6.855
 5866SOL    HW218498   4.067   4.528   6.926
 5867SOL     OW18499   1.862   3.425   0.492
 5867SOL    HW118500   1.785   3.407   0.430
 5867SOL    HW218501   1.841   3.388   0.583
 5868SOL     OW18502   0.956   1.929   5.359
 5868SOL    HW118503   0.996   1.837   5.366
 5868SOL    HW218504   0.877   1.927   5.298
 5869SOL     OW18505   1.373   6.046   3.425
 5869SOL    HW118506   1.467   6.016   3.439
 5869SOL    HW218507   1.316   6.013   3.499
 5870SOL     OW18508   5.031   5.798   4.495
 5870SOL    HW118509   5.061   5.735   4.567
 5870SOL    HW218510   4.931   5.803   4.494
 5871SOL     OW18511   3.804   2.768   1.367
 5871SOL    HW118512   3.847   2.723   1.289
 5871SOL    HW218513   3.853   2.744   1.451
 5872SOL     OW18514   3.855   6.285   1.001
 5872SOL    HW118515   3.759   6.284   0.975
 5872SOL    HW218516   3.883   6.378   1.025
 5873SOL     OW18517   2.953   1.888   1.554
 5873SOL    HW118518   3.018   1.964   1.547
 5873SOL    HW218519   2.946   1.859   1.649
 5874SOL     OW18520   3.147   3.829   6.303
 5874SOL    HW118521   3.177   3.738   6.331
 5874SOL    HW218522   3.110   3.825   6.210
 5875SOL     OW18523   4.366   0.709   0.020
 5875SOL    HW118524   4.427   0.698   6.967
 5875SOL    HW218525   4.368   0.625   0.075
 5876SOL     OW18526   3.448   3.764   0.653
 5876SOL    HW118527   3.361   3.769   0.605
 5876SOL    HW218528   3.522   3.791   0.591
 5877SOL     OW18529   0.463   0.727   1.018
 5877SOL    HW118530   0.491   0.721   1.113
 5877SOL    HW218531   0.462   0.635   0.978
 5878SOL     OW18532   6.172   5.256   4.003
 5878SOL    HW118533   6.198   5.230   4.096
 5878SOL    HW218534   6.173   5.175   3.944
 5879SOL     OW18535   1.962   3.745   6.836
 5879SOL    HW118536   1.940   3.784   6.926
 5879SOL    HW218537   2.018   3.810   6.784
 5880SOL     OW18538   5.350   4.503   6.786
 5880SOL    HW118539   5.401   4.438   6.730
 5880SOL    HW218540   5.253   4.501   6.760
 5881SOL     OW18541   0.786   6.549   2.592
 5881SOL    HW118542   0.839   6.465   2.580
 5881SOL    HW218543   0.701   6.529   2.640
 5882SOL     OW18544   0.073   5.484   6.609
 5882SOL    HW118545   0.067   5.406   6.671
 5882SOL    HW218546   7.018   5.541   6.619
 5883SOL     OW18547   0.512   1.687   6.628
 5883SOL    HW118548   0.459   1.612   6.587
 5883SOL    HW218549   0.467   1.774   6.610
 5884SOL     OW18550   4.850   1.259   3.842
 5884SOL    HW118551   4.860   1.311   3.927
 5884SOL    HW218552   4.802   1.315   3.774
 5885SOL     OW18553   0.044   5.680   2.448
 5885SOL    HW118554   6.972   5.695   2.439
 5885SOL    HW218555   0.092   5.734   2.379
 5886SOL     OW18556   0.605   2.044   3.825
 5886SOL    HW118557   0.553   2.122   3.790
 5886SOL    HW218558   0.620   2.057   3.923
 5887SOL     OW18559   2.246   2.640   1.343
 5887SOL    HW118560   2.319   2.571   1.351
 5887SOL    HW218561   2.162   2.604   1.383
 5888SOL     OW18562   1.654   0.632   1.352
 5888SOL    HW118563   1.647   0.537   1.382
 5888SOL    HW218564   1.715   0.638   1.273
 5889SOL     OW18565   0.130   1.052   0.567
 5889SOL    HW118566   0.125   1.027   0.664
 5889SOL    HW218567   0.117   0.970   0.511
 5890SOL     OW18568   1.663   1.063   2.638
 5890SOL    HW118569   1.613   1.104   2.562
 5890SOL    HW218570   1.750   1.110   2.650
 5891SOL     OW18571   3.325   4.168   0.173
 5891SOL    HW118572   3.316   4.154   0.074
 5891SOL    HW218573   3.350   4.082   0.217
 5892SOL     OW18574   1.178   5.176   2.122
 5892SOL    HW118575   1.194   5.086   2.083
 5892SOL    HW218576   1.094   5.175   2.176
 5893SOL     OW18577   1.915   4.274   3.151
 5893SOL    HW118578   1.840   4.267   3.086
 5893SOL    HW218579   1.936   4.184   3.189
 5894SOL     OW18580   0.420   5.788   4.583
 5894SOL    HW118581   0.334   5.810   4.538
 5894SOL    HW218582   0.455   5.868   4.631
 5895SOL     OW18583   5.175   3.477   3.582
 5895SOL    HW118584   5.273   3.461   3.580
 5895SOL    HW218585   5.128   3.396   3.618
 5896SOL     OW18586   4.019   1.645   1.467
 5896SOL    HW118587   4.022   1.658   1.566
 5896SOL    HW218588   3.961   1.567   1.446
 5897SOL     OW18589   3.911   0.471   1.773
 5897SOL    HW118590   3.895   0.550   1.714
 5897SOL    HW218591   4.010   0.455   1.781
 5898SOL     OW18592   2.504   0.720   4.905
 5898SOL    HW118593   2.600   0.712   4.879
 5898SOL    HW218594   2.482   0.652   4.975
 5899SOL     OW18595   6.432   5.452   6.983
 5899SOL    HW118596   6.474   5.509   6.913
 5899SOL    HW218597   6.502   5.394   7.025
 5900SOL     OW18598   6.663   4.734   3.740
 5900SOL    HW118599   6.579   4.686   3.765
 5900SOL    HW218600   6.709   4.767   3.822
 5901SOL     OW18601   3.502   0.247   0.609
 5901SOL    HW118602   3.417   0.281   0.649
 5901SOL    HW218603   3.509   0.278   0.514
 5902SOL     OW18604   6.336   3.350   5.532
 5902SOL    HW118605   6.266   3.287   5.499
 5902SOL    HW218606   6.354   3.419   5.463
 5903SOL     OW18607   4.852   4.032   6.219
 5903SOL    HW118608   4.761   4.071   6.210
 5903SOL    HW218609   4.874   3.978   6.138
 5904SOL     OW18610   1.409   5.015   0.852
 5904SOL    HW118611   1.488   5.050   0.902
 5904SOL    HW218612   1.336   5.083   0.853
 5905SOL     OW18613   6.074   0.431   4.239
 5905SOL    HW118614   5.996   0.409   4.181
 5905SOL    HW218615   6.159   0.417   4.189
 5906SOL     OW18616   4.153   1.956   3.614
 5906SOL    HW118617   4.198   1.867   3.627
 5906SOL    HW218618   4.107   1.983   3.698
 5907SOL     OW18619   0.870   5.962   0.308
 5907SOL    HW118620   0.830   6.018   0.381
 5907SOL    HW218621   0.915   5.882   0.348
 5908SOL     OW18622   6.565   3.134   0.442
 5908SOL    HW118623   6.653   3.086   0.448
 5908SOL    HW218624   6.567   3.198   0.365
 5909SOL     OW18625   6.524   5.079   0.109
 5909SOL    HW118626   6.571   5.055   0.193
 5909SOL    HW218627   6.522   5.179   0.099
 5910SOL     OW18628   0.372   4.060   2.324
 5910SOL    HW118629   0.437   4.119   2.276
 5910SOL    HW218630   0.302   4.029   2.261
 5911SOL     OW18631   6.442   4.691   6.549
 5911SOL    HW118632   6.446   4.648   6.640
 5911SOL    HW218633   6.497   4.774   6.550
 5912SOL     OW18634   5.842   3.008   6.448
 5912SOL    HW118635   5.828   2.958   6.363
 5912SOL    HW218636   5.904   2.957   6.507
 5913SOL     OW18637   4.136   3.625   6.643
 5913SOL    HW118638   4.096   3.691   6.706
 5913SOL    HW218639   4.082   3.541   6.645
 5914SOL     OW18640   2.354   4.981   6.521
 5914SOL    HW118641   2.321   4.985   6.426
 5914SOL    HW218642   2.431   5.045   6.532
 5915SOL     OW18643   5.727   4.628   1.548
 5915SOL    HW118644   5.727   4.586   1.457
 5915SOL    HW218645   5.684   4.718   1.543
 5916SOL     OW18646   4.147   5.583   4.882
 5916SOL    HW118647   4.147   5.550   4.976
 5916SOL    HW218648   4.095   5.669   4.877
 5917SOL     OW18649   3.611   3.668   3.500
 5917SOL    HW118650   3.540   3.606   3.465
 5917SOL    HW218651   3.640   3.637   3.591
 5918SOL     OW18652   2.055   3.034   5.529
 5918SOL    HW118653   2.101   3.121   5.507
 5918SOL    HW218654   1.986   3.015   5.460
 5919SOL     OW18655   4.362   3.198   1.126
 5919SOL    HW118656   4.300   3.120   1.127
 5919SOL    HW218657   4.453   3.169   1.154
 5920SOL     OW18658   3.656   0.537   0.023
 5920SOL    HW118659   3.692   0.583   6.968
 5920SOL    HW218660   3.557   0.528   0.015
 5921SOL     OW18661   4.141   5.473   5.851
 5921SOL    HW118662   4.238   5.494   5.856
 5921SOL    HW218663   4.114   5.464   5.755
 5922SOL     OW18664   6.699   5.621   3.299
 5922SOL    HW118665   6.763   5.671   3.242
 5922SOL    HW218666   6.706   5.523   3.280
 5923SOL     OW18667   5.485   1.048   1.146
 5923SOL    HW118668   5.447   1.090   1.064
 5923SOL    HW218669   5.576   1.011   1.127
 5924SOL     OW18670   0.085   1.162   3.797
 5924SOL    HW118671   0.076   1.109   3.881
 5924SOL    HW218672   0.052   1.255   3.813
 5925SOL     OW18673   3.917   5.450   1.956
 5925SOL    HW118674   3.818   5.434   1.954
 5925SOL    HW218675   3.937   5.530   2.012
 5926SOL     OW18676   3.672   5.345   1.417
 5926SOL    HW118677   3.632   5.386   1.499
 5926SOL    HW218678   3.635   5.253   1.404
 5927SOL     OW18679   1.331   4.205   3.030
 5927SOL    HW118680   1.409   4.166   3.080
 5927SOL    HW218681   1.314   4.151   2.947
 5928SOL     OW18682   3.637   0.040   0.453
 5928SOL    HW118683   3.667   0.106   0.385
 5928SOL    HW218684   3.578   0.086   0.520
 5929SOL     OW18685   0.479   6.478   6.316
 5929SOL    HW118686   0.535   6.467   6.398
 5929SOL    HW218687   0.429   6.394   6.298
 5930SOL     OW18688   6.910   2.572   3.457
 5930SOL    HW118689   6.938   2.616   3.372
 5930SOL    HW218690   6.947   2.480   3.461
 5931SOL     OW18691   0.083   5.233   3.719
 5931SOL    HW118692   0.092   5.286   3.803
 5931SOL    HW218693   0.013   5.163   3.730
 5932SOL     OW18694   2.101   0.094   0.428
 5932SOL    HW118695   2.067   0.145   0.507
 5932SOL    HW218696   2.144   0.010   0.459
 5933SOL     OW18697   0.265   6.277   3.849
 5933SOL    HW118698   0.198   6.314   3.913
 5933SOL    HW218699   0.275   6.339   3.771
 5934SOL     OW18700   4.072   3.646   4.302
 5934SOL    HW118701   4.073   3.587   4.382
 5934SOL    HW218702   4.123   3.602   4.228
 5935SOL     OW18703   4.547   3.829   5.878
 5935SOL    HW118704   4.623   3.812   5.815
 5935SOL    HW218705   4.466   3.781   5.846
 5936SOL     OW18706   4.040   3.511   0.936
 5936SOL    HW118707   4.023   3.414   0.914
 5936SOL    HW218708   3.974   3.542   1.004
 5937SOL     OW18709   0.879   5.025   2.755
 5937SOL    HW118710   0.927   4.993   2.836
 5937SOL    HW218711   0.803   4.963   2.735
 5938SOL     OW18712   0.794   5.041   4.232
 5938SOL    HW118713   0.748   5.072   4.315
 5938SOL    HW218714   0.860   4.970   4.255
 5939SOL     OW18715   3.010   6.758   3.001
 5939SOL    HW118716   2.939   6.816   3.043
 5939SOL    HW218717   3.099   6.786   3.035
 5940SOL     OW18718   4.640   5.661   0.992
 5940SOL    HW118719   4.593   5.653   0.904
 5940SOL    HW218720   4.595   5.731   1.047
 5941SOL     OW18721   5.536   3.139   1.545
 5941SOL    HW118722   5.469   3.205   1.581
 5941SOL    HW218723   5.612   3.188   1.503
 5942SOL     OW18724   5.500   2.813   0.307
 5942SOL    HW118725   5.425   2.747   0.298
 5942SOL    HW218726   5.522   2.850   0.217
 5943SOL     OW18727   3.882   5.377   0.251
 5943SOL    HW118728   3.838   5.298   0.208
 5943SOL    HW218729   3.843   5.461   0.214
 5944SOL     OW18730   6.364   2.631   1.331
 5944SOL    HW118731   6.409   2.541   1.327
 5944SOL    HW218732   6.417   2.696   1.277
 5945SOL     OW18733   6.064   5.264   5.352
 5945SOL    HW118734   6.139   5.226   5.406
 5945SOL    HW218735   6.011   5.327   5.408
 5946SOL     OW18736   3.417   3.612   5.686
 5946SOL    HW118737   3.333   3.578   5.644
 5946SOL    HW218738   3.464   3.672   5.622
 5947SOL     OW18739   3.733   3.779   1.925
 5947SOL    HW118740   3.780   3.862   1.958
 5947SOL    HW218741   3.637   3.782   1.954
 5948SOL     OW18742   4.070   5.412   3.005
 5948SOL    HW118743   4.000   5.351   2.968
 5948SOL    HW218744   4.137   5.358   3.057
 5949SOL     OW18745   4.745   3.455   1.841
 5949SOL    HW118746   4.801   3.427   1.919
 5949SOL    HW218747   4.762   3.551   1.821
 5950SOL     OW18748   4.436   2.406   5.570
 5950SOL    HW118749   4.501   2.482   5.568
 5950SOL    HW218750   4.480   2.325   5.609
 5951SOL     OW18751   0.564   6.001   4.737
 5951SOL    HW118752   0.553   6.072   4.668
 5951SOL    HW218753   0.629   5.932   4.704
 5952SOL     OW18754   5.445   4.799   4.343
 5952SOL    HW118755   5.391   4.723   4.379
 5952SOL    HW218756   5.541   4.786   4.366
 5953SOL     OW18757   6.136   2.878   5.127
 5953SOL    HW118758   6.171   2.952   5.069
 5953SOL    HW218759   6.122   2.796   5.071
 5954SOL     OW18760   0.813   4.404   5.736
 5954SOL    HW118761   0.872   4.334   5.776
 5954SOL    HW218762   0.773   4.459   5.810
 5955SOL     OW18763   5.655   5.693   2.536
 5955SOL    HW118764   5.650   5.788   2.565
 5955SOL    HW218765   5.608   5.635   2.603
 5956SOL     OW18766   4.130   1.334   6.203
 5956SOL    HW118767   4.146   1.236   6.187
 5956SOL    HW218768   4.209   1.386   6.172
 5957SOL     OW18769   3.873   1.014   5.599
 5957SOL    HW118770   3.896   0.924   5.562
 5957SOL    HW218771   3.906   1.085   5.536
 5958SOL     OW18772   6.133   6.614   2.622
 5958SOL    HW118773   6.177   6.636   2.710
 5958SOL    HW218774   6.118   6.699   2.571
 5959SOL     OW18775   4.027   2.102   5.336
 5959SOL    HW118776   3.958   2.036   5.306
 5959SOL    HW218777   4.054   2.082   5.430
 5960SOL     OW18778   3.502   5.552   4.268
 5960SOL    HW118779   3.506   5.497   4.184
 5960SOL    HW218780   3.550   5.638   4.253
 5961SOL     OW18781   5.362   1.111   3.262
 5961SOL    HW118782   5.443   1.123   3.204
 5961SOL    HW218783   5.389   1.109   3.358
 5962SOL     OW18784   4.933   6.134   0.898
 5962SOL    HW118785   4.973   6.145   0.807
 5962SOL    HW218786   4.857   6.070   0.894
 5963SOL     OW18787   3.483   3.301   5.332
 5963SOL    HW118788   3.496   3.221   5.391
 5963SOL    HW218789   3.572   3.335   5.301
 5964SOL     OW18790   0.056   5.505   5.753
 5964SOL    HW118791   0.098   5.593   5.774
 5964SOL    HW218792   0.117   5.453   5.692
 5965SOL     OW18793   1.173   2.087   6.923
 5965SOL    HW118794   1.173   2.123   7.016
 5965SOL    HW218795   1.082   2.099   6.883
 5966SOL     OW18796   2.351   5.941   5.380
 5966SOL    HW118797   2.397   5.857   5.350
 5966SOL    HW218798   2.420   6.012   5.395
 5967SOL     OW18799   4.452   6.495   7.000
 5967SOL    HW118800   4.434   6.465   6.906
 5967SOL    HW218801   4.438   6.418   0.036
 5968SOL     OW18802   4.704   0.984   1.428
 5968SOL    HW118803   4.688   0.929   1.346
 5968SOL    HW218804   4.664   1.075   1.415
 5969SOL     OW18805   0.213   0.289   0.012
 5969SOL    HW118806   0.123   0.307   0.052
 5969SOL    HW218807   0.278   0.359   0.041
 5970SOL     OW18808   0.926   4.700   2.758
 5970SOL    HW118809   0.860   4.683   2.684
 5970SOL    HW218810   0.882   4.686   2.846
 5971SOL     OW18811   1.051   0.983   1.995
 5971SOL    HW118812   1.013   0.954   1.907
 5971SOL    HW218813   0.976   1.011   2.056
 5972SOL     OW18814   5.480   5.709   0.145
 5972SOL    HW118815   5.492   5.609   0.149
 5972SOL    HW218816   5.560   5.750   0.100
 5973SOL     OW18817   2.153   2.975   2.418
 5973SOL    HW118818   2.150   2.918   2.336
 5973SOL    HW218819   2.178   3.068   2.393
 5974SOL     OW18820   5.769   4.949   6.302
 5974SOL    HW118821   5.764   4.955   6.203
 5974SOL    HW218822   5.685   4.908   6.338
 5975SOL     OW18823   3.627   1.592   0.562
 5975SOL    HW118824   3.637   1.492   0.560
 5975SOL    HW218825   3.598   1.624   0.472
 5976SOL     OW18826   3.001   3.170   5.190
 5976SOL    HW118827   2.981   3.188   5.094
 5976SOL    HW218828   3.098   3.146   5.200
 5977SOL     OW18829   2.663   5.781   0.056
 5977SOL    HW118830   2.590   5.730   0.102
 5977SOL    HW218831   2.706   5.722   7.014
 5978SOL     OW18832   5.471   5.617   2.887
 5978SOL    HW118833   5.379   5.576   2.884
 5978SOL    HW218834   5.540   5.545   2.878
 5979SOL     OW18835   5.879   0.218   2.942
 5979SOL    HW118836   5.803   0.283   2.929
 5979SOL    HW218837   5.935   0.216   2.859
 5980SOL     OW18838   3.966   3.684   0.672
 5980SOL    HW118839   3.981   3.783   0.671
 5980SOL    HW218840   3.991   3.647   0.761
 5981SOL     OW18841   5.955   1.641   1.514
 5981SOL    HW118842   5.857   1.647   1.534
 5981SOL    HW218843   5.974   1.679   1.424
 5982SOL     OW18844   6.473   3.032   1.734
 5982SOL    HW118845   6.433   3.096   1.669
 5982SOL    HW218846   6.401   2.995   1.793
 5983SOL     OW18847   1.655   1.520   4.623
 5983SOL    HW118848   1.678   1.599   4.680
 5983SOL    HW218849   1.734   1.494   4.568
 5984SOL     OW18850   6.420   5.852   4.879
 5984SOL    HW118851   6.434   5.893   4.789
 5984SOL    HW218852   6.342   5.896   4.924
 5985SOL     OW18853   0.270   3.284   4.230
 5985SOL    HW118854   0.223   3.371   4.216
 5985SOL    HW218855   0.203   3.210   4.227
 5986SOL     OW18856   3.275   3.206   5.139
 5986SOL    HW118857   3.345   3.188   5.209
 5986SOL    HW218858   3.256   3.304   5.135
 5987SOL     OW18859   4.015   0.172   4.651
 5987SOL    HW118860   4.073   0.243   4.610
 5987SOL    HW218861   3.954   0.136   4.581
 5988SOL     OW18862   4.975   6.810   5.444
 5988SOL    HW118863   4.881   6.828   5.474
 5988SOL    HW218864   4.987   6.842   5.350
 5989SOL     OW18865   2.736   6.049   0.045
 5989SOL    HW118866   2.692   6.073   6.985
 5989SOL    HW218867   2.733   5.950   0.058
 5990SOL     OW18868   3.727   4.340   0.466
 5990SOL    HW118869   3.701   4.245   0.483
 5990SOL    HW218870   3.647   4.392   0.437
 5991SOL     OW18871   3.186   5.561   6.738
 5991SOL    HW118872   3.250   5.490   6.710
 5991SOL    HW218873   3.165   5.620   6.659
 5992SOL     OW18874   3.505   0.235   2.920
 5992SOL    HW118875   3.589   0.252   2.972
 5992SOL    HW218876   3.432   0.210   2.983
 5993SOL     OW18877   2.706   6.274   6.193
 5993SOL    HW118878   2.760   6.355   6.215
 5993SOL    HW218879   2.610   6.300   6.183
 5994SOL     OW18880   6.268   2.402   2.507
 5994SOL    HW118881   6.237   2.418   2.413
 5994SOL    HW218882   6.292   2.306   2.519
 5995SOL     OW18883   5.681   4.663   3.187
 5995SOL    HW118884   5.725   4.663   3.277
 5995SOL    HW218885   5.675   4.569   3.153
 5996SOL     OW18886   1.205   6.510   0.538
 5996SOL    HW118887   1.170   6.417   0.525
 5996SOL    HW218888   1.235   6.521   0.633
 5997SOL     OW18889   0.820   5.785   2.497
 5997SOL    HW118890   0.733   5.791   2.447
 5997SOL    HW218891   0.820   5.703   2.554
 5998SOL     OW18892   6.067   2.150   2.776
 5998SOL    HW118893   6.006   2.200   2.838
 5998SOL    HW218894   6.014   2.087   2.720
 5999SOL     OW18895   1.548   1.759   2.321
 5999SOL    HW118896   1.463   1.794   2.280
 5999SOL    HW218897   1.621   1.827   2.309
 6000SOL     OW18898   4.205   6.464   1.202
 6000SOL    HW118899   4.270   6.520   1.151
 6000SOL    HW218900   4.113   6.503   1.192
 6001SOL     OW18901   0.671   3.591   6.830
 6001SOL    HW118902   0.767   3.595   6.804
 6001SOL    HW218903   0.614   3.622   6.754
 6002SOL     OW18904   5.991   0.201   1.052
 6002SOL    HW118905   6.006   0.296   1.078
 6002SOL    HW218906   6.077   0.161   1.019
 6003SOL     OW18907   0.045   1.942   3.705
 6003SOL    HW118908   0.004   1.941   3.614
 6003SOL    HW218909   0.093   2.029   3.719
 6004SOL     OW18910   0.406   4.046   3.429
 6004SOL    HW118911   0.346   3.986   3.375
 6004SOL    HW218912   0.436   3.998   3.511
 6005SOL     OW18913   4.961   5.352   4.344
 6005SOL    HW118914   4.905   5.270   4.336
 6005SOL    HW218915   5.049   5.328   4.385
 6006SOL     OW18916   3.022   0.674   6.721
 6006SOL    HW118917   3.068   0.586   6.733
 6006SOL    HW218918   2.926   0.665   6.745
 6007SOL     OW18919   4.979   3.509   5.274
 6007SOL    HW118920   4.904   3.506   5.208
 6007SOL    HW218921   4.950   3.465   5.360
 6008SOL     OW18922   1.652   5.000   5.378
 6008SOL    HW118923   1.714   5.002   5.456
 6008SOL    HW218924   1.682   4.931   5.313
 6009SOL     OW18925   3.367   0.743   4.280
 6009SOL    HW118926   3.449   0.712   4.328
 6009SOL    HW218927   3.338   0.673   4.214
 6010SOL     OW18928   1.833   4.112   3.730
 6010SOL    HW118929   1.899   4.075   3.664
 6010SOL    HW218930   1.858   4.082   3.822
 6011SOL     OW18931   5.359   3.035   3.046
 6011SOL    HW118932   5.300   3.049   3.126
 6011SOL    HW218933   5.303   3.001   2.970
 6012SOL     OW18934   5.229   1.065   6.897
 6012SOL    HW118935   5.186   1.052   6.808
 6012SOL    HW218936   5.311   1.123   6.887
 6013SOL     OW18937   5.628   2.801   3.250
 6013SOL    HW118938   5.621   2.882   3.193
 6013SOL    HW218939   5.680   2.730   3.202
 6014SOL     OW18940   4.300   3.726   1.108
 6014SOL    HW118941   4.269   3.647   1.054
 6014SOL    HW218942   4.260   3.722   1.199
 6015SOL     OW18943   5.687   2.642   4.599
 6015SOL    HW118944   5.631   2.564   4.630
 6015SOL    HW218945   5.730   2.619   4.512
 6016SOL     OW18946   6.201   1.517   6.113
 6016SOL    HW118947   6.142   1.579   6.165
 6016SOL    HW218948   6.161   1.426   6.110
 6017SOL     OW18949   0.037   4.231   2.671
 6017SOL    HW118950   6.973   4.201   2.640
 6017SOL    HW218951   0.027   4.298   2.744
 6018SOL     OW18952   2.800   0.604   6.170
 6018SOL    HW118953   2.809   0.623   6.268
 6018SOL    HW218954   2.713   0.557   6.153
 6019SOL     OW18955   6.605   1.625   4.003
 6019SOL    HW118956   6.581   1.692   3.933
 6019SOL    HW218957   6.628   1.672   4.088
 6020SOL     OW18958   2.213   5.284   0.892
 6020SOL    HW118959   2.261   5.332   0.819
 6020SOL    HW218960   2.200   5.188   0.866
 6021SOL     OW18961   4.372   0.754   2.477
 6021SOL    HW118962   4.469   0.760   2.501
 6021SOL    HW218963   4.352   0.817   2.402
 6022SOL     OW18964   4.422   2.035   3.845
 6022SOL    HW118965   4.359   2.087   3.902
 6022SOL    HW218966   4.483   1.981   3.903
 6023SOL     OW18967   6.495   0.308   2.127
 6023SOL    HW118968   6.437   0.227   2.140
 6023SOL    HW218969   6.453   0.386   2.173
 6024SOL     OW18970   0.936   4.950   3.009
 6024SOL    HW118971   0.920   5.036   3.057
 6024SOL    HW218972   1.002   4.895   3.061
 6025SOL     OW18973   3.706   1.573   2.914
 6025SOL    HW118974   3.682   1.536   3.004
 6025SOL    HW218975   3.648   1.532   2.844
 6026SOL     OW18976   6.986   4.238   5.283
 6026SOL    HW118977   0.011   4.177   5.222
 6026SOL    HW218978   6.943   4.184   5.355
 6027SOL     OW18979   1.714   4.068   6.453
 6027SOL    HW118980   1.633   4.120   6.426
 6027SOL    HW218981   1.690   3.971   6.464
 6028SOL     OW18982   0.817   4.461   6.898
 6028SOL    HW118983   0.821   4.468   6.997
 6028SOL    HW218984   0.900   4.500   6.858
 6029SOL     OW18985   2.491   6.088   4.939
 6029SOL    HW118986   2.447   6.010   4.895
 6029SOL    HW218987   2.421   6.149   4.977
 6030SOL     OW18988   3.823   5.978   2.811
 6030SOL    HW118989   3.753   5.942   2.873
 6030SOL    HW218990   3.809   6.077   2.800
 6031SOL     OW18991   3.637   5.154   2.988
 6031SOL    HW118992   3.544   5.140   2.954
 6031SOL    HW218993   3.637   5.227   3.056
 6032SOL     OW18994   2.623   4.718   3.053
 6032SOL    HW118995   2.719   4.733   3.077
 6032SOL    HW218996   2.565   4.769   3.115
 6033SOL     OW18997   3.003   1.446   2.865
 6033SOL    HW118998   3.062   1.516   2.824
 6033SOL    HW218999   2.919   1.488   2.899
 6034SOL     OW19000   0.609   5.234   4.380
 6034SOL    HW119001   0.592   5.196   4.471
 6034SOL    HW219002   0.571   5.326   4.374
 6035SOL     OW19003   6.729   1.040   2.709
 6035SOL    HW119004   6.714   0.995   2.797
 6035SOL    HW219005   6.799   0.990   2.658
 6036SOL     OW19006   6.375   5.638   4.442
 6036SOL    HW119007   6.356   5.555   4.494
 6036SOL    HW219008   6.429   5.701   4.498
 6037SOL     OW19009   4.601   5.065   6.346
 6037SOL    HW119010   4.653   4.981   6.358
 6037SOL    HW219011   4.650   5.141   6.390
 6038SOL     OW19012   1.567   2.663   6.167
 6038SOL    HW119013   1.478   2.705   6.153
 6038SOL    HW219014   1.564   2.568   6.136
 6039SOL     OW19015   3.275   3.116   2.237
 6039SOL    HW119016   3.204   3.085   2.299
 6039SOL    HW219017   3.361   3.127   2.286
 6040SOL     OW19018   0.678   1.967   6.186
 6040SOL    HW119019   0.588   1.976   6.228
 6040SOL    HW219020   0.674   1.998   6.091
 6041SOL     OW19021   2.198   0.425   5.138
 6041SOL    HW119022   2.200   0.514   5.184
 6041SOL    HW219023   2.142   0.362   5.190
 6042SOL     OW19024   5.494   5.880   2.079
 6042SOL    HW119025   5.516   5.811   2.148
 6042SOL    HW219026   5.523   5.970   2.111
 6043SOL     OW19027   0.994   4.573   5.958
 6043SOL    HW119028   0.967   4.532   6.045
 6043SOL    HW219029   0.935   4.652   5.939
 6044SOL     OW19030   1.291   1.778   1.544
 6044SOL    HW119031   1.200   1.781   1.586
 6044SOL    HW219032   1.304   1.860   1.488
 6045SOL     OW19033   6.715   4.898   1.620
 6045SOL    HW119034   6.635   4.957   1.608
 6045SOL    HW219035   6.798   4.952   1.612
 6046SOL     OW19036   3.511   1.951   6.570
 6046SOL    HW119037   3.527   1.856   6.542
 6046SOL    HW219038   3.589   2.008   6.544
 6047SOL     OW19039   5.431   2.239   2.298
 6047SOL    HW119040   5.381   2.313   2.252
 6047SOL    HW219041   5.528   2.247   2.276
 6048SOL     OW19042   4.603   5.583   4.121
 6048SOL    HW119043   4.698   5.584   4.087
 6048SOL    HW219044   4.540   5.584   4.043
 6049SOL     OW19045   5.791   3.046   5.975
 6049SOL    HW119046   5.832   3.137   5.977
 6049SOL    HW219047   5.711   3.047   5.914
 6050SOL     OW19048   2.845   5.287   4.344
 6050SOL    HW119049   2.912   5.308   4.415
 6050SOL    HW219050   2.755   5.323   4.371
 6051SOL     OW19051   2.699   1.478   4.574
 6051SOL    HW119052   2.628   1.409   4.591
 6051SOL    HW219053   2.780   1.455   4.628
 6052SOL     OW19054   6.113   0.201   0.482
 6052SOL    HW119055   6.016   0.189   0.500
 6052SOL    HW219056   6.129   0.289   0.437
 6053SOL     OW19057   4.023   1.122   6.434
 6053SOL    HW119058   3.986   1.119   6.341
 6053SOL    HW219059   3.985   1.201   6.482
 6054SOL     OW19060   2.709   3.711   0.410
 6054SOL    HW119061   2.681   3.731   0.316
 6054SOL    HW219062   2.631   3.719   0.471
 6055SOL     OW19063   4.771   1.348   5.394
 6055SOL    HW119064   4.712   1.308   5.465
 6055SOL    HW219065   4.739   1.441   5.373
 6056SOL     OW19066   4.699   2.833   4.536
 6056SOL    HW119067   4.713   2.932   4.538
 6056SOL    HW219068   4.711   2.800   4.442
 6057SOL     OW19069   4.951   2.525   4.119
 6057SOL    HW119070   5.022   2.477   4.170
 6057SOL    HW219071   4.984   2.617   4.096
 6058SOL     OW19072   4.820   2.800   1.285
 6058SOL    HW119073   4.787   2.828   1.195
 6058SOL    HW219074   4.785   2.709   1.307
 6059SOL     OW19075   5.136   4.657   5.202
 6059SOL    HW119076   5.153   4.716   5.123
 6059SOL    HW219077   5.219   4.653   5.258
 6060SOL     OW19078   3.325   4.021   6.223
 6060SOL    HW119079   3.256   3.967   6.272
 6060SOL    HW219080   3.288   4.050   6.135
 6061SOL     OW19081   3.684   2.313   1.427
 6061SOL    HW119082   3.638   2.226   1.447
 6061SOL    HW219083   3.776   2.311   1.468
 6062SOL     OW19084   2.099   1.497   4.778
 6062SOL    HW119085   2.198   1.504   4.770
 6062SOL    HW219086   2.058   1.587   4.764
 6063SOL     OW19087   3.581   1.677   6.701
 6063SOL    HW119088   3.552   1.603   6.641
 6063SOL    HW219089   3.623   1.638   6.783
 6064SOL     OW19090   2.217   6.044   1.118
 6064SOL    HW119091   2.224   5.945   1.127
 6064SOL    HW219092   2.158   6.079   1.191
 6065SOL     OW19093   5.592   6.738   2.383
 6065SOL    HW119094   5.661   6.744   2.456
 6065SOL    HW219095   5.604   6.652   2.334
 6066SOL     OW19096   5.022   2.238   6.100
 6066SOL    HW119097   4.927   2.247   6.131
 6066SOL    HW219098   5.072   2.322   6.123
 6067SOL     OW19099   5.379   1.681   5.902
 6067SOL    HW119100   5.345   1.734   5.824
 6067SOL    HW219101   5.312   1.685   5.976
 6068SOL     OW19102   5.984   3.281   4.593
 6068SOL    HW119103   6.016   3.303   4.501
 6068SOL    HW219104   5.914   3.348   4.620
 6069SOL     OW19105   6.898   3.451   5.051
 6069SOL    HW119106   6.906   3.392   4.971
 6069SOL    HW219107   6.815   3.427   5.102
 6070SOL     OW19108   2.106   1.941   0.687
 6070SOL    HW119109   2.188   1.998   0.692
 6070SOL    HW219110   2.132   1.845   0.693
 6071SOL     OW19111   5.671   4.793   4.742
 6071SOL    HW119112   5.758   4.824   4.781
 6071SOL    HW219113   5.603   4.865   4.752
 6072SOL     OW19114   0.309   6.582   1.900
 6072SOL    HW119115   0.218   6.619   1.882
 6072SOL    HW219116   0.303   6.509   1.968
 6073SOL     OW19117   6.376   4.230   0.760
 6073SOL    HW119118   6.367   4.144   0.810
 6073SOL    HW219119   6.427   4.296   0.816
 6074SOL     OW19120   1.298   5.979   4.302
 6074SOL    HW119121   1.393   6.009   4.292
 6074SOL    HW219122   1.237   6.048   4.264
 6075SOL     OW19123   0.166   1.687   6.660
 6075SOL    HW119124   0.180   1.784   6.681
 6075SOL    HW219125   0.226   1.660   6.585
 6076SOL     OW19126   1.813   5.885   4.276
 6076SOL    HW119127   1.887   5.938   4.318
 6076SOL    HW219128   1.826   5.788   4.297
 6077SOL     OW19129   5.432   5.897   1.682
 6077SOL    HW119130   5.348   5.929   1.640
 6077SOL    HW219131   5.413   5.862   1.774
 6078SOL     OW19132   3.524   5.139   0.961
 6078SOL    HW119133   3.528   5.128   1.060
 6078SOL    HW219134   3.600   5.197   0.930
 6079SOL     OW19135   3.649   2.974   6.395
 6079SOL    HW119136   3.577   2.991   6.328
 6079SOL    HW219137   3.615   2.913   6.466
 6080SOL     OW19138   0.000   0.381   1.689
 6080SOL    HW119139   6.928   0.390   1.702
 6080SOL    HW219140   0.043   0.471   1.696
 6081SOL     OW19141   6.437   3.210   4.664
 6081SOL    HW119142   6.356   3.250   4.708
 6081SOL    HW219143   6.410   3.129   4.612
 6082SOL     OW19144   2.509   1.900   3.462
 6082SOL    HW119145   2.512   1.994   3.430
 6082SOL    HW219146   2.551   1.894   3.553
 6083SOL     OW19147   0.621   4.698   6.931
 6083SOL    HW119148   0.521   4.705   6.937
 6083SOL    HW219149   0.645   4.626   6.865
 6084SOL     OW19150   0.460   5.839   3.532
 6084SOL    HW119151   0.443   5.884   3.620
 6084SOL    HW219152   0.373   5.819   3.487
 6085SOL     OW19153   1.041   4.273   0.061
 6085SOL    HW119154   0.969   4.317   0.115
 6085SOL    HW219155   1.011   4.182   0.034
 6086SOL     OW19156   3.700   1.214   5.900
 6086SOL    HW119157   3.728   1.307   5.877
 6086SOL    HW219158   3.600   1.210   5.907
 6087SOL     OW19159   4.039   5.779   0.435
 6087SOL    HW119160   4.047   5.866   0.385
 6087SOL    HW219161   4.020   5.798   0.531
 6088SOL     OW19162   5.596   6.252   4.496
 6088SOL    HW119163   5.634   6.267   4.404
 6088SOL    HW219164   5.603   6.155   4.519
 6089SOL     OW19165   6.648   3.529   0.940
 6089SOL    HW119166   6.551   3.552   0.940
 6089SOL    HW219167   6.678   3.505   1.032
 6090SOL     OW19168   2.175   6.199   5.275
 6090SOL    HW119169   2.213   6.117   5.232
 6090SOL    HW219170   2.091   6.226   5.228
 6091SOL     OW19171   1.531   1.668   1.963
 6091SOL    HW119172   1.605   1.701   2.022
 6091SOL    HW219173   1.568   1.632   1.878
 6092SOL     OW19174   3.342   0.077   3.090
 6092SOL    HW119175   3.243   0.067   3.086
 6092SOL    HW219176   3.367   0.131   3.171
 6093SOL     OW19177   1.749   2.829   2.648
 6093SOL    HW119178   1.775   2.880   2.731
 6093SOL    HW219179   1.685   2.884   2.595
 6094SOL     OW19180   3.697   0.737   1.418
 6094SOL    HW119181   3.687   0.804   1.345
 6094SOL    HW219182   3.625   0.749   1.486
 6095SOL     OW19183   4.401   3.405   6.886
 6095SOL    HW119184   4.401   3.505   6.887
 6095SOL    HW219185   4.458   3.371   6.961
 6096SOL     OW19186   6.096   0.596   3.667
 6096SOL    HW119187   6.036   0.522   3.634
 6096SOL    HW219188   6.126   0.576   3.760
 6097SOL     OW19189   2.065   0.218   2.108
 6097SOL    HW119190   2.035   0.274   2.185
 6097SOL    HW219191   2.123   0.272   2.047
 6098SOL     OW19192   1.280   2.763   6.142
 6098SOL    HW119193   1.263   2.826   6.218
 6098SOL    HW219194   1.217   2.784   6.067
 6099SOL     OW19195   6.893   5.835   0.662
 6099SOL    HW119196   6.903   5.823   0.563
 6099SOL    HW219197   6.865   5.929   0.681
 6100SOL     OW19198   5.209   3.610   0.456
 6100SOL    HW119199   5.294   3.557   0.463
 6100SOL    HW219200   5.133   3.554   0.491
 6101SOL     OW19201   5.783   1.878   4.408
 6101SOL    HW119202   5.875   1.850   4.382
 6101SOL    HW219203   5.788   1.955   4.472
 6102SOL     OW19204   3.043   6.470   3.713
 6102SOL    HW119205   3.142   6.455   3.703
 6102SOL    HW219206   3.025   6.567   3.721
 6103SOL     OW19207   0.097   2.353   2.751
 6103SOL    HW119208   0.012   2.399   2.775
 6103SOL    HW219209   0.082   2.254   2.747
 6104SOL     OW19210   5.681   1.048   5.537
 6104SOL    HW119211   5.739   1.126   5.513
 6104SOL    HW219212   5.609   1.077   5.599
 6105SOL     OW19213   1.526   0.598   5.406
 6105SOL    HW119214   1.435   0.570   5.436
 6105SOL    HW219215   1.518   0.678   5.347
 6106SOL     OW19216   2.194   4.029   5.573
 6106SOL    HW119217   2.234   4.120   5.579
 6106SOL    HW219218   2.266   3.961   5.560
 6107SOL     OW19219   2.684   4.747   4.605
 6107SOL    HW119220   2.630   4.811   4.550
 6107SOL    HW219221   2.747   4.698   4.545
 6108SOL     OW19222   0.751   2.401   2.210
 6108SOL    HW119223   0.829   2.455   2.243
 6108SOL    HW219224   0.731   2.426   2.115
 6109SOL     OW19225   4.928   2.979   6.417
 6109SOL    HW119226   4.891   2.892   6.450
 6109SOL    HW219227   5.008   3.004   6.472
 6110SOL     OW19228   4.371   3.316   0.353
 6110SOL    HW119229   4.430   3.281   0.426
 6110SOL    HW219230   4.292   3.363   0.394
 6111SOL     OW19231   2.223   4.173   2.255
 6111SOL    HW119232   2.159   4.107   2.217
 6111SOL    HW219233   2.238   4.153   2.352
 6112SOL     OW19234   3.351   6.927   2.815
 6112SOL    HW119235   3.381   6.968   2.901
 6112SOL    HW219236   3.271   6.869   2.831
 6113SOL     OW19237   1.503   1.123   5.921
 6113SOL    HW119238   1.410   1.107   5.956
 6113SOL    HW219239   1.566   1.134   5.998
 6114SOL     OW19240   5.244   5.226   1.128
 6114SOL    HW119241   5.168   5.199   1.186
 6114SOL    HW219242   5.234   5.322   1.101
 6115SOL     OW19243   4.938   0.205   3.642
 6115SOL    HW119244   4.925   0.258   3.726
 6115SOL    HW219245   4.986   0.120   3.663
 6116SOL     OW19246   2.658   0.026   0.587
 6116SOL    HW119247   2.566   0.043   0.551
 6116SOL    HW219248   2.717   0.103   0.563
 6117SOL     OW19249   0.270   0.637   5.760
 6117SOL    HW119250   0.289   0.640   5.859
 6117SOL    HW219251   0.277   0.542   5.728
 6118SOL     OW19252   5.973   0.289   1.801
 6118SOL    HW119253   5.904   0.360   1.790
 6118SOL    HW219254   5.947   0.208   1.749
 6119SOL     OW19255   1.363   3.803   5.493
 6119SOL    HW119256   1.266   3.779   5.495
 6119SOL    HW219257   1.374   3.897   5.523
 6120SOL     OW19258   4.010   6.889   3.844
 6120SOL    HW119259   3.977   6.926   3.931
 6120SOL    HW219260   3.943   6.823   3.808
 6121SOL     OW19261   0.844   3.154   5.025
 6121SOL    HW119262   0.911   3.215   4.984
 6121SOL    HW219263   0.755   3.200   5.031
 6122SOL     OW19264   3.665   6.879   1.732
 6122SOL    HW119265   3.630   6.786   1.741
 6122SOL    HW219266   3.756   6.884   1.772
 6123SOL     OW19267   6.359   0.549   6.184
 6123SOL    HW119268   6.330   0.457   6.212
 6123SOL    HW219269   6.392   0.547   6.090
 6124SOL     OW19270   2.512   0.885   6.808
 6124SOL    HW119271   2.588   0.880   6.743
 6124SOL    HW219272   2.467   0.974   6.799
 6125SOL     OW19273   1.830   5.723   0.080
 6125SOL    HW119274   1.889   5.752   0.155
 6125SOL    HW219275   1.812   5.800   0.020
 6126SOL     OW19276   0.069   6.872   4.206
 6126SOL    HW119277   0.024   6.789   4.173
 6126SOL    HW219278   0.166   6.868   4.184
 6127SOL     OW19279   3.271   6.951   2.301
 6127SOL    HW119280   3.250   6.898   2.383
 6127SOL    HW219281   3.322   0.007   2.325
 6128SOL     OW19282   6.661   3.001   0.098
 6128SOL    HW119283   6.715   3.071   0.146
 6128SOL    HW219284   6.684   2.911   0.135
 6129SOL     OW19285   6.514   3.729   2.561
 6129SOL    HW119286   6.418   3.708   2.579
 6129SOL    HW219287   6.559   3.756   2.646
 6130SOL     OW19288   6.798   2.270   3.560
 6130SOL    HW119289   6.877   2.276   3.499
 6130SOL    HW219290   6.721   2.227   3.512
 6131SOL     OW19291   6.959   1.631   5.436
 6131SOL    HW119292   6.876   1.687   5.430
 6131SOL    HW219293   6.951   1.554   5.373
 6132SOL     OW19294   4.863   1.342   0.530
 6132SOL    HW119295   4.888   1.385   0.616
 6132SOL    HW219296   4.884   1.245   0.533
 6133SOL     OW19297   1.038   2.373   2.320
 6133SOL    HW119298   1.024   2.385   2.418
 6133SOL    HW219299   1.036   2.463   2.275
 6134SOL     OW19300   4.107   4.323   6.509
 6134SOL    HW119301   4.135   4.246   6.451
 6134SOL    HW219302   4.077   4.399   6.450
 6135SOL     OW19303   0.613   0.074   2.029
 6135SOL    HW119304   0.606   7.020   2.088
 6135SOL    HW219305   0.706   0.109   2.029
 6136SOL     OW19306   0.910   2.848   2.075
 6136SOL    HW119307   0.881   2.922   2.136
 6136SOL    HW219308   0.831   2.807   2.031
 6137SOL     OW19309   5.439   2.516   3.699
 6137SOL    HW119310   5.497   2.438   3.721
 6137SOL    HW219311   5.423   2.520   3.601
 6138SOL     OW19312   4.864   6.280   2.060
 6138SOL    HW119313   4.903   6.293   2.152
 6138SOL    HW219314   4.789   6.345   2.047
 6139SOL     OW19315   1.906   1.629   5.456
 6139SOL    HW119316   1.834   1.663   5.517
 6139SOL    HW219317   1.995   1.636   5.501
 6140SOL     OW19318   0.559   6.681   1.923
 6140SOL    HW119319   0.625   6.613   1.954
 6140SOL    HW219320   0.468   6.641   1.919
 6141SOL     OW19321   6.045   5.368   6.571
 6141SOL    HW119322   5.997   5.307   6.634
 6141SOL    HW219323   5.989   5.381   6.488
 6142SOL     OW19324   0.308   5.302   0.892
 6142SOL    HW119325   0.322   5.309   0.991
 6142SOL    HW219326   0.256   5.382   0.860
 6143SOL     OW19327   6.615   4.547   0.576
 6143SOL    HW119328   6.692   4.546   0.512
 6143SOL    HW219329   6.532   4.575   0.528
 6144SOL     OW19330   6.878   4.952   3.238
 6144SOL    HW119331   6.786   4.953   3.199
 6144SOL    HW219332   6.874   4.983   3.333
 6145SOL     OW19333   4.212   5.655   3.754
 6145SOL    HW119334   4.205   5.745   3.712
 6145SOL    HW219335   4.225   5.586   3.682
 6146SOL     OW19336   3.506   6.889   3.654
 6146SOL    HW119337   3.482   6.875   3.750
 6146SOL    HW219338   3.605   6.902   3.646
 6147SOL     OW19339   1.463   3.676   4.674
 6147SOL    HW119340   1.467   3.673   4.774
 6147SOL    HW219341   1.384   3.730   4.645
 6148SOL     OW19342   6.918   0.467   4.726
 6148SOL    HW119343   6.825   0.466   4.689
 6148SOL    HW219344   6.962   0.379   4.707
 6149SOL     OW19345   3.273   5.234   1.330
 6149SOL    HW119346   3.256   5.225   1.428
 6149SOL    HW219347   3.283   5.144   1.289
 6150SOL     OW19348   4.287   4.577   6.704
 6150SOL    HW119349   4.309   4.495   6.651
 6150SOL    HW219350   4.253   4.648   6.643
 6151SOL     OW19351   5.903   3.965   5.482
 6151SOL    HW119352   5.889   4.005   5.572
 6151SOL    HW219353   5.989   3.999   5.443
 6152SOL     OW19354   6.089   5.627   4.983
 6152SOL    HW119355   6.002   5.657   4.944
 6152SOL    HW219356   6.115   5.689   5.058
 6153SOL     OW19357   5.111   3.764   2.059
 6153SOL    HW119358   5.082   3.856   2.034
 6153SOL    HW219359   5.101   3.703   1.981
 6154SOL     OW19360   5.581   1.607   2.472
 6154SOL    HW119361   5.562   1.541   2.399
 6154SOL    HW219362   5.590   1.698   2.432
 6155SOL     OW19363   1.814   2.401   4.520
 6155SOL    HW119364   1.803   2.325   4.457
 6155SOL    HW219365   1.910   2.408   4.548
 6156SOL     OW19366   4.521   4.782   1.827
 6156SOL    HW119367   4.566   4.703   1.868
 6156SOL    HW219368   4.535   4.781   1.728
 6157SOL     OW19369   1.422   1.017   4.714
 6157SOL    HW119370   1.405   1.115   4.726
 6157SOL    HW219371   1.373   0.984   4.633
 6158SOL     OW19372   4.379   1.133   6.035
 6158SOL    HW119373   4.431   1.086   6.107
 6158SOL    HW219374   4.284   1.104   6.039
 6159SOL     OW19375   5.004   1.846   1.731
 6159SOL    HW119376   5.061   1.910   1.783
 6159SOL    HW219377   5.024   1.752   1.760
 6160SOL     OW19378   4.863   0.311   6.373
 6160SOL    HW119379   4.909   0.285   6.288
 6160SOL    HW219380   4.879   0.242   6.443
 6161SOL     OW19381   5.121   1.403   4.517
 6161SOL    HW119382   5.081   1.494   4.531
 6161SOL    HW219383   5.218   1.412   4.497
 6162SOL     OW19384   1.163   6.496   3.783
 6162SOL    HW119385   1.127   6.481   3.691
 6162SOL    HW219386   1.222   6.419   3.808
 6163SOL     OW19387   5.845   6.142   1.488
 6163SOL    HW119388   5.808   6.049   1.495
 6163SOL    HW219389   5.896   6.164   1.572
 6164SOL     OW19390   3.037   2.437   1.628
 6164SOL    HW119391   3.016   2.346   1.591
 6164SOL    HW219392   3.000   2.444   1.721
 6165SOL     OW19393   4.594   0.605   6.436
 6165SOL    HW119394   4.681   0.610   6.485
 6165SOL    HW219395   4.530   0.672   6.476
 6166SOL     OW19396   4.502   1.398   6.768
 6166SOL    HW119397   4.488   1.452   6.851
 6166SOL    HW219398   4.416   1.357   6.740
 6167SOL     OW19399   0.665   3.893   3.324
 6167SOL    HW119400   0.687   3.986   3.356
 6167SOL    HW219401   0.575   3.867   3.358
 6168SOL     OW19402   1.011   3.438   0.637
 6168SOL    HW119403   1.109   3.449   0.620
 6168SOL    HW219404   0.989   3.472   0.729
 6169SOL     OW19405   1.927   3.093   1.571
 6169SOL    HW119406   2.024   3.071   1.579
 6169SOL    HW219407   1.873   3.009   1.573
 6170SOL     OW19408   1.250   3.399   5.184
 6170SOL    HW119409   1.280   3.393   5.089
 6170SOL    HW219410   1.249   3.494   5.213
 6171SOL     OW19411   0.442   2.671   0.522
 6171SOL    HW119412   0.452   2.768   0.545
 6171SOL    HW219413   0.382   2.627   0.589
 6172SOL     OW19414   1.893   2.841   2.273
 6172SOL    HW119415   1.859   2.908   2.340
 6172SOL    HW219416   1.863   2.749   2.299
 6173SOL     OW19417   0.295   5.249   2.573
 6173SOL    HW119418   0.219   5.302   2.609
 6173SOL    HW219419   0.375   5.262   2.631
 6174SOL     OW19420   4.997   6.096   3.814
 6174SOL    HW119421   5.058   6.129   3.742
 6174SOL    HW219422   4.902   6.100   3.783
 6175SOL     OW19423   3.917   0.861   3.849
 6175SOL    HW119424   3.878   0.857   3.941
 6175SOL    HW219425   3.879   0.939   3.799
 6176SOL     OW19426   5.167   4.601   5.584
 6176SOL    HW119427   5.076   4.571   5.556
 6176SOL    HW219428   5.232   4.584   5.510
 6177SOL     OW19429   5.822   1.959   1.463
 6177SOL    HW119430   5.734   1.938   1.505
 6177SOL    HW219431   5.887   1.989   1.533
 6178SOL     OW19432   5.475   5.046   1.880
 6178SOL    HW119433   5.390   5.051   1.934
 6178SOL    HW219434   5.552   5.073   1.938
 6179SOL     OW19435   6.431   4.107   3.539
 6179SOL    HW119436   6.507   4.054   3.575
 6179SOL    HW219437   6.456   4.204   3.534
 6180SOL     OW19438   2.642   4.682   0.556
 6180SOL    HW119439   2.684   4.737   0.484
 6180SOL    HW219440   2.605   4.598   0.517
 6181SOL     OW19441   4.809   6.221   6.019
 6181SOL    HW119442   4.856   6.140   6.056
 6181SOL    HW219443   4.764   6.269   6.094
 6182SOL     OW19444   4.444   2.899   5.725
 6182SOL    HW119445   4.470   2.871   5.818
 6182SOL    HW219446   4.372   2.839   5.691
 6183SOL     OW19447   1.501   2.305   3.794
 6183SOL    HW119448   1.462   2.323   3.884
 6183SOL    HW219449   1.471   2.376   3.730
 6184SOL     OW19450   3.005   6.402   6.488
 6184SOL    HW119451   2.947   6.465   6.541
 6184SOL    HW219452   3.065   6.353   6.551
 6185SOL     OW19453   6.899   3.762   6.379
 6185SOL    HW119454   6.910   3.664   6.361
 6185SOL    HW219455   6.838   3.775   6.457
 6186SOL     OW19456   6.528   1.244   0.373
 6186SOL    HW119457   6.575   1.331   0.363
 6186SOL    HW219458   6.591   1.169   0.356
 6187SOL     OW19459   5.315   4.066   4.340
 6187SOL    HW119460   5.282   3.976   4.313
 6187SOL    HW219461   5.415   4.062   4.352
 6188SOL     OW19462   1.440   1.348   5.778
 6188SOL    HW119463   1.391   1.408   5.841
 6188SOL    HW219464   1.448   1.257   5.818
 6189SOL     OW19465   4.206   5.263   2.422
 6189SOL    HW119466   4.181   5.349   2.376
 6189SOL    HW219467   4.195   5.187   2.358
 6190SOL     OW19468   0.497   4.109   5.513
 6190SOL    HW119469   0.537   4.056   5.588
 6190SOL    HW219470   0.537   4.200   5.512
 6191SOL     OW19471   3.032   2.661   6.953
 6191SOL    HW119472   3.040   2.585   6.888
 6191SOL    HW219473   3.052   2.747   6.906
 6192SOL     OW19474   2.724   2.094   6.354
 6192SOL    HW119475   2.804   2.087   6.295
 6192SOL    HW219476   2.752   2.127   6.444
 6193SOL     OW19477   4.826   6.279   1.796
 6193SOL    HW119478   4.857   6.271   1.891
 6193SOL    HW219479   4.728   6.301   1.795
 6194SOL     OW19480   0.047   0.423   6.517
 6194SOL    HW119481   0.098   0.413   6.602
 6194SOL    HW219482   7.005   0.495   6.529
 6195SOL     OW19483   4.533   5.279   4.583
 6195SOL    HW119484   4.538   5.314   4.490
 6195SOL    HW219485   4.454   5.321   4.629
 6196SOL     OW19486   5.251   4.332   1.777
 6196SOL    HW119487   5.159   4.321   1.740
 6196SOL    HW219488   5.306   4.389   1.716
 6197SOL     OW19489   2.356   6.011   1.445
 6197SOL    HW119490   2.410   6.064   1.379
 6197SOL    HW219491   2.279   5.969   1.399
 6198SOL     OW19492   4.347   0.071   0.836
 6198SOL    HW119493   4.402   0.044   0.757
 6198SOL    HW219494   4.294   0.153   0.814
 6199SOL     OW19495   0.565   0.886   0.376
 6199SOL    HW119496   0.480   0.839   0.353
 6199SOL    HW219497   0.610   0.837   0.451
 6200SOL     OW19498   1.058   1.543   5.826
 6200SOL    HW119499   1.012   1.630   5.808
 6200SOL    HW219500   1.055   1.485   5.745
 6201SOL     OW19501   0.671   3.273   5.647
 6201SOL    HW119502   0.655   3.288   5.549
 6201SOL    HW219503   0.586   3.290   5.697
 6202SOL     OW19504   4.770   1.451   1.759
 6202SOL    HW119505   4.712   1.500   1.825
 6202SOL    HW219506   4.762   1.353   1.774
 6203SOL     OW19507   6.206   5.951   2.081
 6203SOL    HW119508   6.253   5.971   2.167
 6203SOL    HW219509   6.108   5.969   2.091
 6204SOL     OW19510   1.031   5.722   4.629
 6204SOL    HW119511   1.114   5.776   4.618
 6204SOL    HW219512   1.055   5.625   4.638
 6205SOL     OW19513   6.147   5.391   1.800
 6205SOL    HW119514   6.111   5.481   1.826
 6205SOL    HW219515   6.125   5.372   1.705
 6206SOL     OW19516   6.184   1.648   2.314
 6206SOL    HW119517   6.221   1.601   2.234
 6206SOL    HW219518   6.259   1.687   2.367
 6207SOL     OW19519   1.759   5.609   5.404
 6207SOL    HW119520   1.843   5.634   5.450
 6207SOL    HW219521   1.753   5.656   5.316
 6208SOL     OW19522   3.894   2.432   5.328
 6208SOL    HW119523   3.983   2.461   5.292
 6208SOL    HW219524   3.894   2.444   5.428
 6209SOL     OW19525   2.757   5.684   6.826
 6209SOL    HW119526   2.824   5.728   6.767
 6209SOL    HW219527   2.668   5.684   6.781
 6210SOL     OW19528   4.821   4.146   3.128
 6210SOL    HW119529   4.760   4.141   3.207
 6210SOL    HW219530   4.824   4.057   3.083
 6211SOL     OW19531   2.662   6.328   5.682
 6211SOL    HW119532   2.635   6.259   5.749
 6211SOL    HW219533   2.705   6.405   5.729
 6212SOL     OW19534   2.682   5.093   4.498
 6212SOL    HW119535   2.608   5.030   4.476
 6212SOL    HW219536   2.765   5.065   4.449
 6213SOL     OW19537   4.839   6.773   6.615
 6213SOL    HW119538   4.773   6.847   6.625
 6213SOL    HW219539   4.880   6.776   6.523
 6214SOL     OW19540   5.246   5.851   5.107
 6214SOL    HW119541   5.254   5.860   5.007
 6214SOL    HW219542   5.215   5.759   5.129
 6215SOL     OW19543   3.996   2.832   6.969
 6215SOL    HW119544   3.954   2.875   0.022
 6215SOL    HW219545   3.925   2.791   6.911
 6216SOL     OW19546   6.165   2.825   2.540
 6216SOL    HW119547   6.224   2.810   2.461
 6216SOL    HW219548   6.209   2.890   2.603
 6217SOL     OW19549   1.182   4.098   2.691
 6217SOL    HW119550   1.170   4.076   2.594
 6217SOL    HW219551   1.278   4.121   2.708
 6218SOL     OW19552   3.726   6.721   6.863
 6218SOL    HW119553   3.686   6.651   6.923
 6218SOL    HW219554   3.825   6.710   6.862
 6219SOL     OW19555   0.705   1.533   4.846
 6219SOL    HW119556   0.623   1.475   4.851
 6219SOL    HW219557   0.752   1.517   4.760
 6220SOL     OW19558   2.907   1.663   5.362
 6220SOL    HW119559   2.953   1.652   5.274
 6220SOL    HW219560   2.917   1.758   5.393
 6221SOL     OW19561   5.603   0.526   6.804
 6221SOL    HW119562   5.693   0.495   6.773
 6221SOL    HW219563   5.611   0.615   6.849
 6222SOL     OW19564   1.235   0.484   2.111
 6222SOL    HW119565   1.307   0.446   2.169
 6222SOL    HW219566   1.169   0.534   2.168
 6223SOL     OW19567   1.325   5.177   2.859
 6223SOL    HW119568   1.347   5.203   2.953
 6223SOL    HW219569   1.399   5.120   2.822
 6224SOL     OW19570   4.370   1.445   6.116
 6224SOL    HW119571   4.378   1.347   6.100
 6224SOL    HW219572   4.386   1.494   6.031
 6225SOL     OW19573   3.607   2.565   6.678
 6225SOL    HW119574   3.580   2.652   6.637
 6225SOL    HW219575   3.526   2.518   6.713
 6226SOL     OW19576   1.451   1.722   4.171
 6226SOL    HW119577   1.540   1.679   4.161
 6226SOL    HW219578   1.441   1.794   4.102
 6227SOL     OW19579   3.376   5.338   5.514
 6227SOL    HW119580   3.436   5.294   5.581
 6227SOL    HW219581   3.321   5.408   5.559
 6228SOL     OW19582   0.612   2.708   2.275
 6228SOL    HW119583   0.532   2.649   2.269
 6228SOL    HW219584   0.596   2.793   2.225
 6229SOL     OW19585   1.051   2.935   5.373
 6229SOL    HW119586   1.151   2.929   5.378
 6229SOL    HW219587   1.010   2.873   5.439
 6230SOL     OW19588   1.061   1.936   3.720
 6230SOL    HW119589   0.980   1.992   3.703
 6230SOL    HW219590   1.143   1.990   3.699
 6231SOL     OW19591   5.886   4.970   0.492
 6231SOL    HW119592   5.903   5.060   0.450
 6231SOL    HW219593   5.836   4.912   0.427
 6232SOL     OW19594   6.870   1.540   0.190
 6232SOL    HW119595   6.882   1.564   0.286
 6232SOL    HW219596   6.860   1.441   0.181
 6233SOL     OW19597   5.812   2.593   1.779
 6233SOL    HW119598   5.908   2.620   1.788
 6233SOL    HW219599   5.802   2.497   1.804
 6234SOL     OW19600   6.586   0.058   5.614
 6234SOL    HW119601   6.612   7.020   5.686
 6234SOL    HW219602   6.568   0.008   5.529
 6235SOL     OW19603   0.041   0.205   1.492
 6235SOL    HW119604   0.130   0.242   1.467
 6235SOL    HW219605   0.002   0.260   1.566
 6236SOL     OW19606   0.359   4.406   0.848
 6236SOL    HW119607   0.368   4.467   0.769
 6236SOL    HW219608   0.270   4.361   0.845
 6237SOL     OW19609   3.173   0.209   0.208
 6237SOL    HW119610   3.092   0.152   0.195
 6237SOL    HW219611   3.146   0.302   0.232
 6238SOL     OW19612   4.840   6.233   2.814
 6238SOL    HW119613   4.895   6.248   2.895
 6238SOL    HW219614   4.807   6.320   2.778
 6239SOL     OW19615   3.689   0.982   1.248
 6239SOL    HW119616   3.756   1.028   1.306
 6239SOL    HW219617   3.706   1.005   1.152
 6240SOL     OW19618   2.940   3.709   5.218
 6240SOL    HW119619   2.971   3.731   5.125
 6240SOL    HW219620   2.966   3.783   5.280
 6241SOL     OW19621   3.344   0.494   3.381
 6241SOL    HW119622   3.263   0.459   3.334
 6241SOL    HW219623   3.319   0.570   3.440
 6242SOL     OW19624   3.541   6.898   3.154
 6242SOL    HW119625   3.530   6.855   3.244
 6242SOL    HW219626   3.489   6.983   3.152
 6243SOL     OW19627   6.849   6.972   5.445
 6243SOL    HW119628   6.782   6.973   5.370
 6243SOL    HW219629   6.924   6.911   5.421
 6244SOL     OW19630   5.441   3.833   3.873
 6244SOL    HW119631   5.432   3.733   3.880
 6244SOL    HW219632   5.363   3.876   3.918
 6245SOL     OW19633   1.655   3.906   1.597
 6245SOL    HW119634   1.749   3.874   1.580
 6245SOL    HW219635   1.605   3.836   1.648
 6246SOL     OW19636   1.061   1.300   4.995
 6246SOL    HW119637   1.010   1.385   5.001
 6246SOL    HW219638   1.105   1.280   5.082
 6247SOL     OW19639   1.608   6.348   3.631
 6247SOL    HW119640   1.637   6.289   3.706
 6247SOL    HW219641   1.621   6.300   3.544
 6248SOL     OW19642   3.484   3.854   0.111
 6248SOL    HW119643   3.542   3.929   0.081
 6248SOL    HW219644   3.442   3.876   0.198
 6249SOL     OW19645   0.065   3.001   0.694
 6249SOL    HW119646   0.006   3.035   0.767
 6249SOL    HW219647   0.159   3.030   0.712
 6250SOL     OW19648   6.373   6.690   1.144
 6250SOL    HW119649   6.279   6.722   1.157
 6250SOL    HW219650   6.381   6.597   1.178
 6251SOL     OW19651   4.372   6.585   4.713
 6251SOL    HW119652   4.306   6.607   4.785
 6251SOL    HW219653   4.422   6.502   4.737
 6252SOL     OW19654   2.491   4.559   5.995
 6252SOL    HW119655   2.490   4.497   6.073
 6252SOL    HW219656   2.478   4.507   5.910
 6253SOL     OW19657   2.611   4.768   3.996
 6253SOL    HW119658   2.512   4.781   3.986
 6253SOL    HW219659   2.653   4.854   4.024
 6254SOL     OW19660   5.818   0.246   0.848
 6254SOL    HW119661   5.852   0.207   0.762
 6254SOL    HW219662   5.872   0.209   0.924
 6255SOL     OW19663   2.740   1.725   0.848
 6255SOL    HW119664   2.747   1.760   0.941
 6255SOL    HW219665   2.696   1.793   0.790
 6256SOL     OW19666   3.995   5.338   2.200
 6256SOL    HW119667   3.975   5.359   2.104
 6256SOL    HW219668   3.970   5.417   2.257
 6257SOL     OW19669   4.333   3.125   0.144
 6257SOL    HW119670   4.275   3.165   0.073
 6257SOL    HW219671   4.346   3.191   0.218
 6258SOL     OW19672   3.176   6.541   4.841
 6258SOL    HW119673   3.125   6.627   4.843
 6258SOL    HW219674   3.188   6.507   4.934
 6259SOL     OW19675   2.122   0.862   6.677
 6259SOL    HW119676   2.039   0.807   6.683
 6259SOL    HW219677   2.099   0.954   6.646
 6260SOL     OW19678   3.562   6.573   7.023
 6260SOL    HW119679   3.588   6.596   0.090
 6260SOL    HW219680   3.547   6.474   7.016
 6261SOL     OW19681   4.978   0.034   0.484
 6261SOL    HW119682   4.983   6.978   0.427
 6261SOL    HW219683   5.063   0.044   0.537
 6262SOL     OW19684   1.898   6.233   1.996
 6262SOL    HW119685   1.866   6.320   1.960
 6262SOL    HW219686   1.943   6.248   2.085
 6263SOL     OW19687   1.175   6.575   4.786
 6263SOL    HW119688   1.260   6.527   4.767
 6263SOL    HW219689   1.098   6.512   4.773
 6264SOL     OW19690   2.036   0.557   1.339
 6264SOL    HW119691   2.130   0.525   1.347
 6264SOL    HW219692   2.002   0.583   1.430
 6265SOL     OW19693   4.539   3.457   0.619
 6265SOL    HW119694   4.582   3.394   0.554
 6265SOL    HW219695   4.610   3.513   0.662
 6266SOL     OW19696   4.422   6.954   3.153
 6266SOL    HW119697   4.339   6.920   3.197
 6266SOL    HW219698   4.398   7.000   3.068
 6267SOL     OW19699   2.177   6.867   5.069
 6267SOL    HW119700   2.251   6.929   5.092
 6267SOL    HW219701   2.159   6.872   4.971
 6268SOL     OW19702   2.567   0.827   1.904
 6268SOL    HW119703   2.610   0.877   1.979
 6268SOL    HW219704   2.633   0.814   1.830
 6269SOL     OW19705   6.362   0.155   2.474
 6269SOL    HW119706   6.302   0.091   2.521
 6269SOL    HW219707   6.358   0.138   2.375
 6270SOL     OW19708   6.939   6.979   0.295
 6270SOL    HW119709   6.866   7.014   0.355
 6270SOL    HW219710   0.001   7.010   0.328
 6271SOL     OW19711   6.407   2.635   5.537
 6271SOL    HW119712   6.415   2.649   5.439
 6271SOL    HW219713   6.377   2.541   5.555
 6272SOL     OW19714   0.681   1.733   0.231
 6272SOL    HW119715   0.718   1.662   0.172
 6272SOL    HW219716   0.592   1.763   0.195
 6273SOL     OW19717   0.390   5.640   2.955
 6273SOL    HW119718   0.316   5.574   2.940
 6273SOL    HW219719   0.356   5.733   2.937
 6274SOL     OW19720   2.962   0.006   4.719
 6274SOL    HW119721   3.018   0.071   4.668
 6274SOL    HW219722   2.967   0.028   4.817
 6275SOL     OW19723   1.900   6.047   0.397
 6275SOL    HW119724   1.907   6.102   0.314
 6275SOL    HW219725   1.841   5.968   0.380
 6276SOL     OW19726   2.944   5.388   3.546
 6276SOL    HW119727   2.923   5.322   3.474
 6276SOL    HW219728   2.859   5.420   3.587
 6277SOL     OW19729   4.991   2.642   0.883
 6277SOL    HW119730   4.973   2.584   0.962
 6277SOL    HW219731   4.990   2.738   0.911
 6278SOL     OW19732   3.736   0.726   4.904
 6278SOL    HW119733   3.715   0.683   4.991
 6278SOL    HW219734   3.787   0.663   4.846
 6279SOL     OW19735   3.766   5.991   0.502
 6279SOL    HW119736   3.849   5.990   0.558
 6279SOL    HW219737   3.791   5.993   0.405
 6280SOL     OW19738   0.043   0.943   6.709
 6280SOL    HW119739   0.040   1.043   6.719
 6280SOL    HW219740   0.138   0.912   6.712
 6281SOL     OW19741   0.007   4.717   4.265
 6281SOL    HW119742   7.004   4.704   4.170
 6281SOL    HW219743   0.097   4.762   4.265
 6282SOL     OW19744   5.768   3.441   4.695
 6282SOL    HW119745   5.792   3.538   4.684
 6282SOL    HW219746   5.746   3.423   4.791
 6283SOL     OW19747   0.669   4.008   4.443
 6283SOL    HW119748   0.617   3.973   4.522
 6283SOL    HW219749   0.617   3.991   4.359
 6284SOL     OW19750   1.319   5.587   6.397
 6284SOL    HW119751   1.348   5.535   6.316
 6284SOL    HW219752   1.398   5.602   6.456
 6285SOL     OW19753   0.963   3.203   3.033
 6285SOL    HW119754   1.009   3.260   2.966
 6285SOL    HW219755   0.990   3.233   3.125
 6286SOL     OW19756   0.282   3.418   4.597
 6286SOL    HW119757   0.286   3.458   4.505
 6286SOL    HW219758   0.353   3.349   4.607
 6287SOL     OW19759   3.373   4.955   5.108
 6287SOL    HW119760   3.361   5.033   5.169
 6287SOL    HW219761   3.363   4.985   5.013
 6288SOL     OW19762   5.794   4.850   1.323
 6288SOL    HW119763   5.870   4.817   1.379
 6288SOL    HW219764   5.828   4.919   1.259
 6289SOL     OW19765   2.110   4.423   6.981
 6289SOL    HW119766   2.097   4.470   6.893
 6289SOL    HW219767   2.030   4.366   7.000
 6290SOL     OW19768   5.944   5.555   6.363
 6290SOL    HW119769   5.913   5.648   6.344
 6290SOL    HW219770   5.904   5.492   6.296
 6291SOL     OW19771   3.284   4.089   3.813
 6291SOL    HW119772   3.202   4.037   3.787
 6291SOL    HW219773   3.259   4.183   3.835
 6292SOL     OW19774   2.664   2.157   5.595
 6292SOL    HW119775   2.713   2.198   5.518
 6292SOL    HW219776   2.641   2.062   5.573
 6293SOL     OW19777   4.865   1.672   0.904
 6293SOL    HW119778   4.867   1.574   0.884
 6293SOL    HW219779   4.900   1.722   0.826
 6294SOL     OW19780   4.354   0.316   3.568
 6294SOL    HW119781   4.451   0.310   3.589
 6294SOL    HW219782   4.342   0.360   3.479
 6295SOL     OW19783   5.202   4.784   4.966
 6295SOL    HW119784   5.252   4.869   4.982
 6295SOL    HW219785   5.253   4.727   4.902
 6296SOL     OW19786   6.815   4.203   5.791
 6296SOL    HW119787   6.831   4.243   5.881
 6296SOL    HW219788   6.841   4.269   5.721
 6297SOL     OW19789   6.282   0.489   5.237
 6297SOL    HW119790   6.350   0.421   5.211
 6297SOL    HW219791   6.317   0.580   5.216
 6298SOL     OW19792   0.227   3.226   6.231
 6298SOL    HW119793   0.190   3.227   6.138
 6298SOL    HW219794   0.257   3.134   6.254
 6299SOL     OW19795   5.619   3.080   1.837
 6299SOL    HW119796   5.586   3.105   1.746
 6299SOL    HW219797   5.606   2.981   1.851
 6300SOL     OW19798   6.256   1.086   6.960
 6300SOL    HW119799   6.309   1.005   6.987
 6300SOL    HW219800   6.316   1.150   6.912
 6301SOL     OW19801   2.580   6.068   6.821
 6301SOL    HW119802   2.539   6.155   6.793
 6301SOL    HW219803   2.570   6.002   6.746
 6302SOL     OW19804   2.029   1.905   5.398
 6302SOL    HW119805   1.971   1.835   5.439
 6302SOL    HW219806   2.125   1.883   5.415
 6303SOL     OW19807   0.242   6.819   6.071
 6303SOL    HW119808   0.290   6.794   5.987
 6303SOL    HW219809   0.259   6.915   6.092
 6304SOL     OW19810   3.167   1.642   3.114
 6304SOL    HW119811   3.081   1.665   3.070
 6304SOL    HW219812   3.164   1.549   3.149
 6305SOL     OW19813   6.024   6.100   0.285
 6305SOL    HW119814   5.928   6.072   0.277
 6305SOL    HW219815   6.031   6.176   0.349
 6306SOL     OW19816   0.341   3.915   3.883
 6306SOL    HW119817   0.276   3.955   3.947
 6306SOL    HW219818   0.392   3.987   3.836
 6307SOL     OW19819   2.941   3.324   4.092
 6307SOL    HW119820   2.999   3.291   4.017
 6307SOL    HW219821   2.856   3.272   4.094
 6308SOL     OW19822   1.308   2.290   5.042
 6308SOL    HW119823   1.311   2.363   5.110
 6308SOL    HW219824   1.281   2.205   5.086
 6309SOL     OW19825   0.301   7.018   4.356
 6309SOL    HW119826   0.237   7.006   4.433
 6309SOL    HW219827   0.340   0.083   4.359
 6310SOL     OW19828   2.060   6.570   2.456
 6310SOL    HW119829   2.125   6.533   2.522
 6310SOL    HW219830   2.032   6.497   2.393
 6311SOL     OW19831   4.879   2.166   5.706
 6311SOL    HW119832   4.892   2.098   5.779
 6311SOL    HW219833   4.859   2.118   5.620
 6312SOL     OW19834   0.503   6.967   5.586
 6312SOL    HW119835   0.439   7.006   5.652
 6312SOL    HW219836   0.467   6.980   5.493
 6313SOL     OW19837   6.199   6.490   3.185
 6313SOL    HW119838   6.163   6.571   3.232
 6313SOL    HW219839   6.201   6.413   3.249
 6314SOL     OW19840   3.132   6.455   2.298
 6314SOL    HW119841   3.065   6.527   2.319
 6314SOL    HW219842   3.109   6.413   2.210
 6315SOL     OW19843   3.338   1.661   5.042
 6315SOL    HW119844   3.420   1.701   5.082
 6315SOL    HW219845   3.325   1.698   4.950
 6316SOL     OW19846   4.573   2.137   5.637
 6316SOL    HW119847   4.587   2.066   5.568
 6316SOL    HW219848   4.661   2.160   5.679
 6317SOL     OW19849   5.039   4.118   2.054
 6317SOL    HW119850   5.123   4.170   2.067
 6317SOL    HW219851   4.961   4.170   2.091
 6318SOL     OW19852   4.342   0.272   6.343
 6318SOL    HW119853   4.301   0.323   6.267
 6318SOL    HW219854   4.438   0.299   6.352
 6319SOL     OW19855   6.568   2.155   5.171
 6319SOL    HW119856   6.662   2.174   5.143
 6319SOL    HW219857   6.507   2.225   5.133
 6320SOL     OW19858   6.785   6.485   5.143
 6320SOL    HW119859   6.806   6.501   5.240
 6320SOL    HW219860   6.783   6.386   5.126
 6321SOL     OW19861   5.005   3.029   0.539
 6321SOL    HW119862   5.097   2.997   0.515
 6321SOL    HW219863   4.943   3.013   0.462
 6322SOL     OW19864   2.917   2.881   0.642
 6322SOL    HW119865   2.846   2.918   0.583
 6322SOL    HW219866   2.880   2.806   0.697
 6323SOL     OW19867   1.475   2.143   1.607
 6323SOL    HW119868   1.522   2.080   1.668
 6323SOL    HW219869   1.384   2.108   1.586
 6324SOL     OW19870   4.179   1.227   0.387
 6324SOL    HW119871   4.153   1.165   0.462
 6324SOL    HW219872   4.130   1.314   0.397
 6325SOL     OW19873   1.929   2.910   2.955
 6325SOL    HW119874   1.956   2.945   3.045
 6325SOL    HW219875   2.010   2.902   2.897
 6326SOL     OW19876   5.674   5.087   0.182
 6326SOL    HW119877   5.769   5.056   0.189
 6326SOL    HW219878   5.646   5.086   0.086
 6327SOL     OW19879   0.405   1.910   3.685
 6327SOL    HW119880   0.462   1.957   3.752
 6327SOL    HW219881   0.331   1.862   3.732
 6328SOL     OW19882   4.607   3.690   6.819
 6328SOL    HW119883   4.546   3.651   6.750
 6328SOL    HW219884   4.572   3.779   6.847
 6329SOL     OW19885   1.581   2.802   4.995
 6329SOL    HW119886   1.654   2.744   5.031
 6329SOL    HW219887   1.604   2.832   4.902
 6330SOL     OW19888   5.881   6.704   1.979
 6330SOL    HW119889   5.961   6.763   1.968
 6330SOL    HW219890   5.802   6.760   2.002
 6331SOL     OW19891   0.137   3.852   4.672
 6331SOL    HW119892   0.182   3.771   4.710
 6331SOL    HW219893   0.149   3.929   4.734
 6332SOL     OW19894   0.749   2.795   1.013
 6332SOL    HW119895   0.843   2.819   0.987
 6332SOL    HW219896   0.750   2.739   1.095
 6333SOL     OW19897   4.591   0.361   5.477
 6333SOL    HW119898   4.667   0.425   5.471
 6333SOL    HW219899   4.569   0.328   5.385
 6334SOL     OW19900   2.870   1.431   2.013
 6334SOL    HW119901   2.788   1.459   1.963
 6334SOL    HW219902   2.845   1.403   2.105
 6335SOL     OW19903   4.357   0.146   0.444
 6335SOL    HW119904   4.436   0.090   0.469
 6335SOL    HW219905   4.315   0.183   0.526
 6336SOL     OW19906   0.813   1.885   6.456
 6336SOL    HW119907   0.794   1.915   6.363
 6336SOL    HW219908   0.769   1.946   6.521
 6337SOL     OW19909   4.159   5.118   4.555
 6337SOL    HW119910   4.104   5.197   4.584
 6337SOL    HW219911   4.153   5.046   4.625
 6338SOL     OW19912   2.559   2.418   4.530
 6338SOL    HW119913   2.588   2.410   4.626
 6338SOL    HW219914   2.489   2.490   4.523
 6339SOL     OW19915   0.931   3.394   4.186
 6339SOL    HW119916   0.973   3.397   4.276
 6339SOL    HW219917   0.913   3.299   4.160
 6340SOL     OW19918   2.423   3.570   1.258
 6340SOL    HW119919   2.464   3.554   1.348
 6340SOL    HW219920   2.400   3.482   1.215
 6341SOL     OW19921   6.549   3.496   4.653
 6341SOL    HW119922   6.498   3.410   4.660
 6341SOL    HW219923   6.610   3.492   4.574
 6342SOL     OW19924   3.215   0.940   0.556
 6342SOL    HW119925   3.123   0.974   0.577
 6342SOL    HW219926   3.243   0.975   0.466
 6343SOL     OW19927   3.835   0.478   0.221
 6343SOL    HW119928   3.821   0.379   0.229
 6343SOL    HW219929   3.760   0.518   0.169
 6344SOL     OW19930   5.400   1.916   4.374
 6344SOL    HW119931   5.477   1.854   4.358
 6344SOL    HW219932   5.316   1.863   4.385
 6345SOL     OW19933   4.941   3.201   1.640
 6345SOL    HW119934   4.911   3.174   1.548
 6345SOL    HW219935   4.926   3.299   1.652
 6346SOL     OW19936   0.241   5.458   5.018
 6346SOL    HW119937   0.340   5.448   5.032
 6346SOL    HW219938   0.192   5.407   5.089
 6347SOL     OW19939   1.765   1.323   0.861
 6347SOL    HW119940   1.700   1.388   0.821
 6347SOL    HW219941   1.858   1.356   0.848
 6348SOL     OW19942   0.674   3.152   6.360
 6348SOL    HW119943   0.700   3.218   6.290
 6348SOL    HW219944   0.658   3.199   6.447
 6349SOL     OW19945   2.259   1.171   0.728
 6349SOL    HW119946   2.222   1.141   0.641
 6349SOL    HW219947   2.359   1.160   0.728
 6350SOL     OW19948   0.497   5.140   4.109
 6350SOL    HW119949   0.546   5.127   4.195
 6350SOL    HW219950   0.559   5.176   4.040
 6351SOL     OW19951   6.290   3.617   3.590
 6351SOL    HW119952   6.374   3.664   3.618
 6351SOL    HW219953   6.289   3.526   3.631
 6352SOL     OW19954   2.239   0.358   4.884
 6352SOL    HW119955   2.237   0.391   4.978
 6352SOL    HW219956   2.245   0.436   4.822
 6353SOL     OW19957   1.392   6.280   6.685
 6353SOL    HW119958   1.473   6.322   6.726
 6353SOL    HW219959   1.420   6.210   6.619
 6354SOL     OW19960   3.686   5.983   2.465
 6354SOL    HW119961   3.695   5.884   2.465
 6354SOL    HW219962   3.777   6.025   2.472
 6355SOL     OW19963   2.811   5.427   0.016
 6355SOL    HW119964   2.761   5.492   6.986
 6355SOL    HW219965   2.898   5.468   0.045
 6356SOL     OW19966   5.637   4.587   0.715
 6356SOL    HW119967   5.650   4.600   0.617
 6356SOL    HW219968   5.630   4.676   0.760
 6357SOL     OW19969   5.703   3.186   2.091
 6357SOL    HW119970   5.675   3.138   2.007
 6357SOL    HW219971   5.722   3.119   2.163
 6358SOL     OW19972   0.367   1.938   6.233
 6358SOL    HW119973   0.306   1.974   6.304
 6358SOL    HW219974   0.330   1.961   6.143
 6359SOL     OW19975   5.818   5.925   0.210
 6359SOL    HW119976   5.726   5.958   0.230
 6359SOL    HW219977   5.815   5.860   0.134
 6360SOL     OW19978   1.052   3.582   4.544
 6360SOL    HW119979   1.131   3.643   4.537
 6360SOL    HW219980   0.981   3.611   4.479
 6361SOL     OW19981   1.182   0.998   0.699
 6361SOL    HW119982   1.229   1.053   0.769
 6361SOL    HW219983   1.195   0.901   0.720
 6362SOL     OW19984   0.776   5.834   6.401
 6362SOL    HW119985   0.716   5.807   6.326
 6362SOL    HW219986   0.865   5.861   6.364
 6363SOL     OW19987   2.926   5.639   3.879
 6363SOL    HW119988   2.866   5.587   3.817
 6363SOL    HW219989   3.014   5.592   3.886
 6364SOL     OW19990   3.103   2.764   5.560
 6364SOL    HW119991   3.151   2.815   5.489
 6364SOL    HW219992   3.004   2.771   5.545
 6365SOL     OW19993   5.712   6.336   3.907
 6365SOL    HW119994   5.637   6.399   3.887
 6365SOL    HW219995   5.676   6.253   3.949
 6366SOL     OW19996   0.662   6.015   5.600
 6366SOL    HW119997   0.605   6.041   5.522
 6366SOL    HW219998   0.695   5.922   5.588
 6367SOL     OW19999   3.625   2.133   3.126
 6367SOL    HW120000   3.642   2.101   3.032
 6367SOL    HW220001   3.529   2.159   3.135
 6368SOL     OW20002   4.145   4.837   4.275
 6368SOL    HW120003   4.228   4.869   4.321
 6368SOL    HW220004   4.114   4.906   4.210
 6369SOL     OW20005   1.503   0.583   4.507
 6369SOL    HW120006   1.576   0.642   4.543
 6369SOL    HW220007   1.527   0.487   4.522
 6370SOL     OW20008   4.998   4.333   3.311
 6370SOL    HW120009   4.960   4.310   3.221
 6370SOL    HW220010   4.930   4.384   3.364
 6371SOL     OW20011   5.350   4.373   2.613
 6371SOL    HW120012   5.336   4.301   2.544
 6371SOL    HW220013   5.371   4.459   2.567
 6372SOL     OW20014   1.190   0.828   2.168
 6372SOL    HW120015   1.140   0.862   2.088
 6372SOL    HW220016   1.127   0.817   2.244
 6373SOL     OW20017   5.521   4.340   2.838
 6373SOL    HW120018   5.553   4.337   2.743
 6373SOL    HW220019   5.497   4.247   2.868
 6374SOL     OW20020   4.517   3.476   1.442
 6374SOL    HW120021   4.602   3.434   1.408
 6374SOL    HW220022   4.476   3.416   1.510
 6375SOL     OW20023   6.890   2.645   2.290
 6375SOL    HW120024   6.856   2.703   2.364
 6375SOL    HW220025   6.945   2.699   2.227
 6376SOL     OW20026   4.068   2.178   6.423
 6376SOL    HW120027   4.096   2.160   6.329
 6376SOL    HW220028   4.113   2.113   6.485
 6377SOL     OW20029   6.660   1.493   5.650
 6377SOL    HW120030   6.583   1.447   5.695
 6377SOL    HW220031   6.647   1.492   5.551
 6378SOL     OW20032   5.765   4.899   3.583
 6378SOL    HW120033   5.838   4.878   3.518
 6378SOL    HW220034   5.678   4.866   3.547
 6379SOL     OW20035   0.375   4.444   5.682
 6379SOL    HW120036   0.286   4.402   5.664
 6379SOL    HW220037   0.393   4.446   5.780
 6380SOL     OW20038   0.230   2.136   4.773
 6380SOL    HW120039   0.322   2.104   4.795
 6380SOL    HW220040   0.214   2.126   4.675
 6381SOL     OW20041   4.734   3.227   1.108
 6381SOL    HW120042   4.738   3.157   1.037
 6381SOL    HW220043   4.690   3.189   1.190
 6382SOL     OW20044   2.956   2.219   0.276
 6382SOL    HW120045   3.030   2.281   0.249
 6382SOL    HW220046   2.992   2.148   0.337
 6383SOL     OW20047   2.264   2.805   2.170
 6383SOL    HW120048   2.317   2.743   2.229
 6383SOL    HW220049   2.322   2.837   2.095
 6384SOL     OW20050   5.950   3.419   2.897
 6384SOL    HW120051   5.948   3.323   2.871
 6384SOL    HW220052   5.984   3.427   2.991
 6385SOL     OW20053   6.632   3.780   2.792
 6385SOL    HW120054   6.550   3.834   2.814
 6385SOL    HW220055   6.643   3.708   2.860
 6386SOL     OW20056   2.286   3.377   6.962
 6386SOL    HW120057   2.192   3.398   6.933
 6386SOL    HW220058   2.286   3.356   0.034
 6387SOL     OW20059   5.877   1.731   7.012
 6387SOL    HW120060   5.785   1.691   7.007
 6387SOL    HW220061   5.909   1.751   6.919
 6388SOL     OW20062   5.352   5.577   1.666
 6388SOL    HW120063   5.386   5.650   1.725
 6388SOL    HW220064   5.266   5.605   1.623
 6389SOL     OW20065   1.118   6.917   0.628
 6389SOL    HW120066   1.045   6.925   0.561
 6389SOL    HW220067   1.189   6.856   0.593
 6390SOL     OW20068   6.366   0.211   5.530
 6390SOL    HW120069   6.374   0.306   5.503
 6390SOL    HW220070   6.444   0.185   5.586
 6391SOL     OW20071   1.697   1.098   6.133
 6391SOL    HW120072   1.781   1.129   6.090
 6391SOL    HW220073   1.716   1.018   6.189
 6392SOL     OW20074   3.014   5.511   3.073
 6392SOL    HW120075   3.099   5.460   3.080
 6392SOL    HW220076   3.030   5.607   3.096
 6393SOL     OW20077   6.424   5.657   1.776
 6393SOL    HW120078   6.516   5.694   1.781
 6393SOL    HW220079   6.381   5.660   1.866
 6394SOL     OW20080   2.044   5.542   0.818
 6394SOL    HW120081   2.071   5.452   0.852
 6394SOL    HW220082   1.945   5.547   0.811
 6395SOL     OW20083   6.542   3.347   1.943
 6395SOL    HW120084   6.532   3.438   1.984
 6395SOL    HW220085   6.512   3.350   1.848
 6396SOL     OW20086   6.542   3.790   6.256
 6396SOL    HW120087   6.465   3.834   6.210
 6396SOL    HW220088   6.577   3.717   6.198
 6397SOL     OW20089   5.950   1.407   2.078
 6397SOL    HW120090   5.970   1.321   2.125
 6397SOL    HW220091   6.018   1.423   2.007
 6398SOL     OW20092   1.934   0.002   1.586
 6398SOL    HW120093   1.923   0.001   1.487
 6398SOL    HW220094   1.854   0.043   1.629
 6399SOL     OW20095   1.431   0.359   6.602
 6399SOL    HW120096   1.525   0.332   6.624
 6399SOL    HW220097   1.411   0.337   6.506
 6400SOL     OW20098   1.805   4.955   2.363
 6400SOL    HW120099   1.812   5.026   2.434
 6400SOL    HW220100   1.840   4.991   2.277
 6401SOL     OW20101   5.456   5.193   3.070
 6401SOL    HW120102   5.477   5.202   3.168
 6401SOL    HW220103   5.378   5.250   3.047
 6402SOL     OW20104   2.205   3.059   4.047
 6402SOL    HW120105   2.296   3.049   4.007
 6402SOL    HW220106   2.152   3.125   3.993
 6403SOL     OW20107   6.033   5.910   5.500
 6403SOL    HW120108   6.072   5.819   5.518
 6403SOL    HW220109   6.085   5.979   5.552
 6404SOL     OW20110   4.393   1.094   2.698
 6404SOL    HW120111   4.308   1.050   2.668
 6404SOL    HW220112   4.458   1.095   2.622
 6405SOL     OW20113   4.548   1.051   4.515
 6405SOL    HW120114   4.474   1.062   4.449
 6405SOL    HW220115   4.516   0.995   4.591
 6406SOL     OW20116   0.926   2.613   2.244
 6406SOL    HW120117   0.878   2.634   2.329
 6406SOL    HW220118   0.913   2.688   2.179
 6407SOL     OW20119   2.345   0.013   4.666
 6407SOL    HW120120   2.330   6.991   4.580
 6407SOL    HW220121   2.266   0.002   4.725
 6408SOL     OW20122   5.466   1.252   1.346
 6408SOL    HW120123   5.437   1.205   1.430
 6408SOL    HW220124   5.485   1.184   1.275
 6409SOL     OW20125   0.005   4.740   3.134
 6409SOL    HW120126   6.967   4.807   3.171
 6409SOL    HW220127   7.026   4.742   3.034
 6410SOL     OW20128   1.955   0.930   6.124
 6410SOL    HW120129   2.055   0.939   6.130
 6410SOL    HW220130   1.924   0.959   6.034
 6411SOL     OW20131   0.767   2.668   2.466
 6411SOL    HW120132   0.704   2.665   2.389
 6411SOL    HW220133   0.724   2.716   2.542
 6412SOL     OW20134   1.938   0.627   6.083
 6412SOL    HW120135   1.966   0.723   6.085
 6412SOL    HW220136   1.875   0.609   6.159
 6413SOL     OW20137   3.403   4.948   3.910
 6413SOL    HW120138   3.315   4.971   3.869
 6413SOL    HW220139   3.427   5.016   3.979
 6414SOL     OW20140   5.169   0.373   6.569
 6414SOL    HW120141   5.110   0.453   6.583
 6414SOL    HW220142   5.261   0.404   6.547
 6415SOL     OW20143   1.439   3.031   4.075
 6415SOL    HW120144   1.362   3.075   4.121
 6415SOL    HW220145   1.510   3.099   4.058
 6416SOL     OW20146   2.114   6.688   6.057
 6416SOL    HW120147   2.048   6.754   6.021
 6416SOL    HW220148   2.186   6.673   5.989
 6417SOL     OW20149   5.437   3.266   0.708
 6417SOL    HW120150   5.520   3.267   0.762
 6417SOL    HW220151   5.421   3.174   0.671
 6418SOL     OW20152   5.152   4.147   2.703
 6418SOL    HW120153   5.067   4.114   2.745
 6418SOL    HW220154   5.159   4.246   2.715
 6419SOL     OW20155   1.328   5.573   3.017
 6419SOL    HW120156   1.267   5.613   3.086
 6419SOL    HW220157   1.406   5.530   3.063
 6420SOL     OW20158   2.543   1.033   4.005
 6420SOL    HW120159   2.484   1.113   3.999
 6420SOL    HW220160   2.522   0.970   3.931
 6421SOL     OW20161   4.279   0.509   1.334
 6421SOL    HW120162   4.205   0.574   1.355
 6421SOL    HW220163   4.240   0.417   1.325
 6422SOL     OW20164   6.399   1.863   5.110
 6422SOL    HW120165   6.325   1.846   5.175
 6422SOL    HW220166   6.487   1.853   5.157
 6423SOL     OW20167   5.028   4.994   4.631
 6423SOL    HW120168   5.104   5.058   4.640
 6423SOL    HW220169   4.979   5.012   4.546
 6424SOL     OW20170   1.162   4.102   5.169
 6424SOL    HW120171   1.103   4.153   5.108
 6424SOL    HW220172   1.230   4.052   5.116
 6425SOL     OW20173   6.976   5.798   3.411
 6425SOL    HW120174   6.886   5.831   3.438
 6425SOL    HW220175   6.996   5.712   3.458
 6426SOL     OW20176   6.464   5.645   3.439
 6426SOL    HW120177   6.432   5.553   3.418
 6426SOL    HW220178   6.550   5.663   3.392
 6427SOL     OW20179   3.273   4.128   3.270
 6427SOL    HW120180   3.187   4.179   3.263
 6427SOL    HW220181   3.273   4.053   3.203
 6428SOL     OW20182   6.153   3.386   0.270
 6428SOL    HW120183   6.107   3.328   0.338
 6428SOL    HW220184   6.252   3.381   0.284
 6429SOL     OW20185   0.163   1.380   5.803
 6429SOL    HW120186   0.172   1.282   5.817
 6429SOL    HW220187   0.150   1.399   5.706
 6430SOL     OW20188   6.453   1.226   4.355
 6430SOL    HW120189   6.401   1.148   4.320
 6430SOL    HW220190   6.472   1.290   4.281
 6431SOL     OW20191   4.208   6.072   3.376
 6431SOL    HW120192   4.303   6.062   3.345
 6431SOL    HW220193   4.189   6.006   3.448
 6432SOL     OW20194   4.206   4.873   6.044
 6432SOL    HW120195   4.281   4.926   6.084
 6432SOL    HW220196   4.208   4.882   5.945
 6433SOL     OW20197   3.146   4.701   6.774
 6433SOL    HW120198   3.136   4.637   6.850
 6433SOL    HW220199   3.062   4.702   6.720
 6434SOL     OW20200   3.260   0.425   6.204
 6434SOL    HW120201   3.172   0.392   6.169
 6434SOL    HW220202   3.291   0.364   6.277
 6435SOL     OW20203   5.893   6.792   0.634
 6435SOL    HW120204   5.822   6.793   0.704
 6435SOL    HW220205   5.973   6.841   0.667
 6436SOL     OW20206   1.385   3.487   2.829
 6436SOL    HW120207   1.340   3.431   2.758
 6436SOL    HW220208   1.374   3.583   2.806
 6437SOL     OW20209   1.616   2.403   0.601
 6437SOL    HW120210   1.570   2.488   0.575
 6437SOL    HW220211   1.550   2.327   0.600
 6438SOL     OW20212   0.548   4.911   6.089
 6438SOL    HW120213   0.469   4.877   6.039
 6438SOL    HW220214   0.561   5.009   6.069
 6439SOL     OW20215   5.140   0.620   2.500
 6439SOL    HW120216   5.158   0.524   2.478
 6439SOL    HW220217   5.200   0.679   2.446
 6440SOL     OW20218   2.981   1.009   5.593
 6440SOL    HW120219   2.914   1.007   5.667
 6440SOL    HW220220   2.977   1.098   5.547
 6441SOL     OW20221   0.168   0.848   1.762
 6441SOL    HW120222   0.172   0.751   1.785
 6441SOL    HW220223   0.246   0.872   1.704
 6442SOL     OW20224   3.252   1.786   4.806
 6442SOL    HW120225   3.153   1.778   4.801
 6442SOL    HW220226   3.282   1.869   4.759
 6443SOL     OW20227   3.308   3.051   5.656
 6443SOL    HW120228   3.271   3.020   5.568
 6443SOL    HW220229   3.233   3.063   5.721
 6444SOL     OW20230   6.007   2.517   4.413
 6444SOL    HW120231   6.027   2.518   4.315
 6444SOL    HW220232   5.908   2.518   4.426
 6445SOL     OW20233   3.821   3.304   3.285
 6445SOL    HW120234   3.809   3.400   3.261
 6445SOL    HW220235   3.843   3.297   3.383
 6446SOL     OW20236   0.313   1.390   0.374
 6446SOL    HW120237   0.377   1.316   0.353
 6446SOL    HW220238   0.303   1.450   0.295
 6447SOL     OW20239   0.127   4.521   2.370
 6447SOL    HW120240   0.221   4.528   2.337
 6447SOL    HW220241   0.088   4.613   2.377
 6448SOL     OW20242   6.009   4.797   1.459
 6448SOL    HW120243   6.014   4.743   1.543
 6448SOL    HW220244   6.083   4.770   1.397
 6449SOL     OW20245   3.302   5.395   1.888
 6449SOL    HW120246   3.370   5.467   1.899
 6449SOL    HW220247   3.346   5.311   1.858
 6450SOL     OW20248   1.219   3.364   0.257
 6450SOL    HW120249   1.261   3.395   0.172
 6450SOL    HW220250   1.162   3.438   0.295
 6451SOL     OW20251   2.143   1.027   5.578
 6451SOL    HW120252   2.047   1.052   5.564
 6451SOL    HW220253   2.162   1.023   5.676
 6452SOL     OW20254   4.775   4.211   2.319
 6452SOL    HW120255   4.760   4.156   2.401
 6452SOL    HW220256   4.850   4.275   2.335
 6453SOL     OW20257   2.605   0.582   1.461
 6453SOL    HW120258   2.590   0.625   1.550
 6453SOL    HW220259   2.663   0.501   1.472
 6454SOL     OW20260   0.853   1.090   2.849
 6454SOL    HW120261   0.814   1.087   2.941
 6454SOL    HW220262   0.943   1.135   2.852
 6455SOL     OW20263   6.792   3.172   3.529
 6455SOL    HW120264   6.695   3.150   3.532
 6455SOL    HW220265   6.845   3.094   3.561
 6456SOL     OW20266   1.285   0.789   3.821
 6456SOL    HW120267   1.270   0.693   3.840
 6456SOL    HW220268   1.380   0.803   3.793
 6457SOL     OW20269   5.551   0.620   1.797
 6457SOL    HW120270   5.505   0.563   1.729
 6457SOL    HW220271   5.491   0.694   1.825
 6458SOL     OW20272   1.466   4.908   4.280
 6458SOL    HW120273   1.420   4.879   4.364
 6458SOL    HW220274   1.565   4.897   4.291
 6459SOL     OW20275   6.343   3.055   2.374
 6459SOL    HW120276   6.349   3.125   2.302
 6459SOL    HW220277   6.319   2.967   2.334
 6460SOL     OW20278   6.020   6.090   6.335
 6460SOL    HW120279   5.947   6.090   6.268
 6460SOL    HW220280   6.106   6.115   6.291
 6461SOL     OW20281   3.045   4.330   6.661
 6461SOL    HW120282   3.106   4.348   6.738
 6461SOL    HW220283   2.994   4.245   6.678
 6462SOL     OW20284   1.380   2.786   4.695
 6462SOL    HW120285   1.423   2.876   4.706
 6462SOL    HW220286   1.434   2.717   4.743
 6463SOL     OW20287   5.308   0.536   0.433
 6463SOL    HW120288   5.221   0.491   0.411
 6463SOL    HW220289   5.338   0.509   0.524
 6464SOL     OW20290   1.899   5.383   5.017
 6464SOL    HW120291   1.853   5.295   5.017
 6464SOL    HW220292   1.942   5.398   5.106
 6465SOL     OW20293   0.128   3.068   3.041
 6465SOL    HW120294   0.125   3.067   2.942
 6465SOL    HW220295   0.148   3.160   3.073
 6466SOL     OW20296   6.022   0.815   6.498
 6466SOL    HW120297   5.987   0.722   6.512
 6466SOL    HW220298   5.958   0.881   6.536
 6467SOL     OW20299   3.792   0.074   0.963
 6467SOL    HW120300   3.876   0.106   1.008
 6467SOL    HW220301   3.722   0.144   0.971
 6468SOL     OW20302   3.636   6.601   1.734
 6468SOL    HW120303   3.540   6.593   1.762
 6468SOL    HW220304   3.695   6.569   1.808
 6469SOL     OW20305   4.177   2.266   3.309
 6469SOL    HW120306   4.113   2.191   3.327
 6469SOL    HW220307   4.215   2.299   3.395
 6470SOL     OW20308   6.204   2.730   0.820
 6470SOL    HW120309   6.135   2.802   0.806
 6470SOL    HW220310   6.190   2.689   0.910
 6471SOL     OW20311   0.504   6.597   5.464
 6471SOL    HW120312   0.575   6.615   5.532
 6471SOL    HW220313   0.465   6.506   5.479
 6472SOL     OW20314   6.394   6.163   2.869
 6472SOL    HW120315   6.339   6.240   2.837
 6472SOL    HW220316   6.343   6.078   2.854
 6473SOL     OW20317   2.351   1.539   4.780
 6473SOL    HW120318   2.390   1.616   4.729
 6473SOL    HW220319   2.409   1.517   4.858
 6474SOL     OW20320   4.564   5.749   5.431
 6474SOL    HW120321   4.611   5.765   5.517
 6474SOL    HW220322   4.539   5.837   5.389
 6475SOL     OW20323   5.756   4.552   3.927
 6475SOL    HW120324   5.710   4.626   3.977
 6475SOL    HW220325   5.833   4.519   3.981
 6476SOL     OW20326   5.235   2.972   0.391
 6476SOL    HW120327   5.248   3.069   0.412
 6476SOL    HW220328   5.321   2.933   0.360
 6477SOL     OW20329   6.364   5.347   0.613
 6477SOL    HW120330   6.384   5.388   0.702
 6477SOL    HW220331   6.447   5.306   0.576
 6478SOL     OW20332   2.803   6.550   2.623
 6478SOL    HW120333   2.804   6.464   2.572
 6478SOL    HW220334   2.771   6.624   2.563
 6479SOL     OW20335   4.106   5.707   4.395
 6479SOL    HW120336   4.102   5.706   4.295
 6479SOL    HW220337   4.194   5.744   4.424
 6480SOL     OW20338   2.719   1.073   6.991
 6480SOL    HW120339   2.657   1.116   0.030
 6480SOL    HW220340   2.740   0.980   7.023
 6481SOL     OW20341   3.446   2.261   1.733
 6481SOL    HW120342   3.392   2.197   1.788
 6481SOL    HW220343   3.532   2.282   1.781
 6482SOL     OW20344   6.007   2.037   6.652
 6482SOL    HW120345   6.043   2.126   6.680
 6482SOL    HW220346   6.079   1.985   6.606
 6483SOL     OW20347   6.886   7.026   3.117
 6483SOL    HW120348   6.861   7.002   3.211
 6483SOL    HW220349   6.950   0.076   3.117
 6484SOL     OW20350   2.936   1.174   2.520
 6484SOL    HW120351   3.012   1.188   2.583
 6484SOL    HW220352   2.871   1.109   2.560
 6485SOL     OW20353   2.161   5.226   3.822
 6485SOL    HW120354   2.120   5.143   3.784
 6485SOL    HW220355   2.089   5.282   3.864
 6486SOL     OW20356   1.181   4.674   2.366
 6486SOL    HW120357   1.126   4.757   2.361
 6486SOL    HW220358   1.263   4.684   2.310
 6487SOL     OW20359   1.166   6.809   5.376
 6487SOL    HW120360   1.209   6.879   5.319
 6487SOL    HW220361   1.208   6.720   5.357
 6488SOL     OW20362   4.285   5.707   4.616
 6488SOL    HW120363   4.361   5.768   4.638
 6488SOL    HW220364   4.201   5.742   4.658
 6489SOL     OW20365   3.736   3.418   6.229
 6489SOL    HW120366   3.646   3.379   6.213
 6489SOL    HW220367   3.741   3.456   6.321
 6490SOL     OW20368   3.886   1.096   6.215
 6490SOL    HW120369   3.924   1.138   6.133
 6490SOL    HW220370   3.818   1.028   6.188
 6491SOL     OW20371   3.147   0.314   1.215
 6491SOL    HW120372   3.053   0.347   1.223
 6491SOL    HW220373   3.210   0.386   1.243
 6492SOL     OW20374   3.786   3.901   5.395
 6492SOL    HW120375   3.860   3.849   5.352
 6492SOL    HW220376   3.812   3.997   5.402
 6493SOL     OW20377   1.331   4.338   6.497
 6493SOL    HW120378   1.258   4.354   6.431
 6493SOL    HW220379   1.404   4.284   6.454
 6494SOL     OW20380   0.331   6.917   2.795
 6494SOL    HW120381   0.366   7.009   2.817
 6494SOL    HW220382   0.307   6.913   2.698
 6495SOL     OW20383   0.021   0.917   4.455
 6495SOL    HW120384   0.011   0.825   4.418
 6495SOL    HW220385   7.004   0.983   4.393
 6496SOL     OW20386   5.524   0.960   2.849
 6496SOL    HW120387   5.525   0.966   2.749
 6496SOL    HW220388   5.455   0.894   2.877
 6497SOL     OW20389   0.562   0.789   1.279
 6497SOL    HW120390   0.628   0.746   1.341
 6497SOL    HW220391   0.593   0.881   1.256
 6498SOL     OW20392   0.568   3.677   4.510
 6498SOL    HW120393   0.599   3.591   4.471
 6498SOL    HW220394   0.517   3.729   4.441
 6499SOL     OW20395   5.463   3.670   5.531
 6499SOL    HW120396   5.547   3.719   5.555
 6499SOL    HW220397   5.458   3.585   5.583
 6500SOL     OW20398   6.734   3.894   3.565
 6500SOL    HW120399   6.707   3.945   3.483
 6500SOL    HW220400   6.746   3.958   3.641
 6501SOL     OW20401   6.781   1.331   0.646
 6501SOL    HW120402   6.758   1.237   0.622
 6501SOL    HW220403   6.807   1.381   0.564
 6502SOL     OW20404   0.091   4.032   2.186
 6502SOL    HW120405   0.065   3.954   2.242
 6502SOL    HW220406   0.066   4.117   2.234
 6503SOL     OW20407   5.446   0.906   3.895
 6503SOL    HW120408   5.376   0.970   3.862
 6503SOL    HW220409   5.536   0.938   3.866
 6504SOL     OW20410   3.430   6.607   6.165
 6504SOL    HW120411   3.465   6.521   6.204
 6504SOL    HW220412   3.402   6.668   6.239
 6505SOL     OW20413   5.727   6.302   6.350
 6505SOL    HW120414   5.681   6.361   6.417
 6505SOL    HW220415   5.792   6.357   6.297
 6506SOL     OW20416   0.008   3.025   3.280
 6506SOL    HW120417   6.965   3.095   3.261
 6506SOL    HW220418   0.066   3.014   3.199
 6507SOL     OW20419   2.475   6.061   6.335
 6507SOL    HW120420   2.383   6.088   6.306
 6507SOL    HW220421   2.503   5.978   6.286
 6508SOL     OW20422   1.533   0.582   3.114
 6508SOL    HW120423   1.538   0.517   3.039
 6508SOL    HW220424   1.485   0.665   3.084
 6509SOL     OW20425   4.673   2.221   4.565
 6509SOL    HW120426   4.709   2.296   4.509
 6509SOL    HW220427   4.595   2.253   4.618
 6510SOL     OW20428   6.219   4.810   6.854
 6510SOL    HW120429   6.293   4.821   6.921
 6510SOL    HW220430   6.164   4.892   6.851
 6511SOL     OW20431   4.433   0.939   4.781
 6511SOL    HW120432   4.364   0.907   4.845
 6511SOL    HW220433   4.482   1.017   4.820
 6512SOL     OW20434   3.721   6.972   2.048
 6512SOL    HW120435   3.761   6.972   2.139
 6512SOL    HW220436   3.784   6.926   1.984
 6513SOL     OW20437   2.465   5.448   3.532
 6513SOL    HW120438   2.464   5.402   3.621
 6513SOL    HW220439   2.407   5.529   3.536
 6514SOL     OW20440   5.610   1.371   4.321
 6514SOL    HW120441   5.688   1.386   4.382
 6514SOL    HW220442   5.525   1.382   4.372
 6515SOL     OW20443   1.452   3.195   3.429
 6515SOL    HW120444   1.418   3.131   3.498
 6515SOL    HW220445   1.375   3.242   3.387
 6516SOL     OW20446   0.504   3.402   1.299
 6516SOL    HW120447   0.566   3.368   1.370
 6516SOL    HW220448   0.498   3.502   1.305
 6517SOL     OW20449   6.787   1.862   1.965
 6517SOL    HW120450   6.762   1.958   1.979
 6517SOL    HW220451   6.790   1.814   2.052
 6518SOL     OW20452   0.427   0.555   1.331
 6518SOL    HW120453   0.479   0.637   1.308
 6518SOL    HW220454   0.490   0.478   1.341
 6519SOL     OW20455   0.441   1.449   2.796
 6519SOL    HW120456   0.470   1.372   2.740
 6519SOL    HW220457   0.422   1.417   2.889
 6520SOL     OW20458   0.269   5.011   6.951
 6520SOL    HW120459   0.364   5.010   6.918
 6520SOL    HW220460   0.257   4.942   7.023
 6521SOL     OW20461   2.045   2.796   4.682
 6521SOL    HW120462   2.051   2.706   4.725
 6521SOL    HW220463   2.080   2.866   4.745
 6522SOL     OW20464   3.210   4.884   5.811
 6522SOL    HW120465   3.214   4.811   5.742
 6522SOL    HW220466   3.144   4.953   5.782
 6523SOL     OW20467   3.976   0.749   0.078
 6523SOL    HW120468   4.013   0.703   0.158
 6523SOL    HW220469   4.036   0.825   0.052
 6524SOL     OW20470   2.576   3.267   1.340
 6524SOL    HW120471   2.628   3.289   1.422
 6524SOL    HW220472   2.478   3.266   1.362
 6525SOL     OW20473   2.160   4.778   2.782
 6525SOL    HW120474   2.109   4.695   2.761
 6525SOL    HW220475   2.122   4.820   2.865
 6526SOL     OW20476   1.057   0.261   1.624
 6526SOL    HW120477   1.044   0.270   1.526
 6526SOL    HW220478   0.996   0.191   1.660
 6527SOL     OW20479   6.818   2.160   6.694
 6527SOL    HW120480   6.812   2.170   6.595
 6527SOL    HW220481   6.789   2.068   6.720
 6528SOL     OW20482   5.849   1.222   5.423
 6528SOL    HW120483   5.949   1.222   5.422
 6528SOL    HW220484   5.815   1.315   5.435
 6529SOL     OW20485   2.060   0.590   2.396
 6529SOL    HW120486   2.130   0.579   2.466
 6529SOL    HW220487   2.064   0.513   2.332
 6530SOL     OW20488   0.135   2.179   1.092
 6530SOL    HW120489   0.056   2.197   1.152
 6530SOL    HW220490   0.197   2.257   1.095
 6531SOL     OW20491   4.915   3.315   4.871
 6531SOL    HW120492   4.977   3.293   4.947
 6531SOL    HW220493   4.854   3.389   4.899
 6532SOL     OW20494   0.957   1.295   0.800
 6532SOL    HW120495   0.875   1.347   0.822
 6532SOL    HW220496   0.999   1.261   0.883
 6533SOL     OW20497   3.994   6.049   0.342
 6533SOL    HW120498   4.019   6.137   0.383
 6533SOL    HW220499   3.919   6.063   0.278
 6534SOL     OW20500   5.220   5.028   1.443
 6534SOL    HW120501   5.175   5.113   1.414
 6534SOL    HW220502   5.293   5.049   1.507
 6535SOL     OW20503   6.921   4.471   4.344
 6535SOL    HW120504   6.847   4.477   4.411
 6535SOL    HW220505   6.933   4.560   4.301
 6536SOL     OW20506   0.674   2.176   4.997
 6536SOL    HW120507   0.669   2.249   4.929
 6536SOL    HW220508   0.633   2.093   4.959
 6537SOL     OW20509   0.047   4.357   6.485
 6537SOL    HW120510   0.003   4.294   6.421
 6537SOL    HW220511   0.056   4.447   6.442
 6538SOL     OW20512   1.948   3.979   5.697
 6538SOL    HW120513   2.037   3.981   5.652
 6538SOL    HW220514   1.876   3.987   5.629
 6539SOL     OW20515   4.885   0.927   6.871
 6539SOL    HW120516   4.975   0.918   6.828
 6539SOL    HW220517   4.895   0.973   6.959
 6540SOL     OW20518   3.649   2.926   6.089
 6540SOL    HW120519   3.711   2.979   6.147
 6540SOL    HW220520   3.664   2.950   5.993
 6541SOL     OW20521   5.291   1.449   5.060
 6541SOL    HW120522   5.280   1.409   5.151
 6541SOL    HW220523   5.279   1.548   5.066
 6542SOL     OW20524   0.654   2.796   3.852
 6542SOL    HW120525   0.697   2.879   3.886
 6542SOL    HW220526   0.619   2.742   3.929
 6543SOL     OW20527   4.489   3.009   5.338
 6543SOL    HW120528   4.505   2.914   5.362
 6543SOL    HW220529   4.400   3.018   5.292
 6544SOL     OW20530   1.446   6.851   3.589
 6544SOL    HW120531   1.387   6.898   3.654
 6544SOL    HW220532   1.432   6.753   3.595
 6545SOL     OW20533   4.091   0.521   0.966
 6545SOL    HW120534   4.145   0.548   0.886
 6545SOL    HW220535   4.095   0.594   1.035
 6546SOL     OW20536   2.715   3.900   6.016
 6546SOL    HW120537   2.774   3.873   5.940
 6546SOL    HW220538   2.749   3.983   6.058
 6547SOL     OW20539   4.732   0.870   6.646
 6547SOL    HW120540   4.804   0.882   6.714
 6547SOL    HW220541   4.744   0.936   6.572
 6548SOL     OW20542   1.488   4.011   1.104
 6548SOL    HW120543   1.495   4.099   1.057
 6548SOL    HW220544   1.579   3.982   1.135
 6549SOL     OW20545   4.442   0.839   2.046
 6549SOL    HW120546   4.444   0.844   1.946
 6549SOL    HW220547   4.479   0.751   2.077
 6550SOL     OW20548   6.908   6.518   4.564
 6550SOL    HW120549   6.920   6.598   4.622
 6550SOL    HW220550   6.877   6.546   4.474
 6551SOL     OW20551   2.143   3.661   2.151
 6551SOL    HW120552   2.164   3.579   2.097
 6551SOL    HW220553   2.144   3.741   2.092
 6552SOL     OW20554   1.322   0.357   0.338
 6552SOL    HW120555   1.248   0.421   0.360
 6552SOL    HW220556   1.302   0.268   0.379
 6553SOL     OW20557   0.169   2.049   3.170
 6553SOL    HW120558   0.207   2.065   3.261
 6553SOL    HW220559   0.213   1.970   3.128
 6554SOL     OW20560   1.301   0.241   4.215
 6554SOL    HW120561   1.249   0.271   4.135
 6554SOL    HW220562   1.239   0.232   4.293
 6555SOL     OW20563   4.942   2.208   2.816
 6555SOL    HW120564   4.849   2.185   2.845
 6555SOL    HW220565   5.008   2.157   2.871
 6556SOL     OW20566   5.802   4.643   3.422
 6556SOL    HW120567   5.851   4.580   3.482
 6556SOL    HW220568   5.866   4.713   3.388
 6557SOL     OW20569   2.167   0.482   3.221
 6557SOL    HW120570   2.256   0.509   3.257
 6557SOL    HW220571   2.119   0.563   3.186
 6558SOL     OW20572   6.732   4.962   0.303
 6558SOL    HW120573   6.737   4.932   0.208
 6558SOL    HW220574   6.817   5.007   0.329
 6559SOL     OW20575   0.942   3.936   0.198
 6559SOL    HW120576   0.861   3.877   0.199
 6559SOL    HW220577   0.969   3.954   0.104
 6560SOL     OW20578   4.006   4.901   1.731
 6560SOL    HW120579   4.078   4.845   1.773
 6560SOL    HW220580   4.034   4.925   1.638
 6561SOL     OW20581   3.672   4.223   1.345
 6561SOL    HW120582   3.643   4.132   1.316
 6561SOL    HW220583   3.770   4.233   1.332
 6562SOL     OW20584   5.893   1.987   0.902
 6562SOL    HW120585   5.834   2.065   0.925
 6562SOL    HW220586   5.873   1.911   0.964
 6563SOL     OW20587   5.084   5.447   6.108
 6563SOL    HW120588   5.110   5.543   6.110
 6563SOL    HW220589   5.127   5.399   6.185
 6564SOL     OW20590   6.355   3.713   2.287
 6564SOL    HW120591   6.264   3.673   2.298
 6564SOL    HW220592   6.422   3.640   2.276
 6565SOL     OW20593   5.879   0.976   2.427
 6565SOL    HW120594   5.889   1.015   2.335
 6565SOL    HW220595   5.958   1.002   2.483
 6566SOL     OW20596   4.149   6.683   2.202
 6566SOL    HW120597   4.232   6.738   2.215
 6566SOL    HW220598   4.121   6.687   2.107
 6567SOL     OW20599   4.681   0.683   2.300
 6567SOL    HW120600   4.680   0.782   2.314
 6567SOL    HW220601   4.774   0.653   2.279
 6568SOL     OW20602   3.215   1.758   4.224
 6568SOL    HW120603   3.259   1.732   4.311
 6568SOL    HW220604   3.158   1.682   4.192
 6569SOL     OW20605   2.836   3.084   0.473
 6569SOL    HW120606   2.745   3.109   0.440
 6569SOL    HW220607   2.903   3.147   0.435
 6570SOL     OW20608   2.948   0.812   2.261
 6570SOL    HW120609   2.929   0.777   2.353
 6570SOL    HW220610   2.967   0.910   2.265
 6571SOL     OW20611   3.052   4.949   2.093
 6571SOL    HW120612   3.025   5.042   2.116
 6571SOL    HW220613   2.985   4.910   2.029
 6572SOL     OW20614   0.085   4.175   4.443
 6572SOL    HW120615   0.094   4.077   4.429
 6572SOL    HW220616   0.155   4.206   4.507
 6573SOL     OW20617   0.559   1.963   2.644
 6573SOL    HW120618   0.641   1.988   2.592
 6573SOL    HW220619   0.582   1.952   2.740
 6574SOL     OW20620   2.260   5.772   2.965
 6574SOL    HW120621   2.163   5.796   2.964
 6574SOL    HW220622   2.270   5.678   2.995
 6575SOL     OW20623   0.930   6.958   4.117
 6575SOL    HW120624   0.878   7.012   4.052
 6575SOL    HW220625   0.889   6.867   4.127
 6576SOL     OW20626   2.633   6.482   0.076
 6576SOL    HW120627   2.678   6.412   0.131
 6576SOL    HW220628   2.548   6.510   0.122
 6577SOL     OW20629   1.386   1.891   3.337
 6577SOL    HW120630   1.373   1.797   3.368
 6577SOL    HW220631   1.419   1.947   3.413
 6578SOL     OW20632   0.709   6.243   2.627
 6578SOL    HW120633   0.730   6.171   2.693
 6578SOL    HW220634   0.784   6.253   2.563
 6579SOL     OW20635   0.086   3.510   3.417
 6579SOL    HW120636   0.001   3.550   3.450
 6579SOL    HW220637   0.110   3.431   3.473
 6580SOL     OW20638   0.291   1.623   0.592
 6580SOL    HW120639   0.311   1.528   0.569
 6580SOL    HW220640   0.288   1.678   0.508
 6581SOL     OW20641   2.652   0.510   0.590
 6581SOL    HW120642   2.560   0.491   0.624
 6581SOL    HW220643   2.649   0.587   0.527
 6582SOL     OW20644   6.834   1.232   3.389
 6582SOL    HW120645   6.800   1.312   3.439
 6582SOL    HW220646   6.901   1.261   3.321
 6583SOL     OW20647   5.166   0.032   6.006
 6583SOL    HW120648   5.086   7.004   6.030
 6583SOL    HW220649   5.175   0.035   5.906
 6584SOL     OW20650   4.622   2.329   0.478
 6584SOL    HW120651   4.636   2.231   0.496
 6584SOL    HW220652   4.710   2.371   0.455
 6585SOL     OW20653   6.344   5.780   0.249
 6585SOL    HW120654   6.263   5.782   0.308
 6585SOL    HW220655   6.340   5.698   0.191
 6586SOL     OW20656   5.861   1.013   5.937
 6586SOL    HW120657   5.813   1.051   6.016
 6586SOL    HW220658   5.841   0.915   5.931
 6587SOL     OW20659   1.779   4.957   5.664
 6587SOL    HW120660   1.690   4.951   5.708
 6587SOL    HW220661   1.851   4.943   5.731
 6588SOL     OW20662   0.467   2.932   1.725
 6588SOL    HW120663   0.454   2.848   1.671
 6588SOL    HW220664   0.410   3.005   1.687
 6589SOL     OW20665   4.628   0.074   1.545
 6589SOL    HW120666   4.717   0.080   1.501
 6589SOL    HW220667   4.601   0.165   1.579
 6590SOL     OW20668   7.003   0.793   6.930
 6590SOL    HW120669   0.063   0.778   6.978
 6590SOL    HW220670   7.015   0.862   6.859
 6591SOL     OW20671   6.244   5.810   3.496
 6591SOL    HW120672   6.313   5.740   3.515
 6591SOL    HW220673   6.211   5.800   3.402
 6592SOL     OW20674   5.269   6.718   3.186
 6592SOL    HW120675   5.342   6.758   3.241
 6592SOL    HW220676   5.184   6.766   3.204
 6593SOL     OW20677   2.447   2.270   2.715
 6593SOL    HW120678   2.544   2.289   2.733
 6593SOL    HW220679   2.411   2.210   2.787
 6594SOL     OW20680   3.970   1.443   6.418
 6594SOL    HW120681   3.897   1.415   6.481
 6594SOL    HW220682   3.996   1.364   6.362
 6595SOL     OW20683   1.686   4.305   6.805
 6595SOL    HW120684   1.743   4.225   6.791
 6595SOL    HW220685   1.710   4.375   6.737
 6596SOL     OW20686   3.543   6.820   4.198
 6596SOL    HW120687   3.493   6.789   4.117
 6596SOL    HW220688   3.521   6.760   4.275
 6597SOL     OW20689   1.281   5.857   1.162
 6597SOL    HW120690   1.344   5.890   1.232
 6597SOL    HW220691   1.187   5.865   1.196
 6598SOL     OW20692   2.029   4.481   3.947
 6598SOL    HW120693   2.007   4.440   4.036
 6598SOL    HW220694   1.975   4.564   3.934
 6599SOL     OW20695   4.383   6.377   6.282
 6599SOL    HW120696   4.361   6.466   6.322
 6599SOL    HW220697   4.310   6.349   6.219
 6600SOL     OW20698   3.543   6.438   5.605
 6600SOL    HW120699   3.517   6.348   5.570
 6600SOL    HW220700   3.602   6.426   5.685
 6601SOL     OW20701   1.632   2.212   5.015
 6601SOL    HW120702   1.663   2.280   4.949
 6601SOL    HW220703   1.545   2.242   5.054
 6602SOL     OW20704   1.952   0.793   1.484
 6602SOL    HW120705   1.870   0.850   1.483
 6602SOL    HW220706   2.023   0.835   1.428
 6603SOL     OW20707   0.386   3.335   3.359
 6603SOL    HW120708   0.473   3.288   3.368
 6603SOL    HW220709   0.320   3.295   3.423
 6604SOL     OW20710   1.303   6.716   1.498
 6604SOL    HW120711   1.261   6.642   1.446
 6604SOL    HW220712   1.381   6.681   1.549
 6605SOL     OW20713   5.862   5.655   1.687
 6605SOL    HW120714   5.879   5.753   1.683
 6605SOL    HW220715   5.801   5.635   1.764
 6606SOL     OW20716   6.970   5.416   2.467
 6606SOL    HW120717   6.988   5.398   2.563
 6606SOL    HW220718   0.000   5.492   2.436
 6607SOL     OW20719   1.266   4.644   2.951
 6607SOL    HW120720   1.224   4.721   2.903
 6607SOL    HW220721   1.286   4.571   2.886
 6608SOL     OW20722   6.305   6.961   0.026
 6608SOL    HW120723   6.390   6.948   7.002
 6608SOL    HW220724   6.279   6.876   0.071
 6609SOL     OW20725   5.528   1.014   0.229
 6609SOL    HW120726   5.435   0.977   0.234
 6609SOL    HW220727   5.536   1.093   0.289
 6610SOL     OW20728   2.102   6.521   6.509
 6610SOL    HW120729   2.170   6.456   6.544
 6610SOL    HW220730   2.014   6.475   6.500
 6611SOL     OW20731   4.831   3.049   3.239
 6611SOL    HW120732   4.796   2.972   3.291
 6611SOL    HW220733   4.799   3.042   3.144
 6612SOL     OW20734   6.171   1.841   6.563
 6612SOL    HW120735   6.119   1.828   6.647
 6612SOL    HW220736   6.245   1.774   6.558
 6613SOL     OW20737   6.474   6.423   5.334
 6613SOL    HW120738   6.475   6.377   5.245
 6613SOL    HW220739   6.435   6.514   5.323
 6614SOL     OW20740   4.620   4.946   6.840
 6614SOL    HW120741   4.679   4.902   6.908
 6614SOL    HW220742   4.598   5.039   6.872
 6615SOL     OW20743   1.466   5.960   1.358
 6615SOL    HW120744   1.554   5.990   1.319
 6615SOL    HW220745   1.474   5.954   1.457
 6616SOL     OW20746   4.345   6.973   6.463
 6616SOL    HW120747   4.293   0.007   6.402
 6616SOL    HW220748   4.368   7.023   6.547
 6617SOL     OW20749   4.598   5.608   3.261
 6617SOL    HW120750   4.575   5.530   3.203
 6617SOL    HW220751   4.547   5.689   3.229
 6618SOL     OW20752   1.472   2.263   2.514
 6618SOL    HW120753   1.431   2.246   2.604
 6618SOL    HW220754   1.402   2.298   2.451
 6619SOL     OW20755   5.498   6.781   3.386
 6619SOL    HW120756   5.581   6.746   3.341
 6619SOL    HW220757   5.504   6.880   3.395
 6620SOL     OW20758   1.790   2.483   5.340
 6620SOL    HW120759   1.817   2.492   5.436
 6620SOL    HW220760   1.821   2.394   5.305
 6621SOL     OW20761   3.546   3.479   5.931
 6621SOL    HW120762   3.526   3.445   5.839
 6621SOL    HW220763   3.549   3.403   5.995
 6622SOL     OW20764   5.745   5.928   1.968
 6622SOL    HW120765   5.809   5.959   2.038
 6622SOL    HW220766   5.656   5.909   2.010
 6623SOL     OW20767   3.546   2.826   4.929
 6623SOL    HW120768   3.575   2.731   4.918
 6623SOL    HW220769   3.612   2.886   4.884
 6624SOL     OW20770   0.146   4.292   5.735
 6624SOL    HW120771   0.104   4.307   5.825
 6624SOL    HW220772   0.138   4.196   5.710
 6625SOL     OW20773   5.022   2.153   5.087
 6625SOL    HW120774   4.936   2.188   5.050
 6625SOL    HW220775   5.080   2.229   5.116
 6626SOL     OW20776   3.317   6.661   5.682
 6626SOL    HW120777   3.371   6.656   5.766
 6626SOL    HW220778   3.357   6.729   5.621
 6627SOL     OW20779   1.983   6.457   5.038
 6627SOL    HW120780   1.898   6.509   5.047
 6627SOL    HW220781   2.025   6.476   4.949
 6628SOL     OW20782   5.961   4.817   4.848
 6628SOL    HW120783   5.929   4.861   4.932
 6628SOL    HW220784   5.977   4.719   4.865
 6629SOL     OW20785   4.727   6.549   6.447
 6629SOL    HW120786   4.697   6.507   6.533
 6629SOL    HW220787   4.685   6.639   6.437
 6630SOL     OW20788   3.416   2.091   1.467
 6630SOL    HW120789   3.405   1.998   1.432
 6630SOL    HW220790   3.412   2.091   1.567
 6631SOL     OW20791   2.088   5.638   3.735
 6631SOL    HW120792   2.047   5.729   3.725
 6631SOL    HW220793   2.100   5.617   3.832
 6632SOL     OW20794   1.103   0.971   1.148
 6632SOL    HW120795   1.113   0.872   1.152
 6632SOL    HW220796   1.061   0.997   1.061
 6633SOL     OW20797   2.276   5.019   6.266
 6633SOL    HW120798   2.343   5.035   6.193
 6633SOL    HW220799   2.241   4.926   6.260
 6634SOL     OW20800   5.036   1.642   4.668
 6634SOL    HW120801   5.072   1.561   4.715
 6634SOL    HW220802   5.052   1.723   4.725
 6635SOL     OW20803   4.848   4.374   2.961
 6635SOL    HW120804   4.894   4.365   2.873
 6635SOL    HW220805   4.827   4.283   2.997
 6636SOL     OW20806   4.681   1.983   6.923
 6636SOL    HW120807   4.753   1.938   6.871
 6636SOL    HW220808   4.666   1.932   7.008
 6637SOL     OW20809   0.947   0.194   6.936
 6637SOL    HW120810   0.998   0.112   6.912
 6637SOL    HW220811   0.986   0.273   6.888
 6638SOL     OW20812   3.235   3.553   3.127
 6638SOL    HW120813   3.158   3.585   3.181
 6638SOL    HW220814   3.209   3.548   3.030
 6639SOL     OW20815   4.980   4.761   6.868
 6639SOL    HW120816   4.934   4.673   6.855
 6639SOL    HW220817   5.077   4.751   6.845
 6640SOL     OW20818   6.487   1.842   4.862
 6640SOL    HW120819   6.404   1.865   4.811
 6640SOL    HW220820   6.470   1.849   4.960
 6641SOL     OW20821   2.890   1.526   6.799
 6641SOL    HW120822   2.907   1.611   6.849
 6641SOL    HW220823   2.890   1.449   6.864
 6642SOL     OW20824   2.497   5.935   6.593
 6642SOL    HW120825   2.414   5.982   6.624
 6642SOL    HW220826   2.515   5.958   6.497
 6643SOL     OW20827   5.313   6.271   6.851
 6643SOL    HW120828   5.299   6.209   6.928
 6643SOL    HW220829   5.226   6.289   6.806
 6644SOL     OW20830   2.704   5.424   1.353
 6644SOL    HW120831   2.762   5.360   1.302
 6644SOL    HW220832   2.743   5.515   1.349
 6645SOL     OW20833   5.783   3.955   0.762
 6645SOL    HW120834   5.706   3.987   0.816
 6645SOL    HW220835   5.756   3.876   0.707
 6646SOL     OW20836   4.272   0.841   5.050
 6646SOL    HW120837   4.195   0.804   5.102
 6646SOL    HW220838   4.343   0.770   5.042
 6647SOL     OW20839   4.863   0.522   1.214
 6647SOL    HW120840   4.895   0.446   1.157
 6647SOL    HW220841   4.771   0.502   1.247
 6648SOL     OW20842   3.751   6.776   3.858
 6648SOL    HW120843   3.793   6.749   3.945
 6648SOL    HW220844   3.694   6.701   3.824
 6649SOL     OW20845   5.662   1.687   6.362
 6649SOL    HW120846   5.740   1.715   6.418
 6649SOL    HW220847   5.694   1.639   6.281
 6650SOL     OW20848   3.876   1.377   6.091
 6650SOL    HW120849   3.902   1.357   5.997
 6650SOL    HW220850   3.958   1.381   6.148
 6651SOL     OW20851   1.987   0.415   5.710
 6651SOL    HW120852   2.001   0.382   5.617
 6651SOL    HW220853   2.056   0.483   5.733
 6652SOL     OW20854   0.331   4.078   6.720
 6652SOL    HW120855   0.418   4.093   6.767
 6652SOL    HW220856   0.270   4.024   6.777
 6653SOL     OW20857   3.984   4.433   1.588
 6653SOL    HW120858   3.952   4.346   1.626
 6653SOL    HW220859   3.930   4.508   1.626
 6654SOL     OW20860   2.220   5.378   1.406
 6654SOL    HW120861   2.172   5.360   1.320
 6654SOL    HW220862   2.200   5.472   1.436
 6655SOL     OW20863   0.583   6.920   3.755
 6655SOL    HW120864   0.556   6.896   3.848
 6655SOL    HW220865   0.501   6.932   3.698
 6656SOL     OW20866   5.915   2.289   3.080
 6656SOL    HW120867   5.875   2.291   3.172
 6656SOL    HW220868   5.857   2.342   3.018
 6657SOL     OW20869   5.540   4.387   5.964
 6657SOL    HW120870   5.446   4.410   5.986
 6657SOL    HW220871   5.547   4.289   5.945
 6658SOL     OW20872   5.173   1.062   4.909
 6658SOL    HW120873   5.241   1.136   4.906
 6658SOL    HW220874   5.085   1.097   4.877
 6659SOL     OW20875   2.390   2.588   0.800
 6659SOL    HW120876   2.385   2.688   0.795
 6659SOL    HW220877   2.300   2.549   0.784
 6660SOL     OW20878   1.763   4.496   1.367
 6660SOL    HW120879   1.690   4.455   1.421
 6660SOL    HW220880   1.760   4.460   1.274
 6661SOL     OW20881   1.672   0.415   5.173
 6661SOL    HW120882   1.625   0.457   5.096
 6661SOL    HW220883   1.610   0.410   5.251
 6662SOL     OW20884   1.093   0.538   0.418
 6662SOL    HW120885   1.022   0.604   0.393
 6662SOL    HW220886   1.054   0.467   0.477
 6663SOL     OW20887   6.347   6.072   4.585
 6663SOL    HW120888   6.349   6.158   4.636
 6663SOL    HW220889   6.415   6.076   4.512
 6664SOL     OW20890   2.475   6.774   0.515
 6664SOL    HW120891   2.502   6.858   0.469
 6664SOL    HW220892   2.555   6.717   0.531
 6665SOL     OW20893   1.540   6.144   4.536
 6665SOL    HW120894   1.537   6.108   4.442
 6665SOL    HW220895   1.519   6.070   4.600
 6666SOL     OW20896   6.263   6.509   6.276
 6666SOL    HW120897   6.271   6.436   6.208
 6666SOL    HW220898   6.187   6.569   6.252
 6667SOL     OW20899   6.908   6.440   5.806
 6667SOL    HW120900   6.884   6.362   5.748
 6667SOL    HW220901   6.824   6.489   5.832
 6668SOL     OW20902   6.990   5.979   0.925
 6668SOL    HW120903   6.926   6.053   0.947
 6668SOL    HW220904   6.939   5.894   0.909
 6669SOL     OW20905   2.738   2.084   1.940
 6669SOL    HW120906   2.759   2.020   2.014
 6669SOL    HW220907   2.754   2.178   1.970
 6670SOL     OW20908   3.169   1.417   5.320
 6670SOL    HW120909   3.250   1.426   5.378
 6670SOL    HW220910   3.146   1.507   5.281
 6671SOL     OW20911   4.485   6.488   0.442
 6671SOL    HW120912   4.444   6.453   0.358
 6671SOL    HW220913   4.414   6.498   0.512
 6672SOL     OW20914   6.443   2.573   6.890
 6672SOL    HW120915   6.391   2.640   6.943
 6672SOL    HW220916   6.442   2.485   6.938
 6673SOL     OW20917   5.004   4.270   3.697
 6673SOL    HW120918   5.077   4.202   3.684
 6673SOL    HW220919   4.934   4.232   3.757
 6674SOL     OW20920   0.713   3.536   0.067
 6674SOL    HW120921   0.765   3.451   0.064
 6674SOL    HW220922   0.681   3.559   7.001
 6675SOL     OW20923   5.866   3.379   0.604
 6675SOL    HW120924   5.879   3.280   0.603
 6675SOL    HW220925   5.834   3.407   0.695
 6676SOL     OW20926   0.469   3.683   5.216
 6676SOL    HW120927   0.543   3.700   5.151
 6676SOL    HW220928   0.481   3.742   5.296
 6677SOL     OW20929   1.014   1.900   5.929
 6677SOL    HW120930   0.974   1.856   6.009
 6677SOL    HW220931   1.005   1.840   5.850
 6678SOL     OW20932   3.771   3.610   0.483
 6678SOL    HW120933   3.737   3.516   0.485
 6678SOL    HW220934   3.867   3.612   0.508
 6679SOL     OW20935   3.284   0.495   4.493
 6679SOL    HW120936   3.347   0.572   4.503
 6679SOL    HW220937   3.224   0.490   4.573
 6680SOL     OW20938   4.561   6.771   6.437
 6680SOL    HW120939   4.604   6.846   6.387
 6680SOL    HW220940   4.489   6.807   6.496
 6681SOL     OW20941   4.374   5.386   0.771
 6681SOL    HW120942   4.283   5.412   0.802
 6681SOL    HW220943   4.366   5.322   0.694
 6682SOL     OW20944   1.955   4.617   1.088
 6682SOL    HW120945   1.938   4.694   1.150
 6682SOL    HW220946   1.876   4.556   1.088
 6683SOL     OW20947   5.823   3.326   5.170
 6683SOL    HW120948   5.870   3.371   5.094
 6683SOL    HW220949   5.790   3.236   5.140
 6684SOL     OW20950   3.509   6.328   2.048
 6684SOL    HW120951   3.571   6.309   1.972
 6684SOL    HW220952   3.527   6.420   2.084
 6685SOL     OW20953   5.226   2.941   6.472
 6685SOL    HW120954   5.229   2.867   6.404
 6685SOL    HW220955   5.316   2.952   6.513
 6686SOL     OW20956   4.866   5.577   4.002
 6686SOL    HW120957   4.902   5.582   4.095
 6686SOL    HW220958   4.940   5.596   3.937
 6687SOL     OW20959   0.697   3.097   1.927
 6687SOL    HW120960   0.734   3.037   1.856
 6687SOL    HW220961   0.765   3.107   2.000
 6688SOL     OW20962   5.573   4.194   1.481
 6688SOL    HW120963   5.476   4.198   1.460
 6688SOL    HW220964   5.610   4.105   1.456
 6689SOL     OW20965   3.906   3.815   6.196
 6689SOL    HW120966   3.938   3.793   6.104
 6689SOL    HW220967   3.978   3.795   6.263
 6690SOL     OW20968   0.061   0.082   1.245
 6690SOL    HW120969   0.005   0.124   1.317
 6690SOL    HW220970   0.100   0.154   1.187
 6691SOL     OW20971   2.424   0.576   1.867
 6691SOL    HW120972   2.478   0.660   1.858
 6691SOL    HW220973   2.350   0.577   1.800
 6692SOL     OW20974   3.980   3.747   3.725
 6692SOL    HW120975   4.018   3.763   3.817
 6692SOL    HW220976   3.923   3.825   3.699
 6693SOL     OW20977   3.702   2.218   5.253
 6693SOL    HW120978   3.781   2.265   5.293
 6693SOL    HW220979   3.620   2.240   5.305
 6694SOL     OW20980   4.079   5.608   1.408
 6694SOL    HW120981   4.140   5.647   1.477
 6694SOL    HW220982   4.004   5.559   1.454
 6695SOL     OW20983   3.071   2.214   6.956
 6695SOL    HW120984   3.160   2.174   6.931
 6695SOL    HW220985   3.084   2.278   0.005
 6696SOL     OW20986   3.353   2.913   4.491
 6696SOL    HW120987   3.379   2.932   4.586
 6696SOL    HW220988   3.258   2.882   4.488
 6697SOL     OW20989   4.732   1.782   3.250
 6697SOL    HW120990   4.779   1.694   3.252
 6697SOL    HW220991   4.634   1.768   3.244
 6698SOL     OW20992   3.338   2.079   0.722
 6698SOL    HW120993   3.407   2.008   0.736
 6698SOL    HW220994   3.310   2.080   0.626
 6699SOL     OW20995   2.874   5.833   5.499
 6699SOL    HW120996   2.925   5.874   5.424
 6699SOL    HW220997   2.921   5.751   5.531
 6700SOL     OW20998   6.996   1.197   1.492
 6700SOL    HW120999   6.949   1.285   1.492
 6700SOL    HW221000   0.068   1.212   1.501
 6701SOL     OW21001   5.849   5.121   1.727
 6701SOL    HW121002   5.882   5.079   1.643
 6701SOL    HW221003   5.833   5.219   1.711
 6702SOL     OW21004   3.038   2.211   1.043
 6702SOL    HW121005   3.013   2.147   0.970
 6702SOL    HW221006   3.129   2.249   1.025
 6703SOL     OW21007   5.908   0.484   0.697
 6703SOL    HW121008   5.830   0.488   0.635
 6703SOL    HW221009   5.886   0.425   0.775
 6704SOL     OW21010   3.872   2.173   3.198
 6704SOL    HW121011   3.774   2.150   3.205
 6704SOL    HW221012   3.920   2.135   3.277
 6705SOL     OW21013   6.132   3.751   1.589
 6705SOL    HW121014   6.212   3.795   1.629
 6705SOL    HW221015   6.160   3.694   1.512
 6706SOL     OW21016   1.553   4.846   1.548
 6706SOL    HW121017   1.508   4.759   1.565
 6706SOL    HW221018   1.489   4.910   1.505
 6707SOL     OW21019   6.102   6.737   3.208
 6707SOL    HW121020   6.135   6.814   3.155
 6707SOL    HW221021   6.030   6.767   3.271
 6708SOL     OW21022   6.184   4.785   0.482
 6708SOL    HW121023   6.207   4.861   0.421
 6708SOL    HW221024   6.108   4.811   0.541
 6709SOL     OW21025   1.759   6.756   2.226
 6709SOL    HW121026   1.794   6.843   2.261
 6709SOL    HW221027   1.820   6.722   2.155
 6710SOL     OW21028   4.264   1.283   6.723
 6710SOL    HW121029   4.193   1.231   6.770
 6710SOL    HW221030   4.224   1.365   6.682
 6711SOL     OW21031   4.913   6.561   5.587
 6711SOL    HW121032   4.979   6.523   5.651
 6711SOL    HW221033   4.948   6.648   5.551
 6712SOL     OW21034   5.718   4.201   0.471
 6712SOL    HW121035   5.654   4.128   0.450
 6712SOL    HW221036   5.810   4.173   0.445
 6713SOL     OW21037   2.285   0.644   2.585
 6713SOL    HW121038   2.352   0.582   2.625
 6713SOL    HW221039   2.332   0.716   2.534
 6714SOL     OW21040   6.421   0.823   5.950
 6714SOL    HW121041   6.367   0.885   5.892
 6714SOL    HW221042   6.485   0.771   5.893
 6715SOL     OW21043   1.004   0.360   0.629
 6715SOL    HW121044   0.941   0.290   0.662
 6715SOL    HW221045   1.008   0.435   0.695
 6716SOL     OW21046   0.163   5.464   2.239
 6716SOL    HW121047   0.248   5.495   2.196
 6716SOL    HW221048   0.183   5.429   2.330
 6717SOL     OW21049   3.816   3.140   0.099
 6717SOL    HW121050   3.814   3.046   0.134
 6717SOL    HW221051   3.877   3.144   0.019
 6718SOL     OW21052   5.272   0.853   0.789
 6718SOL    HW121053   5.226   0.900   0.865
 6718SOL    HW221054   5.341   0.791   0.826
 6719SOL     OW21055   2.939   6.585   0.177
 6719SOL    HW121056   3.034   6.572   0.207
 6719SOL    HW221057   2.890   6.498   0.182
 6720SOL     OW21058   1.826   0.026   4.714
 6720SOL    HW121059   1.853   0.102   4.773
 6720SOL    HW221060   1.833   0.054   4.618
 6721SOL     OW21061   6.419   6.438   0.206
 6721SOL    HW121062   6.347   6.376   0.173
 6721SOL    HW221063   6.493   6.385   0.246
 6722SOL     OW21064   6.585   3.066   1.231
 6722SOL    HW121065   6.530   2.982   1.227
 6722SOL    HW221066   6.659   3.060   1.164
 6723SOL     OW21067   1.822   6.804   4.882
 6723SOL    HW121068   1.822   6.877   4.814
 6723SOL    HW221069   1.839   6.843   4.972
 6724SOL     OW21070   2.258   3.614   6.139
 6724SOL    HW121071   2.254   3.681   6.065
 6724SOL    HW221072   2.170   3.566   6.145
 6725SOL     OW21073   0.465   3.566   1.575
 6725SOL    HW121074   0.480   3.633   1.502
 6725SOL    HW221075   0.376   3.523   1.563
 6726SOL     OW21076   1.125   2.659   4.966
 6726SOL    HW121077   1.107   2.745   4.920
 6726SOL    HW221078   1.044   2.631   5.019
 6727SOL     OW21079   0.606   4.349   5.561
 6727SOL    HW121080   0.684   4.352   5.624
 6727SOL    HW221081   0.532   4.406   5.598
 6728SOL     OW21082   3.520   2.114   2.273
 6728SOL    HW121083   3.573   2.148   2.195
 6728SOL    HW221084   3.582   2.089   2.348
 6729SOL     OW21085   5.954   0.746   1.819
 6729SOL    HW121086   6.024   0.793   1.872
 6729SOL    HW221087   5.892   0.812   1.778
 6730SOL     OW21088   1.721   6.814   1.652
 6730SOL    HW121089   1.682   6.875   1.583
 6730SOL    HW221090   1.782   6.748   1.609
 6731SOL     OW21091   1.266   6.383   1.059
 6731SOL    HW121092   1.201   6.307   1.065
 6731SOL    HW221093   1.248   6.436   0.977
 6732SOL     OW21094   5.974   4.374   5.279
 6732SOL    HW121095   5.926   4.458   5.256
 6732SOL    HW221096   5.949   4.346   5.372
 6733SOL     OW21097   3.399   5.530   6.205
 6733SOL    HW121098   3.482   5.486   6.240
 6733SOL    HW221099   3.368   5.600   6.270
 6734SOL     OW21100   5.924   2.132   4.035
 6734SOL    HW121101   5.902   2.123   3.938
 6734SOL    HW221102   5.917   2.042   4.079
 6735SOL     OW21103   6.404   4.293   4.884
 6735SOL    HW121104   6.492   4.321   4.845
 6735SOL    HW221105   6.336   4.289   4.811
 6736SOL     OW21106   2.922   3.843   0.097
 6736SOL    HW121107   2.828   3.868   0.122
 6736SOL    HW221108   2.959   3.911   0.034
 6737SOL     OW21109   1.514   2.792   1.013
 6737SOL    HW121110   1.502   2.879   1.061
 6737SOL    HW221111   1.464   2.720   1.061
 6738SOL     OW21112   1.769   6.020   3.380
 6738SOL    HW121113   1.714   5.946   3.341
 6738SOL    HW221114   1.821   6.064   3.307
 6739SOL     OW21115   4.791   6.033   4.710
 6739SOL    HW121116   4.770   5.944   4.750
 6739SOL    HW221117   4.845   6.021   4.627
 6740SOL     OW21118   0.550   6.980   4.979
 6740SOL    HW121119   0.534   6.896   4.927
 6740SOL    HW221120   0.588   6.957   5.069
 6741SOL     OW21121   4.231   1.931   5.708
 6741SOL    HW121122   4.248   1.993   5.632
 6741SOL    HW221123   4.255   1.837   5.681
 6742SOL     OW21124   5.538   5.998   3.184
 6742SOL    HW121125   5.559   5.900   3.179
 6742SOL    HW221126   5.517   6.022   3.279
 6743SOL     OW21127   4.383   4.349   6.575
 6743SOL    HW121128   4.313   4.287   6.610
 6743SOL    HW221129   4.381   4.349   6.475
 6744SOL     OW21130   6.123   4.100   6.128
 6744SOL    HW121131   6.067   4.047   6.191
 6744SOL    HW221132   6.164   4.177   6.177
 6745SOL     OW21133   0.332   6.927   3.642
 6745SOL    HW121134   0.249   6.880   3.671
 6745SOL    HW221135   0.320   6.960   3.549
 6746SOL     OW21136   0.760   0.966   4.108
 6746SOL    HW121137   0.760   1.065   4.097
 6746SOL    HW221138   0.827   0.939   4.177
 6747SOL     OW21139   5.458   1.528   4.761
 6747SOL    HW121140   5.535   1.504   4.821
 6747SOL    HW221141   5.388   1.575   4.815
 6748SOL     OW21142   2.859   1.902   3.544
 6748SOL    HW121143   2.939   1.934   3.594
 6748SOL    HW221144   2.878   1.904   3.446
 6749SOL     OW21145   3.496   4.585   0.583
 6749SOL    HW121146   3.452   4.594   0.673
 6749SOL    HW221147   3.524   4.676   0.552
 6750SOL     OW21148   3.326   1.675   4.448
 6750SOL    HW121149   3.360   1.752   4.502
 6750SOL    HW221150   3.273   1.614   4.507
 6751SOL     OW21151   4.876   0.031   3.026
 6751SOL    HW121152   4.825   0.111   3.057
 6751SOL    HW221153   4.934   0.056   2.949
 6752SOL     OW21154   1.483   0.844   3.065
 6752SOL    HW121155   1.569   0.817   3.021
 6752SOL    HW221156   1.496   0.933   3.110
 6753SOL     OW21157   2.853   0.885   6.348
 6753SOL    HW121158   2.847   0.968   6.293
 6753SOL    HW221159   2.944   0.877   6.387
 6754SOL     OW21160   6.844   1.857   0.661
 6754SOL    HW121161   6.883   1.946   0.685
 6754SOL    HW221162   6.914   1.801   0.617
 6755SOL     OW21163   3.932   0.942   2.566
 6755SOL    HW121164   4.018   0.901   2.597
 6755SOL    HW221165   3.874   0.872   2.524
 6756SOL     OW21166   3.812   5.548   5.596
 6756SOL    HW121167   3.905   5.549   5.559
 6756SOL    HW221168   3.808   5.490   5.677
 6757SOL     OW21169   3.810   2.405   0.663
 6757SOL    HW121170   3.859   2.418   0.749
 6757SOL    HW221171   3.712   2.417   0.678
 6758SOL     OW21172   6.326   2.092   2.772
 6758SOL    HW121173   6.351   2.093   2.675
 6758SOL    HW221174   6.230   2.120   2.782
 6759SOL     OW21175   1.533   4.110   4.272
 6759SOL    HW121176   1.509   4.207   4.268
 6759SOL    HW221177   1.464   4.058   4.221
 6760SOL     OW21178   6.806   4.256   2.511
 6760SOL    HW121179   6.733   4.187   2.514
 6760SOL    HW221180   6.765   4.347   2.513
 6761SOL     OW21181   6.794   2.436   5.461
 6761SOL    HW121182   6.705   2.434   5.507
 6761SOL    HW221183   6.789   2.495   5.381
 6762SOL     OW21184   0.577   4.637   4.526
 6762SOL    HW121185   0.544   4.636   4.620
 6762SOL    HW221186   0.666   4.683   4.523
 6763SOL     OW21187   0.245   5.483   3.576
 6763SOL    HW121188   0.156   5.526   3.562
 6763SOL    HW221189   0.296   5.534   3.645
 6764SOL     OW21190   1.706   5.975   1.253
 6764SOL    HW121191   1.744   5.950   1.342
 6764SOL    HW221192   1.732   5.907   1.184
 6765SOL     OW21193   5.551   4.691   3.751
 6765SOL    HW121194   5.570   4.756   3.677
 6765SOL    HW221195   5.635   4.645   3.778
 6766SOL     OW21196   5.076   6.615   6.102
 6766SOL    HW121197   5.161   6.578   6.139
 6766SOL    HW221198   5.026   6.543   6.054
 6767SOL     OW21199   2.411   1.674   0.935
 6767SOL    HW121200   2.370   1.712   1.018
 6767SOL    HW221201   2.464   1.745   0.889
 6768SOL     OW21202   1.335   6.305   4.608
 6768SOL    HW121203   1.407   6.242   4.578
 6768SOL    HW221204   1.374   6.373   4.670
 6769SOL     OW21205   2.390   0.343   5.984
 6769SOL    HW121206   2.309   0.381   6.030
 6769SOL    HW221207   2.361   0.279   5.913
 6770SOL     OW21208   5.546   1.503   3.247
 6770SOL    HW121209   5.592   1.533   3.330
 6770SOL    HW221210   5.610   1.448   3.192
 6771SOL     OW21211   3.568   1.427   2.745
 6771SOL    HW121212   3.573   1.333   2.779
 6771SOL    HW221213   3.562   1.425   2.645
 6772SOL     OW21214   4.555   2.571   2.809
 6772SOL    HW121215   4.507   2.533   2.730
 6772SOL    HW221216   4.511   2.538   2.893
 6773SOL     OW21217   0.168   5.903   1.563
 6773SOL    HW121218   0.141   5.998   1.545
 6773SOL    HW221219   0.142   5.878   1.656
 6774SOL     OW21220   0.877   3.848   5.131
 6774SOL    HW121221   0.886   3.910   5.208
 6774SOL    HW221222   0.936   3.768   5.146
 6775SOL     OW21223   2.700   2.308   2.174
 6775SOL    HW121224   2.628   2.300   2.106
 6775SOL    HW221225   2.788   2.324   2.127
 6776SOL     OW21226   4.744   3.985   0.034
 6776SOL    HW121227   4.811   3.912   0.023
 6776SOL    HW221228   4.758   4.032   0.121
 6777SOL     OW21229   5.031   4.721   0.642
 6777SOL    HW121230   4.981   4.766   0.568
 6777SOL    HW221231   5.129   4.727   0.624
 6778SOL     OW21232   6.267   5.671   2.028
 6778SOL    HW121233   6.208   5.672   1.948
 6778SOL    HW221234   6.245   5.747   2.088
 6779SOL     OW21235   5.640   5.888   5.954
 6779SOL    HW121236   5.607   5.836   5.876
 6779SOL    HW221237   5.571   5.957   5.980
 6780SOL     OW21238   1.851   2.506   2.378
 6780SOL    HW121239   1.798   2.426   2.406
 6780SOL    HW221240   1.874   2.560   2.459
 6781SOL     OW21241   6.684   2.449   4.297
 6781SOL    HW121242   6.641   2.359   4.304
 6781SOL    HW221243   6.738   2.454   4.213
 6782SOL     OW21244   0.616   0.744   2.896
 6782SOL    HW121245   0.656   0.800   2.968
 6782SOL    HW221246   0.686   0.721   2.828
 6783SOL     OW21247   6.309   1.079   5.835
 6783SOL    HW121248   6.364   1.092   5.752
 6783SOL    HW221249   6.252   1.159   5.850
 6784SOL     OW21250   1.659   3.362   0.979
 6784SOL    HW121251   1.638   3.460   0.987
 6784SOL    HW221252   1.702   3.344   0.891
 6785SOL     OW21253   6.227   5.497   4.806
 6785SOL    HW121254   6.176   5.545   4.877
 6785SOL    HW221255   6.311   5.548   4.786
 6786SOL     OW21256   1.758   2.057   0.797
 6786SOL    HW121257   1.818   2.062   0.717
 6786SOL    HW221258   1.725   2.149   0.820
 6787SOL     OW21259   2.419   2.555   0.053
 6787SOL    HW121260   2.483   2.485   0.022
 6787SOL    HW221261   2.335   2.512   0.086
 6788SOL     OW21262   1.528   4.310   1.365
 6788SOL    HW121263   1.481   4.223   1.379
 6788SOL    HW221264   1.528   4.332   1.267
 6789SOL     OW21265   0.861   5.202   3.150
 6789SOL    HW121266   0.859   5.214   3.249
 6789SOL    HW221267   0.879   5.290   3.107
 6790SOL     OW21268   0.596   3.961   0.736
 6790SOL    HW121269   0.639   3.961   0.646
 6790SOL    HW221270   0.509   3.912   0.732
 6791SOL     OW21271   3.859   2.010   1.975
 6791SOL    HW121272   3.807   2.059   2.045
 6791SOL    HW221273   3.809   2.013   1.888
 6792SOL     OW21274   5.889   7.026   4.390
 6792SOL    HW121275   5.906   6.947   4.450
 6792SOL    HW221276   5.839   6.996   4.309
 6793SOL     OW21277   2.111   1.371   0.272
 6793SOL    HW121278   2.024   1.328   0.249
 6793SOL    HW221279   2.150   1.413   0.191
 6794SOL     OW21280   5.119   0.891   5.635
 6794SOL    HW121281   5.089   0.868   5.542
 6794SOL    HW221282   5.131   0.807   5.688
 6795SOL     OW21283   1.772   6.408   0.634
 6795SOL    HW121284   1.844   6.406   0.703
 6795SOL    HW221285   1.800   6.466   0.558
 6796SOL     OW21286   5.946   1.060   3.297
 6796SOL    HW121287   5.892   1.080   3.216
 6796SOL    HW221288   5.898   0.993   3.354
 6797SOL     OW21289   6.723   2.791   1.779
 6797SOL    HW121290   6.660   2.817   1.706
 6797SOL    HW221291   6.745   2.872   1.833
 6798SOL     OW21292   6.141   6.217   1.902
 6798SOL    HW121293   6.134   6.291   1.970
 6798SOL    HW221294   6.193   6.141   1.942
 6799SOL     OW21295   0.122   0.319   2.185
 6799SOL    HW121296   0.056   0.245   2.192
 6799SOL    HW221297   0.096   0.381   2.112
 6800SOL     OW21298   2.040   2.631   1.768
 6800SOL    HW121299   2.112   2.568   1.798
 6800SOL    HW221300   2.081   2.712   1.727
 6801SOL     OW21301   0.761   0.207   3.057
 6801SOL    HW121302   0.855   0.228   3.083
 6801SOL    HW221303   0.700   0.227   3.133
 6802SOL     OW21304   3.911   6.012   1.608
 6802SOL    HW121305   3.947   5.923   1.635
 6802SOL    HW221306   3.936   6.032   1.513
 6803SOL     OW21307   4.124   3.668   5.503
 6803SOL    HW121308   4.066   3.684   5.583
 6803SOL    HW221309   4.170   3.753   5.477
 6804SOL     OW21310   3.298   5.266   3.902
 6804SOL    HW121311   3.378   5.228   3.856
 6804SOL    HW221312   3.218   5.210   3.881
 6805SOL     OW21313   0.561   4.572   6.451
 6805SOL    HW121314   0.572   4.525   6.539
 6805SOL    HW221315   0.556   4.671   6.467
 6806SOL     OW21316   6.530   0.706   2.869
 6806SOL    HW121317   6.509   0.669   2.959
 6806SOL    HW221318   6.609   0.767   2.875
 6807SOL     OW21319   3.252   3.655   1.163
 6807SOL    HW121320   3.284   3.746   1.190
 6807SOL    HW221321   3.177   3.627   1.223
 6808SOL     OW21322   6.930   2.038   6.239
 6808SOL    HW121323   6.846   2.015   6.289
 6808SOL    HW221324   6.921   2.007   6.144
 6809SOL     OW21325   0.715   3.272   1.424
 6809SOL    HW121326   0.695   3.311   1.514
 6809SOL    HW221327   0.813   3.276   1.407
 6810SOL     OW21328   1.795   1.187   2.217
 6810SOL    HW121329   1.720   1.251   2.196
 6810SOL    HW221330   1.765   1.123   2.287
 6811SOL     OW21331   5.545   3.662   1.711
 6811SOL    HW121332   5.474   3.597   1.739
 6811SOL    HW221333   5.558   3.657   1.612
 6812SOL     OW21334   3.453   3.512   4.394
 6812SOL    HW121335   3.431   3.567   4.474
 6812SOL    HW221336   3.529   3.450   4.416
 6813SOL     OW21337   5.411   3.654   3.380
 6813SOL    HW121338   5.370   3.706   3.455
 6813SOL    HW221339   5.465   3.579   3.417
 6814SOL     OW21340   3.574   1.838   6.163
 6814SOL    HW121341   3.504   1.773   6.133
 6814SOL    HW221342   3.597   1.900   6.088
 6815SOL     OW21343   3.446   5.883   0.906
 6815SOL    HW121344   3.404   5.973   0.914
 6815SOL    HW221345   3.460   5.861   0.810
 6816SOL     OW21346   6.597   0.804   6.165
 6816SOL    HW121347   6.524   0.816   6.098
 6816SOL    HW221348   6.580   0.862   6.244
 6817SOL     OW21349   2.212   2.345   2.566
 6817SOL    HW121350   2.142   2.290   2.612
 6817SOL    HW221351   2.303   2.309   2.587
 6818SOL     OW21352   2.544   6.454   1.275
 6818SOL    HW121353   2.468   6.518   1.286
 6818SOL    HW221354   2.526   6.392   1.199
 6819SOL     OW21355   3.855   1.845   3.300
 6819SOL    HW121356   3.791   1.854   3.225
 6819SOL    HW221357   3.914   1.765   3.284
 6820SOL     OW21358   2.205   6.274   1.406
 6820SOL    HW121359   2.213   6.371   1.429
 6820SOL    HW221360   2.273   6.222   1.458
 6821SOL     OW21361   4.027   2.139   5.020
 6821SOL    HW121362   4.034   2.039   5.018
 6821SOL    HW221363   3.934   2.166   4.997
 6822SOL     OW21364   5.574   2.279   5.936
 6822SOL    HW121365   5.614   2.355   5.987
 6822SOL    HW221366   5.603   2.284   5.841
 6823SOL     OW21367   4.915   3.575   5.713
 6823SOL    HW121368   4.911   3.520   5.629
 6823SOL    HW221369   4.886   3.518   5.791
 6824SOL     OW21370   1.375   1.737   0.085
 6824SOL    HW121371   1.280   1.725   0.055
 6824SOL    HW221372   1.380   1.727   0.184
 6825SOL     OW21373   5.578   0.155   0.694
 6825SOL    HW121374   5.521   0.235   0.675
 6825SOL    HW221375   5.660   0.184   0.743
 6826SOL     OW21376   2.120   3.347   3.632
 6826SOL    HW121377   2.024   3.330   3.609
 6826SOL    HW221378   2.177   3.280   3.585
 6827SOL     OW21379   4.326   5.046   6.456
 6827SOL    HW121380   4.403   5.050   6.393
 6827SOL    HW221381   4.356   5.071   6.548
 6828SOL     OW21382   3.224   0.967   1.966
 6828SOL    HW121383   3.201   1.062   1.989
 6828SOL    HW221384   3.316   0.965   1.927
 6829SOL     OW21385   5.017   5.733   4.792
 6829SOL    HW121386   5.042   5.824   4.827
 6829SOL    HW221387   4.918   5.726   4.785
 6830SOL     OW21388   5.014   0.538   3.197
 6830SOL    HW121389   4.983   0.489   3.115
 6830SOL    HW221390   5.009   0.478   3.276
 6831SOL     OW21391   1.268   0.442   6.951
 6831SOL    HW121392   1.176   0.463   6.917
 6831SOL    HW221393   1.272   0.348   6.983
 6832SOL     OW21394   2.639   4.475   0.915
 6832SOL    HW121395   2.726   4.474   0.964
 6832SOL    HW221396   2.647   4.425   0.829
 6833SOL     OW21397   3.314   4.695   6.186
 6833SOL    HW121398   3.334   4.630   6.259
 6833SOL    HW221399   3.357   4.664   6.101
 6834SOL     OW21400   5.208   0.072   0.603
 6834SOL    HW121401   5.265   0.080   0.521
 6834SOL    HW221402   5.248   0.127   0.677
 6835SOL     OW21403   4.203   0.575   4.702
 6835SOL    HW121404   4.239   0.496   4.653
 6835SOL    HW221405   4.191   0.651   4.639
 6836SOL     OW21406   2.553   4.455   0.446
 6836SOL    HW121407   2.564   4.502   0.358
 6836SOL    HW221408   2.627   4.389   0.458
 6837SOL     OW21409   0.344   2.214   2.503
 6837SOL    HW121410   0.370   2.246   2.594
 6837SOL    HW221411   0.408   2.252   2.436
 6838SOL     OW21412   3.403   6.269   6.967
 6838SOL    HW121413   3.414   6.172   6.991
 6838SOL    HW221414   3.306   6.288   6.951
 6839SOL     OW21415   5.747   1.095   6.217
 6839SOL    HW121416   5.791   1.180   6.245
 6839SOL    HW221417   5.648   1.104   6.225
 6840SOL     OW21418   3.502   0.669   4.542
 6840SOL    HW121419   3.487   0.693   4.637
 6840SOL    HW221420   3.579   0.605   4.535
 6841SOL     OW21421   4.675   4.537   0.386
 6841SOL    HW121422   4.686   4.550   0.288
 6841SOL    HW221423   4.579   4.550   0.411
 6842SOL     OW21424   2.720   3.797   0.806
 6842SOL    HW121425   2.674   3.781   0.719
 6842SOL    HW221426   2.678   3.740   0.877
 6843SOL     OW21427   6.169   6.465   1.722
 6843SOL    HW121428   6.171   6.380   1.775
 6843SOL    HW221429   6.074   6.493   1.707
 6844SOL     OW21430   4.672   0.349   3.598
 6844SOL    HW121431   4.749   0.289   3.621
 6844SOL    HW221432   4.686   0.439   3.639
 6845SOL     OW21433   6.445   4.653   4.158
 6845SOL    HW121434   6.503   4.734   4.153
 6845SOL    HW221435   6.372   4.660   4.090
 6846SOL     OW21436   4.007   3.253   0.833
 6846SOL    HW121437   4.091   3.251   0.779
 6846SOL    HW221438   3.928   3.265   0.772
 6847SOL     OW21439   0.403   3.656   3.863
 6847SOL    HW121440   0.366   3.599   3.790
 6847SOL    HW221441   0.360   3.746   3.861
 6848SOL     OW21442   4.408   6.498   3.721
 6848SOL    HW121443   4.460   6.576   3.687
 6848SOL    HW221444   4.331   6.479   3.660
 6849SOL     OW21445   4.104   4.877   4.990
 6849SOL    HW121446   4.135   4.820   5.066
 6849SOL    HW221447   4.020   4.925   5.017
 6850SOL     OW21448   6.072   4.340   2.431
 6850SOL    HW121449   6.011   4.289   2.491
 6850SOL    HW221450   6.023   4.362   2.346
 6851SOL     OW21451   0.941   2.371   3.001
 6851SOL    HW121452   0.946   2.457   2.950
 6851SOL    HW221453   0.873   2.311   2.958
 6852SOL     OW21454   2.790   4.982   0.112
 6852SOL    HW121455   2.858   5.049   0.082
 6852SOL    HW221456   2.705   5.029   0.136
 6853SOL     OW21457   6.514   4.251   0.438
 6853SOL    HW121458   6.414   4.241   0.433
 6853SOL    HW221459   6.536   4.347   0.457
 6854SOL     OW21460   4.857   2.074   6.401
 6854SOL    HW121461   4.772   2.091   6.452
 6854SOL    HW221462   4.841   2.092   6.304
 6855SOL     OW21463   3.996   5.745   3.461
 6855SOL    HW121464   3.937   5.665   3.454
 6855SOL    HW221465   3.963   5.804   3.535
 6856SOL     OW21466   5.438   3.415   5.663
 6856SOL    HW121467   5.448   3.366   5.576
 6856SOL    HW221468   5.355   3.385   5.709
 6857SOL     OW21469   3.160   2.782   0.141
 6857SOL    HW121470   3.117   2.748   0.057
 6857SOL    HW221471   3.094   2.834   0.194
 6858SOL     OW21472   4.002   3.674   3.350
 6858SOL    HW121473   3.905   3.666   3.326
 6858SOL    HW221474   4.016   3.757   3.404
 6859SOL     OW21475   6.910   1.321   1.097
 6859SOL    HW121476   6.870   1.230   1.084
 6859SOL    HW221477   6.843   1.380   1.142
 6860SOL     OW21478   6.933   4.933   0.977
 6860SOL    HW121479   7.022   4.965   0.947
 6860SOL    HW221480   6.943   4.850   1.031
 6861SOL     OW21481   4.519   5.213   6.952
 6861SOL    HW121482   4.552   5.300   6.989
 6861SOL    HW221483   4.475   5.229   6.864
 6862SOL     OW21484   1.359   5.127   6.097
 6862SOL    HW121485   1.316   5.088   6.016
 6862SOL    HW221486   1.293   5.133   6.171
 6863SOL     OW21487   5.648   6.701   6.285
 6863SOL    HW121488   5.667   6.717   6.382
 6863SOL    HW221489   5.620   6.786   6.242
 6864SOL     OW21490   2.410   5.549   4.533
 6864SOL    HW121491   2.494   5.516   4.489
 6864SOL    HW221492   2.404   5.513   4.625
 6865SOL     OW21493   1.260   6.097   3.709
 6865SOL    HW121494   1.238   6.094   3.807
 6865SOL    HW221495   1.333   6.162   3.693
 6866SOL     OW21496   6.165   5.059   3.822
 6866SOL    HW121497   6.199   5.024   3.735
 6866SOL    HW221498   6.065   5.062   3.820
 6867SOL     OW21499   2.422   4.130   1.689
 6867SOL    HW121500   2.393   4.094   1.778
 6867SOL    HW221501   2.520   4.117   1.678
 6868SOL     OW21502   1.088   5.558   6.104
 6868SOL    HW121503   1.142   5.638   6.131
 6868SOL    HW221504   1.128   5.517   6.022
 6869SOL     OW21505   5.963   1.108   5.721
 6869SOL    HW121506   5.904   1.087   5.643
 6869SOL    HW221507   5.918   1.081   5.806
 6870SOL     OW21508   0.760   5.089   1.597
 6870SOL    HW121509   0.664   5.101   1.571
 6870SOL    HW221510   0.803   5.023   1.535
 6871SOL     OW21511   6.242   4.536   3.350
 6871SOL    HW121512   6.227   4.439   3.332
 6871SOL    HW221513   6.173   4.591   3.302
 6872SOL     OW21514   0.239   2.680   1.275
 6872SOL    HW121515   0.276   2.596   1.237
 6872SOL    HW221516   0.174   2.720   1.210
 6873SOL     OW21517   6.407   3.683   4.795
 6873SOL    HW121518   6.397   3.764   4.737
 6873SOL    HW221519   6.468   3.617   4.751
 6874SOL     OW21520   0.046   5.719   2.747
 6874SOL    HW121521   0.122   5.772   2.783
 6874SOL    HW221522   0.049   5.720   2.647
 6875SOL     OW21523   2.685   2.399   2.638
 6875SOL    HW121524   2.780   2.412   2.610
 6875SOL    HW221525   2.624   2.419   2.562
 6876SOL     OW21526   3.581   6.597   3.725
 6876SOL    HW121527   3.575   6.501   3.700
 6876SOL    HW221528   3.530   6.651   3.657
 6877SOL     OW21529   2.955   3.936   0.888
 6877SOL    HW121530   2.987   3.849   0.925
 6877SOL    HW221531   2.857   3.932   0.869
 6878SOL     OW21532   3.346   0.927   4.610
 6878SOL    HW121533   3.289   0.906   4.531
 6878SOL    HW221534   3.442   0.935   4.581
 6879SOL     OW21535   0.693   2.581   0.822
 6879SOL    HW121536   0.744   2.621   0.746
 6879SOL    HW221537   0.683   2.649   0.895
 6880SOL     OW21538   1.772   5.120   4.935
 6880SOL    HW121539   1.763   5.113   4.835
 6880SOL    HW221540   1.788   5.029   4.973
 6881SOL     OW21541   1.691   4.607   0.939
 6881SOL    HW121542   1.761   4.670   0.906
 6881SOL    HW221543   1.607   4.658   0.958
 6882SOL     OW21544   2.880   0.504   0.079
 6882SOL    HW121545   2.868   0.442   0.002
 6882SOL    HW221546   2.791   0.545   0.102
 6883SOL     OW21547   4.994   1.271   6.720
 6883SOL    HW121548   4.903   1.265   6.760
 6883SOL    HW221549   5.028   1.180   6.699
 6884SOL     OW21550   1.888   4.597   3.564
 6884SOL    HW121551   1.790   4.612   3.574
 6884SOL    HW221552   1.922   4.543   3.641
 6885SOL     OW21553   4.133   5.112   4.064
 6885SOL    HW121554   4.094   5.204   4.064
 6885SOL    HW221555   4.229   5.116   4.035
 6886SOL     OW21556   6.911   1.145   4.095
 6886SOL    HW121557   6.842   1.217   4.093
 6886SOL    HW221558   6.873   1.061   4.057
 6887SOL     OW21559   5.192   5.700   6.076
 6887SOL    HW121560   5.224   5.763   6.005
 6887SOL    HW221561   5.146   5.751   6.148
 6888SOL     OW21562   5.341   5.969   6.717
 6888SOL    HW121563   5.374   5.987   6.624
 6888SOL    HW221564   5.380   6.035   6.780
 6889SOL     OW21565   2.035   2.351   4.999
 6889SOL    HW121566   2.042   2.252   5.010
 6889SOL    HW221567   1.940   2.376   4.983
 6890SOL     OW21568   4.541   6.315   1.817
 6890SOL    HW121569   4.518   6.392   1.876
 6890SOL    HW221570   4.479   6.314   1.738
 6891SOL     OW21571   2.465   4.451   3.203
 6891SOL    HW121572   2.411   4.407   3.131
 6891SOL    HW221573   2.541   4.503   3.161
 6892SOL     OW21574   3.319   2.116   3.132
 6892SOL    HW121575   3.306   2.100   3.230
 6892SOL    HW221576   3.238   2.085   3.082
 6893SOL     OW21577   4.680   4.547   0.116
 6893SOL    HW121578   4.753   4.491   0.077
 6893SOL    HW221579   4.591   4.516   0.082
 6894SOL     OW21580   6.412   4.589   1.123
 6894SOL    HW121581   6.322   4.595   1.078
 6894SOL    HW221582   6.467   4.520   1.077
 6895SOL     OW21583   3.281   4.701   0.428
 6895SOL    HW121584   3.320   4.703   0.336
 6895SOL    HW221585   3.334   4.640   0.486
 6896SOL     OW21586   2.200   6.780   4.310
 6896SOL    HW121587   2.114   6.786   4.259
 6896SOL    HW221588   2.223   6.684   4.325
 6897SOL     OW21589   4.755   3.428   5.889
 6897SOL    HW121590   4.820   3.381   5.949
 6897SOL    HW221591   4.668   3.441   5.937
 6898SOL     OW21592   3.938   1.511   1.984
 6898SOL    HW121593   4.038   1.508   1.977
 6898SOL    HW221594   3.904   1.421   2.013
 6899SOL     OW21595   5.034   5.941   1.398
 6899SOL    HW121596   4.996   6.006   1.333
 6899SOL    HW221597   4.999   5.961   1.490
 6900SOL     OW21598   6.146   5.937   5.092
 6900SOL    HW121599   6.068   5.965   5.148
 6900SOL    HW221600   6.214   5.892   5.151
 6901SOL     OW21601   6.784   6.405   6.150
 6901SOL    HW121602   6.815   6.493   6.186
 6901SOL    HW221603   6.702   6.375   6.200
 6902SOL     OW21604   5.609   6.037   6.509
 6902SOL    HW121605   5.545   6.024   6.433
 6902SOL    HW221606   5.679   6.104   6.482
 6903SOL     OW21607   2.496   5.170   4.874
 6903SOL    HW121608   2.525   5.206   4.963
 6903SOL    HW221609   2.577   5.147   4.820
 6904SOL     OW21610   6.155   0.928   4.898
 6904SOL    HW121611   6.200   0.865   4.961
 6904SOL    HW221612   6.130   1.012   4.946
 6905SOL     OW21613   6.078   6.706   6.204
 6905SOL    HW121614   6.105   6.781   6.264
 6905SOL    HW221615   6.134   6.707   6.122
 6906SOL     OW21616   4.278   1.323   4.148
 6906SOL    HW121617   4.308   1.355   4.058
 6906SOL    HW221618   4.190   1.276   4.139
 6907SOL     OW21619   4.855   2.690   1.699
 6907SOL    HW121620   4.944   2.674   1.741
 6907SOL    HW221621   4.850   2.784   1.665
 6908SOL     OW21622   0.840   5.432   6.345
 6908SOL    HW121623   0.936   5.456   6.330
 6908SOL    HW221624   0.835   5.356   6.410
 6909SOL     OW21625   5.209   4.334   1.390
 6909SOL    HW121626   5.232   4.415   1.337
 6909SOL    HW221627   5.130   4.352   1.448
 6910SOL     OW21628   0.570   2.525   3.390
 6910SOL    HW121629   0.631   2.528   3.311
 6910SOL    HW221630   0.601   2.590   3.459
 6911SOL     OW21631   4.175   6.290   3.859
 6911SOL    HW121632   4.134   6.205   3.823
 6911SOL    HW221633   4.274   6.283   3.855
 6912SOL     OW21634   3.766   4.015   6.303
 6912SOL    HW121635   3.676   3.979   6.330
 6912SOL    HW221636   3.817   3.945   6.254
 6913SOL     OW21637   5.541   6.131   4.006
 6913SOL    HW121638   5.448   6.159   4.028
 6913SOL    HW221639   5.544   6.032   3.990
 6914SOL     OW21640   6.050   3.917   4.190
 6914SOL    HW121641   6.014   3.824   4.193
 6914SOL    HW221642   6.010   3.966   4.113
 6915SOL     OW21643   5.914   2.604   2.328
 6915SOL    HW121644   5.832   2.628   2.380
 6915SOL    HW221645   5.934   2.675   2.262
 6916SOL     OW21646   6.070   2.266   7.020
 6916SOL    HW121647   6.005   2.261   0.070
 6916SOL    HW221648   6.110   2.176   7.004
 6917SOL     OW21649   3.287   6.637   1.338
 6917SOL    HW121650   3.257   6.664   1.429
 6917SOL    HW221651   3.385   6.655   1.328
 6918SOL     OW21652   0.229   2.762   4.355
 6918SOL    HW121653   0.163   2.825   4.395
 6918SOL    HW221654   0.276   2.807   4.278
 6919SOL     OW21655   6.706   5.881   3.494
 6919SOL    HW121656   6.693   5.802   3.553
 6919SOL    HW221657   6.700   5.965   3.548
 6920SOL     OW21658   4.192   6.049   5.595
 6920SOL    HW121659   4.217   6.083   5.686
 6920SOL    HW221660   4.266   6.069   5.530
 6921SOL     OW21661   5.157   5.397   3.489
 6921SOL    HW121662   5.143   5.481   3.542
 6921SOL    HW221663   5.246   5.358   3.512
 6922SOL     OW21664   1.996   5.990   5.104
 6922SOL    HW121665   1.928   6.062   5.111
 6922SOL    HW221666   2.018   5.956   5.196
 6923SOL     OW21667   4.860   5.670   3.332
 6923SOL    HW121668   4.899   5.675   3.240
 6923SOL    HW221669   4.770   5.627   3.328
 6924SOL     OW21670   2.908   4.094   6.706
 6924SOL    HW121671   2.964   4.018   6.673
 6924SOL    HW221672   2.812   4.073   6.693
 6925SOL     OW21673   4.718   6.121   3.763
 6925SOL    HW121674   4.659   6.112   3.683
 6925SOL    HW221675   4.711   6.213   3.800
 6926SOL     OW21676   3.178   2.693   0.858
 6926SOL    HW121677   3.137   2.633   0.927
 6926SOL    HW221678   3.177   2.787   0.891
 6927SOL     OW21679   3.970   2.906   6.018
 6927SOL    HW121680   3.957   2.983   6.081
 6927SOL    HW221681   4.008   2.829   6.068
 6928SOL     OW21682   5.802   5.616   0.654
 6928SOL    HW121683   5.719   5.583   0.701
 6928SOL    HW221684   5.775   5.677   0.579
 6929SOL     OW21685   5.664   5.374   1.299
 6929SOL    HW121686   5.660   5.287   1.347
 6929SOL    HW221687   5.665   5.449   1.365
 6930SOL     OW21688   0.835   0.541   2.418
 6930SOL    HW121689   0.898   0.463   2.419
 6930SOL    HW221690   0.776   0.534   2.337
 6931SOL     OW21691   1.933   0.945   2.181
 6931SOL    HW121692   1.890   1.033   2.161
 6931SOL    HW221693   2.005   0.927   2.114
 6932SOL     OW21694   4.640   6.264   0.347
 6932SOL    HW121695   4.586   6.313   0.414
 6932SOL    HW221696   4.593   6.180   0.321
 6933SOL     OW21697   3.405   6.209   5.086
 6933SOL    HW121698   3.459   6.182   5.166
 6933SOL    HW221699   3.308   6.191   5.105
 6934SOL     OW21700   4.906   3.615   6.377
 6934SOL    HW121701   4.955   3.548   6.432
 6934SOL    HW221702   4.826   3.648   6.427
 6935SOL     OW21703   4.664   5.375   2.392
 6935SOL    HW121704   4.652   5.309   2.466
 6935SOL    HW221705   4.594   5.446   2.399
 6936SOL     OW21706   6.010   1.360   3.101
 6936SOL    HW121707   6.066   1.442   3.095
 6936SOL    HW221708   6.066   1.280   3.075
 6937SOL     OW21709   6.485   5.992   0.161
 6937SOL    HW121710   6.563   6.021   0.217
 6937SOL    HW221711   6.435   5.919   0.209
 6938SOL     OW21712   5.361   3.104   5.273
 6938SOL    HW121713   5.279   3.134   5.323
 6938SOL    HW221714   5.338   3.094   5.176
 6939SOL     OW21715   1.393   4.626   1.578
 6939SOL    HW121716   1.314   4.639   1.638
 6939SOL    HW221717   1.426   4.531   1.587
 6940SOL     OW21718   4.036   0.605   6.436
 6940SOL    HW121719   4.058   0.700   6.412
 6940SOL    HW221720   4.046   0.592   6.535
 6941SOL     OW21721   3.426   3.845   1.786
 6941SOL    HW121722   3.401   3.867   1.692
 6941SOL    HW221723   3.386   3.913   1.848
 6942SOL     OW21724   5.831   6.999   1.103
 6942SOL    HW121725   5.834   6.969   1.198
 6942SOL    HW221726   5.896   0.047   1.089
 6943SOL     OW21727   3.656   5.746   0.203
 6943SOL    HW121728   3.564   5.781   0.222
 6943SOL    HW221729   3.651   5.681   0.126
 6944SOL     OW21730   0.801   4.055   6.560
 6944SOL    HW121731   0.703   4.046   6.538
 6944SOL    HW221732   0.811   4.118   6.637
 6945SOL     OW21733   6.079   0.985   6.765
 6945SOL    HW121734   6.156   1.031   6.809
 6945SOL    HW221735   6.101   0.888   6.751
 6946SOL     OW21736   4.749   6.802   0.483
 6946SOL    HW121737   4.733   6.713   0.441
 6946SOL    HW221738   4.778   6.867   0.414
 6947SOL     OW21739   3.123   5.966   6.428
 6947SOL    HW121740   3.034   6.003   6.404
 6947SOL    HW221741   3.192   6.002   6.365
 6948SOL     OW21742   0.644   0.364   0.743
 6948SOL    HW121743   0.702   0.382   0.823
 6948SOL    HW221744   0.655   0.269   0.714
 6949SOL     OW21745   3.866   0.067   3.011
 6949SOL    HW121746   3.775   0.059   2.971
 6949SOL    HW221747   3.901   7.002   3.033
 6950SOL     OW21748   1.799   2.074   4.531
 6950SOL    HW121749   1.893   2.095   4.557
 6950SOL    HW221750   1.796   2.053   4.433
 6951SOL     OW21751   6.605   5.504   6.039
 6951SOL    HW121752   6.693   5.542   6.068
 6951SOL    HW221753   6.531   5.558   6.078
 6952SOL     OW21754   0.674   6.037   3.207
 6952SOL    HW121755   0.721   5.951   3.186
 6952SOL    HW221756   0.732   6.114   3.180
 6953SOL     OW21757   4.434   6.764   0.858
 6953SOL    HW121758   4.357   6.822   0.884
 6953SOL    HW221759   4.495   6.814   0.797
 6954SOL     OW21760   0.171   3.834   2.353
 6954SOL    HW121761   0.105   3.761   2.373
 6954SOL    HW221762   0.211   3.867   2.439
 6955SOL     OW21763   6.111   0.256   2.216
 6955SOL    HW121764   6.130   0.307   2.132
 6955SOL    HW221765   6.196   0.216   2.250
 6956SOL     OW21766   5.868   5.854   3.675
 6956SOL    HW121767   5.938   5.921   3.652
 6956SOL    HW221768   5.903   5.790   3.744
 6957SOL     OW21769   6.389   4.997   0.742
 6957SOL    HW121770   6.413   5.092   0.762
 6957SOL    HW221771   6.442   4.964   0.664
 6958SOL     OW21772   3.769   3.063   4.329
 6958SOL    HW121773   3.818   3.095   4.248
 6958SOL    HW221774   3.699   2.997   4.301
 6959SOL     OW21775   1.713   2.460   4.070
 6959SOL    HW121776   1.722   2.387   4.138
 6959SOL    HW221777   1.730   2.549   4.113
 6960SOL     OW21778   2.254   4.241   1.467
 6960SOL    HW121779   2.292   4.209   1.553
 6960SOL    HW221780   2.326   4.243   1.397
 6961SOL     OW21781   5.992   1.491   4.160
 6961SOL    HW121782   6.040   1.489   4.072
 6961SOL    HW221783   5.911   1.550   4.151
 6962SOL     OW21784   5.190   5.910   1.897
 6962SOL    HW121785   5.230   5.995   1.932
 6962SOL    HW221786   5.226   5.833   1.949
 6963SOL     OW21787   5.328   6.067   0.723
 6963SOL    HW121788   5.294   6.000   0.790
 6963SOL    HW221789   5.392   6.129   0.766
 6964SOL     OW21790   2.990   1.318   5.111
 6964SOL    HW121791   3.061   1.355   5.172
 6964SOL    HW221792   3.027   1.239   5.061
 6965SOL     OW21793   1.139   1.453   0.622
 6965SOL    HW121794   1.110   1.395   0.698
 6965SOL    HW221795   1.081   1.534   0.618
 6966SOL     OW21796   0.980   2.148   3.293
 6966SOL    HW121797   0.959   2.069   3.235
 6966SOL    HW221798   1.037   2.212   3.242
 6967SOL     OW21799   2.381   1.068   5.404
 6967SOL    HW121800   2.290   1.088   5.438
 6967SOL    HW221801   2.374   1.016   5.318
 6968SOL     OW21802   3.678   6.911   2.881
 6968SOL    HW121803   3.617   6.842   2.920
 6968SOL    HW221804   3.636   6.949   2.799
 6969SOL     OW21805   3.483   2.466   1.515
 6969SOL    HW121806   3.524   2.376   1.498
 6969SOL    HW221807   3.423   2.461   1.595
 6970SOL     OW21808   4.439   4.446   5.438
 6970SOL    HW121809   4.359   4.388   5.452
 6970SOL    HW221810   4.450   4.508   5.516
 6971SOL     OW21811   6.929   4.223   1.277
 6971SOL    HW121812   6.969   4.138   1.243
 6971SOL    HW221813   6.980   4.254   1.358
 6972SOL     OW21814   5.288   4.461   3.102
 6972SOL    HW121815   5.231   4.379   3.093
 6972SOL    HW221816   5.281   4.515   3.018
 6973SOL     OW21817   1.027   2.918   3.989
 6973SOL    HW121818   0.963   2.845   3.966
 6973SOL    HW221819   1.104   2.916   3.926
 6974SOL     OW21820   2.881   3.569   3.102
 6974SOL    HW121821   2.936   3.537   3.179
 6974SOL    HW221822   2.787   3.583   3.131
 6975SOL     OW21823   1.845   6.397   6.467
 6975SOL    HW121824   1.846   6.332   6.390
 6975SOL    HW221825   1.752   6.405   6.502
 6976SOL     OW21826   5.393   5.469   4.957
 6976SOL    HW121827   5.385   5.393   4.893
 6976SOL    HW221828   5.353   5.443   5.045
 6977SOL     OW21829   3.822   2.932   1.713
 6977SOL    HW121830   3.747   2.997   1.723
 6977SOL    HW221831   3.884   2.940   1.791
 6978SOL     OW21832   5.746   1.597   2.052
 6978SOL    HW121833   5.814   1.524   2.046
 6978SOL    HW221834   5.783   1.675   2.101
 6979SOL     OW21835   0.965   4.614   1.313
 6979SOL    HW121836   1.042   4.566   1.271
 6979SOL    HW221837   0.880   4.564   1.294
 6980SOL     OW21838   1.795   0.605   4.266
 6980SOL    HW121839   1.697   0.588   4.269
 6980SOL    HW221840   1.843   0.522   4.238
 6981SOL     OW21841   3.562   2.704   5.841
 6981SOL    HW121842   3.584   2.687   5.937
 6981SOL    HW221843   3.468   2.739   5.834
 6982SOL     OW21844   1.291   0.606   4.908
 6982SOL    HW121845   1.294   0.706   4.908
 6982SOL    HW221846   1.256   0.573   4.820
 6983SOL     OW21847   3.189   2.095   3.838
 6983SOL    HW121848   3.136   2.170   3.877
 6983SOL    HW221849   3.127   2.025   3.803
 6984SOL     OW21850   2.148   2.012   3.068
 6984SOL    HW121851   2.211   2.000   3.145
 6984SOL    HW221852   2.056   1.982   3.094
 6985SOL     OW21853   6.052   5.345   1.559
 6985SOL    HW121854   6.109   5.284   1.504
 6985SOL    HW221855   5.958   5.310   1.561
 6986SOL     OW21856   2.377   6.944   5.965
 6986SOL    HW121857   2.443   6.977   6.033
 6986SOL    HW221858   2.391   6.992   5.879
 6987SOL     OW21859   6.186   1.032   6.111
 6987SOL    HW121860   6.186   0.941   6.154
 6987SOL    HW221861   6.229   1.026   6.021
 6988SOL     OW21862   0.559   0.515   5.560
 6988SOL    HW121863   0.645   0.492   5.513
 6988SOL    HW221864   0.541   0.613   5.549
 6989SOL     OW21865   0.736   3.716   3.147
 6989SOL    HW121866   0.717   3.782   3.220
 6989SOL    HW221867   0.803   3.754   3.084
 6990SOL     OW21868   4.874   2.426   1.614
 6990SOL    HW121869   4.864   2.521   1.645
 6990SOL    HW221870   4.792   2.399   1.564
 6991SOL     OW21871   4.084   4.765   3.346
 6991SOL    HW121872   4.053   4.670   3.361
 6991SOL    HW221873   4.124   4.773   3.255
 6992SOL     OW21874   5.270   6.388   6.178
 6992SOL    HW121875   5.321   6.303   6.186
 6992SOL    HW221876   5.320   6.461   6.226
 6993SOL     OW21877   5.297   0.513   3.108
 6993SOL    HW121878   5.337   0.569   3.181
 6993SOL    HW221879   5.201   0.495   3.129
 6994SOL     OW21880   0.039   2.371   4.156
 6994SOL    HW121881   0.070   2.425   4.234
 6994SOL    HW221882   6.970   2.393   4.135
 6995SOL     OW21883   0.295   4.602   6.346
 6995SOL    HW121884   0.382   4.574   6.304
 6995SOL    HW221885   0.227   4.619   6.275
 6996SOL     OW21886   1.669   6.933   6.988
 6996SOL    HW121887   1.760   6.898   7.012
 6996SOL    HW221888   1.612   6.858   6.956
 6997SOL     OW21889   6.527   6.136   5.055
 6997SOL    HW121890   6.564   6.132   5.148
 6997SOL    HW221891   6.464   6.213   5.048
 6998SOL     OW21892   2.464   0.962   1.524
 6998SOL    HW121893   2.387   0.902   1.546
 6998SOL    HW221894   2.454   1.049   1.571
 6999SOL     OW21895   2.613   1.661   6.854
 6999SOL    HW121896   2.610   1.580   6.795
 6999SOL    HW221897   2.665   1.733   6.808
 7000SOL     OW21898   4.861   6.997   0.993
 7000SOL    HW121899   4.790   6.982   1.062
 7000SOL    HW221900   4.843   0.057   0.946
 7001SOL     OW21901   1.713   3.214   5.576
 7001SOL    HW121902   1.768   3.160   5.640
 7001SOL    HW221903   1.743   3.309   5.578
 7002SOL     OW21904   1.565   5.513   3.884
 7002SOL    HW121905   1.618   5.526   3.801
 7002SOL    HW221906   1.472   5.485   3.861
 7003SOL     OW21907   4.043   5.123   0.584
 7003SOL    HW121908   4.103   5.191   0.542
 7003SOL    HW221909   4.000   5.068   0.513
 7004SOL     OW21910   1.049   5.424   2.041
 7004SOL    HW121911   1.054   5.495   2.112
 7004SOL    HW221912   1.092   5.340   2.075
 7005SOL     OW21913   1.164   0.014   0.860
 7005SOL    HW121914   1.151   6.995   0.772
 7005SOL    HW221915   1.195   0.108   0.845
 7006SOL     OW21916   5.223   5.107   3.778
 7006SOL    HW121917   5.302   5.168   3.779
 7006SOL    HW221918   5.224   5.052   3.695
 7007SOL     OW21919   4.374   0.941   3.885
 7007SOL    HW121920   4.439   0.879   3.841
 7007SOL    HW221921   4.328   0.893   3.960
 7008SOL     OW21922   0.270   4.299   4.649
 7008SOL    HW121923   0.366   4.324   4.635
 7008SOL    HW221924   0.211   4.371   4.612
 7009SOL     OW21925   5.853   5.866   2.409
 7009SOL    HW121926   5.805   5.783   2.380
 7009SOL    HW221927   5.793   5.920   2.469
 7010SOL     OW21928   5.295   4.246   4.078
 7010SOL    HW121929   5.367   4.216   4.140
 7010SOL    HW221930   5.279   4.344   4.090
 7011SOL     OW21931   2.857   6.374   6.936
 7011SOL    HW121932   2.785   6.326   6.887
 7011SOL    HW221933   2.822   6.461   6.970
 7012SOL     OW21934   7.016   2.037   1.865
 7012SOL    HW121935   6.991   2.066   1.773
 7012SOL    HW221936   6.951   1.969   1.898
 7013SOL     OW21937   0.731   0.200   0.400
 7013SOL    HW121938   0.716   0.298   0.410
 7013SOL    HW221939   0.714   0.172   0.306
 7014SOL     OW21940   4.296   3.436   0.973
 7014SOL    HW121941   4.197   3.443   0.966
 7014SOL    HW221942   4.321   3.347   1.010
 7015SOL     OW21943   6.478   4.588   1.884
 7015SOL    HW121944   6.400   4.611   1.827
 7015SOL    HW221945   6.464   4.497   1.925
 7016SOL     OW21946   3.355   4.979   1.281
 7016SOL    HW121947   3.292   4.933   1.343
 7016SOL    HW221948   3.388   4.915   1.213
 7017SOL     OW21949   2.586   5.204   3.112
 7017SOL    HW121950   2.572   5.302   3.098
 7017SOL    HW221951   2.497   5.158   3.115
 7018SOL     OW21952   5.577   3.274   4.188
 7018SOL    HW121953   5.515   3.271   4.266
 7018SOL    HW221954   5.617   3.184   4.172
 7019SOL     OW21955   3.930   4.133   0.636
 7019SOL    HW121956   3.984   4.049   0.638
 7019SOL    HW221957   3.939   4.176   0.547
 7020SOL     OW21958   6.615   5.090   6.589
 7020SOL    HW121959   6.683   5.108   6.518
 7020SOL    HW221960   6.617   5.163   6.656
 7021SOL     OW21961   1.560   1.912   5.695
 7021SOL    HW121962   1.642   1.942   5.743
 7021SOL    HW221963   1.575   1.822   5.655
 7022SOL     OW21964   4.438   6.677   5.836
 7022SOL    HW121965   4.523   6.698   5.789
 7022SOL    HW221966   4.364   6.668   5.770
 7023SOL     OW21967   0.195   2.446   3.694
 7023SOL    HW121968   0.112   2.495   3.670
 7023SOL    HW221969   0.271   2.479   3.638
 7024SOL     OW21970   2.997   4.075   5.014
 7024SOL    HW121971   2.979   4.071   5.113
 7024SOL    HW221972   2.943   4.149   4.974
 7025SOL     OW21973   3.376   0.878   0.782
 7025SOL    HW121974   3.359   0.884   0.684
 7025SOL    HW221975   3.289   0.886   0.831
 7026SOL     OW21976   3.241   2.143   2.281
 7026SOL    HW121977   3.214   2.147   2.377
 7026SOL    HW221978   3.330   2.187   2.269
 7027SOL     OW21979   2.449   5.293   4.200
 7027SOL    HW121980   2.441   5.200   4.164
 7027SOL    HW221981   2.363   5.342   4.185
 7028SOL     OW21982   2.919   1.949   3.837
 7028SOL    HW121983   2.997   1.888   3.847
 7028SOL    HW221984   2.839   1.909   3.881
 7029SOL     OW21985   4.959   4.885   4.881
 7029SOL    HW121986   4.939   4.904   4.785
 7029SOL    HW221987   5.045   4.834   4.887
 7030SOL     OW21988   0.901   0.693   4.559
 7030SOL    HW121989   0.910   0.773   4.619
 7030SOL    HW221990   0.850   0.622   4.607
 7031SOL     OW21991   3.979   5.578   6.047
 7031SOL    HW121992   4.047   5.540   5.983
 7031SOL    HW221993   3.926   5.649   6.000
 7032SOL     OW21994   4.085   1.407   3.916
 7032SOL    HW121995   4.053   1.429   3.824
 7032SOL    HW221996   4.185   1.411   3.918
 7033SOL     OW21997   1.651   2.258   3.381
 7033SOL    HW121998   1.564   2.222   3.348
 7033SOL    HW221999   1.662   2.237   3.478
 7034SOL     OW22000   6.590   0.687   3.575
 7034SOL    HW122001   6.502   0.734   3.585
 7034SOL    HW222002   6.654   0.720   3.645
 7035SOL     OW22003   1.565   6.742   0.857
 7035SOL    HW122004   1.568   6.723   0.759
 7035SOL    HW222005   1.658   6.746   0.893
 7036SOL     OW22006   0.062   0.176   3.126
 7036SOL    HW122007   0.122   0.209   3.199
 7036SOL    HW222008   0.105   0.193   3.038
 7037SOL     OW22009   1.455   1.059   6.558
 7037SOL    HW122010   1.400   1.053   6.641
 7037SOL    HW222011   1.549   1.081   6.582
 7038SOL     OW22012   2.337   3.492   5.322
 7038SOL    HW122013   2.308   3.586   5.338
 7038SOL    HW222014   2.409   3.468   5.386
 7039SOL     OW22015   2.171   5.314   2.295
 7039SOL    HW122016   2.230   5.383   2.335
 7039SOL    HW222017   2.155   5.336   2.199
 7040SOL     OW22018   5.257   2.508   5.670
 7040SOL    HW122019   5.252   2.544   5.576
 7040SOL    HW222020   5.330   2.555   5.719
 7041SOL     OW22021   6.120   1.383   1.851
 7041SOL    HW122022   6.213   1.357   1.878
 7041SOL    HW222023   6.072   1.302   1.815
 7042SOL     OW22024   4.312   5.154   5.235
 7042SOL    HW122025   4.317   5.104   5.321
 7042SOL    HW222026   4.355   5.101   5.163
 7043SOL     OW22027   2.680   4.761   2.547
 7043SOL    HW122028   2.618   4.686   2.522
 7043SOL    HW222029   2.697   4.758   2.645
 7044SOL     OW22030   5.701   5.010   4.538
 7044SOL    HW122031   5.629   4.957   4.583
 7044SOL    HW222032   5.761   5.050   4.607
 7045SOL     OW22033   4.830   5.352   2.822
 7045SOL    HW122034   4.792   5.259   2.813
 7045SOL    HW222035   4.879   5.359   2.909
 7046SOL     OW22036   2.967   1.039   3.543
 7046SOL    HW122037   2.874   1.009   3.520
 7046SOL    HW222038   3.026   1.025   3.464
 7047SOL     OW22039   6.168   0.651   2.251
 7047SOL    HW122040   6.081   0.650   2.202
 7047SOL    HW222041   6.196   0.745   2.268
 7048SOL     OW22042   5.420   0.366   3.529
 7048SOL    HW122043   5.381   0.458   3.528
 7048SOL    HW222044   5.444   0.341   3.623
 7049SOL     OW22045   3.318   1.643   0.613
 7049SOL    HW122046   3.413   1.650   0.581
 7049SOL    HW222047   3.276   1.562   0.571
 7050SOL     OW22048   4.175   3.671   1.833
 7050SOL    HW122049   4.134   3.671   1.924
 7050SOL    HW222050   4.166   3.580   1.793
 7051SOL     OW22051   6.322   6.244   0.778
 7051SOL    HW122052   6.261   6.203   0.711
 7051SOL    HW222053   6.269   6.287   0.850
 7052SOL     OW22054   6.002   1.726   3.532
 7052SOL    HW122055   6.087   1.719   3.480
 7052SOL    HW222056   5.954   1.810   3.505
 7053SOL     OW22057   1.746   2.879   5.405
 7053SOL    HW122058   1.805   2.912   5.332
 7053SOL    HW222059   1.662   2.934   5.408
 7054SOL     OW22060   6.270   6.883   0.613
 7054SOL    HW122061   6.268   6.800   0.556
 7054SOL    HW222062   6.357   6.889   0.661
 7055SOL     OW22063   2.817   6.822   6.480
 7055SOL    HW122064   2.862   6.842   6.394
 7055SOL    HW222065   2.725   6.787   6.463
 7056SOL     OW22066   0.514   4.593   1.726
 7056SOL    HW122067   0.436   4.652   1.703
 7056SOL    HW222068   0.595   4.625   1.677
 7057SOL     OW22069   2.679   4.692   4.269
 7057SOL    HW122070   2.676   4.664   4.174
 7057SOL    HW222071   2.598   4.657   4.317
 7058SOL     OW22072   5.557   3.949   5.533
 7058SOL    HW122073   5.489   3.935   5.606
 7058SOL    HW222074   5.617   4.025   5.558
 7059SOL     OW22075   0.573   1.372   3.696
 7059SOL    HW122076   0.612   1.329   3.615
 7059SOL    HW222077   0.571   1.305   3.771
 7060SOL     OW22078   3.295   6.955   1.875
 7060SOL    HW122079   3.339   6.910   1.953
 7060SOL    HW222080   3.354   0.002   1.841
 7061SOL     OW22081   0.353   3.292   3.917
 7061SOL    HW122082   0.278   3.225   3.912
 7061SOL    HW222083   0.324   3.377   3.873
 7062SOL     OW22084   3.500   1.559   5.718
 7062SOL    HW122085   3.469   1.521   5.630
 7062SOL    HW222086   3.571   1.628   5.701
 7063SOL     OW22087   1.173   6.868   1.935
 7063SOL    HW122088   1.148   6.965   1.933
 7063SOL    HW222089   1.091   6.812   1.936
 7064SOL     OW22090   3.871   2.087   0.039
 7064SOL    HW122091   3.916   2.096   6.977
 7064SOL    HW222092   3.823   1.999   0.044
 7065SOL     OW22093   5.196   3.790   6.043
 7065SOL    HW122094   5.230   3.882   6.062
 7065SOL    HW222095   5.209   3.770   5.945
 7066SOL     OW22096   3.849   0.087   6.739
 7066SOL    HW122097   3.832   0.161   6.674
 7066SOL    HW222098   3.924   0.030   6.706
 7067SOL     OW22099   1.903   2.721   5.658
 7067SOL    HW122100   1.833   2.715   5.729
 7067SOL    HW222101   1.863   2.762   5.576
 7068SOL     OW22102   6.312   4.805   4.724
 7068SOL    HW122103   6.396   4.759   4.751
 7068SOL    HW222104   6.257   4.826   4.805
 7069SOL     OW22105   5.478   2.467   4.645
 7069SOL    HW122106   5.531   2.390   4.608
 7069SOL    HW222107   5.414   2.434   4.714
 7070SOL     OW22108   0.010   6.950   4.859
 7070SOL    HW122109   0.086   6.971   4.797
 7070SOL    HW222110   6.984   0.008   4.877
 7071SOL     OW22111   3.595   6.097   5.636
 7071SOL    HW122112   3.676   6.050   5.601
 7071SOL    HW222113   3.621   6.164   5.704
 7072SOL     OW22114   1.757   5.987   6.980
 7072SOL    HW122115   1.762   6.038   6.894
 7072SOL    HW222116   1.662   5.962   7.000
 7073SOL     OW22117   5.070   0.039   4.047
 7073SOL    HW122118   4.977   0.024   4.012
 7073SOL    HW222119   5.087   7.000   4.121
 7074SOL     OW22120   5.873   2.805   2.044
 7074SOL    HW122121   5.810   2.790   1.968
 7074SOL    HW222122   5.954   2.748   2.031
 7075SOL     OW22123   1.886   4.214   5.049
 7075SOL    HW122124   1.835   4.230   5.134
 7075SOL    HW222125   1.959   4.148   5.066
 7076SOL     OW22126   5.684   2.620   6.809
 7076SOL    HW122127   5.657   2.601   6.715
 7076SOL    HW222128   5.773   2.666   6.810
 7077SOL     OW22129   2.125   4.471   3.706
 7077SOL    HW122130   2.095   4.473   3.802
 7077SOL    HW222131   2.179   4.389   3.690
 7078SOL     OW22132   6.829   6.523   1.972
 7078SOL    HW122133   6.777   6.510   2.057
 7078SOL    HW222134   6.860   6.618   1.966
 7079SOL     OW22135   0.342   6.640   4.733
 7079SOL    HW122136   0.324   6.707   4.660
 7079SOL    HW222137   0.439   6.646   4.759
 7080SOL     OW22138   3.441   1.175   4.951
 7080SOL    HW122139   3.458   1.206   5.045
 7080SOL    HW222140   3.524   1.137   4.912
 7081SOL     OW22141   1.982   6.227   6.741
 7081SOL    HW122142   2.012   6.249   6.833
 7081SOL    HW222143   1.989   6.309   6.683
 7082SOL     OW22144   6.825   4.523   6.769
 7082SOL    HW122145   6.788   4.439   6.728
 7082SOL    HW222146   6.923   4.529   6.749
 7083SOL     OW22147   1.653   0.346   1.398
 7083SOL    HW122148   1.739   0.319   1.354
 7083SOL    HW222149   1.586   0.272   1.389
 7084SOL     OW22150   0.613   5.116   5.534
 7084SOL    HW122151   0.525   5.135   5.489
 7084SOL    HW222152   0.610   5.025   5.575
 7085SOL     OW22153   0.583   1.710   2.535
 7085SOL    HW122154   0.568   1.795   2.586
 7085SOL    HW222155   0.589   1.731   2.437
 7086SOL     OW22156   5.985   0.107   6.119
 7086SOL    HW122157   5.886   0.090   6.123
 7086SOL    HW222158   6.028   0.042   6.057
 7087SOL     OW22159   6.089   3.643   3.396
 7087SOL    HW122160   6.145   3.650   3.479
 7087SOL    HW222161   5.992   3.647   3.421
 7088SOL     OW22162   4.978   2.770   3.900
 7088SOL    HW122163   5.064   2.719   3.894
 7088SOL    HW222164   4.968   2.828   3.820
 7089SOL     OW22165   2.446   2.210   4.808
 7089SOL    HW122166   2.440   2.310   4.802
 7089SOL    HW222167   2.540   2.183   4.829
 7090SOL     OW22168   1.841   1.316   0.236
 7090SOL    HW122169   1.759   1.373   0.239
 7090SOL    HW222170   1.822   1.228   0.280
 7091SOL     OW22171   0.340   1.959   1.112
 7091SOL    HW122172   0.283   2.040   1.128
 7091SOL    HW222173   0.349   1.943   1.014
 7092SOL     OW22174   4.198   2.771   5.631
 7092SOL    HW122175   4.106   2.777   5.672
 7092SOL    HW222176   4.190   2.746   5.535
 7093SOL     OW22177   3.316   4.057   1.991
 7093SOL    HW122178   3.219   4.035   2.002
 7093SOL    HW222179   3.361   4.053   2.081
 7094SOL     OW22180   6.911   6.010   5.420
 7094SOL    HW122181   6.980   6.062   5.471
 7094SOL    HW222182   6.954   5.971   5.338
 7095SOL     OW22183   3.476   4.944   5.769
 7095SOL    HW122184   3.481   4.948   5.670
 7095SOL    HW222185   3.382   4.924   5.797
 7096SOL     OW22186   6.535   0.937   2.383
 7096SOL    HW122187   6.611   0.874   2.366
 7096SOL    HW222188   6.547   1.020   2.330
 7097SOL     OW22189   4.735   1.163   1.807
 7097SOL    HW122190   4.797   1.096   1.766
 7097SOL    HW222191   4.651   1.117   1.837
 7098SOL     OW22192   2.196   5.646   5.283
 7098SOL    HW122193   2.292   5.667   5.304
 7098SOL    HW222194   2.179   5.660   5.186
 7099SOL     OW22195   3.863   1.424   5.252
 7099SOL    HW122196   3.835   1.508   5.298
 7099SOL    HW222197   3.873   1.441   5.154
 7100SOL     OW22198   6.995   3.453   0.105
 7100SOL    HW122199   6.923   3.472   0.039
 7100SOL    HW222200   6.961   3.470   0.198
 7101SOL     OW22201   2.945   1.909   5.446
 7101SOL    HW122202   2.952   1.949   5.538
 7101SOL    HW222203   2.976   1.976   5.378
 7102SOL     OW22204   5.128   0.251   1.159
 7102SOL    HW122205   5.081   0.195   1.226
 7102SOL    HW222206   5.227   0.234   1.163
 7103SOL     OW22207   5.774   5.362   1.691
 7103SOL    HW122208   5.719   5.405   1.763
 7103SOL    HW222209   5.849   5.423   1.666
 7104SOL     OW22210   6.238   3.739   2.636
 7104SOL    HW122211   6.251   3.817   2.575
 7104SOL    HW222212   6.140   3.726   2.653
 7105SOL     OW22213   2.831   3.369   5.251
 7105SOL    HW122214   2.884   3.287   5.232
 7105SOL    HW222215   2.746   3.345   5.297
 7106SOL     OW22216   3.642   3.415   1.796
 7106SOL    HW122217   3.714   3.467   1.841
 7106SOL    HW222218   3.602   3.350   1.860
 7107SOL     OW22219   5.046   0.727   0.683
 7107SOL    HW122220   4.990   0.716   0.764
 7107SOL    HW222221   5.132   0.772   0.707
 7108SOL     OW22222   2.960   6.222   2.966
 7108SOL    HW122223   2.962   6.149   2.898
 7108SOL    HW222224   2.971   6.310   2.921
 7109SOL     OW22225   2.074   6.930   5.492
 7109SOL    HW122226   2.013   6.981   5.553
 7109SOL    HW222227   2.085   6.837   5.526
 7110SOL     OW22228   2.734   5.916   4.435
 7110SOL    HW122229   2.788   5.985   4.388
 7110SOL    HW222230   2.706   5.844   4.371
 7111SOL     OW22231   0.865   2.536   5.088
 7111SOL    HW122232   0.853   2.444   5.049
 7111SOL    HW222233   0.899   2.528   5.182
 7112SOL     OW22234   1.822   5.166   4.178
 7112SOL    HW122235   1.907   5.197   4.220
 7112SOL    HW222236   1.765   5.245   4.156
 7113SOL     OW22237   3.570   4.165   4.494
 7113SOL    HW122238   3.475   4.146   4.470
 7113SOL    HW222239   3.625   4.168   4.410
 7114SOL     OW22240   5.122   5.485   0.746
 7114SOL    HW122241   5.102   5.509   0.841
 7114SOL    HW222242   5.178   5.402   0.744
 7115SOL     OW22243   5.067   2.907   0.210
 7115SOL    HW122244   5.116   2.938   0.291
 7115SOL    HW222245   5.042   2.810   0.221
 7116SOL     OW22246   5.690   4.423   3.049
 7116SOL    HW122247   5.729   4.338   3.083
 7116SOL    HW222248   5.621   4.403   2.979
 7117SOL     OW22249   0.835   6.128   4.647
 7117SOL    HW122250   0.905   6.133   4.576
 7117SOL    HW222251   0.824   6.033   4.676
 7118SOL     OW22252   3.020   4.957   6.391
 7118SOL    HW122253   3.039   4.905   6.308
 7118SOL    HW222254   3.102   4.959   6.449
 7119SOL     OW22255   5.028   1.536   3.913
 7119SOL    HW122256   4.964   1.497   3.979
 7119SOL    HW222257   5.111   1.566   3.960
 7120SOL     OW22258   3.298   2.042   1.880
 7120SOL    HW122259   3.205   2.076   1.871
 7120SOL    HW222260   3.310   1.999   1.970
 7121SOL     OW22261   0.732   0.114   3.706
 7121SOL    HW122262   0.782   0.112   3.620
 7121SOL    HW222263   0.683   0.028   3.718
 7122SOL     OW22264   1.614   0.875   5.893
 7122SOL    HW122265   1.713   0.877   5.878
 7122SOL    HW222266   1.578   0.968   5.888
 7123SOL     OW22267   1.402   4.922   3.397
 7123SOL    HW122268   1.456   4.838   3.390
 7123SOL    HW222269   1.355   4.939   3.310
 7124SOL     OW22270   0.031   1.826   1.340
 7124SOL    HW122271   0.077   1.915   1.337
 7124SOL    HW222272   6.985   1.823   1.272
 7125SOL     OW22273   0.860   0.147   0.724
 7125SOL    HW122274   0.861   0.082   0.648
 7125SOL    HW222275   0.892   0.102   0.808
 7126SOL     OW22276   3.758   4.963   0.216
 7126SOL    HW122277   3.844   4.956   0.268
 7126SOL    HW222278   3.684   4.991   0.277
 7127SOL     OW22279   2.078   5.620   6.491
 7127SOL    HW122280   1.993   5.651   6.534
 7127SOL    HW222281   2.062   5.533   6.445
 7128SOL     OW22282   3.751   4.073   6.805
 7128SOL    HW122283   3.665   4.063   6.755
 7128SOL    HW222284   3.822   4.106   6.742
 7129SOL     OW22285   2.606   1.321   0.458
 7129SOL    HW122286   2.510   1.300   0.440
 7129SOL    HW222287   2.627   1.413   0.426
 7130SOL     OW22288   3.954   6.033   4.072
 7130SOL    HW122289   3.972   5.953   4.014
 7130SOL    HW222290   3.891   6.008   4.145
 7131SOL     OW22291   2.843   0.957   1.359
 7131SOL    HW122292   2.903   0.892   1.406
 7131SOL    HW222293   2.824   1.035   1.419
 7132SOL     OW22294   3.629   3.859   0.469
 7132SOL    HW122295   3.684   3.776   0.470
 7132SOL    HW222296   3.689   3.939   0.476
 7133SOL     OW22297   4.488   4.719   5.060
 7133SOL    HW122298   4.442   4.640   5.021
 7133SOL    HW222299   4.421   4.792   5.075
 7134SOL     OW22300   4.590   6.817   1.712
 7134SOL    HW122301   4.575   6.915   1.701
 7134SOL    HW222302   4.611   6.776   1.624
 7135SOL     OW22303   1.512   2.585   3.434
 7135SOL    HW122304   1.565   2.670   3.435
 7135SOL    HW222305   1.562   2.515   3.382
 7136SOL     OW22306   2.850   1.955   0.069
 7136SOL    HW122307   2.800   2.025   0.019
 7136SOL    HW222308   2.878   1.990   0.158
 7137SOL     OW22309   3.026   1.234   0.364
 7137SOL    HW122310   2.956   1.290   0.320
 7137SOL    HW222311   3.079   1.291   0.428
 7138SOL     OW22312   2.103   1.865   0.213
 7138SOL    HW122313   2.104   1.954   0.167
 7138SOL    HW222314   2.060   1.875   0.303
 7139SOL     OW22315   5.656   4.883   1.722
 7139SOL    HW122316   5.571   4.919   1.759
 7139SOL    HW222317   5.731   4.945   1.745
 7140SOL     OW22318   6.795   4.408   1.103
 7140SOL    HW122319   6.853   4.361   1.170
 7140SOL    HW222320   6.850   4.473   1.051
 7141SOL     OW22321   3.815   6.359   0.594
 7141SOL    HW122322   3.721   6.340   0.566
 7141SOL    HW222323   3.830   6.457   0.597
 7142SOL     OW22324   3.889   6.642   2.910
 7142SOL    HW122325   3.849   6.649   2.819
 7142SOL    HW222326   3.954   6.566   2.912
 7143SOL     OW22327   1.669   3.020   6.678
 7143SOL    HW122328   1.630   3.086   6.615
 7143SOL    HW222329   1.673   3.060   6.770
 7144SOL     OW22330   1.745   1.926   2.593
 7144SOL    HW122331   1.702   1.960   2.677
 7144SOL    HW222332   1.770   1.830   2.605
 7145SOL     OW22333   3.588   0.421   6.427
 7145SOL    HW122334   3.653   0.435   6.353
 7145SOL    HW222335   3.531   0.502   6.438
 7146SOL     OW22336   1.685   0.015   6.708
 7146SOL    HW122337   1.587   0.013   6.728
 7146SOL    HW222338   1.737   7.017   6.790
 7147SOL     OW22339   0.156   6.561   3.002
 7147SOL    HW122340   0.099   6.643   2.999
 7147SOL    HW222341   0.103   6.485   3.040
 7148SOL     OW22342   6.404   6.096   1.222
 7148SOL    HW122343   6.430   6.193   1.219
 7148SOL    HW222344   6.306   6.090   1.244
 7149SOL     OW22345   0.199   6.311   4.267
 7149SOL    HW122346   0.278   6.251   4.282
 7149SOL    HW222347   0.140   6.310   4.348
 7150SOL     OW22348   3.729   3.168   0.744
 7150SOL    HW122349   3.774   3.179   0.655
 7150SOL    HW222350   3.724   3.256   0.790
 7151SOL     OW22351   3.451   6.406   0.666
 7151SOL    HW122352   3.439   6.502   0.641
 7151SOL    HW222353   3.454   6.398   0.766
 7152SOL     OW22354   6.776   0.731   5.457
 7152SOL    HW122355   6.776   0.811   5.397
 7152SOL    HW222356   6.862   0.727   5.508
 7153SOL     OW22357   3.896   5.245   1.563
 7153SOL    HW122358   3.820   5.291   1.518
 7153SOL    HW222359   3.960   5.211   1.495
 7154SOL     OW22360   4.954   6.350   3.267
 7154SOL    HW122361   4.954   6.271   3.207
 7154SOL    HW222362   4.867   6.355   3.315
 7155SOL     OW22363   2.958   3.408   1.057
 7155SOL    HW122364   2.874   3.355   1.066
 7155SOL    HW222365   3.017   3.365   0.989
 7156SOL     OW22366   6.993   3.695   2.718
 7156SOL    HW122367   7.007   3.759   2.793
 7156SOL    HW222368   6.949   3.612   2.754
 7157SOL     OW22369   0.436   4.758   1.469
 7157SOL    HW122370   0.522   4.710   1.450
 7157SOL    HW222371   0.455   4.838   1.527
 7158SOL     OW22372   0.698   0.405   4.293
 7158SOL    HW122373   0.717   0.459   4.375
 7158SOL    HW222374   0.741   0.315   4.303
 7159SOL     OW22375   0.994   4.714   3.822
 7159SOL    HW122376   1.084   4.736   3.859
 7159SOL    HW222377   0.946   4.653   3.885
 7160SOL     OW22378   5.549   0.159   2.856
 7160SOL    HW122379   5.532   0.236   2.794
 7160SOL    HW222380   5.507   0.076   2.820
 7161SOL     OW22381   3.342   4.124   2.883
 7161SOL    HW122382   3.319   4.198   2.946
 7161SOL    HW222383   3.283   4.131   2.802
 7162SOL     OW22384   1.395   5.423   6.174
 7162SOL    HW122385   1.407   5.427   6.075
 7162SOL    HW222386   1.369   5.330   6.201
 7163SOL     OW22387   2.695   0.273   2.658
 7163SOL    HW122388   2.773   0.211   2.656
 7163SOL    HW222389   2.664   0.292   2.564
 7164SOL     OW22390   2.708   0.100   5.070
 7164SOL    HW122391   2.675   0.019   5.023
 7164SOL    HW222392   2.664   0.181   5.032
 7165SOL     OW22393   6.116   6.439   2.075
 7165SOL    HW122394   6.205   6.479   2.098
 7165SOL    HW222395   6.043   6.492   2.118
 7166SOL     OW22396   4.824   1.971   1.100
 7166SOL    HW122397   4.835   1.930   1.009
 7166SOL    HW222398   4.867   1.912   1.169
 7167SOL     OW22399   5.329   3.336   4.592
 7167SOL    HW122400   5.234   3.357   4.568
 7167SOL    HW222401   5.358   3.396   4.666
 7168SOL     OW22402   2.059   2.746   3.617
 7168SOL    HW122403   2.011   2.825   3.579
 7168SOL    HW222404   2.147   2.775   3.654
 7169SOL     OW22405   7.003   3.734   5.669
 7169SOL    HW122406   6.948   3.747   5.587
 7169SOL    HW222407   6.995   3.815   5.728
 7170SOL     OW22408   4.666   6.779   2.399
 7170SOL    HW122409   4.583   6.786   2.345
 7170SOL    HW222410   4.649   6.815   2.491
 7171SOL     OW22411   6.279   4.004   0.182
 7171SOL    HW122412   6.314   3.959   0.264
 7171SOL    HW222413   6.286   3.941   0.104
 7172SOL     OW22414   2.109   6.963   4.803
 7172SOL    HW122415   2.028   7.013   4.832
 7172SOL    HW222416   2.083   6.894   4.735
 7173SOL     OW22417   6.492   4.252   6.854
 7173SOL    HW122418   6.487   4.274   6.951
 7173SOL    HW222419   6.401   4.261   6.813
 7174SOL     OW22420   1.164   3.870   0.790
 7174SOL    HW122421   1.167   3.918   0.703
 7174SOL    HW222422   1.073   3.829   0.802
 7175SOL     OW22423   5.703   3.090   5.031
 7175SOL    HW122424   5.751   3.029   4.968
 7175SOL    HW222425   5.614   3.114   4.993
 7176SOL     OW22426   0.037   1.371   3.294
 7176SOL    HW122427   0.102   1.346   3.366
 7176SOL    HW222428   0.083   1.431   3.228
 7177SOL     OW22429   1.178   4.623   5.044
 7177SOL    HW122430   1.149   4.583   4.957
 7177SOL    HW222431   1.104   4.616   5.110
 7178SOL     OW22432   6.617   1.979   5.606
 7178SOL    HW122433   6.693   1.938   5.556
 7178SOL    HW222434   6.621   1.950   5.702
 7179SOL     OW22435   1.747   3.383   4.854
 7179SOL    HW122436   1.719   3.451   4.786
 7179SOL    HW222437   1.830   3.414   4.900
 7180SOL     OW22438   2.460   4.832   0.183
 7180SOL    HW122439   2.376   4.796   0.222
 7180SOL    HW222440   2.464   4.812   0.085
 7181SOL     OW22441   2.339   0.303   0.104
 7181SOL    HW122442   2.282   0.349   0.172
 7181SOL    HW222443   2.428   0.281   0.145
 7182SOL     OW22444   0.039   3.807   4.146
 7182SOL    HW122445   6.986   3.780   4.201
 7182SOL    HW222446   0.104   3.857   4.204
 7183SOL     OW22447   1.949   5.789   1.242
 7183SOL    HW122448   1.951   5.872   1.298
 7183SOL    HW222449   2.030   5.785   1.184
 7184SOL     OW22450   6.776   1.402   4.087
 7184SOL    HW122451   6.699   1.454   4.050
 7184SOL    HW222452   6.778   1.413   4.186
 7185SOL     OW22453   5.410   0.757   5.386
 7185SOL    HW122454   5.373   0.850   5.389
 7185SOL    HW222455   5.510   0.761   5.391
 7186SOL     OW22456   6.506   2.130   2.073
 7186SOL    HW122457   6.408   2.124   2.092
 7186SOL    HW222458   6.525   2.216   2.026
 7187SOL     OW22459   3.221   4.173   5.174
 7187SOL    HW122460   3.129   4.180   5.135
 7187SOL    HW222461   3.235   4.081   5.211
 7188SOL     OW22462   5.358   6.210   6.556
 7188SOL    HW122463   5.265   6.179   6.574
 7188SOL    HW222464   5.380   6.288   6.615
 7189SOL     OW22465   6.460   1.308   5.578
 7189SOL    HW122466   6.476   1.354   5.490
 7189SOL    HW222467   6.506   1.220   5.578
 7190SOL     OW22468   6.706   5.360   1.702
 7190SOL    HW122469   6.687   5.265   1.677
 7190SOL    HW222470   6.620   5.406   1.725
 7191SOL     OW22471   1.550   4.855   2.412
 7191SOL    HW122472   1.487   4.817   2.344
 7191SOL    HW222473   1.636   4.881   2.367
 7192SOL     OW22474   1.985   4.199   5.849
 7192SOL    HW122475   1.966   4.125   5.784
 7192SOL    HW222476   2.065   4.250   5.818
 7193SOL     OW22477   1.662   2.338   2.107
 7193SOL    HW122478   1.607   2.421   2.096
 7193SOL    HW222479   1.723   2.328   2.029
 7194SOL     OW22480   1.911   2.629   0.720
 7194SOL    HW122481   1.889   2.546   0.771
 7194SOL    HW222482   1.842   2.699   0.739
 7195SOL     OW22483   0.661   4.040   0.223
 7195SOL    HW122484   0.620   4.001   0.141
 7195SOL    HW222485   0.758   4.054   0.208
 7196SOL     OW22486   2.156   3.680   1.787
 7196SOL    HW122487   2.188   3.764   1.831
 7196SOL    HW222488   2.178   3.602   1.846
 7197SOL     OW22489   0.533   3.117   5.297
 7197SOL    HW122490   0.606   3.117   5.366
 7197SOL    HW222491   0.518   3.024   5.264
 7198SOL     OW22492   0.662   1.059   0.906
 7198SOL    HW122493   0.675   1.134   0.841
 7198SOL    HW222494   0.565   1.052   0.929
 7199SOL     OW22495   1.145   0.236   1.961
 7199SOL    HW122496   1.214   0.165   1.943
 7199SOL    HW222497   1.191   0.319   1.993
 7200SOL     OW22498   1.919   2.788   6.766
 7200SOL    HW122499   1.897   2.843   6.685
 7200SOL    HW222500   2.003   2.736   6.749
 7201SOL     OW22501   0.783   5.877   4.061
 7201SOL    HW122502   0.879   5.849   4.056
 7201SOL    HW222503   0.774   5.954   4.124
 7202SOL     OW22504   4.875   6.558   6.774
 7202SOL    HW122505   4.841   6.479   6.723
 7202SOL    HW222506   4.862   6.641   6.719
 7203SOL     OW22507   6.766   1.099   1.010
 7203SOL    HW122508   6.692   1.143   0.958
 7203SOL    HW222509   6.731   1.068   1.098
 7204SOL     OW22510   0.464   0.985   6.046
 7204SOL    HW122511   0.422   0.918   5.985
 7204SOL    HW222512   0.427   0.973   6.138
 7205SOL     OW22513   1.636   3.856   5.075
 7205SOL    HW122514   1.648   3.890   4.982
 7205SOL    HW222515   1.592   3.766   5.072
 7206SOL     OW22516   1.268   0.143   2.239
 7206SOL    HW122517   1.233   0.107   2.325
 7206SOL    HW222518   1.318   0.228   2.255
 7207SOL     OW22519   3.348   0.300   3.681
 7207SOL    HW122520   3.270   0.304   3.619
 7207SOL    HW222521   3.419   0.364   3.651
 7208SOL     OW22522   4.239   0.116   3.782
 7208SOL    HW122523   4.281   0.157   3.701
 7208SOL    HW222524   4.151   0.160   3.800
 7209SOL     OW22525   2.769   3.240   1.803
 7209SOL    HW122526   2.822   3.168   1.758
 7209SOL    HW222527   2.831   3.314   1.830
 7210SOL     OW22528   3.877   0.675   2.730
 7210SOL    HW122529   3.969   0.665   2.768
 7210SOL    HW222530   3.826   0.741   2.785
 7211SOL     OW22531   1.706   6.338   4.941
 7211SOL    HW122532   1.722   6.435   4.962
 7211SOL    HW222533   1.753   6.281   5.009
 7212SOL     OW22534   0.086   6.307   5.222
 7212SOL    HW122535   0.003   6.284   5.172
 7212SOL    HW222536   0.063   6.325   5.318
 7213SOL     OW22537   3.887   6.134   6.353
 7213SOL    HW122538   3.963   6.074   6.327
 7213SOL    HW222539   3.858   6.113   6.446
 7214SOL     OW22540   6.959   0.201   4.639
 7214SOL    HW122541   6.947   0.193   4.738
 7214SOL    HW222542   6.942   0.111   4.597
 7215SOL     OW22543   6.996   3.325   3.927
 7215SOL    HW122544   6.920   3.322   3.862
 7215SOL    HW222545   0.033   3.250   3.907
 7216SOL     OW22546   3.593   0.030   0.735
 7216SOL    HW122547   3.666   0.047   0.801
 7216SOL    HW222548   3.567   0.117   0.692
 7217SOL     OW22549   1.922   4.012   3.216
 7217SOL    HW122550   1.877   3.933   3.174
 7217SOL    HW222551   2.021   4.007   3.199
 7218SOL     OW22552   6.467   2.843   4.264
 7218SOL    HW122553   6.375   2.881   4.256
 7218SOL    HW222554   6.503   2.822   4.173
 7219SOL     OW22555   3.706   0.245   3.136
 7219SOL    HW122556   3.777   0.177   3.117
 7219SOL    HW222557   3.669   0.229   3.228
 7220SOL     OW22558   6.971   4.191   4.686
 7220SOL    HW122559   0.021   4.127   4.696
 7220SOL    HW222560   6.938   4.190   4.591
 7221SOL     OW22561   3.540   5.768   4.642
 7221SOL    HW122562   3.460   5.787   4.585
 7221SOL    HW222563   3.566   5.672   4.633
 7222SOL     OW22564   6.144   6.759   3.529
 7222SOL    HW122565   6.222   6.781   3.470
 7222SOL    HW222566   6.163   6.791   3.622
 7223SOL     OW22567   3.453   1.344   0.883
 7223SOL    HW122568   3.538   1.318   0.836
 7223SOL    HW222569   3.465   1.335   0.982
 7224SOL     OW22570   5.300   1.878   3.937
 7224SOL    HW122571   5.300   1.946   4.010
 7224SOL    HW222572   5.289   1.924   3.848
 7225SOL     OW22573   1.451   6.165   0.364
 7225SOL    HW122574   1.435   6.262   0.345
 7225SOL    HW222575   1.534   6.155   0.420
 7226SOL     OW22576   5.664   0.302   1.992
 7226SOL    HW122577   5.605   0.284   2.070
 7226SOL    HW222578   5.689   0.399   1.990
 7227SOL     OW22579   2.981   1.972   0.925
 7227SOL    HW122580   2.927   1.941   1.003
 7227SOL    HW222581   3.078   1.977   0.951
 7228SOL     OW22582   1.030   2.158   2.599
 7228SOL    HW122583   0.991   2.248   2.621
 7228SOL    HW222584   1.083   2.125   2.677
 7229SOL     OW22585   1.036   5.989   5.992
 7229SOL    HW122586   1.031   6.065   5.927
 7229SOL    HW222587   1.107   5.925   5.964
 7230SOL     OW22588   3.806   5.210   5.264
 7230SOL    HW122589   3.862   5.239   5.186
 7230SOL    HW222590   3.772   5.117   5.248
 7231SOL     OW22591   4.031   0.558   6.714
 7231SOL    HW122592   3.998   0.546   6.807
 7231SOL    HW222593   4.091   0.482   6.689
 7232SOL     OW22594   5.025   5.579   2.659
 7232SOL    HW122595   5.023   5.678   2.653
 7232SOL    HW222596   4.934   5.542   2.645
 7233SOL     OW22597   1.226   1.272   3.795
 7233SOL    HW122598   1.162   1.253   3.721
 7233SOL    HW222599   1.309   1.218   3.783
 7234SOL     OW22600   5.181   2.407   3.593
 7234SOL    HW122601   5.231   2.410   3.679
 7234SOL    HW222602   5.229   2.348   3.528
 7235SOL     OW22603   0.038   4.939   2.587
 7235SOL    HW122604   0.028   4.990   2.502
 7235SOL    HW222605   6.997   4.865   2.591
 7236SOL     OW22606   2.620   1.891   1.740
 7236SOL    HW122607   2.700   1.908   1.798
 7236SOL    HW222608   2.650   1.882   1.645
 7237SOL     OW22609   3.773   0.359   4.277
 7237SOL    HW122610   3.868   0.357   4.246
 7237SOL    HW222611   3.744   0.267   4.305
 7238SOL     OW22612   4.284   1.940   6.935
 7238SOL    HW122613   4.216   1.867   6.944
 7238SOL    HW222614   4.286   1.994   7.019
 7239SOL     OW22615   0.818   2.140   2.257
 7239SOL    HW122616   0.911   2.112   2.233
 7239SOL    HW222617   0.811   2.240   2.256
 7240SOL     OW22618   1.229   0.868   6.192
 7240SOL    HW122619   1.154   0.903   6.248
 7240SOL    HW222620   1.279   0.798   6.243
 7241SOL     OW22621   2.027   0.346   1.017
 7241SOL    HW122622   2.115   0.299   1.009
 7241SOL    HW222623   2.033   0.437   0.977
 7242SOL     OW22624   6.850   5.863   6.896
 7242SOL    HW122625   6.911   5.894   6.824
 7242SOL    HW222626   6.861   5.922   6.977
 7243SOL     OW22627   6.535   4.183   6.451
 7243SOL    HW122628   6.493   4.093   6.459
 7243SOL    HW222629   6.568   4.196   6.358
 7244SOL     OW22630   6.667   0.621   2.050
 7244SOL    HW122631   6.750   0.611   2.105
 7244SOL    HW222632   6.587   0.600   2.106
 7245SOL     OW22633   1.967   2.983   5.281
 7245SOL    HW122634   2.053   3.034   5.280
 7245SOL    HW222635   1.894   3.041   5.245
 7246SOL     OW22636   0.830   0.121   3.965
 7246SOL    HW122637   0.855   0.213   3.998
 7246SOL    HW222638   0.791   0.128   3.873
 7247SOL     OW22639   2.559   1.160   4.442
 7247SOL    HW122640   2.651   1.174   4.407
 7247SOL    HW222641   2.544   1.219   4.521
 7248SOL     OW22642   2.526   1.239   3.269
 7248SOL    HW122643   2.559   1.273   3.357
 7248SOL    HW222644   2.530   1.313   3.201
 7249SOL     OW22645   6.337   5.156   2.238
 7249SOL    HW122646   6.250   5.117   2.208
 7249SOL    HW222647   6.320   5.223   2.310
 7250SOL     OW22648   5.449   6.099   5.998
 7250SOL    HW122649   5.460   6.095   6.097
 7250SOL    HW222650   5.465   6.192   5.966
 7251SOL     OW22651   0.432   6.337   5.480
 7251SOL    HW122652   0.475   6.276   5.413
 7251SOL    HW222653   0.441   6.298   5.571
 7252SOL     OW22654   4.027   3.082   2.203
 7252SOL    HW122655   4.069   2.997   2.233
 7252SOL    HW222656   4.074   3.159   2.246
 7253SOL     OW22657   1.451   6.061   6.523
 7253SOL    HW122658   1.444   5.977   6.577
 7253SOL    HW222659   1.479   6.038   6.430
 7254SOL     OW22660   5.143   5.080   4.351
 7254SOL    HW122661   5.052   5.065   4.314
 7254SOL    HW222662   5.199   5.128   4.284
 7255SOL     OW22663   3.648   4.089   0.964
 7255SOL    HW122664   3.698   4.008   0.992
 7255SOL    HW222665   3.711   4.156   0.923
 7256SOL     OW22666   3.242   5.678   4.858
 7256SOL    HW122667   3.216   5.621   4.780
 7256SOL    HW222668   3.328   5.643   4.896
 7257SOL     OW22669   5.524   1.722   3.049
 7257SOL    HW122670   5.521   1.649   3.118
 7257SOL    HW222671   5.491   1.685   2.961
 7258SOL     OW22672   4.931   1.643   2.726
 7258SOL    HW122673   4.956   1.719   2.786
 7258SOL    HW222674   4.973   1.657   2.636
 7259SOL     OW22675   2.085   3.690   0.763
 7259SOL    HW122676   2.164   3.734   0.804
 7259SOL    HW222677   2.001   3.735   0.796
 7260SOL     OW22678   4.134   2.027   1.330
 7260SOL    HW122679   4.216   1.978   1.357
 7260SOL    HW222680   4.084   2.057   1.411
 7261SOL     OW22681   1.452   2.992   1.307
 7261SOL    HW122682   1.444   3.053   1.228
 7261SOL    HW222683   1.527   3.023   1.366
 7262SOL     OW22684   5.124   2.640   6.358
 7262SOL    HW122685   5.031   2.619   6.388
 7262SOL    HW222686   5.120   2.692   6.272
 7263SOL     OW22687   1.337   0.194   7.000
 7263SOL    HW122688   1.275   0.154   0.041
 7263SOL    HW222689   1.431   0.167   7.020
 7264SOL     OW22690   4.963   2.127   6.761
 7264SOL    HW122691   4.912   2.041   6.763
 7264SOL    HW222692   4.900   2.203   6.743
 7265SOL     OW22693   5.737   5.191   5.562
 7265SOL    HW122694   5.756   5.099   5.597
 7265SOL    HW222695   5.694   5.246   5.634
 7266SOL     OW22696   5.644   6.331   1.918
 7266SOL    HW122697   5.609   6.404   1.860
 7266SOL    HW222698   5.631   6.243   1.872
 7267SOL     OW22699   6.362   6.351   5.057
 7267SOL    HW122700   6.399   6.421   4.995
 7267SOL    HW222701   6.262   6.346   5.045
 7268SOL     OW22702   6.232   5.186   3.502
 7268SOL    HW122703   6.167   5.235   3.560
 7268SOL    HW222704   6.313   5.242   3.487
 7269SOL     OW22705   6.903   6.479   6.531
 7269SOL    HW122706   6.981   6.433   6.489
 7269SOL    HW222707   6.824   6.419   6.528
 7270SOL     OW22708   1.782   3.475   5.559
 7270SOL    HW122709   1.749   3.568   5.570
 7270SOL    HW222710   1.827   3.465   5.470
 7271SOL     OW22711   0.470   6.388   3.419
 7271SOL    HW122712   0.523   6.472   3.403
 7271SOL    HW222713   0.419   6.397   3.505
 7272SOL     OW22714   6.200   5.585   2.433
 7272SOL    HW122715   6.163   5.552   2.520
 7272SOL    HW222716   6.196   5.511   2.365
 7273SOL     OW22717   6.628   4.818   1.863
 7273SOL    HW122718   6.581   4.733   1.884
 7273SOL    HW222719   6.659   4.817   1.768
 7274SOL     OW22720   0.438   5.301   6.516
 7274SOL    HW122721   0.478   5.357   6.444
 7274SOL    HW222722   0.435   5.206   6.487
 7275SOL     OW22723   0.212   6.140   2.380
 7275SOL    HW122724   0.155   6.193   2.318
 7275SOL    HW222725   0.244   6.199   2.455
 7276SOL     OW22726   3.746   0.948   3.550
 7276SOL    HW122727   3.825   0.990   3.506
 7276SOL    HW222728   3.715   1.005   3.626
 7277SOL     OW22729   4.245   0.731   4.064
 7277SOL    HW122730   4.231   0.720   3.966
 7277SOL    HW222731   4.168   0.692   4.114
 7278SOL     OW22732   3.457   2.739   1.275
 7278SOL    HW122733   3.522   2.664   1.265
 7278SOL    HW222734   3.466   2.778   1.367
 7279SOL     OW22735   4.363   4.152   6.039
 7279SOL    HW122736   4.441   4.184   5.986
 7279SOL    HW222737   4.308   4.090   5.984
 7280SOL     OW22738   0.412   1.559   3.598
 7280SOL    HW122739   0.481   1.503   3.645
 7280SOL    HW222740   0.342   1.586   3.663
 7281SOL     OW22741   1.970   1.254   0.555
 7281SOL    HW122742   2.062   1.230   0.524
 7281SOL    HW222743   1.925   1.310   0.485
 7282SOL     OW22744   6.112   5.691   1.819
 7282SOL    HW122745   6.163   5.776   1.803
 7282SOL    HW222746   6.016   5.706   1.796
 7283SOL     OW22747   4.847   0.495   2.525
 7283SOL    HW122748   4.879   0.554   2.600
 7283SOL    HW222749   4.869   0.538   2.438
 7284SOL     OW22750   0.440   2.516   5.652
 7284SOL    HW122751   0.429   2.468   5.565
 7284SOL    HW222752   0.351   2.555   5.679
 7285SOL     OW22753   5.417   3.196   2.553
 7285SOL    HW122754   5.318   3.200   2.536
 7285SOL    HW222755   5.453   3.110   2.516
 7286SOL     OW22756   2.226   1.077   0.984
 7286SOL    HW122757   2.190   1.138   1.054
 7286SOL    HW222758   2.232   1.126   0.897
 7287SOL     OW22759   0.572   2.488   5.283
 7287SOL    HW122760   0.576   2.582   5.316
 7287SOL    HW222761   0.540   2.487   5.188
 7288SOL     OW22762   1.748   1.448   1.968
 7288SOL    HW122763   1.680   1.427   2.038
 7288SOL    HW222764   1.745   1.378   1.897
 7289SOL     OW22765   5.934   1.859   4.043
 7289SOL    HW122766   5.968   1.806   3.965
 7289SOL    HW222767   5.859   1.810   4.087
 7290SOL     OW22768   3.521   1.824   5.456
 7290SOL    HW122769   3.468   1.889   5.403
 7290SOL    HW222770   3.559   1.871   5.537
 7291SOL     OW22771   0.762   0.085   0.100
 7291SOL    HW122772   0.855   0.081   0.063
 7291SOL    HW222773   0.714   0.162   0.057
 7292SOL     OW22774   3.094   0.467   3.285
 7292SOL    HW122775   3.072   0.511   3.198
 7292SOL    HW222776   3.014   0.468   3.344
 7293SOL     OW22777   1.520   2.044   4.828
 7293SOL    HW122778   1.559   2.097   4.902
 7293SOL    HW222779   1.534   2.092   4.741
 7294SOL     OW22780   2.620   4.649   6.876
 7294SOL    HW122781   2.708   4.658   6.922
 7294SOL    HW222782   2.591   4.553   6.880
 7295SOL     OW22783   6.133   3.767   1.217
 7295SOL    HW122784   6.163   3.861   1.231
 7295SOL    HW222785   6.100   3.756   1.123
 7296SOL     OW22786   3.248   6.331   1.754
 7296SOL    HW122787   3.263   6.265   1.828
 7296SOL    HW222788   3.187   6.291   1.686
 7297SOL     OW22789   3.430   0.013   1.480
 7297SOL    HW122790   3.513   0.014   1.535
 7297SOL    HW222791   3.432   0.091   1.417
 7298SOL     OW22792   4.789   4.989   5.749
 7298SOL    HW122793   4.798   5.072   5.804
 7298SOL    HW222794   4.761   5.014   5.656
 7299SOL     OW22795   0.785   2.582   1.246
 7299SOL    HW122796   0.872   2.547   1.283
 7299SOL    HW222797   0.744   2.512   1.188
 7300SOL     OW22798   0.573   6.903   2.226
 7300SOL    HW122799   0.573   6.988   2.278
 7300SOL    HW222800   0.635   6.837   2.269
 7301SOL     OW22801   6.111   1.608   4.532
 7301SOL    HW122802   6.096   1.563   4.444
 7301SOL    HW222803   6.208   1.629   4.542
 7302SOL     OW22804   1.048   2.364   5.559
 7302SOL    HW122805   0.976   2.298   5.581
 7302SOL    HW222806   1.110   2.372   5.637
 7303SOL     OW22807   4.219   0.936   0.005
 7303SOL    HW122808   4.278   0.857   7.015
 7303SOL    HW222809   4.253   0.986   0.085
 7304SOL     OW22810   3.054   5.667   1.675
 7304SOL    HW122811   3.115   5.721   1.616
 7304SOL    HW222812   3.048   5.574   1.639
 7305SOL     OW22813   5.356   1.371   0.791
 7305SOL    HW122814   5.425   1.419   0.736
 7305SOL    HW222815   5.320   1.433   0.861
 7306SOL     OW22816   4.298   1.664   1.392
 7306SOL    HW122817   4.208   1.701   1.416
 7306SOL    HW222818   4.350   1.648   1.475
 7307SOL     OW22819   2.245   6.911   2.878
 7307SOL    HW122820   2.162   6.962   2.860
 7307SOL    HW222821   2.225   6.813   2.877
 7308SOL     OW22822   0.177   2.674   4.998
 7308SOL    HW122823   0.207   2.760   5.038
 7308SOL    HW222824   0.249   2.638   4.938
 7309SOL     OW22825   4.077   4.685   0.476
 7309SOL    HW122826   4.164   4.724   0.506
 7309SOL    HW222827   4.094   4.611   0.410
 7310SOL     OW22828   2.472   4.068   0.259
 7310SOL    HW122829   2.552   4.108   0.214
 7310SOL    HW222830   2.411   4.140   0.290
 7311SOL     OW22831   1.699   1.875   1.474
 7311SOL    HW122832   1.784   1.832   1.444
 7311SOL    HW222833   1.703   1.974   1.456
 7312SOL     OW22834   1.044   3.259   4.886
 7312SOL    HW122835   1.137   3.281   4.912
 7312SOL    HW222836   1.044   3.184   4.820
 7313SOL     OW22837   2.442   0.998   1.123
 7313SOL    HW122838   2.412   0.945   1.203
 7313SOL    HW222839   2.362   1.029   1.071
 7314SOL     OW22840   0.218   4.952   6.208
 7314SOL    HW122841   0.219   4.878   6.141
 7314SOL    HW222842   0.142   4.939   6.270
 7315SOL     OW22843   6.262   5.936   1.769
 7315SOL    HW122844   6.249   5.923   1.868
 7315SOL    HW222845   6.341   5.995   1.754
 7316SOL     OW22846   3.768   3.535   6.481
 7316SOL    HW122847   3.860   3.573   6.491
 7316SOL    HW222848   3.762   3.448   6.529
 7317SOL     OW22849   4.400   1.625   2.128
 7317SOL    HW122850   4.355   1.669   2.050
 7317SOL    HW222851   4.435   1.695   2.191
 7318SOL     OW22852   2.624   0.342   1.683
 7318SOL    HW122853   2.712   0.309   1.648
 7318SOL    HW222854   2.637   0.430   1.728
 7319SOL     OW22855   6.836   3.694   6.977
 7319SOL    HW122856   6.813   3.789   6.955
 7319SOL    HW222857   6.753   3.645   7.002
 7320SOL     OW22858   1.084   3.711   2.317
 7320SOL    HW122859   1.026   3.747   2.390
 7320SOL    HW222860   1.126   3.626   2.346
 7321SOL     OW22861   1.291   6.539   6.167
 7321SOL    HW122862   1.269   6.474   6.239
 7321SOL    HW222863   1.390   6.547   6.159
 7322SOL     OW22864   6.965   2.873   3.019
 7322SOL    HW122865   6.870   2.903   3.024
 7322SOL    HW222866   7.026   2.952   3.019
 7323SOL     OW22867   2.114   2.650   1.089
 7323SOL    HW122868   2.166   2.702   1.157
 7323SOL    HW222869   2.125   2.552   1.107
 7324SOL     OW22870   5.591   6.037   1.290
 7324SOL    HW122871   5.668   6.079   1.244
 7324SOL    HW222872   5.553   6.101   1.357
 7325SOL     OW22873   2.811   0.482   6.449
 7325SOL    HW122874   2.809   0.383   6.439
 7325SOL    HW222875   2.718   0.517   6.464
 7326SOL     OW22876   2.681   6.394   6.706
 7326SOL    HW122877   2.641   6.372   6.617
 7326SOL    HW222878   2.760   6.454   6.693
 7327SOL     OW22879   5.995   2.088   5.865
 7327SOL    HW122880   5.900   2.062   5.885
 7327SOL    HW222881   6.025   2.157   5.931
 7328SOL     OW22882   3.842   0.438   6.294
 7328SOL    HW122883   3.916   0.487   6.339
 7328SOL    HW222884   3.881   0.367   6.235
 7329SOL     OW22885   0.834   3.770   0.964
 7329SOL    HW122886   0.879   3.831   1.029
 7329SOL    HW222887   0.740   3.799   0.949
 7330SOL     OW22888   1.666   2.773   0.042
 7330SOL    HW122889   1.642   2.789   6.972
 7330SOL    HW222890   1.764   2.756   0.049
 7331SOL     OW22891   5.311   6.273   1.219
 7331SOL    HW122892   5.242   6.329   1.265
 7331SOL    HW222893   5.319   6.185   1.266
 7332SOL     OW22894   3.090   5.847   6.817
 7332SOL    HW122895   3.023   5.797   6.762
 7332SOL    HW222896   3.046   5.883   6.899
 7333SOL     OW22897   6.542   3.178   2.998
 7333SOL    HW122898   6.461   3.193   2.941
 7333SOL    HW222899   6.531   3.225   3.085
 7334SOL     OW22900   1.755   5.732   6.345
 7334SOL    HW122901   1.735   5.653   6.403
 7334SOL    HW222902   1.811   5.704   6.267
 7335SOL     OW22903   0.639   2.904   3.404
 7335SOL    HW122904   0.582   2.868   3.330
 7335SOL    HW222905   0.735   2.907   3.375
 7336SOL     OW22906   1.829   6.511   2.617
 7336SOL    HW122907   1.897   6.547   2.555
 7336SOL    HW222908   1.760   6.460   2.565
 7337SOL     OW22909   0.697   3.287   1.103
 7337SOL    HW122910   0.772   3.247   1.156
 7337SOL    HW222911   0.619   3.303   1.164
 7338SOL     OW22912   4.799   1.659   2.057
 7338SOL    HW122913   4.745   1.727   2.107
 7338SOL    HW222914   4.739   1.609   1.994
 7339SOL     OW22915   6.018   0.778   4.529
 7339SOL    HW122916   5.990   0.844   4.599
 7339SOL    HW222917   6.044   0.692   4.573
 7340SOL     OW22918   3.272   1.360   0.467
 7340SOL    HW122919   3.295   1.297   0.541
 7340SOL    HW222920   3.320   1.332   0.383
 7341SOL     OW22921   0.413   4.433   5.971
 7341SOL    HW122922   0.442   4.490   6.048
 7341SOL    HW222923   0.475   4.355   5.962
 7342SOL     OW22924   0.150   0.801   0.386
 7342SOL    HW122925   0.095   0.868   0.335
 7342SOL    HW222926   0.092   0.755   0.453
 7343SOL     OW22927   6.313   4.617   2.129
 7343SOL    HW122928   6.213   4.624   2.132
 7343SOL    HW222929   6.343   4.613   2.034
 7344SOL     OW22930   0.780   1.049   6.035
 7344SOL    HW122931   0.820   1.063   6.126
 7344SOL    HW222932   0.686   1.017   6.045
 7345SOL     OW22933   5.165   5.152   5.334
 7345SOL    HW122934   5.086   5.194   5.378
 7345SOL    HW222935   5.147   5.055   5.317
 7346SOL     OW22936   4.446   5.181   1.579
 7346SOL    HW122937   4.521   5.157   1.641
 7346SOL    HW222938   4.482   5.228   1.499
 7347SOL     OW22939   0.255   2.450   0.704
 7347SOL    HW122940   0.262   2.538   0.752
 7347SOL    HW222941   0.300   2.379   0.758
 7348SOL     OW22942   1.550   3.814   4.351
 7348SOL    HW122943   1.457   3.797   4.384
 7348SOL    HW222944   1.564   3.912   4.338
 7349SOL     OW22945   4.854   1.747   1.491
 7349SOL    HW122946   4.793   1.795   1.428
 7349SOL    HW222947   4.899   1.813   1.551
 7350SOL     OW22948   2.142   2.859   5.736
 7350SOL    HW122949   2.056   2.810   5.721
 7350SOL    HW222950   2.145   2.939   5.675
 7351SOL     OW22951   5.027   6.877   4.901
 7351SOL    HW122952   5.105   6.859   4.840
 7351SOL    HW222953   4.943   6.881   4.848
 7352SOL     OW22954   2.136   2.256   2.982
 7352SOL    HW122955   2.072   2.245   2.905
 7352SOL    HW222956   2.155   2.166   3.022
 7353SOL     OW22957   0.766   0.751   6.415
 7353SOL    HW122958   0.784   0.771   6.511
 7353SOL    HW222959   0.713   0.666   6.409
 7354SOL     OW22960   6.924   1.829   5.749
 7354SOL    HW122961   6.837   1.789   5.776
 7354SOL    HW222962   6.969   1.770   5.682
 7355SOL     OW22963   2.145   0.823   0.812
 7355SOL    HW122964   2.130   0.890   0.885
 7355SOL    HW222965   2.229   0.845   0.763
 7356SOL     OW22966   4.161   4.064   5.850
 7356SOL    HW122967   4.063   4.063   5.868
 7356SOL    HW222968   4.177   4.070   5.752
 7357SOL     OW22969   4.302   6.620   1.562
 7357SOL    HW122970   4.278   6.641   1.467
 7357SOL    HW222971   4.239   6.668   1.624
 7358SOL     OW22972   6.135   3.641   3.093
 7358SOL    HW122973   6.106   3.623   3.187
 7358SOL    HW222974   6.235   3.641   3.089
 7359SOL     OW22975   2.389   1.701   6.597
 7359SOL    HW122976   2.358   1.789   6.564
 7359SOL    HW222977   2.480   1.681   6.561
 7360SOL     OW22978   3.085   3.916   5.371
 7360SOL    HW122979   3.045   3.914   5.463
 7360SOL    HW222980   3.145   3.837   5.360
 7361SOL     OW22981   4.422   6.783   1.916
 7361SOL    HW122982   4.376   6.694   1.917
 7361SOL    HW222983   4.495   6.783   1.848
 7362SOL     OW22984   1.570   4.854   4.889
 7362SOL    HW122985   1.533   4.904   4.810
 7362SOL    HW222986   1.664   4.825   4.869
 7363SOL     OW22987   4.267   2.165   1.773
 7363SOL    HW122988   4.232   2.251   1.736
 7363SOL    HW222989   4.305   2.181   1.864
 7364SOL     OW22990   4.474   0.786   1.761
 7364SOL    HW122991   4.447   0.840   1.681
 7364SOL    HW222992   4.487   0.690   1.734
 7365SOL     OW22993   0.975   5.585   1.824
 7365SOL    HW122994   0.992   5.522   1.900
 7365SOL    HW222995   0.954   5.534   1.741
 7366SOL     OW22996   2.299   5.563   6.633
 7366SOL    HW122997   2.209   5.592   6.601
 7366SOL    HW222998   2.310   5.465   6.616
 7367SOL     OW22999   5.116   2.337   1.143
 7367SOL    HW123000   5.144   2.261   1.084
 7367SOL    HW223001   5.114   2.307   1.238
 7368SOL     OW23002   3.797   2.925   2.657
 7368SOL    HW123003   3.807   2.849   2.593
 7368SOL    HW223004   3.758   2.892   2.743
 7369SOL     OW23005   3.889   2.897   0.187
 7369SOL    HW123006   3.986   2.872   0.180
 7369SOL    HW223007   3.840   2.823   0.233
 7370SOL     OW23008   2.388   0.428   4.524
 7370SOL    HW123009   2.344   0.498   4.468
 7370SOL    HW223010   2.449   0.373   4.466
 7371SOL     OW23011   1.997   6.499   3.657
 7371SOL    HW123012   2.008   6.596   3.677
 7371SOL    HW223013   1.919   6.463   3.707
 7372SOL     OW23014   4.433   1.419   4.337
 7372SOL    HW123015   4.370   1.377   4.272
 7372SOL    HW223016   4.423   1.519   4.334
 7373SOL     OW23017   6.197   2.106   4.034
 7373SOL    HW123018   6.099   2.121   4.044
 7373SOL    HW223019   6.247   2.187   4.063
 7374SOL     OW23020   2.626   1.881   5.537
 7374SOL    HW123021   2.545   1.828   5.562
 7374SOL    HW223022   2.706   1.847   5.587
 7375SOL     OW23023   1.975   2.713   3.264
 7375SOL    HW123024   1.988   2.691   3.167
 7375SOL    HW223025   2.026   2.649   3.320
 7376SOL     OW23026   2.660   1.101   0.595
 7376SOL    HW123027   2.636   1.180   0.539
 7376SOL    HW223028   2.747   1.063   0.563
 7377SOL     OW23029   5.712   4.608   0.465
 7377SOL    HW123030   5.796   4.563   0.495
 7377SOL    HW223031   5.664   4.550   0.399
 7378SOL     OW23032   0.151   1.119   5.846
 7378SOL    HW123033   0.241   1.077   5.836
 7378SOL    HW223034   0.134   1.139   5.942
 7379SOL     OW23035   2.932   1.734   2.966
 7379SOL    HW123036   2.856   1.669   2.957
 7379SOL    HW223037   2.946   1.781   2.880
 7380SOL     OW23038   6.682   4.532   4.480
 7380SOL    HW123039   6.693   4.563   4.575
 7380SOL    HW223040   6.585   4.532   4.456
 7381SOL     OW23041   4.436   3.926   1.383
 7381SOL    HW123042   4.387   3.854   1.431
 7381SOL    HW223043   4.476   3.990   1.449
 7382SOL     OW23044   6.754   6.137   5.704
 7382SOL    HW123045   6.763   6.077   5.624
 7382SOL    HW223046   6.734   6.230   5.673
 7383SOL     OW23047   1.776   6.707   1.350
 7383SOL    HW123048   1.683   6.737   1.330
 7383SOL    HW223049   1.833   6.786   1.369
 7384SOL     OW23050   6.067   6.940   2.662
 7384SOL    HW123051   6.074   6.899   2.570
 7384SOL    HW223052   5.970   6.947   2.687
 7385SOL     OW23053   3.824   6.335   2.103
 7385SOL    HW123054   3.919   6.311   2.124
 7385SOL    HW223055   3.763   6.267   2.143
 7386SOL     OW23056   0.631   2.092   5.949
 7386SOL    HW123057   0.552   2.149   5.969
 7386SOL    HW223058   0.710   2.149   5.930
 7387SOL     OW23059   5.507   6.496   4.331
 7387SOL    HW123060   5.544   6.424   4.273
 7387SOL    HW223061   5.582   6.552   4.366
 7388SOL     OW23062   0.321   5.021   2.209
 7388SOL    HW123063   0.366   5.106   2.180
 7388SOL    HW223064   0.223   5.039   2.221
 7389SOL     OW23065   6.519   3.895   6.515
 7389SOL    HW123066   6.606   3.893   6.565
 7389SOL    HW223067   6.533   3.859   6.423
 7390SOL     OW23068   1.053   1.915   0.235
 7390SOL    HW123069   0.959   1.924   0.267
 7390SOL    HW223070   1.060   1.836   0.175
 7391SOL     OW23071   4.052   3.797   3.982
 7391SOL    HW123072   4.048   3.839   4.073
 7391SOL    HW223073   4.095   3.707   3.989
 7392SOL     OW23074   2.298   6.209   6.901
 7392SOL    HW123075   2.380   6.266   6.914
 7392SOL    HW223076   2.237   6.220   6.980
 7393SOL     OW23077   6.141   4.559   2.823
 7393SOL    HW123078   6.143   4.540   2.921
 7393SOL    HW223079   6.046   4.568   2.793
 7394SOL     OW23080   2.320   2.825   6.168
 7394SOL    HW123081   2.257   2.853   6.096
 7394SOL    HW223082   2.409   2.803   6.128
 7395SOL     OW23083   1.543   2.492   0.967
 7395SOL    HW123084   1.562   2.451   0.878
 7395SOL    HW223085   1.598   2.574   0.979
 7396SOL     OW23086   1.268   6.753   0.924
 7396SOL    HW123087   1.364   6.760   0.897
 7396SOL    HW223088   1.216   6.829   0.884
 7397SOL     OW23089   4.412   5.048   4.781
 7397SOL    HW123090   4.411   4.978   4.710
 7397SOL    HW223091   4.413   5.138   4.739
 7398SOL     OW23092   2.376   4.690   4.640
 7398SOL    HW123093   2.382   4.733   4.731
 7398SOL    HW223094   2.469   4.677   4.604
 7399SOL     OW23095   1.010   2.498   5.322
 7399SOL    HW123096   1.092   2.555   5.328
 7399SOL    HW223097   0.997   2.450   5.408
 7400SOL     OW23098   3.784   1.967   5.333
 7400SOL    HW123099   3.710   1.954   5.399
 7400SOL    HW223100   3.760   2.042   5.272
 7401SOL     OW23101   1.741   1.819   4.654
 7401SOL    HW123102   1.703   1.912   4.652
 7401SOL    HW223103   1.749   1.784   4.560
 7402SOL     OW23104   2.872   6.076   6.411
 7402SOL    HW123105   2.831   5.988   6.385
 7402SOL    HW223106   2.833   6.149   6.355
 7403SOL     OW23107   2.138   3.561   2.408
 7403SOL    HW123108   2.132   3.462   2.396
 7403SOL    HW223109   2.148   3.604   2.318
 7404SOL     OW23110   2.548   5.280   1.528
 7404SOL    HW123111   2.596   5.348   1.472
 7404SOL    HW223112   2.452   5.307   1.538
 7405SOL     OW23113   3.846   4.919   4.309
 7405SOL    HW123114   3.834   4.956   4.217
 7405SOL    HW223115   3.930   4.866   4.314
 7406SOL     OW23116   0.348   2.623   3.537
 7406SOL    HW123117   0.430   2.631   3.480
 7406SOL    HW223118   0.361   2.675   3.621
 7407SOL     OW23119   0.946   7.011   4.786
 7407SOL    HW123120   0.904   6.961   4.862
 7407SOL    HW223121   1.027   0.033   4.818
 7408SOL     OW23122   3.256   4.028   6.963
 7408SOL    HW123123   3.240   3.936   6.998
 7408SOL    HW223124   3.291   4.022   6.869
 7409SOL     OW23125   5.826   2.254   0.139
 7409SOL    HW123126   5.805   2.162   0.104
 7409SOL    HW223127   5.797   2.322   0.071
 7410SOL     OW23128   0.010   6.969   0.789
 7410SOL    HW123129   0.046   6.876   0.783
 7410SOL    HW223130   7.005   6.986   0.882
 7411SOL     OW23131   2.045   0.034   6.175
 7411SOL    HW123132   2.080   0.011   6.085
 7411SOL    HW223133   1.946   0.016   6.178
 7412SOL     OW23134   4.924   0.332   2.124
 7412SOL    HW123135   4.897   0.244   2.085
 7412SOL    HW223136   5.014   0.358   2.089
 7413SOL     OW23137   5.435   6.054   3.699
 7413SOL    HW123138   5.499   6.107   3.754
 7413SOL    HW223139   5.430   6.093   3.607
 7414SOL     OW23140   0.422   0.928   3.845
 7414SOL    HW123141   0.378   0.895   3.928
 7414SOL    HW223142   0.356   0.930   3.770
 7415SOL     OW23143   1.484   5.138   3.512
 7415SOL    HW123144   1.465   5.046   3.477
 7415SOL    HW223145   1.549   5.184   3.450
 7416SOL     OW23146   1.846   1.242   2.705
 7416SOL    HW123147   1.835   1.336   2.674
 7416SOL    HW223148   1.906   1.239   2.785
 7417SOL     OW23149   1.600   1.197   0.358
 7417SOL    HW123150   1.589   1.117   0.418
 7417SOL    HW223151   1.518   1.253   0.361
 7418SOL     OW23152   2.351   5.986   0.259
 7418SOL    HW123153   2.378   5.974   0.163
 7418SOL    HW223154   2.373   5.903   0.310
 7419SOL     OW23155   6.663   2.983   4.382
 7419SOL    HW123156   6.582   2.944   4.338
 7419SOL    HW223157   6.737   2.915   4.382
 7420SOL     OW23158   0.453   0.258   1.254
 7420SOL    HW123159   0.472   0.162   1.234
 7420SOL    HW223160   0.370   0.287   1.207
 7421SOL     OW23161   4.095   4.373   0.766
 7421SOL    HW123162   4.136   4.343   0.679
 7421SOL    HW223163   4.018   4.433   0.747
 7422SOL     OW23164   0.429   3.050   2.489
 7422SOL    HW123165   0.497   3.045   2.562
 7422SOL    HW223166   0.392   2.959   2.472
 7423SOL     OW23167   5.755   2.790   5.680
 7423SOL    HW123168   5.793   2.701   5.706
 7423SOL    HW223169   5.827   2.859   5.680
 7424SOL     OW23170   6.350   6.346   5.582
 7424SOL    HW123171   6.379   6.309   5.493
 7424SOL    HW223172   6.403   6.428   5.602
 7425SOL     OW23173   4.110   6.020   6.716
 7425SOL    HW123174   4.025   6.054   6.677
 7425SOL    HW223175   4.112   6.041   6.814
 7426SOL     OW23176   3.238   1.696   5.600
 7426SOL    HW123177   3.170   1.641   5.552
 7426SOL    HW223178   3.319   1.708   5.542
 7427SOL     OW23179   4.280   0.824   3.616
 7427SOL    HW123180   4.242   0.782   3.533
 7427SOL    HW223181   4.374   0.792   3.629
 7428SOL     OW23182   4.334   1.861   5.370
 7428SOL    HW123183   4.315   1.801   5.447
 7428SOL    HW223184   4.313   1.956   5.394
 7429SOL     OW23185   0.320   6.417   4.537
 7429SOL    HW123186   0.309   6.474   4.619
 7429SOL    HW223187   0.236   6.366   4.520
 7430SOL     OW23188   1.354   3.160   0.387
 7430SOL    HW123189   1.285   3.100   0.429
 7430SOL    HW223190   1.312   3.248   0.364
 7431SOL     OW23191   1.593   2.796   3.574
 7431SOL    HW123192   1.679   2.820   3.529
 7431SOL    HW223193   1.612   2.744   3.657
 7432SOL     OW23194   0.792   1.231   3.207
 7432SOL    HW123195   0.730   1.222   3.129
 7432SOL    HW223196   0.833   1.142   3.228
 7433SOL     OW23197   4.267   6.162   5.825
 7433SOL    HW123198   4.197   6.205   5.882
 7433SOL    HW223199   4.357   6.173   5.868
 7434SOL     OW23200   5.183   6.150   5.678
 7434SOL    HW123201   5.193   6.158   5.579
 7434SOL    HW223202   5.170   6.053   5.702
 7435SOL     OW23203   3.565   5.793   0.667
 7435SOL    HW123204   3.558   5.716   0.730
 7435SOL    HW223205   3.612   5.764   0.583
 7436SOL     OW23206   5.123   3.785   5.777
 7436SOL    HW123207   5.063   3.707   5.755
 7436SOL    HW223208   5.152   3.828   5.692
 7437SOL     OW23209   1.964   6.108   0.121
 7437SOL    HW123210   1.873   6.083   0.089
 7437SOL    HW223211   2.029   6.035   0.099
 7438SOL     OW23212   1.259   6.139   0.142
 7438SOL    HW123213   1.334   6.116   0.203
 7438SOL    HW223214   1.294   6.189   0.063
 7439SOL     OW23215   1.746   6.447   5.678
 7439SOL    HW123216   1.697   6.412   5.758
 7439SOL    HW223217   1.688   6.437   5.597
 7440SOL     OW23218   0.104   2.501   4.379
 7440SOL    HW123219   0.166   2.580   4.381
 7440SOL    HW223220   0.037   2.511   4.453
 7441SOL     OW23221   4.889   6.687   4.220
 7441SOL    HW123222   4.811   6.725   4.270
 7441SOL    HW223223   4.960   6.757   4.211
 7442SOL     OW23224   6.396   1.358   5.828
 7442SOL    HW123225   6.416   1.342   5.732
 7442SOL    HW223226   6.370   1.454   5.841
 7443SOL     OW23227   0.004   6.336   1.892
 7443SOL    HW123228   0.081   6.383   1.849
 7443SOL    HW223229   6.966   6.403   1.930
 7444SOL     OW23230   5.626   2.247   5.676
 7444SOL    HW123231   5.584   2.311   5.611
 7444SOL    HW223232   5.599   2.154   5.652
 7445SOL     OW23233   4.047   0.739   1.159
 7445SOL    HW123234   3.955   0.703   1.174
 7445SOL    HW223235   4.049   0.795   1.077
 7446SOL     OW23236   5.810   3.471   0.877
 7446SOL    HW123237   5.893   3.428   0.911
 7446SOL    HW223238   5.794   3.557   0.926
 7447SOL     OW23239   7.010   3.092   0.003
 7447SOL    HW123240   6.929   3.147   7.009
 7447SOL    HW223241   0.057   3.153   0.035
 7448SOL     OW23242   6.245   6.694   4.938
 7448SOL    HW123243   6.167   6.677   4.877
 7448SOL    HW223244   6.321   6.635   4.912
 7449SOL     OW23245   0.705   4.114   2.066
 7449SOL    HW123246   0.671   4.160   2.148
 7449SOL    HW223247   0.677   4.018   2.068
 7450SOL     OW23248   5.194   2.674   4.872
 7450SOL    HW123249   5.206   2.579   4.845
 7450SOL    HW223250   5.152   2.726   4.798
 7451SOL     OW23251   6.822   6.755   2.918
 7451SOL    HW123252   6.919   6.755   2.942
 7451SOL    HW223253   6.767   6.755   3.001
 7452SOL     OW23254   6.041   6.834   4.519
 7452SOL    HW123255   6.054   6.772   4.597
 7452SOL    HW223256   6.064   6.787   4.434
 7453SOL     OW23257   4.728   6.634   5.925
 7453SOL    HW123258   4.703   6.682   5.841
 7453SOL    HW223259   4.754   6.700   5.995
 7454SOL     OW23260   1.076   2.441   1.804
 7454SOL    HW123261   1.154   2.394   1.846
 7454SOL    HW223262   1.005   2.456   1.873
 7455SOL     OW23263   6.516   2.757   2.092
 7455SOL    HW123264   6.470   2.718   2.013
 7455SOL    HW223265   6.602   2.798   2.064
 7456SOL     OW23266   1.000   1.342   4.071
 7456SOL    HW123267   1.057   1.331   3.990
 7456SOL    HW223268   1.052   1.313   4.152
 7457SOL     OW23269   3.578   0.372   5.853
 7457SOL    HW123270   3.636   0.316   5.912
 7457SOL    HW223271   3.482   0.348   5.869
 7458SOL     OW23272   1.231   6.197   5.648
 7458SOL    HW123273   1.141   6.192   5.691
 7458SOL    HW223274   1.301   6.167   5.713
 7459SOL     OW23275   4.472   0.315   2.170
 7459SOL    HW123276   4.531   0.277   2.241
 7459SOL    HW223277   4.410   0.243   2.137
 7460SOL     OW23278   1.193   5.209   0.775
 7460SOL    HW123279   1.098   5.209   0.746
 7460SOL    HW223280   1.220   5.301   0.803
 7461SOL     OW23281   5.749   0.707   6.235
 7461SOL    HW123282   5.816   0.648   6.190
 7461SOL    HW223283   5.664   0.707   6.183
 7462SOL     OW23284   1.904   3.894   2.485
 7462SOL    HW123285   1.890   3.815   2.545
 7462SOL    HW223286   1.828   3.899   2.420
 7463SOL     OW23287   3.014   4.972   0.564
 7463SOL    HW123288   2.948   4.933   0.499
 7463SOL    HW223289   3.102   4.983   0.518
 7464SOL     OW23290   5.374   7.025   5.618
 7464SOL    HW123291   5.411   0.092   5.614
 7464SOL    HW223292   5.279   0.001   5.647
 7465SOL     OW23293   1.970   5.503   6.967
 7465SOL    HW123294   1.961   5.486   6.869
 7465SOL    HW223295   1.909   5.578   6.993
 7466SOL     OW23296   0.319   0.934   4.882
 7466SOL    HW123297   0.271   0.899   4.963
 7466SOL    HW223298   0.341   1.031   4.895
 7467SOL     OW23299   0.738   1.429   0.896
 7467SOL    HW123300   0.679   1.509   0.904
 7467SOL    HW223301   0.739   1.380   0.983
 7468SOL     OW23302   6.057   2.667   3.258
 7468SOL    HW123303   6.015   2.612   3.330
 7468SOL    HW223304   6.118   2.735   3.299
 7469SOL     OW23305   6.226   0.448   0.834
 7469SOL    HW123306   6.230   0.505   0.752
 7469SOL    HW223307   6.195   0.503   0.911
 7470SOL     OW23308   6.399   3.901   2.812
 7470SOL    HW123309   6.314   3.889   2.762
 7470SOL    HW223310   6.403   3.994   2.849
 7471SOL     OW23311   5.203   6.690   5.727
 7471SOL    HW123312   5.244   6.677   5.637
 7471SOL    HW223313   5.122   6.749   5.719
 7472SOL     OW23314   6.058   6.975   5.357
 7472SOL    HW123315   6.114   6.901   5.320
 7472SOL    HW223316   6.040   0.016   5.285
 7473SOL     OW23317   5.950   5.456   3.391
 7473SOL    HW123318   5.958   5.556   3.385
 7473SOL    HW223319   5.993   5.425   3.476
 7474SOL     OW23320   0.745   1.538   5.909
 7474SOL    HW123321   0.755   1.615   5.973
 7474SOL    HW223322   0.676   1.560   5.841
 7475SOL     OW23323   5.088   2.672   2.405
 7475SOL    HW123324   5.047   2.695   2.316
 7475SOL    HW223325   5.041   2.592   2.443
 7476SOL     OW23326   3.171   0.304   3.966
 7476SOL    HW123327   3.228   0.314   3.884
 7476SOL    HW223328   3.182   0.212   4.002
 7477SOL     OW23329   0.442   1.403   5.572
 7477SOL    HW123330   0.358   1.375   5.525
 7477SOL    HW223331   0.504   1.445   5.507
 7478SOL     OW23332   5.684   4.228   5.716
 7478SOL    HW123333   5.778   4.245   5.747
 7478SOL    HW223334   5.629   4.199   5.794
 7479SOL     OW23335   3.880   2.193   2.370
 7479SOL    HW123336   3.860   2.234   2.281
 7479SOL    HW223337   3.804   2.209   2.432
 7480SOL     OW23338   1.442   4.298   2.394
 7480SOL    HW123339   1.416   4.213   2.348
 7480SOL    HW223340   1.361   4.340   2.435
 7481SOL     OW23341   6.176   5.617   1.017
 7481SOL    HW123342   6.214   5.696   0.970
 7481SOL    HW223343   6.170   5.637   1.115
 7482SOL     OW23344   4.749   2.671   3.182
 7482SOL    HW123345   4.732   2.762   3.221
 7482SOL    HW223346   4.690   2.604   3.226
 7483SOL     OW23347   4.831   3.014   4.340
 7483SOL    HW123348   4.861   3.103   4.375
 7483SOL    HW223349   4.822   3.020   4.240
 7484SOL     OW23350   1.548   6.769   4.863
 7484SOL    HW123351   1.647   6.763   4.871
 7484SOL    HW223352   1.513   6.838   4.927
 7485SOL     OW23353   3.248   6.950   4.508
 7485SOL    HW123354   3.296   0.007   4.482
 7485SOL    HW223355   3.157   6.949   4.467
 7486SOL     OW23356   1.996   6.478   0.413
 7486SOL    HW123357   2.019   6.405   0.477
 7486SOL    HW223358   2.076   6.536   0.398
 7487SOL     OW23359   1.891   6.996   3.465
 7487SOL    HW123360   1.819   0.037   3.447
 7487SOL    HW223361   1.850   6.905   3.473
 7488SOL     OW23362   2.660   6.316   4.455
 7488SOL    HW123363   2.706   6.376   4.521
 7488SOL    HW223364   2.727   6.276   4.393
 7489SOL     OW23365   5.823   2.534   5.400
 7489SOL    HW123366   5.779   2.621   5.380
 7489SOL    HW223367   5.808   2.471   5.324
 7490SOL     OW23368   1.222   0.066   2.498
 7490SOL    HW123369   1.206   0.146   2.556
 7490SOL    HW223370   1.258   7.017   2.554
 7491SOL     OW23371   5.286   2.682   6.992
 7491SOL    HW123372   5.342   2.605   6.962
 7491SOL    HW223373   5.190   2.653   6.998
 7492SOL     OW23374   1.689   0.550   3.333
 7492SOL    HW123375   1.636   0.569   3.250
 7492SOL    HW223376   1.655   0.607   3.408
 7493SOL     OW23377   0.411   3.328   6.687
 7493SOL    HW123378   0.383   3.424   6.695
 7493SOL    HW223379   0.405   3.284   6.777
 7494SOL     OW23380   5.242   1.375   2.736
 7494SOL    HW123381   5.297   1.312   2.681
 7494SOL    HW223382   5.171   1.415   2.678
 7495SOL     OW23383   1.769   1.978   6.746
 7495SOL    HW123384   1.808   1.958   6.836
 7495SOL    HW223385   1.712   2.060   6.752
 7496SOL     OW23386   6.354   3.761   4.224
 7496SOL    HW123387   6.348   3.860   4.237
 7496SOL    HW223388   6.449   3.735   4.209
 7497SOL     OW23389   2.710   4.333   6.405
 7497SOL    HW123390   2.796   4.287   6.386
 7497SOL    HW223391   2.722   4.398   6.480
 7498SOL     OW23392   3.049   0.556   5.283
 7498SOL    HW123393   2.983   0.622   5.247
 7498SOL    HW223394   3.137   0.569   5.238
 7499SOL     OW23395   3.497   1.104   3.398
 7499SOL    HW123396   3.503   1.041   3.321
 7499SOL    HW223397   3.585   1.152   3.408
 7500SOL     OW23398   3.192   6.012   3.041
 7500SOL    HW123399   3.260   5.961   2.989
 7500SOL    HW223400   3.106   6.016   2.990
 7501SOL     OW23401   5.203   3.674   4.903
 7501SOL    HW123402   5.200   3.642   4.997
 7501SOL    HW223403   5.110   3.685   4.868
 7502SOL     OW23404   3.089   0.498   4.708
 7502SOL    HW123405   3.047   0.575   4.659
 7502SOL    HW223406   3.019   0.447   4.757
 7503SOL     OW23407   1.718   7.009   1.093
 7503SOL    HW123408   1.696   0.071   1.051
 7503SOL    HW223409   1.640   6.947   1.083
 7504SOL     OW23410   0.894   6.564   3.553
 7504SOL    HW123411   0.918   6.467   3.543
 7504SOL    HW223412   0.937   6.617   3.480
 7505SOL     OW23413   1.715   3.120   5.986
 7505SOL    HW123414   1.676   3.212   5.983
 7505SOL    HW223415   1.787   3.112   5.917
 7506SOL     OW23416   4.962   1.321   3.435
 7506SOL    HW123417   4.948   1.255   3.362
 7506SOL    HW223418   5.057   1.316   3.467
 7507SOL     OW23419   6.842   1.456   2.765
 7507SOL    HW123420   6.921   1.498   2.810
 7507SOL    HW223421   6.873   1.392   2.695
 7508SOL     OW23422   1.506   6.947   1.565
 7508SOL    HW123423   1.476   6.906   1.478
 7508SOL    HW223424   1.471   6.893   1.641
 7509SOL     OW23425   6.087   4.297   0.700
 7509SOL    HW123426   6.043   4.216   0.661
 7509SOL    HW223427   6.171   4.270   0.747
 7510SOL     OW23428   3.631   3.585   5.401
 7510SOL    HW123429   3.619   3.659   5.466
 7510SOL    HW223430   3.550   3.577   5.343
 7511SOL     OW23431   2.813   6.168   4.278
 7511SOL    HW123432   2.912   6.173   4.260
 7511SOL    HW223433   2.766   6.142   4.193
 7512SOL     OW23434   2.584   6.667   6.445
 7512SOL    HW123435   2.512   6.663   6.514
 7512SOL    HW223436   2.543   6.674   6.354
 7513SOL     OW23437   1.766   1.015   1.611
 7513SOL    HW123438   1.712   0.932   1.623
 7513SOL    HW223439   1.728   1.070   1.538
 7514SOL     OW23440   2.679   5.581   1.894
 7514SOL    HW123441   2.744   5.507   1.911
 7514SOL    HW223442   2.702   5.627   1.808
 7515SOL     OW23443   6.935   5.497   4.888
 7515SOL    HW123444   6.937   5.405   4.850
 7515SOL    HW223445   7.025   5.539   4.879
 7516SOL     OW23446   6.631   6.004   6.055
 7516SOL    HW123447   6.575   6.085   6.037
 7516SOL    HW223448   6.718   6.012   6.007
 7517SOL     OW23449   0.607   2.096   0.495
 7517SOL    HW123450   0.609   2.196   0.496
 7517SOL    HW223451   0.599   2.062   0.589
 7518SOL     OW23452   4.326   4.886   3.949
 7518SOL    HW123453   4.382   4.920   4.025
 7518SOL    HW223454   4.233   4.869   3.982
 7519SOL     OW23455   0.506   6.247   3.965
 7519SOL    HW123456   0.526   6.202   3.878
 7519SOL    HW223457   0.415   6.290   3.960
 7520SOL     OW23458   1.898   0.018   2.211
 7520SOL    HW123459   1.851   0.105   2.204
 7520SOL    HW223460   1.991   0.027   2.175
 7521SOL     OW23461   4.455   3.186   5.593
 7521SOL    HW123462   4.464   3.170   5.495
 7521SOL    HW223463   4.507   3.118   5.644
 7522SOL     OW23464   1.695   1.405   5.688
 7522SOL    HW123465   1.695   1.505   5.690
 7522SOL    HW223466   1.612   1.371   5.733
 7523SOL     OW23467   5.645   0.108   6.581
 7523SOL    HW123468   5.706   0.137   6.508
 7523SOL    HW223469   5.676   0.148   6.668
 7524SOL     OW23470   1.380   2.618   5.084
 7524SOL    HW123471   1.294   2.658   5.053
 7524SOL    HW223472   1.457   2.673   5.051
 7525SOL     OW23473   3.552   0.722   6.356
 7525SOL    HW123474   3.596   0.808   6.329
 7525SOL    HW223475   3.455   0.739   6.374
 7526SOL     OW23476   3.812   3.387   1.387
 7526SOL    HW123477   3.733   3.365   1.329
 7526SOL    HW223478   3.838   3.306   1.439
 7527SOL     OW23479   3.010   5.860   3.425
 7527SOL    HW123480   2.947   5.912   3.368
 7527SOL    HW223481   2.962   5.827   3.506
 7528SOL     OW23482   6.132   2.107   0.676
 7528SOL    HW123483   6.046   2.114   0.727
 7528SOL    HW223484   6.201   2.063   0.734
 7529SOL     OW23485   5.189   1.726   4.428
 7529SOL    HW123486   5.115   1.776   4.383
 7529SOL    HW223487   5.172   1.724   4.527
 7530SOL     OW23488   0.270   2.907   2.052
 7530SOL    HW123489   0.367   2.911   2.078
 7530SOL    HW223490   0.260   2.938   1.957
 7531SOL     OW23491   5.694   3.067   4.642
 7531SOL    HW123492   5.793   3.063   4.656
 7531SOL    HW223493   5.670   3.153   4.597
 7532SOL     OW23494   4.741   5.710   0.031
 7532SOL    HW123495   4.806   5.785   0.014
 7532SOL    HW223496   4.678   5.702   6.981
 7533SOL     OW23497   3.603   1.010   1.745
 7533SOL    HW123498   3.525   1.069   1.765
 7533SOL    HW223499   3.570   0.924   1.707
 7534SOL     OW23500   4.050   6.786   5.084
 7534SOL    HW123501   4.012   6.725   5.153
 7534SOL    HW223502   4.108   6.855   5.129
 7535SOL     OW23503   1.951   0.672   4.678
 7535SOL    HW123504   1.853   0.683   4.662
 7535SOL    HW223505   1.997   0.659   4.590
 7536SOL     OW23506   5.003   4.776   3.949
 7536SOL    HW123507   5.032   4.691   3.905
 7536SOL    HW223508   5.083   4.825   3.983
 7537SOL     OW23509   2.770   5.741   1.677
 7537SOL    HW123510   2.756   5.838   1.657
 7537SOL    HW223511   2.868   5.723   1.685
 7538SOL     OW23512   1.884   2.484   1.082
 7538SOL    HW123513   1.955   2.551   1.060
 7538SOL    HW223514   1.848   2.445   0.998
 7539SOL     OW23515   1.840   3.463   3.830
 7539SOL    HW123516   1.919   3.516   3.799
 7539SOL    HW223517   1.758   3.495   3.781
 7540SOL     OW23518   3.921   0.565   4.774
 7540SOL    HW123519   4.018   0.579   4.752
 7540SOL    HW223520   3.869   0.556   4.689
 7541SOL     OW23521   0.334   4.628   5.507
 7541SOL    HW123522   0.303   4.587   5.421
 7541SOL    HW223523   0.348   4.557   5.575
 7542SOL     OW23524   1.251   5.080   6.913
 7542SOL    HW123525   1.309   5.028   6.851
 7542SOL    HW223526   1.284   5.174   6.918
 7543SOL     OW23527   3.984   1.338   5.853
 7543SOL    HW123528   3.970   1.244   5.822
 7543SOL    HW223529   4.076   1.368   5.826
 7544SOL     OW23530   6.648   2.348   2.585
 7544SOL    HW123531   6.579   2.339   2.656
 7544SOL    HW223532   6.708   2.425   2.607
 7545SOL     OW23533   0.486   5.243   0.358
 7545SOL    HW123534   0.585   5.246   0.368
 7545SOL    HW223535   0.462   5.256   0.262
 7546SOL     OW23536   3.509   2.213   1.126
 7546SOL    HW123537   3.561   2.130   1.142
 7546SOL    HW223538   3.453   2.233   1.206
 7547SOL     OW23539   5.201   1.432   0.335
 7547SOL    HW123540   5.245   1.422   0.246
 7547SOL    HW223541   5.102   1.445   0.322
 7548SOL     OW23542   4.205   2.054   0.138
 7548SOL    HW123543   4.170   2.147   0.128
 7548SOL    HW223544   4.257   2.047   0.223
 7549SOL     OW23545   3.522   2.863   6.877
 7549SOL    HW123546   3.516   2.956   6.912
 7549SOL    HW223547   3.489   2.799   6.945
 7550SOL     OW23548   2.159   4.866   3.498
 7550SOL    HW123549   2.152   4.965   3.504
 7550SOL    HW223550   2.117   4.835   3.412
 7551SOL     OW23551   5.374   3.132   6.086
 7551SOL    HW123552   5.274   3.137   6.092
 7551SOL    HW223553   5.410   3.088   6.168
 7552SOL     OW23554   1.383   5.892   2.693
 7552SOL    HW123555   1.335   5.932   2.614
 7552SOL    HW223556   1.433   5.811   2.663
 7553SOL     OW23557   4.134   6.455   5.356
 7553SOL    HW123558   4.233   6.446   5.344
 7553SOL    HW223559   4.097   6.370   5.393
 7554SOL     OW23560   5.138   1.041   6.635
 7554SOL    HW123561   5.227   1.063   6.596
 7554SOL    HW223562   5.086   0.985   6.571
 7555SOL     OW23563   2.199   4.752   6.282
 7555SOL    HW123564   2.293   4.739   6.314
 7555SOL    HW223565   2.165   4.666   6.244
 7556SOL     OW23566   2.291   2.850   0.786
 7556SOL    HW123567   2.301   2.855   0.687
 7556SOL    HW223568   2.202   2.809   0.808
 7557SOL     OW23569   5.099   0.671   5.761
 7557SOL    HW123570   5.006   0.637   5.745
 7557SOL    HW223571   5.164   0.595   5.752
 7558SOL     OW23572   2.181   2.308   4.307
 7558SOL    HW123573   2.096   2.255   4.309
 7558SOL    HW223574   2.229   2.296   4.394
 7559SOL     OW23575   4.693   3.813   0.526
 7559SOL    HW123576   4.646   3.756   0.459
 7559SOL    HW223577   4.679   3.776   0.618
 7560SOL     OW23578   4.978   6.437   0.804
 7560SOL    HW123579   5.010   6.361   0.861
 7560SOL    HW223580   4.878   6.436   0.800
 7561SOL     OW23581   0.588   2.672   6.795
 7561SOL    HW123582   0.677   2.709   6.768
 7561SOL    HW223583   0.597   2.625   6.883
 7562SOL     OW23584   0.703   5.586   4.953
 7562SOL    HW123585   0.640   5.522   4.998
 7562SOL    HW223586   0.684   5.588   4.855
 7563SOL     OW23587   3.060   0.147   1.428
 7563SOL    HW123588   3.115   0.077   1.474
 7563SOL    HW223589   3.115   0.194   1.360
 7564SOL     OW23590   3.954   0.194   3.550
 7564SOL    HW123591   3.957   0.218   3.647
 7564SOL    HW223592   4.034   0.140   3.527
 7565SOL     OW23593   5.746   3.110   6.706
 7565SOL    HW123594   5.789   3.070   6.624
 7565SOL    HW223595   5.646   3.100   6.698
 7566SOL     OW23596   6.708   4.691   3.343
 7566SOL    HW123597   6.733   4.602   3.304
 7566SOL    HW223598   6.609   4.693   3.359
 7567SOL     OW23599   1.691   1.976   5.131
 7567SOL    HW123600   1.681   1.989   5.229
 7567SOL    HW223601   1.676   2.064   5.084
 7568SOL     OW23602   5.220   5.353   2.768
 7568SOL    HW123603   5.142   5.414   2.754
 7568SOL    HW223604   5.279   5.354   2.687
 7569SOL     OW23605   3.436   5.248   5.994
 7569SOL    HW123606   3.400   5.321   6.053
 7569SOL    HW223607   3.415   5.159   6.035
 7570SOL     OW23608   5.088   3.930   5.300
 7570SOL    HW123609   5.031   3.889   5.228
 7570SOL    HW223610   5.184   3.924   5.274
 7571SOL     OW23611   4.365   4.841   2.792
 7571SOL    HW123612   4.313   4.803   2.715
 7571SOL    HW223613   4.445   4.783   2.810
 7572SOL     OW23614   4.374   1.115   1.718
 7572SOL    HW123615   4.418   1.077   1.799
 7572SOL    HW223616   4.440   1.169   1.666
 7573SOL     OW23617   0.158   0.337   5.253
 7573SOL    HW123618   0.244   0.325   5.303
 7573SOL    HW223619   0.085   0.286   5.300
 7574SOL     OW23620   5.045   0.822   5.362
 7574SOL    HW123621   5.081   0.850   5.273
 7574SOL    HW223622   5.069   0.726   5.379
 7575SOL     OW23623   5.481   0.746   6.241
 7575SOL    HW123624   5.438   0.803   6.171
 7575SOL    HW223625   5.540   0.801   6.299
 7576SOL     OW23626   5.482   2.994   0.658
 7576SOL    HW123627   5.551   2.981   0.588
 7576SOL    HW223628   5.526   2.997   0.748
 7577SOL     OW23629   0.447   6.724   6.800
 7577SOL    HW123630   0.472   6.742   6.704
 7577SOL    HW223631   0.362   6.772   6.821
 7578SOL     OW23632   3.445   5.650   1.913
 7578SOL    HW123633   3.356   5.686   1.943
 7578SOL    HW223634   3.504   5.726   1.887
 7579SOL     OW23635   0.300   0.948   2.758
 7579SOL    HW123636   0.253   0.892   2.690
 7579SOL    HW223637   0.316   0.894   2.841
 7580SOL     OW23638   0.924   3.979   4.324
 7580SOL    HW123639   0.840   4.010   4.368
 7580SOL    HW223640   0.917   3.882   4.301
 7581SOL     OW23641   6.967   2.000   2.267
 7581SOL    HW123642   6.895   2.038   2.209
 7581SOL    HW223643   0.007   2.072   2.289
 7582SOL     OW23644   3.612   1.367   2.442
 7582SOL    HW123645   3.699   1.371   2.394
 7582SOL    HW223646   3.553   1.442   2.411
 7583SOL     OW23647   5.654   2.671   2.390
 7583SOL    HW123648   5.593   2.600   2.354
 7583SOL    HW223649   5.609   2.716   2.468
 7584SOL     OW23650   3.385   0.476   2.895
 7584SOL    HW123651   3.411   0.548   2.960
 7584SOL    HW223652   3.446   0.397   2.906
 7585SOL     OW23653   1.870   2.626   6.453
 7585SOL    HW123654   1.891   2.723   6.441
 7585SOL    HW223655   1.775   2.609   6.424
 7586SOL     OW23656   2.561   0.013   4.008
 7586SOL    HW123657   2.574   6.969   3.938
 7586SOL    HW223658   2.644   0.020   4.064
 7587SOL     OW23659   2.256   1.981   6.834
 7587SOL    HW123660   2.280   1.896   6.882
 7587SOL    HW223661   2.253   2.056   6.899
 7588SOL     OW23662   1.437   2.704   3.836
 7588SOL    HW123663   1.427   2.662   3.745
 7588SOL    HW223664   1.388   2.648   3.903
 7589SOL     OW23665   0.443   0.577   2.174
 7589SOL    HW123666   0.541   0.572   2.158
 7589SOL    HW223667   0.410   0.489   2.209
 7590SOL     OW23668   3.830   2.436   6.562
 7590SOL    HW123669   3.808   2.338   6.569
 7590SOL    HW223670   3.769   2.489   6.620
 7591SOL     OW23671   6.366   4.030   0.932
 7591SOL    HW123672   6.290   4.034   0.995
 7591SOL    HW223673   6.438   3.971   0.968
 7592SOL     OW23674   6.634   5.769   5.081
 7592SOL    HW123675   6.588   5.718   5.154
 7592SOL    HW223676   6.569   5.830   5.037
 7593SOL     OW23677   6.621   2.544   0.355
 7593SOL    HW123678   6.666   2.455   0.350
 7593SOL    HW223679   6.641   2.587   0.443
 7594SOL     OW23680   1.821   4.671   2.389
 7594SOL    HW123681   1.733   4.625   2.386
 7594SOL    HW223682   1.813   4.762   2.347
 7595SOL     OW23683   6.189   2.790   5.730
 7595SOL    HW123684   6.262   2.829   5.672
 7595SOL    HW223685   6.134   2.727   5.675
 7596SOL     OW23686   3.669   6.060   3.405
 7596SOL    HW123687   3.606   5.982   3.403
 7596SOL    HW223688   3.725   6.054   3.488
 7597SOL     OW23689   1.579   6.641   3.024
 7597SOL    HW123690   1.667   6.604   2.992
 7597SOL    HW223691   1.519   6.656   2.945
 7598SOL     OW23692   6.318   0.955   2.994
 7598SOL    HW123693   6.408   0.997   3.001
 7598SOL    HW223694   6.294   0.912   3.081
 7599SOL     OW23695   5.309   1.982   2.329
 7599SOL    HW123696   5.364   2.063   2.309
 7599SOL    HW223697   5.316   1.960   2.427
 7600SOL     OW23698   1.461   1.352   3.549
 7600SOL    HW123699   1.455   1.301   3.463
 7600SOL    HW223700   1.502   1.441   3.532
 7601SOL     OW23701   2.234   4.713   2.249
 7601SOL    HW123702   2.198   4.626   2.217
 7601SOL    HW223703   2.251   4.708   2.347
 7602SOL     OW23704   2.569   3.832   6.863
 7602SOL    HW123705   2.504   3.777   6.810
 7602SOL    HW223706   2.591   3.915   6.813
 7603SOL     OW23707   1.246   5.872   6.405
 7603SOL    HW123708   1.299   5.936   6.460
 7603SOL    HW223709   1.278   5.779   6.423
 7604SOL     OW23710   1.837   3.295   4.430
 7604SOL    HW123711   1.803   3.369   4.488
 7604SOL    HW223712   1.936   3.286   4.442
 7605SOL     OW23713   1.265   0.946   1.399
 7605SOL    HW123714   1.174   0.949   1.357
 7605SOL    HW223715   1.256   0.947   1.498
 7606SOL     OW23716   6.026   3.877   4.626
 7606SOL    HW123717   6.038   3.779   4.609
 7606SOL    HW223718   6.084   3.904   4.702
 7607SOL     OW23719   3.610   4.811   0.038
 7607SOL    HW123720   3.539   4.870   7.026
 7607SOL    HW223721   3.671   4.865   0.096
 7608SOL     OW23722   4.139   4.123   1.312
 7608SOL    HW123723   4.052   4.145   1.267
 7608SOL    HW223724   4.129   4.035   1.360
 7609SOL     OW23725   1.509   2.781   4.420
 7609SOL    HW123726   1.582   2.718   4.443
 7609SOL    HW223727   1.447   2.790   4.498
 7610SOL     OW23728   4.079   4.518   6.306
 7610SOL    HW123729   3.996   4.539   6.254
 7610SOL    HW223730   4.147   4.589   6.289
 7611SOL     OW23731   5.763   3.987   1.812
 7611SOL    HW123732   5.755   4.061   1.745
 7611SOL    HW223733   5.690   3.921   1.798
 7612SOL     OW23734   4.959   3.241   2.564
 7612SOL    HW123735   4.900   3.175   2.609
 7612SOL    HW223736   4.903   3.301   2.506
 7613SOL     OW23737   6.946   2.436   0.915
 7613SOL    HW123738   6.927   2.499   0.990
 7613SOL    HW223739   6.893   2.352   0.929
 7614SOL     OW23740   5.624   3.273   0.916
 7614SOL    HW123741   5.670   3.361   0.930
 7614SOL    HW223742   5.621   3.223   1.003
 7615SOL     OW23743   4.059   4.905   7.012
 7615SOL    HW123744   4.039   4.959   6.930
 7615SOL    HW223745   4.007   4.819   7.009
 7616SOL     OW23746   6.252   6.289   4.737
 7616SOL    HW123747   6.208   6.378   4.728
 7616SOL    HW223748   6.202   6.232   4.802
 7617SOL     OW23749   3.747   6.316   3.123
 7617SOL    HW123750   3.828   6.267   3.092
 7617SOL    HW223751   3.753   6.331   3.222
 7618SOL     OW23752   7.010   2.498   5.860
 7618SOL    HW123753   6.978   2.404   5.847
 7618SOL    HW223754   6.956   2.560   5.804
 7619SOL     OW23755   6.921   3.250   4.852
 7619SOL    HW123756   6.957   3.239   4.760
 7619SOL    HW223757   6.831   3.207   4.858
 7620SOL     OW23758   4.229   5.625   1.659
 7620SOL    HW123759   4.291   5.700   1.682
 7620SOL    HW223760   4.276   5.537   1.674
 7621SOL     OW23761   6.513   0.912   0.789
 7621SOL    HW123762   6.445   0.871   0.850
 7621SOL    HW223763   6.604   0.895   0.825
 7622SOL     OW23764   3.950   4.944   6.764
 7622SOL    HW123765   3.993   4.935   6.674
 7622SOL    HW223766   3.893   4.864   6.781
 7623SOL     OW23767   5.036   3.258   6.760
 7623SOL    HW123768   4.990   3.341   6.791
 7623SOL    HW223769   4.972   3.181   6.762
 7624SOL     OW23770   0.028   4.023   5.082
 7624SOL    HW123771   7.007   4.052   4.999
 7624SOL    HW223772   7.003   3.949   5.126
 7625SOL     OW23773   4.906   1.047   0.096
 7625SOL    HW123774   4.991   1.075   0.141
 7625SOL    HW223775   4.836   1.029   0.166
 7626SOL     OW23776   6.468   0.242   4.568
 7626SOL    HW123777   6.406   0.263   4.644
 7626SOL    HW223778   6.485   0.144   4.565
 7627SOL     OW23779   4.814   3.032   0.320
 7627SOL    HW123780   4.726   2.992   0.295
 7627SOL    HW223781   4.873   3.035   0.239
 7628SOL     OW23782   3.292   2.489   1.717
 7628SOL    HW123783   3.199   2.463   1.692
 7628SOL    HW223784   3.345   2.406   1.739
 7629SOL     OW23785   0.388   4.718   3.478
 7629SOL    HW123786   0.334   4.634   3.480
 7629SOL    HW223787   0.442   4.725   3.562
 7630SOL     OW23788   0.730   0.541   1.326
 7630SOL    HW123789   0.764   0.452   1.354
 7630SOL    HW223790   0.691   0.536   1.234
 7631SOL     OW23791   0.863   1.779   6.146
 7631SOL    HW123792   0.826   1.709   6.207
 7631SOL    HW223793   0.799   1.855   6.139
 7632SOL     OW23794   5.127   4.201   0.880
 7632SOL    HW123795   5.193   4.135   0.847
 7632SOL    HW223796   5.035   4.162   0.874
 7633SOL     OW23797   5.207   0.284   2.075
 7633SOL    HW123798   5.302   0.303   2.099
 7633SOL    HW223799   5.178   0.200   2.121
 7634SOL     OW23800   1.977   1.587   1.977
 7634SOL    HW123801   1.884   1.555   1.957
 7634SOL    HW223802   2.034   1.509   2.002
 7635SOL     OW23803   3.644   4.936   5.151
 7635SOL    HW123804   3.683   4.912   5.240
 7635SOL    HW223805   3.545   4.947   5.159
 7636SOL     OW23806   1.896   3.070   3.959
 7636SOL    HW123807   1.934   2.999   3.901
 7636SOL    HW223808   1.885   3.035   4.052
 7637SOL     OW23809   3.036   6.357   2.083
 7637SOL    HW123810   2.939   6.341   2.104
 7637SOL    HW223811   3.045   6.387   1.988
 7638SOL     OW23812   2.027   6.129   1.286
 7638SOL    HW123813   2.101   6.184   1.323
 7638SOL    HW223814   1.942   6.183   1.288
 7639SOL     OW23815   0.268   1.768   1.461
 7639SOL    HW123816   0.179   1.774   1.415
 7639SOL    HW223817   0.254   1.744   1.557
 7640SOL     OW23818   2.995   1.914   5.943
 7640SOL    HW123819   3.081   1.893   5.895
 7640SOL    HW223820   2.941   1.830   5.953
 7641SOL     OW23821   1.635   3.948   2.357
 7641SOL    HW123822   1.678   3.918   2.272
 7641SOL    HW223823   1.556   4.006   2.335
 7642SOL     OW23824   3.746   1.932   2.731
 7642SOL    HW123825   3.705   1.859   2.676
 7642SOL    HW223826   3.815   1.894   2.792
 7643SOL     OW23827   4.772   2.427   3.040
 7643SOL    HW123828   4.862   2.387   3.056
 7643SOL    HW223829   4.775   2.525   3.058
 7644SOL     OW23830   4.359   2.353   1.973
 7644SOL    HW123831   4.432   2.315   2.029
 7644SOL    HW223832   4.398   2.418   1.907
 7645SOL     OW23833   5.218   3.517   5.140
 7645SOL    HW123834   5.139   3.536   5.198
 7645SOL    HW223835   5.296   3.570   5.172
 7646SOL     OW23836   1.951   2.815   3.917
 7646SOL    HW123837   1.855   2.792   3.928
 7646SOL    HW223838   1.991   2.762   3.842
 7647SOL     OW23839   0.201   2.169   3.726
 7647SOL    HW123840   0.187   2.267   3.711
 7647SOL    HW223841   0.236   2.154   3.818
 7648SOL     OW23842   2.708   1.487   2.649
 7648SOL    HW123843   2.611   1.511   2.646
 7648SOL    HW223844   2.748   1.495   2.558
 7649SOL     OW23845   0.816   0.911   3.850
 7649SOL    HW123846   0.906   0.950   3.832
 7649SOL    HW223847   0.782   0.945   3.938
 7650SOL     OW23848   5.586   1.426   0.412
 7650SOL    HW123849   5.675   1.472   0.417
 7650SOL    HW223850   5.598   1.329   0.433
 7651SOL     OW23851   1.955   0.370   4.150
 7651SOL    HW123852   1.913   0.280   4.145
 7651SOL    HW223853   2.053   0.361   4.167
 7652SOL     OW23854   6.459   3.234   4.320
 7652SOL    HW123855   6.360   3.222   4.322
 7652SOL    HW223856   6.503   3.158   4.368
 7653SOL     OW23857   0.447   1.828   0.110
 7653SOL    HW123858   0.486   1.801   0.022
 7653SOL    HW223859   0.433   1.927   0.111
 7654SOL     OW23860   5.032   3.202   4.506
 7654SOL    HW123861   5.037   3.293   4.545
 7654SOL    HW223862   4.980   3.142   4.567
 7655SOL     OW23863   4.243   6.665   3.153
 7655SOL    HW123864   4.216   6.727   3.227
 7655SOL    HW223865   4.255   6.573   3.189
 7656SOL     OW23866   4.043   3.831   6.787
 7656SOL    HW123867   4.072   3.921   6.757
 7656SOL    HW223868   3.943   3.828   6.790
 7657SOL     OW23869   1.441   2.039   3.561
 7657SOL    HW123870   1.527   2.062   3.606
 7657SOL    HW223871   1.367   2.037   3.629
 7658SOL     OW23872   2.811   0.367   6.897
 7658SOL    HW123873   2.749   0.367   6.818
 7658SOL    HW223874   2.860   0.280   6.902
 7659SOL     OW23875   5.471   4.518   6.271
 7659SOL    HW123876   5.393   4.494   6.214
 7659SOL    HW223877   5.497   4.613   6.254
 7660SOL     OW23878   0.326   5.670   3.229
 7660SOL    HW123879   0.263   5.618   3.172
 7660SOL    HW223880   0.420   5.652   3.199
 7661SOL     OW23881   5.516   2.114   5.378
 7661SOL    HW123882   5.480   2.204   5.401
 7661SOL    HW223883   5.577   2.121   5.299
 7662SOL     OW23884   1.749   3.146   4.661
 7662SOL    HW123885   1.780   3.192   4.577
 7662SOL    HW223886   1.766   3.206   4.739
 7663SOL     OW23887   6.105   4.782   5.973
 7663SOL    HW123888   6.178   4.750   5.913
 7663SOL    HW223889   6.059   4.703   6.015
 7664SOL     OW23890   4.193   0.838   1.851
 7664SOL    HW123891   4.284   0.880   1.851
 7664SOL    HW223892   4.185   0.776   1.929
 7665SOL     OW23893   5.942   0.952   4.728
 7665SOL    HW123894   5.855   0.981   4.768
 7665SOL    HW223895   6.010   0.943   4.800
 7666SOL     OW23896   0.712   4.778   2.357
 7666SOL    HW123897   0.772   4.699   2.370
 7666SOL    HW223898   0.616   4.748   2.359
 7667SOL     OW23899   4.398   0.075   2.647
 7667SOL    HW123900   4.494   0.080   2.619
 7667SOL    HW223901   4.347   0.152   2.607
 7668SOL     OW23902   3.236   4.969   0.396
 7668SOL    HW123903   3.279   4.990   0.309
 7668SOL    HW223904   3.267   4.880   0.428
 7669SOL     OW23905   4.894   0.728   4.986
 7669SOL    HW123906   4.989   0.740   5.014
 7669SOL    HW223907   4.851   0.817   4.975
 7670SOL     OW23908   0.914   4.330   0.387
 7670SOL    HW123909   0.989   4.331   0.453
 7670SOL    HW223910   0.827   4.333   0.436
 7671SOL     OW23911   3.793   1.619   2.334
 7671SOL    HW123912   3.891   1.638   2.337
 7671SOL    HW223913   3.766   1.594   2.241
 7672SOL     OW23914   7.003   6.275   3.034
 7672SOL    HW123915   6.988   6.219   2.953
 7672SOL    HW223916   0.062   6.248   3.078
 7673SOL     OW23917   1.546   6.461   1.389
 7673SOL    HW123918   1.568   6.494   1.297
 7673SOL    HW223919   1.530   6.539   1.449
 7674SOL     OW23920   4.592   1.306   3.429
 7674SOL    HW123921   4.565   1.210   3.438
 7674SOL    HW223922   4.581   1.353   3.517
 7675SOL     OW23923   6.283   6.966   2.821
 7675SOL    HW123924   6.208   6.963   2.756
 7675SOL    HW223925   6.272   0.018   2.882
 7676SOL     OW23926   2.352   1.773   0.206
 7676SOL    HW123927   2.414   1.851   0.206
 7676SOL    HW223928   2.257   1.805   0.212
 7677SOL     OW23929   1.198   4.437   1.261
 7677SOL    HW123930   1.213   4.374   1.338
 7677SOL    HW223931   1.275   4.429   1.197
 7678SOL     OW23932   2.504   2.719   5.231
 7678SOL    HW123933   2.544   2.810   5.221
 7678SOL    HW223934   2.404   2.726   5.228
 7679SOL     OW23935   3.017   6.716   5.919
 7679SOL    HW123936   3.042   6.625   5.951
 7679SOL    HW223937   2.966   6.709   5.834
 7680SOL     OW23938   1.624   0.203   0.961
 7680SOL    HW123939   1.582   0.167   0.878
 7680SOL    HW223940   1.568   0.278   0.996
 7681SOL     OW23941   3.043   0.610   0.979
 7681SOL    HW123942   2.987   0.586   0.900
 7681SOL    HW223943   3.001   0.575   1.063
 7682SOL     OW23944   3.549   0.373   2.344
 7682SOL    HW123945   3.630   0.416   2.305
 7682SOL    HW223946   3.503   0.437   2.405
 7683SOL     OW23947   6.372   2.321   4.103
 7683SOL    HW123948   6.438   2.284   4.168
 7683SOL    HW223949   6.420   2.352   4.020
 7684SOL     OW23950   3.893   1.781   1.235
 7684SOL    HW123951   3.949   1.717   1.288
 7684SOL    HW223952   3.864   1.857   1.293
 7685SOL     OW23953   2.815   1.417   5.742
 7685SOL    HW123954   2.734   1.409   5.683
 7685SOL    HW223955   2.787   1.446   5.833
 7686SOL     OW23956   0.359   6.497   3.637
 7686SOL    HW123957   0.399   6.534   3.720
 7686SOL    HW223958   0.316   6.570   3.584
 7687SOL     OW23959   5.929   5.381   4.060
 7687SOL    HW123960   5.901   5.349   4.151
 7687SOL    HW223961   6.013   5.334   4.032
 7688SOL     OW23962   0.729   5.763   5.478
 7688SOL    HW123963   0.755   5.703   5.554
 7688SOL    HW223964   0.809   5.782   5.422
 7689SOL     OW23965   5.775   6.420   2.604
 7689SOL    HW123966   5.832   6.502   2.607
 7689SOL    HW223967   5.791   6.366   2.686
 7690SOL     OW23968   6.007   4.437   0.310
 7690SOL    HW123969   5.910   4.433   0.285
 7690SOL    HW223970   6.047   4.346   0.302
 7691SOL     OW23971   4.837   3.887   3.481
 7691SOL    HW123972   4.927   3.902   3.441
 7691SOL    HW223973   4.828   3.790   3.506
 7692SOL     OW23974   0.757   5.967   1.635
 7692SOL    HW123975   0.749   5.889   1.696
 7692SOL    HW223976   0.697   5.954   1.556
 7693SOL     OW23977   3.054   0.026   1.922
 7693SOL    HW123978   3.145   7.013   1.914
 7693SOL    HW223979   2.986   6.979   1.912
 7694SOL     OW23980   4.893   3.841   4.125
 7694SOL    HW123981   4.900   3.741   4.122
 7694SOL    HW223982   4.964   3.881   4.068
 7695SOL     OW23983   4.493   0.131   1.098
 7695SOL    HW123984   4.485   0.090   1.007
 7695SOL    HW223985   4.402   0.158   1.130
 7696SOL     OW23986   0.472   1.255   6.037
 7696SOL    HW123987   0.439   1.161   6.032
 7696SOL    HW223988   0.551   1.259   6.099
 7697SOL     OW23989   2.392   0.081   3.404
 7697SOL    HW123990   2.390   7.015   3.443
 7697SOL    HW223991   2.299   0.117   3.397
 7698SOL     OW23992   5.583   1.805   3.694
 7698SOL    HW123993   5.580   1.771   3.788
 7698SOL    HW223994   5.557   1.732   3.631
 7699SOL     OW23995   3.101   6.264   6.271
 7699SOL    HW123996   3.055   6.318   6.341
 7699SOL    HW223997   3.034   6.213   6.218
 7700SOL     OW23998   5.095   5.652   2.915
 7700SOL    HW123999   5.053   5.608   2.995
 7700SOL    HW224000   5.061   5.610   2.832
 7701SOL     OW24001   6.344   2.196   6.640
 7701SOL    HW124002   6.259   2.245   6.617
 7701SOL    HW224003   6.421   2.258   6.630
 7702SOL     OW24004   4.046   6.426   5.089
 7702SOL    HW124005   3.948   6.419   5.104
 7702SOL    HW224006   4.089   6.464   5.171
 7703SOL     OW24007   6.227   6.268   6.004
 7703SOL    HW124008   6.144   6.323   6.014
 7703SOL    HW224009   6.204   6.171   6.014
 7704SOL     OW24010   5.715   0.607   3.946
 7704SOL    HW124011   5.732   0.511   3.970
 7704SOL    HW224012   5.802   0.654   3.935
 7705SOL     OW24013   2.603   6.329   0.670
 7705SOL    HW124014   2.644   6.239   0.688
 7705SOL    HW224015   2.606   6.383   0.754
 7706SOL     OW24016   3.491   3.695   4.988
 7706SOL    HW124017   3.452   3.787   4.984
 7706SOL    HW224018   3.582   3.695   4.946
 7707SOL     OW24019   0.628   3.991   5.726
 7707SOL    HW124020   0.567   3.914   5.747
 7707SOL    HW224021   0.723   3.961   5.735
 7708SOL     OW24022   0.772   6.693   5.545
 7708SOL    HW124023   0.824   6.752   5.483
 7708SOL    HW224024   0.712   6.749   5.602
 7709SOL     OW24025   6.808   4.752   2.164
 7709SOL    HW124026   6.761   4.767   2.077
 7709SOL    HW224027   6.743   4.719   2.232
 7710SOL     OW24028   3.556   2.573   0.282
 7710SOL    HW124029   3.511   2.608   0.364
 7710SOL    HW224030   3.526   2.626   0.203
 7711SOL     OW24031   5.601   6.335   5.964
 7711SOL    HW124032   5.640   6.395   5.894
 7711SOL    HW224033   5.641   6.357   6.053
 7712SOL     OW24034   6.679   5.153   1.264
 7712SOL    HW124035   6.738   5.114   1.335
 7712SOL    HW224036   6.715   5.241   1.235
 7713SOL     OW24037   1.862   4.296   0.689
 7713SOL    HW124038   1.919   4.356   0.745
 7713SOL    HW224039   1.914   4.264   0.610
 7714SOL     OW24040   0.150   4.413   5.414
 7714SOL    HW124041   0.124   4.316   5.421
 7714SOL    HW224042   0.133   4.445   5.321
 7715SOL     OW24043   3.043   2.581   0.300
 7715SOL    HW124044   3.094   2.535   0.372
 7715SOL    HW224045   3.099   2.656   0.262
 7716SOL     OW24046   0.041   4.777   1.432
 7716SOL    HW124047   0.093   4.756   1.514
 7716SOL    HW224048   0.090   4.845   1.378
 7717SOL     OW24049   1.302   0.921   5.955
 7717SOL    HW124050   1.318   0.919   6.053
 7717SOL    HW224051   1.208   0.949   5.936
 7718SOL     OW24052   6.492   4.396   3.554
 7718SOL    HW124053   6.539   4.372   3.639
 7718SOL    HW224054   6.419   4.462   3.574
 7719SOL     OW24055   0.299   4.044   5.066
 7719SOL    HW124056   0.224   3.997   5.113
 7719SOL    HW224057   0.346   3.981   5.005
 7720SOL     OW24058   6.594   2.716   6.437
 7720SOL    HW124059   6.640   2.681   6.355
 7720SOL    HW224060   6.569   2.812   6.423
 7721SOL     OW24061   0.451   5.318   2.346
 7721SOL    HW124062   0.396   5.266   2.411
 7721SOL    HW224063   0.465   5.264   2.264
 7722SOL     OW24064   1.348   3.773   3.504
 7722SOL    HW124065   1.264   3.825   3.498
 7722SOL    HW224066   1.406   3.810   3.578
 7723SOL     OW24067   4.482   3.351   6.384
 7723SOL    HW124068   4.564   3.297   6.362
 7723SOL    HW224069   4.432   3.371   6.299
 7724SOL     OW24070   2.895   3.593   0.728
 7724SOL    HW124071   2.928   3.506   0.764
 7724SOL    HW224072   2.866   3.652   0.803
 7725SOL     OW24073   5.943   1.291   2.599
 7725SOL    HW124074   5.848   1.321   2.592
 7725SOL    HW224075   6.003   1.360   2.558
 7726SOL     OW24076   2.051   5.069   5.484
 7726SOL    HW124077   2.014   4.977   5.497
 7726SOL    HW224078   2.146   5.062   5.454
 7727SOL     OW24079   6.453   2.687   2.500
 7727SOL    HW124080   6.450   2.605   2.557
 7727SOL    HW224081   6.393   2.674   2.421
 7728SOL     OW24082   2.212   3.114   5.251
 7728SOL    HW124083   2.284   3.092   5.186
 7728SOL    HW224084   2.251   3.166   5.327
 7729SOL     OW24085   6.025   1.815   1.304
 7729SOL    HW124086   5.959   1.859   1.364
 7729SOL    HW224087   5.983   1.795   1.215
 7730SOL     OW24088   6.402   4.850   0.023
 7730SOL    HW124089   6.429   4.943   0.050
 7730SOL    HW224090   6.471   4.785   0.056
 7731SOL     OW24091   5.765   1.215   0.083
 7731SOL    HW124092   5.695   1.145   0.091
 7731SOL    HW224093   5.850   1.173   0.051
 7732SOL     OW24094   4.706   6.584   0.331
 7732SOL    HW124095   4.638   6.534   0.384
 7732SOL    HW224096   4.659   6.645   0.267
 7733SOL     OW24097   5.606   6.136   2.135
 7733SOL    HW124098   5.660   6.133   2.219
 7733SOL    HW224099   5.603   6.230   2.100
 7734SOL     OW24100   1.572   4.621   4.064
 7734SOL    HW124101   1.629   4.685   4.115
 7734SOL    HW224102   1.476   4.645   4.074
 7735SOL     OW24103   4.638   6.367   6.196
 7735SOL    HW124104   4.699   6.379   6.274
 7735SOL    HW224105   4.543   6.366   6.227
 7736SOL     OW24106   2.344   2.776   6.936
 7736SOL    HW124107   2.426   2.817   6.896
 7736SOL    HW224108   2.368   2.689   6.979
 7737SOL     OW24109   3.059   6.866   2.714
 7737SOL    HW124110   3.039   6.806   2.792
 7737SOL    HW224111   2.985   6.933   2.703
 7738SOL     OW24112   3.303   5.417   0.312
 7738SOL    HW124113   3.393   5.407   0.270
 7738SOL    HW224114   3.302   5.501   0.367
 7739SOL     OW24115   0.352   2.553   2.203
 7739SOL    HW124116   0.310   2.573   2.291
 7739SOL    HW224117   0.284   2.563   2.130
 7740SOL     OW24118   2.538   0.479   3.222
 7740SOL    HW124119   2.552   0.471   3.123
 7740SOL    HW224120   2.556   0.391   3.266
 7741SOL     OW24121   0.180   4.835   5.915
 7741SOL    HW124122   0.118   4.796   5.847
 7741SOL    HW224123   0.153   4.929   5.935
 7742SOL     OW24124   4.353   2.216   2.843
 7742SOL    HW124125   4.280   2.212   2.912
 7742SOL    HW224126   4.409   2.133   2.850
 7743SOL     OW24127   5.035   1.907   0.153
 7743SOL    HW124128   5.037   1.844   0.076
 7743SOL    HW224129   4.957   1.968   0.145
 7744SOL     OW24130   0.840   1.030   4.567
 7744SOL    HW124131   0.755   0.977   4.560
 7744SOL    HW224132   0.898   0.992   4.639
 7745SOL     OW24133   4.085   1.102   6.847
 7745SOL    HW124134   4.017   1.052   6.793
 7745SOL    HW224135   4.118   1.043   6.921
 7746SOL     OW24136   0.726   0.825   0.569
 7746SOL    HW124137   0.660   0.814   0.644
 7746SOL    HW224138   0.771   0.914   0.578
 7747SOL     OW24139   5.604   6.342   1.115
 7747SOL    HW124140   5.603   6.255   1.065
 7747SOL    HW224141   5.530   6.342   1.183
 7748SOL     OW24142   3.255   3.855   4.555
 7748SOL    HW124143   3.179   3.879   4.615
 7748SOL    HW224144   3.308   3.781   4.596
 7749SOL     OW24145   3.477   3.298   5.720
 7749SOL    HW124146   3.548   3.337   5.661
 7749SOL    HW224147   3.461   3.203   5.694
 7750SOL     OW24148   6.931   5.664   0.422
 7750SOL    HW124149   6.987   5.592   0.464
 7750SOL    HW224150   6.869   5.623   0.355
 7751SOL     OW24151   1.414   2.942   2.958
 7751SOL    HW124152   1.376   2.955   2.866
 7751SOL    HW224153   1.507   2.906   2.951
 7752SOL     OW24154   5.890   6.271   5.293
 7752SOL    HW124155   5.836   6.356   5.297
 7752SOL    HW224156   5.974   6.288   5.241
 7753SOL     OW24157   2.137   0.269   4.514
 7753SOL    HW124158   2.170   0.191   4.568
 7753SOL    HW224159   2.184   0.352   4.544
 7754SOL     OW24160   5.017   0.065   1.736
 7754SOL    HW124161   5.080   7.018   1.713
 7754SOL    HW224162   4.923   0.030   1.735
 7755SOL     OW24163   1.442   2.153   5.662
 7755SOL    HW124164   1.481   2.064   5.686
 7755SOL    HW224165   1.443   2.164   5.563
 7756SOL     OW24166   3.574   5.452   1.690
 7756SOL    HW124167   3.553   5.536   1.739
 7756SOL    HW224168   3.618   5.387   1.751
 7757SOL     OW24169   5.507   5.697   5.124
 7757SOL    HW124170   5.411   5.723   5.118
 7757SOL    HW224171   5.532   5.643   5.044
 7758SOL     OW24172   1.403   1.754   6.148
 7758SOL    HW124173   1.449   1.779   6.234
 7758SOL    HW224174   1.313   1.716   6.168
 7759SOL     OW24175   1.024   1.770   5.690
 7759SOL    HW124176   1.114   1.814   5.691
 7759SOL    HW224177   0.975   1.796   5.606
 7760SOL     OW24178   5.505   3.701   2.590
 7760SOL    HW124179   5.503   3.781   2.530
 7760SOL    HW224180   5.416   3.657   2.591
 7761SOL     OW24181   0.866   0.272   6.072
 7761SOL    HW124182   0.848   0.314   5.983
 7761SOL    HW224183   0.782   0.270   6.126
 7762SOL     OW24184   4.405   0.406   4.131
 7762SOL    HW124185   4.384   0.413   4.034
 7762SOL    HW224186   4.482   0.344   4.144
 7763SOL     OW24187   1.134   1.395   6.977
 7763SOL    HW124188   1.170   1.438   0.034
 7763SOL    HW224189   1.136   1.295   6.989
 7764SOL     OW24190   3.499   2.862   3.092
 7764SOL    HW124191   3.484   2.936   3.158
 7764SOL    HW224192   3.538   2.783   3.140
 7765SOL     OW24193   6.262   2.764   3.983
 7765SOL    HW124194   6.332   2.693   3.995
 7765SOL    HW224195   6.191   2.730   3.921
 7766SOL     OW24196   6.074   2.492   6.880
 7766SOL    HW124197   6.040   2.410   6.925
 7766SOL    HW224198   6.150   2.468   6.819
 7767SOL     OW24199   4.370   5.819   3.146
 7767SOL    HW124200   4.355   5.720   3.141
 7767SOL    HW224201   4.290   5.867   3.111
 7768SOL     OW24202   4.354   4.632   2.133
 7768SOL    HW124203   4.271   4.688   2.128
 7768SOL    HW224204   4.348   4.572   2.212
 7769SOL     OW24205   4.987   2.770   3.088
 7769SOL    HW124206   4.910   2.732   3.140
 7769SOL    HW224207   5.073   2.740   3.129
 7770SOL     OW24208   1.953   4.169   2.560
 7770SOL    HW124209   1.936   4.080   2.518
 7770SOL    HW224210   1.866   4.216   2.576
 7771SOL     OW24211   3.424   2.262   5.329
 7771SOL    HW124212   3.345   2.301   5.281
 7771SOL    HW224213   3.471   2.333   5.380
 7772SOL     OW24214   5.010   0.160   2.349
 7772SOL    HW124215   4.963   0.074   2.330
 7772SOL    HW224216   4.968   0.233   2.294
 7773SOL     OW24217   2.373   5.442   4.780
 7773SOL    HW124218   2.406   5.349   4.798
 7773SOL    HW224219   2.277   5.449   4.809
 7774SOL     OW24220   5.525   1.925   5.830
 7774SOL    HW124221   5.461   1.991   5.790
 7774SOL    HW224222   5.473   1.856   5.881
 7775SOL     OW24223   5.261   6.163   1.927
 7775SOL    HW124224   5.306   6.239   1.878
 7775SOL    HW224225   5.253   6.186   2.024
 7776SOL     OW24226   1.592   4.916   6.849
 7776SOL    HW124227   1.664   4.895   6.783
 7776SOL    HW224228   1.600   5.012   6.876
 7777SOL     OW24229   0.541   0.241   4.601
 7777SOL    HW124230   0.600   0.160   4.594
 7777SOL    HW224231   0.516   0.272   4.509
 7778SOL     OW24232   5.547   4.031   0.881
 7778SOL    HW124233   5.472   4.076   0.832
 7778SOL    HW224234   5.511   3.978   0.957
 7779SOL     OW24235   2.625   2.543   1.446
 7779SOL    HW124236   2.570   2.523   1.527
 7779SOL    HW224237   2.652   2.639   1.447
 7780SOL     OW24238   0.978   4.609   5.224
 7780SOL    HW124239   0.880   4.587   5.219
 7780SOL    HW224240   1.006   4.620   5.319
 7781SOL     OW24241   1.377   4.702   0.410
 7781SOL    HW124242   1.389   4.776   0.344
 7781SOL    HW224243   1.466   4.667   0.438
 7782SOL     OW24244   6.582   4.706   4.811
 7782SOL    HW124245   6.576   4.740   4.904
 7782SOL    HW224246   6.677   4.681   4.791
 7783SOL     OW24247   0.798   5.905   4.973
 7783SOL    HW124248   0.837   5.872   5.059
 7783SOL    HW224249   0.715   5.958   4.992
 7784SOL     OW24250   3.042   2.850   1.407
 7784SOL    HW124251   3.027   2.781   1.478
 7784SOL    HW224252   3.074   2.806   1.324
 7785SOL     OW24253   1.844   5.524   4.103
 7785SOL    HW124254   1.844   5.522   4.003
 7785SOL    HW224255   1.774   5.462   4.137
 7786SOL     OW24256   3.106   6.353   6.998
 7786SOL    HW124257   3.010   6.367   6.975
 7786SOL    HW224258   3.116   6.349   0.071
 7787SOL     OW24259   2.193   2.721   6.694
 7787SOL    HW124260   2.243   2.750   6.775
 7787SOL    HW224261   2.177   2.799   6.634
 7788SOL     OW24262   2.381   5.649   1.650
 7788SOL    HW124263   2.292   5.625   1.611
 7788SOL    HW224264   2.369   5.705   1.732
 7789SOL     OW24265   1.816   6.697   6.234
 7789SOL    HW124266   1.873   6.620   6.264
 7789SOL    HW224267   1.785   6.748   6.314
 7790SOL     OW24268   5.616   5.749   3.209
 7790SOL    HW124269   5.664   5.762   3.296
 7790SOL    HW224270   5.682   5.742   3.135
 7791SOL     OW24271   2.077   5.884   3.272
 7791SOL    HW124272   2.176   5.896   3.266
 7791SOL    HW224273   2.032   5.973   3.265
 7792SOL     OW24274   1.387   4.990   4.755
 7792SOL    HW124275   1.418   5.074   4.710
 7792SOL    HW224276   1.308   5.011   4.813
 7793SOL     OW24277   3.536   0.843   0.454
 7793SOL    HW124278   3.561   0.746   0.455
 7793SOL    HW224279   3.499   0.867   0.365
 7794SOL     OW24280   6.406   4.680   2.847
 7794SOL    HW124281   6.464   4.619   2.901
 7794SOL    HW224282   6.321   4.633   2.822
 7795SOL     OW24283   2.028   4.145   5.391
 7795SOL    HW124284   2.080   4.110   5.468
 7795SOL    HW224285   2.042   4.087   5.311
 7796SOL     OW24286   3.988   3.908   3.463
 7796SOL    HW124287   3.923   3.925   3.537
 7796SOL    HW224288   4.070   3.964   3.477
 7797SOL     OW24289   1.290   0.112   3.100
 7797SOL    HW124290   1.331   0.112   3.191
 7797SOL    HW224291   1.361   0.092   3.032
 7798SOL     OW24292   2.294   4.277   5.540
 7798SOL    HW124293   2.232   4.355   5.546
 7798SOL    HW224294   2.331   4.270   5.448
 7799SOL     OW24295   0.953   6.329   2.540
 7799SOL    HW124296   0.997   6.348   2.452
 7799SOL    HW224297   1.007   6.370   2.614
 7800SOL     OW24298   1.145   5.371   1.411
 7800SOL    HW124299   1.207   5.348   1.487
 7800SOL    HW224300   1.112   5.464   1.423
 7801SOL     OW24301   2.364   1.935   1.553
 7801SOL    HW124302   2.269   1.909   1.539
 7801SOL    HW224303   2.410   1.865   1.607
 7802SOL     OW24304   5.968   2.820   1.076
 7802SOL    HW124305   6.017   2.733   1.078
 7802SOL    HW224306   5.875   2.806   1.042
 7803SOL     OW24307   4.797   1.810   6.107
 7803SOL    HW124308   4.703   1.827   6.135
 7803SOL    HW224309   4.817   1.712   6.114
 7804SOL     OW24310   4.877   2.158   3.442
 7804SOL    HW124311   4.889   2.228   3.372
 7804SOL    HW224312   4.824   2.082   3.404
 7805SOL     OW24313   5.577   2.716   1.167
 7805SOL    HW124314   5.622   2.793   1.211
 7805SOL    HW224315   5.629   2.688   1.087
 7806SOL     OW24316   5.509   1.739   0.187
 7806SOL    HW124317   5.456   1.760   0.105
 7806SOL    HW224318   5.449   1.702   0.257
 7807SOL     OW24319   1.613   4.556   5.372
 7807SOL    HW124320   1.676   4.626   5.405
 7807SOL    HW224321   1.652   4.511   5.291
 7808SOL     OW24322   6.507   3.085   3.665
 7808SOL    HW124323   6.485   3.179   3.638
 7808SOL    HW224324   6.428   3.026   3.646
 7809SOL     OW24325   2.830   5.119   3.614
 7809SOL    HW124326   2.769   5.108   3.535
 7809SOL    HW224327   2.925   5.106   3.586
 7810SOL     OW24328   3.484   0.063   4.301
 7810SOL    HW124329   3.483   7.014   4.235
 7810SOL    HW224330   3.513   0.029   4.390
 7811SOL     OW24331   1.794   5.399   2.300
 7811SOL    HW124332   1.842   5.439   2.222
 7811SOL    HW224333   1.861   5.364   2.366
 7812SOL     OW24334   0.217   1.864   4.289
 7812SOL    HW124335   0.139   1.926   4.279
 7812SOL    HW224336   0.297   1.906   4.247
 7813SOL     OW24337   5.062   2.605   0.206
 7813SOL    HW124338   5.018   2.541   0.143
 7813SOL    HW224339   4.996   2.635   0.275
 7814SOL     OW24340   0.014   3.523   3.169
 7814SOL    HW124341   0.047   3.524   3.264
 7814SOL    HW224342   0.079   3.473   3.112
 7815SOL     OW24343   5.432   0.253   5.631
 7815SOL    HW124344   5.384   0.341   5.633
 7815SOL    HW224345   5.502   0.252   5.702
 7816SOL     OW24346   1.904   2.251   6.198
 7816SOL    HW124347   1.956   2.182   6.249
 7816SOL    HW224348   1.856   2.311   6.262
 7817SOL     OW24349   5.648   5.089   2.874
 7817SOL    HW124350   5.618   5.174   2.916
 7817SOL    HW224351   5.622   5.011   2.932
 7818SOL     OW24352   4.143   0.475   2.209
 7818SOL    HW124353   4.230   0.491   2.256
 7818SOL    HW224354   4.113   0.561   2.166
 7819SOL     OW24355   0.243   4.076   1.547
 7819SOL    HW124356   0.268   3.988   1.507
 7819SOL    HW224357   0.258   4.073   1.646
 7820SOL     OW24358   1.719   2.104   5.860
 7820SOL    HW124359   1.626   2.136   5.877
 7820SOL    HW224360   1.740   2.028   5.922
 7821SOL     OW24361   5.551   6.042   0.312
 7821SOL    HW124362   5.545   6.096   0.228
 7821SOL    HW224363   5.470   6.056   0.367
 7822SOL     OW24364   2.304   1.976   6.283
 7822SOL    HW124365   2.301   1.941   6.377
 7822SOL    HW224366   2.337   2.071   6.284
 7823SOL     OW24367   2.673   3.953   5.283
 7823SOL    HW124368   2.667   3.856   5.306
 7823SOL    HW224369   2.597   3.978   5.223
 7824SOL     OW24370   6.359   0.445   4.158
 7824SOL    HW124371   6.356   0.514   4.085
 7824SOL    HW224372   6.425   0.471   4.227
 7825SOL     OW24373   1.769   2.665   1.271
 7825SOL    HW124374   1.810   2.756   1.266
 7825SOL    HW224375   1.806   2.607   1.199
 7826SOL     OW24376   6.611   1.497   0.471
 7826SOL    HW124377   6.519   1.536   0.460
 7826SOL    HW224378   6.680   1.568   0.453
 7827SOL     OW24379   2.514   5.959   0.714
 7827SOL    HW124380   2.541   5.992   0.804
 7827SOL    HW224381   2.416   5.938   0.714
 7828SOL     OW24382   1.460   4.509   6.688
 7828SOL    HW124383   1.480   4.479   6.781
 7828SOL    HW224384   1.429   4.432   6.633
 7829SOL     OW24385   2.923   3.834   1.284
 7829SOL    HW124386   2.928   3.914   1.344
 7829SOL    HW224387   2.827   3.814   1.262
 7830SOL     OW24388   2.533   4.775   5.610
 7830SOL    HW124389   2.448   4.723   5.622
 7830SOL    HW224390   2.600   4.718   5.562
 7831SOL     OW24391   1.949   6.490   0.830
 7831SOL    HW124392   1.936   6.439   0.915
 7831SOL    HW224393   1.890   6.571   0.830
 7832SOL     OW24394   4.853   1.112   3.275
 7832SOL    HW124395   4.840   1.032   3.216
 7832SOL    HW224396   4.791   1.105   3.353
 7833SOL     OW24397   1.033   1.259   6.647
 7833SOL    HW124398   1.109   1.319   6.674
 7833SOL    HW224399   1.032   1.178   6.705
 7834SOL     OW24400   6.717   1.882   3.580
 7834SOL    HW124401   6.747   1.819   3.653
 7834SOL    HW224402   6.791   1.945   3.559
 7835SOL     OW24403   3.698   2.445   5.819
 7835SOL    HW124404   3.621   2.508   5.816
 7835SOL    HW224405   3.755   2.466   5.898
 7836SOL     OW24406   3.204   3.063   4.909
 7836SOL    HW124407   3.235   3.111   4.991
 7836SOL    HW224408   3.107   3.080   4.895
 7837SOL     OW24409   6.713   5.510   0.297
 7837SOL    HW124410   6.724   5.444   0.371
 7837SOL    HW224411   6.642   5.577   0.321
 7838SOL     OW24412   4.313   6.908   0.233
 7838SOL    HW124413   4.305   6.818   0.275
 7838SOL    HW224414   4.249   6.972   0.277
 7839SOL     OW24415   6.000   4.569   4.965
 7839SOL    HW124416   5.934   4.548   5.036
 7839SOL    HW224417   6.066   4.637   4.999
 7840SOL     OW24418   6.803   2.465   4.059
 7840SOL    HW124419   6.843   2.551   4.029
 7840SOL    HW224420   6.787   2.406   3.980
 7841SOL     OW24421   3.754   2.063   6.466
 7841SOL    HW124422   3.732   1.966   6.461
 7841SOL    HW224423   3.849   2.074   6.496
 7842SOL     OW24424   2.386   2.053   2.473
 7842SOL    HW124425   2.343   2.040   2.562
 7842SOL    HW224426   2.319   2.086   2.407
 7843SOL     OW24427   6.894   5.753   3.133
 7843SOL    HW124428   6.869   5.850   3.135
 7843SOL    HW224429   6.943   5.730   3.217
 7844SOL     OW24430   3.881   6.968   2.265
 7844SOL    HW124431   3.970   6.931   2.292
 7844SOL    HW224432   3.864   0.026   2.316
 7845SOL     OW24433   5.522   2.055   3.562
 7845SOL    HW124434   5.522   1.973   3.618
 7845SOL    HW224435   5.557   2.034   3.471
 7846SOL     OW24436   0.659   1.419   2.116
 7846SOL    HW124437   0.560   1.432   2.123
 7846SOL    HW224438   0.702   1.503   2.082
 7847SOL     OW24439   6.575   1.846   3.099
 7847SOL    HW124440   6.505   1.908   3.065
 7847SOL    HW224441   6.572   1.760   3.047
 7848SOL     OW24442   4.019   3.934   0.246
 7848SOL    HW124443   3.942   3.968   0.300
 7848SOL    HW224444   4.012   3.835   0.236
 7849SOL     OW24445   5.613   4.469   4.205
 7849SOL    HW124446   5.612   4.370   4.222
 7849SOL    HW224447   5.527   4.495   4.162
 7850SOL     OW24448   0.828   2.070   4.533
 7850SOL    HW124449   0.924   2.050   4.513
 7850SOL    HW224450   0.801   2.023   4.618
 7851SOL     OW24451   6.673   1.242   1.436
 7851SOL    HW124452   6.621   1.211   1.356
 7851SOL    HW224453   6.741   1.309   1.408
 7852SOL     OW24454   2.412   1.793   6.129
 7852SOL    HW124455   2.369   1.721   6.184
 7852SOL    HW224456   2.379   1.882   6.160
 7853SOL     OW24457   4.815   2.138   1.662
 7853SOL    HW124458   4.823   2.116   1.760
 7853SOL    HW224459   4.901   2.179   1.630
 7854SOL     OW24460   3.827   3.369   0.221
 7854SOL    HW124461   3.848   3.439   0.153
 7854SOL    HW224462   3.816   3.281   0.175
 7855SOL     OW24463   4.678   5.904   3.935
 7855SOL    HW124464   4.761   5.880   3.986
 7855SOL    HW224465   4.699   5.976   3.869
 7856SOL     OW24466   6.448   4.717   5.527
 7856SOL    HW124467   6.510   4.756   5.595
 7856SOL    HW224468   6.472   4.750   5.436
 7857SOL     OW24469   5.562   1.428   5.662
 7857SOL    HW124470   5.573   1.331   5.684
 7857SOL    HW224471   5.464   1.450   5.655
 7858SOL     OW24472   5.753   6.589   4.078
 7858SOL    HW124473   5.720   6.495   4.065
 7858SOL    HW224474   5.675   6.651   4.081
 7859SOL     OW24475   4.331   2.914   6.668
 7859SOL    HW124476   4.393   2.992   6.670
 7859SOL    HW224477   4.296   2.897   6.760
 7860SOL     OW24478   3.199   0.269   2.533
 7860SOL    HW124479   3.204   0.234   2.627
 7860SOL    HW224480   3.105   0.262   2.500
 7861SOL     OW24481   3.636   4.986   1.834
 7861SOL    HW124482   3.649   4.915   1.903
 7861SOL    HW224483   3.726   5.020   1.804
 7862SOL     OW24484   2.198   3.936   1.609
 7862SOL    HW124485   2.216   3.843   1.578
 7862SOL    HW224486   2.275   3.995   1.586
 7863SOL     OW24487   0.656   4.895   4.030
 7863SOL    HW124488   0.708   4.946   4.099
 7863SOL    HW224489   0.598   4.959   3.979
 7864SOL     OW24490   0.292   5.424   5.636
 7864SOL    HW124491   0.350   5.452   5.713
 7864SOL    HW224492   0.351   5.402   5.558
 7865SOL     OW24493   6.177   6.818   3.776
 7865SOL    HW124494   6.137   6.774   3.857
 7865SOL    HW224495   6.170   6.917   3.785
 7866SOL     OW24496   1.611   1.326   6.263
 7866SOL    HW124497   1.677   1.256   6.234
 7866SOL    HW224498   1.522   1.283   6.278
 7867SOL     OW24499   6.114   6.164   3.996
 7867SOL    HW124500   6.037   6.105   3.972
 7867SOL    HW224501   6.166   6.123   4.071
 7868SOL     OW24502   5.179   6.045   1.658
 7868SOL    HW124503   5.195   5.991   1.741
 7868SOL    HW224504   5.084   6.077   1.658
 7869SOL     OW24505   6.320   4.006   0.489
 7869SOL    HW124506   6.247   3.945   0.459
 7869SOL    HW224507   6.282   4.097   0.507
 7870SOL     OW24508   3.990   4.900   3.966
 7870SOL    HW124509   3.909   4.881   4.021
 7870SOL    HW224510   4.018   4.995   3.978
 7871SOL     OW24511   4.928   2.840   2.548
 7871SOL    HW124512   4.904   2.815   2.455
 7871SOL    HW224513   5.027   2.833   2.561
 7872SOL     OW24514   2.182   3.986   3.138
 7872SOL    HW124515   2.221   3.970   3.047
 7872SOL    HW224516   2.200   3.907   3.196
 7873SOL     OW24517   5.613   0.225   5.845
 7873SOL    HW124518   5.687   0.289   5.863
 7873SOL    HW224519   5.533   0.249   5.901
 7874SOL     OW24520   5.255   2.074   0.087
 7874SOL    HW124521   5.184   2.011   0.119
 7874SOL    HW224522   5.342   2.024   0.080
 7875SOL     OW24523   4.634   2.872   6.922
 7875SOL    HW124524   4.632   2.964   6.882
 7875SOL    HW224525   4.556   2.861   6.984
 7876SOL     OW24526   1.197   0.070   4.817
 7876SOL    HW124527   1.185   7.026   4.748
 7876SOL    HW224528   1.265   0.136   4.786
 7877SOL     OW24529   0.735   2.227   2.909
 7877SOL    HW124530   0.686   2.206   2.994
 7877SOL    HW224531   0.785   2.146   2.878
 7878SOL     OW24532   5.677   4.526   4.845
 7878SOL    HW124533   5.684   4.618   4.807
 7878SOL    HW224534   5.658   4.532   4.943
 7879SOL     OW24535   4.243   5.289   3.170
 7879SOL    HW124536   4.325   5.326   3.216
 7879SOL    HW224537   4.212   5.208   3.219
 7880SOL     OW24538   1.770   5.487   0.864
 7880SOL    HW124539   1.770   5.388   0.867
 7880SOL    HW224540   1.684   5.522   0.903
 7881SOL     OW24541   6.430   4.658   4.441
 7881SOL    HW124542   6.356   4.665   4.507
 7881SOL    HW224543   6.392   4.657   4.348
 7882SOL     OW24544   1.260   2.962   1.489
 7882SOL    HW124545   1.226   2.871   1.509
 7882SOL    HW224546   1.311   2.961   1.403
 7883SOL     OW24547   0.971   0.627   1.121
 7883SOL    HW124548   0.917   0.667   1.048
 7883SOL    HW224549   0.913   0.610   1.201
 7884SOL     OW24550   2.051   3.607   4.485
 7884SOL    HW124551   2.077   3.536   4.419
 7884SOL    HW224552   1.975   3.660   4.448
 7885SOL     OW24553   6.557   5.103   1.564
 7885SOL    HW124554   6.540   5.195   1.529
 7885SOL    HW224555   6.470   5.059   1.588
 7886SOL     OW24556   3.044   5.330   6.570
 7886SOL    HW124557   3.003   5.254   6.620
 7886SOL    HW224558   3.086   5.393   6.635
 7887SOL     OW24559   3.787   2.765   5.371
 7887SOL    HW124560   3.728   2.775   5.291
 7887SOL    HW224561   3.826   2.673   5.372
 7888SOL     OW24562   6.428   0.309   5.100
 7888SOL    HW124563   6.370   0.228   5.088
 7888SOL    HW224564   6.519   0.280   5.132
 7889SOL     OW24565   1.998   5.164   0.748
 7889SOL    HW124566   2.049   5.214   0.678
 7889SOL    HW224567   1.914   5.215   0.771
 7890SOL     OW24568   1.327   2.548   3.238
 7890SOL    HW124569   1.405   2.544   3.175
 7890SOL    HW224570   1.360   2.571   3.330
 7891SOL     OW24571   1.977   3.799   3.562
 7891SOL    HW124572   2.010   3.729   3.625
 7891SOL    HW224573   2.044   3.873   3.555
 7892SOL     OW24574   2.117   0.842   3.671
 7892SOL    HW124575   2.024   0.819   3.702
 7892SOL    HW224576   2.144   0.779   3.599
 7893SOL     OW24577   6.626   6.365   2.873
 7893SOL    HW124578   6.595   6.429   2.803
 7893SOL    HW224579   6.555   6.296   2.889
 7894SOL     OW24580   3.876   6.711   0.146
 7894SOL    HW124581   3.786   6.740   0.178
 7894SOL    HW224582   3.937   6.790   0.141
 7895SOL     OW24583   5.628   0.587   5.003
 7895SOL    HW124584   5.696   0.603   5.075
 7895SOL    HW224585   5.674   0.586   4.914
 7896SOL     OW24586   4.837   3.474   0.854
 7896SOL    HW124587   4.850   3.387   0.807
 7896SOL    HW224588   4.755   3.468   0.912
 7897SOL     OW24589   2.995   4.074   6.982
 7897SOL    HW124590   3.095   4.076   6.980
 7897SOL    HW224591   2.961   4.091   6.889
 7898SOL     OW24592   4.394   2.014   3.087
 7898SOL    HW124593   4.307   2.063   3.083
 7898SOL    HW224594   4.438   2.032   3.175
 7899SOL     OW24595   5.737   0.599   1.466
 7899SOL    HW124596   5.782   0.632   1.383
 7899SOL    HW224597   5.659   0.658   1.488
 7900SOL     OW24598   1.786   4.819   1.974
 7900SOL    HW124599   1.885   4.818   1.990
 7900SOL    HW224600   1.757   4.732   1.936
 7901SOL     OW24601   5.008   1.582   6.604
 7901SOL    HW124602   4.966   1.504   6.651
 7901SOL    HW224603   5.103   1.591   6.632
 7902SOL     OW24604   5.856   6.685   1.104
 7902SOL    HW124605   5.878   6.770   1.057
 7902SOL    HW224606   5.799   6.627   1.045
 7903SOL     OW24607   5.563   1.534   0.672
 7903SOL    HW124608   5.646   1.517   0.724
 7903SOL    HW224609   5.570   1.491   0.582
 7904SOL     OW24610   5.576   0.318   3.283
 7904SOL    HW124611   5.617   0.407   3.263
 7904SOL    HW224612   5.490   0.331   3.333
 7905SOL     OW24613   4.768   2.322   0.071
 7905SOL    HW124614   4.761   2.369   0.160
 7905SOL    HW224615   4.788   2.226   0.087
 7906SOL     OW24616   0.461   5.125   0.706
 7906SOL    HW124617   0.401   5.196   0.742
 7906SOL    HW224618   0.412   5.074   0.634
 7907SOL     OW24619   5.816   2.632   3.098
 7907SOL    HW124620   5.903   2.643   3.146
 7907SOL    HW224621   5.833   2.637   2.999
 7908SOL     OW24622   1.007   1.269   5.728
 7908SOL    HW124623   0.916   1.284   5.767
 7908SOL    HW224624   1.064   1.221   5.794
 7909SOL     OW24625   5.505   4.113   4.923
 7909SOL    HW124626   5.505   4.160   5.012
 7909SOL    HW224627   5.471   4.020   4.934
 7910SOL     OW24628   2.979   3.642   5.686
 7910SOL    HW124629   2.906   3.590   5.731
 7910SOL    HW224630   3.055   3.580   5.662
 7911SOL     OW24631   1.944   3.130   0.140
 7911SOL    HW124632   1.975   3.070   0.067
 7911SOL    HW224633   1.875   3.082   0.195
 7912SOL     OW24634   6.537   4.866   0.493
 7912SOL    HW124635   6.614   4.873   0.430
 7912SOL    HW224636   6.482   4.786   0.470
 7913SOL     OW24637   1.432   4.767   1.015
 7913SOL    HW124638   1.452   4.792   1.109
 7913SOL    HW224639   1.419   4.850   0.960
 7914SOL     OW24640   0.564   4.413   0.109
 7914SOL    HW124641   0.558   4.412   0.209
 7914SOL    HW224642   0.653   4.448   0.081
 7915SOL     OW24643   4.934   3.042   1.863
 7915SOL    HW124644   4.928   3.070   1.767
 7915SOL    HW224645   4.842   3.037   1.902
 7916SOL     OW24646   0.924   4.312   5.370
 7916SOL    HW124647   0.856   4.384   5.372
 7916SOL    HW224648   1.001   4.336   5.429
 7917SOL     OW24649   3.995   3.520   4.570
 7917SOL    HW124650   3.993   3.620   4.575
 7917SOL    HW224651   3.940   3.482   4.644
 7918SOL     OW24652   6.864   1.415   6.484
 7918SOL    HW124653   6.818   1.349   6.426
 7918SOL    HW224654   6.946   1.449   6.438
 7919SOL     OW24655   2.024   4.503   2.478
 7919SOL    HW124656   1.965   4.578   2.445
 7919SOL    HW224657   1.978   4.416   2.463
 7920SOL     OW24658   0.318   5.719   0.907
 7920SOL    HW124659   0.256   5.642   0.918
 7920SOL    HW224660   0.289   5.775   0.829
 7921SOL     OW24661   5.315   6.614   0.391
 7921SOL    HW124662   5.277   6.639   0.302
 7921SOL    HW224663   5.400   6.663   0.407
 7922SOL     OW24664   6.802   6.535   0.527
 7922SOL    HW124665   6.838   6.608   0.469
 7922SOL    HW224666   6.875   6.501   0.587
 7923SOL     OW24667   3.164   0.233   2.046
 7923SOL    HW124668   3.121   0.163   1.988
 7923SOL    HW224669   3.243   0.194   2.092
 7924SOL     OW24670   4.398   0.051   2.275
 7924SOL    HW124671   4.333   0.068   2.201
 7924SOL    HW224672   4.355   0.072   2.363
 7925SOL     OW24673   0.724   1.528   6.553
 7925SOL    HW124674   0.643   1.583   6.570
 7925SOL    HW224675   0.805   1.577   6.584
 7926SOL     OW24676   4.662   1.623   5.334
 7926SOL    HW124677   4.710   1.711   5.336
 7926SOL    HW224678   4.587   1.627   5.269
 7927SOL     OW24679   4.438   5.202   2.567
 7927SOL    HW124680   4.414   5.242   2.656
 7927SOL    HW224681   4.361   5.211   2.505
 7928SOL     OW24682   1.423   2.229   4.356
 7928SOL    HW124683   1.408   2.156   4.290
 7928SOL    HW224684   1.336   2.275   4.375
 7929SOL     OW24685   4.080   5.135   6.379
 7929SOL    HW124686   4.030   5.116   6.294
 7929SOL    HW224687   4.167   5.086   6.377
 7930SOL     OW24688   4.612   5.582   4.553
 7930SOL    HW124689   4.595   5.484   4.561
 7930SOL    HW224690   4.552   5.621   4.483
 7931SOL     OW24691   1.984   2.149   6.634
 7931SOL    HW124692   1.923   2.086   6.682
 7931SOL    HW224693   1.974   2.241   6.672
 7932SOL     OW24694   1.713   6.175   6.725
 7932SOL    HW124695   1.812   6.181   6.740
 7932SOL    HW224696   1.695   6.108   6.652
 7933SOL     OW24697   0.313   5.824   6.595
 7933SOL    HW124698   0.262   5.887   6.536
 7933SOL    HW224699   0.309   5.732   6.556
 7934SOL     OW24700   2.232   4.708   0.297
 7934SOL    HW124701   2.220   4.679   0.392
 7934SOL    HW224702   2.243   4.628   0.238
 7935SOL     OW24703   6.030   5.522   6.993
 7935SOL    HW124704   5.992   5.541   0.057
 7935SOL    HW224705   6.012   5.600   6.933
 7936SOL     OW24706   3.904   6.184   2.443
 7936SOL    HW124707   3.877   6.272   2.483
 7936SOL    HW224708   3.970   6.200   2.369
 7937SOL     OW24709   6.568   6.566   3.495
 7937SOL    HW124710   6.489   6.586   3.438
 7937SOL    HW224711   6.543   6.576   3.592
 7938SOL     OW24712   6.562   5.774   4.568
 7938SOL    HW124713   6.578   5.863   4.610
 7938SOL    HW224714   6.631   5.757   4.498
 7939SOL     OW24715   1.975   2.456   5.597
 7939SOL    HW124716   1.884   2.423   5.623
 7939SOL    HW224717   1.973   2.555   5.585
 7940SOL     OW24718   1.834   3.832   2.223
 7940SOL    HW124719   1.891   3.768   2.274
 7940SOL    HW224720   1.806   3.791   2.136
 7941SOL     OW24721   6.047   0.713   0.685
 7941SOL    HW124722   6.008   0.623   0.707
 7941SOL    HW224723   6.068   0.761   0.770
 7942SOL     OW24724   6.511   6.476   2.659
 7942SOL    HW124725   6.511   6.566   2.617
 7942SOL    HW224726   6.510   6.406   2.588
 7943SOL     OW24727   6.218   3.275   0.663
 7943SOL    HW124728   6.306   3.298   0.623
 7943SOL    HW224729   6.157   3.241   0.592
 7944SOL     OW24730   0.449   2.300   1.805
 7944SOL    HW124731   0.392   2.363   1.753
 7944SOL    HW224732   0.391   2.231   1.848
 7945SOL     OW24733   5.894   5.916   1.719
 7945SOL    HW124734   5.857   5.930   1.811
 7945SOL    HW224735   5.951   5.994   1.693
 7946SOL     OW24736   2.306   1.831   5.370
 7946SOL    HW124737   2.297   1.797   5.277
 7946SOL    HW224738   2.374   1.905   5.372
 7947SOL     OW24739   3.466   2.111   6.178
 7947SOL    HW124740   3.535   2.162   6.229
 7947SOL    HW224741   3.486   2.013   6.181
 7948SOL     OW24742   1.012   6.242   0.911
 7948SOL    HW124743   0.973   6.288   0.831
 7948SOL    HW224744   0.952   6.253   0.989
 7949SOL     OW24745   4.281   4.791   4.774
 7949SOL    HW124746   4.249   4.817   4.865
 7949SOL    HW224747   4.374   4.754   4.781
 7950SOL     OW24748   5.794   5.124   4.787
 7950SOL    HW124749   5.808   5.222   4.771
 7950SOL    HW224750   5.844   5.096   4.869
 7951SOL     OW24751   2.389   4.247   2.023
 7951SOL    HW124752   2.311   4.197   1.986
 7951SOL    HW224753   2.412   4.323   1.962
 7952SOL     OW24754   0.562   3.017   6.779
 7952SOL    HW124755   0.485   3.050   6.723
 7952SOL    HW224756   0.532   2.938   6.833
 7953SOL     OW24757   2.332   2.726   4.176
 7953SOL    HW124758   2.322   2.798   4.245
 7953SOL    HW224759   2.253   2.665   4.180
 7954SOL     OW24760   4.519   3.986   5.453
 7954SOL    HW124761   4.508   3.891   5.480
 7954SOL    HW224762   4.606   3.997   5.405
 7955SOL     OW24763   1.209   6.533   6.870
 7955SOL    HW124764   1.154   6.475   6.810
 7955SOL    HW224765   1.204   6.499   6.964
 7956SOL     OW24766   4.053   5.972   2.486
 7956SOL    HW124767   4.043   5.927   2.575
 7956SOL    HW224768   3.989   6.048   2.481
 7957SOL     OW24769   0.926   0.913   1.719
 7957SOL    HW124770   1.024   0.897   1.704
 7957SOL    HW224771   0.881   0.933   1.632
 7958SOL     OW24772   3.846   5.600   4.472
 7958SOL    HW124773   3.932   5.651   4.464
 7958SOL    HW224774   3.826   5.556   4.384
 7959SOL     OW24775   4.211   5.966   1.000
 7959SOL    HW124776   4.252   5.942   0.912
 7959SOL    HW224777   4.176   6.060   0.997
 7960SOL     OW24778   2.901   0.710   0.450
 7960SOL    HW124779   2.965   0.726   0.374
 7960SOL    HW224780   2.953   0.684   0.532
 7961SOL     OW24781   6.920   0.562   1.395
 7961SOL    HW124782   7.017   0.549   1.375
 7961SOL    HW224783   6.895   0.657   1.378
 7962SOL     OW24784   1.617   0.721   0.228
 7962SOL    HW124785   1.593   0.647   0.165
 7962SOL    HW224786   1.668   0.791   0.179
 7963SOL     OW24787   6.678   0.349   3.669
 7963SOL    HW124788   6.661   0.330   3.572
 7963SOL    HW224789   6.702   0.263   3.715
 7964SOL     OW24790   0.128   4.946   3.910
 7964SOL    HW124791   0.166   4.862   3.950
 7964SOL    HW224792   0.153   4.951   3.814
 7965SOL     OW24793   3.403   2.591   6.110
 7965SOL    HW124794   3.345   2.667   6.082
 7965SOL    HW224795   3.499   2.615   6.095
 7966SOL     OW24796   0.944   2.910   5.124
 7966SOL    HW124797   0.918   2.998   5.085
 7966SOL    HW224798   0.963   2.921   5.222
 7967SOL     OW24799   2.812   6.345   3.664
 7967SOL    HW124800   2.894   6.397   3.684
 7967SOL    HW224801   2.732   6.405   3.669
 7968SOL     OW24802   2.158   2.560   3.410
 7968SOL    HW124803   2.154   2.628   3.483
 7968SOL    HW224804   2.249   2.561   3.369
 7969SOL     OW24805   3.991   5.850   0.731
 7969SOL    HW124806   3.985   5.948   0.749
 7969SOL    HW224807   3.909   5.805   0.767
 7970SOL     OW24808   0.006   3.057   2.416
 7970SOL    HW124809   6.954   3.071   2.476
 7970SOL    HW224810   0.048   3.145   2.395
 7971SOL     OW24811   4.491   1.451   0.823
 7971SOL    HW124812   4.506   1.492   0.913
 7971SOL    HW224813   4.523   1.513   0.752
 7972SOL     OW24814   1.667   3.431   0.691
 7972SOL    HW124815   1.606   3.358   0.659
 7972SOL    HW224816   1.620   3.487   0.759
 7973SOL     OW24817   4.791   4.779   4.143
 7973SOL    HW124818   4.861   4.793   4.073
 7973SOL    HW224819   4.753   4.686   4.135
 7974SOL     OW24820   5.511   1.135   5.696
 7974SOL    HW124821   5.416   1.125   5.666
 7974SOL    HW224822   5.512   1.162   5.792
 7975SOL     OW24823   5.617   0.458   2.746
 7975SOL    HW124824   5.681   0.425   2.677
 7975SOL    HW224825   5.652   0.436   2.837
 7976SOL     OW24826   0.360   0.524   0.042
 7976SOL    HW124827   0.447   0.573   0.034
 7976SOL    HW224828   0.285   0.589   0.034
 7977SOL     OW24829   4.952   5.686   1.990
 7977SOL    HW124830   5.041   5.682   2.034
 7977SOL    HW224831   4.916   5.780   1.995
 7978SOL     OW24832   6.119   3.453   6.163
 7978SOL    HW124833   6.020   3.456   6.177
 7978SOL    HW224834   6.142   3.380   6.099
 7979SOL     OW24835   3.574   6.701   5.532
 7979SOL    HW124836   3.592   6.728   5.437
 7979SOL    HW224837   3.564   6.602   5.537
 7980SOL     OW24838   2.468   5.395   6.943
 7980SOL    HW124839   2.432   5.303   6.955
 7980SOL    HW224840   2.503   5.405   6.850
 7981SOL     OW24841   0.429   5.562   1.996
 7981SOL    HW124842   0.451   5.575   2.092
 7981SOL    HW224843   0.513   5.545   1.944
 7982SOL     OW24844   0.293   1.536   0.151
 7982SOL    HW124845   0.320   1.482   0.071
 7982SOL    HW224846   0.302   1.633   0.130
 7983SOL     OW24847   5.660   1.851   2.364
 7983SOL    HW124848   5.640   1.832   2.268
 7983SOL    HW224849   5.579   1.889   2.409
 7984SOL     OW24850   1.752   1.113   1.040
 7984SOL    HW124851   1.732   1.211   1.046
 7984SOL    HW224852   1.667   1.061   1.042
 7985SOL     OW24853   2.270   0.172   3.695
 7985SOL    HW124854   2.202   0.187   3.623
 7985SOL    HW224855   2.292   0.075   3.700
 7986SOL     OW24856   3.539   1.313   6.866
 7986SOL    HW124857   3.447   1.343   6.838
 7986SOL    HW224858   3.542   1.214   6.872
 7987SOL     OW24859   1.379   3.489   0.036
 7987SOL    HW124860   1.356   3.411   7.004
 7987SOL    HW224861   1.477   3.491   0.053
 7988SOL     OW24862   1.244   2.182   3.712
 7988SOL    HW124863   1.334   2.212   3.743
 7988SOL    HW224864   1.188   2.262   3.690
 7989SOL     OW24865   3.737   3.372   5.577
 7989SOL    HW124866   3.834   3.361   5.558
 7989SOL    HW224867   3.704   3.456   5.535
 7990SOL     OW24868   6.754   3.425   3.131
 7990SOL    HW124869   6.845   3.453   3.162
 7990SOL    HW224870   6.737   3.331   3.160
 7991SOL     OW24871   6.412   0.488   3.629
 7991SOL    HW124872   6.343   0.557   3.650
 7991SOL    HW224873   6.500   0.533   3.613
 7992SOL     OW24874   1.104   6.878   1.485
 7992SOL    HW124875   1.087   6.897   1.388
 7992SOL    HW224876   1.181   6.814   1.493
 7993SOL     OW24877   0.578   6.774   6.559
 7993SOL    HW124878   0.626   6.696   6.597
 7993SOL    HW224879   0.635   6.818   6.489
 7994SOL     OW24880   4.307   0.102   2.913
 7994SOL    HW124881   4.318   0.084   2.815
 7994SOL    HW224882   4.265   0.192   2.925
 7995SOL     OW24883   4.292   5.067   3.355
 7995SOL    HW124884   4.372   5.091   3.410
 7995SOL    HW224885   4.208   5.089   3.406
 7996SOL     OW24886   2.960   0.069   4.973
 7996SOL    HW124887   3.032   0.030   5.030
 7996SOL    HW224888   2.872   0.060   5.021
 7997SOL     OW24889   0.557   1.272   1.425
 7997SOL    HW124890   0.493   1.334   1.471
 7997SOL    HW224891   0.536   1.270   1.327
 7998SOL     OW24892   3.702   5.355   0.894
 7998SOL    HW124893   3.782   5.349   0.834
 7998SOL    HW224894   3.732   5.349   0.989
 7999SOL     OW24895   0.653   6.650   6.199
 7999SOL    HW124896   0.583   6.584   6.222
 7999SOL    HW224897   0.648   6.728   6.262
 8000SOL     OW24898   5.576   0.101   0.214
 8000SOL    HW124899   5.484   0.062   0.224
 8000SOL    HW224900   5.572   0.184   0.158
 8001SOL     OW24901   3.293   5.729   1.076
 8001SOL    HW124902   3.355   5.785   1.021
 8001SOL    HW224903   3.206   5.777   1.087
 8002SOL     OW24904   1.049   2.188   5.295
 8002SOL    HW124905   1.066   2.250   5.371
 8002SOL    HW224906   1.023   2.098   5.330
 8003SOL     OW24907   2.866   5.064   2.409
 8003SOL    HW124908   2.826   5.050   2.319
 8003SOL    HW224909   2.959   5.100   2.400
 8004SOL     OW24910   2.087   3.265   3.913
 8004SOL    HW124911   2.007   3.207   3.932
 8004SOL    HW224912   2.106   3.264   3.815
 8005SOL     OW24913   3.557   0.727   2.636
 8005SOL    HW124914   3.458   0.734   2.629
 8005SOL    HW224915   3.591   0.795   2.701
 8006SOL     OW24916   2.483   0.789   6.483
 8006SOL    HW124917   2.482   0.849   6.403
 8006SOL    HW224918   2.550   0.823   6.549
 8007SOL     OW24919   6.890   1.093   4.969
 8007SOL    HW124920   6.947   1.151   4.912
 8007SOL    HW224921   6.924   0.999   4.967
 8008SOL     OW24922   4.509   5.802   5.790
 8008SOL    HW124923   4.499   5.705   5.810
 8008SOL    HW224924   4.600   5.832   5.817
 8009SOL     OW24925   5.784   0.969   2.887
 8009SOL    HW124926   5.813   0.874   2.878
 8009SOL    HW224927   5.695   0.980   2.843
 8010SOL     OW24928   0.794   1.169   6.897
 8010SOL    HW124929   0.741   1.084   6.890
 8010SOL    HW224930   0.736   1.246   6.871
 8011SOL     OW24931   3.523   2.389   0.671
 8011SOL    HW124932   3.545   2.305   0.721
 8011SOL    HW224933   3.445   2.435   0.715
 8012SOL     OW24934   2.127   4.566   1.605
 8012SOL    HW124935   2.082   4.489   1.558
 8012SOL    HW224936   2.200   4.602   1.546
 8013SOL     OW24937   1.360   4.970   3.098
 8013SOL    HW124938   1.321   5.060   3.078
 8013SOL    HW224939   1.286   4.906   3.122
 8014SOL     OW24940   1.036   6.579   5.130
 8014SOL    HW124941   1.026   6.507   5.198
 8014SOL    HW224942   1.131   6.610   5.129
 8015SOL     OW24943   2.630   0.722   0.392
 8015SOL    HW124944   2.728   0.723   0.413
 8015SOL    HW224945   2.617   0.721   0.292
 8016SOL     OW24946   5.010   0.335   5.824
 8016SOL    HW124947   4.958   0.308   5.743
 8016SOL    HW224948   5.034   0.432   5.817
 8017SOL     OW24949   6.507   6.984   0.780
 8017SOL    HW124950   6.513   6.912   0.849
 8017SOL    HW224951   6.592   6.987   0.728
 8018SOL     OW24952   3.143   2.249   6.197
 8018SOL    HW124953   3.047   2.233   6.175
 8018SOL    HW224954   3.193   2.270   6.113
 8019SOL     OW24955   2.352   4.358   5.810
 8019SOL    HW124956   2.303   4.310   5.882
 8019SOL    HW224957   2.327   4.319   5.721
 8020SOL     OW24958   6.097   6.223   0.616
 8020SOL    HW124959   6.163   6.252   0.547
 8020SOL    HW224960   6.031   6.296   0.631
 8021SOL     OW24961   1.402   1.541   1.014
 8021SOL    HW124962   1.368   1.525   1.107
 8021SOL    HW224963   1.491   1.587   1.019
 8022SOL     OW24964   4.897   6.585   2.702
 8022SOL    HW124965   4.904   6.672   2.653
 8022SOL    HW224966   4.918   6.600   2.799
 8023SOL     OW24967   6.374   5.191   3.153
 8023SOL    HW124968   6.299   5.130   3.129
 8023SOL    HW224969   6.338   5.282   3.173
 8024SOL     OW24970   3.127   5.429   7.003
 8024SOL    HW124971   3.086   5.479   0.053
 8024SOL    HW224972   3.102   5.472   6.917
 8025SOL     OW24973   2.546   6.286   6.465
 8025SOL    HW124974   2.524   6.200   6.420
 8025SOL    HW224975   2.542   6.361   6.397
 8026SOL     OW24976   1.429   4.177   6.741
 8026SOL    HW124977   1.516   4.205   6.701
 8026SOL    HW224978   1.370   4.138   6.671
 8027SOL     OW24979   4.732   1.131   5.142
 8027SOL    HW124980   4.765   1.217   5.179
 8027SOL    HW224981   4.681   1.148   5.057
 8028SOL     OW24982   3.297   5.187   4.379
 8028SOL    HW124983   3.245   5.199   4.294
 8028SOL    HW224984   3.269   5.102   4.424
 8029SOL     OW24985   4.980   3.327   1.124
 8029SOL    HW124986   4.886   3.296   1.109
 8029SOL    HW224987   5.014   3.291   1.211
 8030SOL     OW24988   4.375   4.461   0.055
 8030SOL    HW124989   4.425   4.384   0.014
 8030SOL    HW224990   4.301   4.489   7.020
 8031SOL     OW24991   5.187   6.261   2.941
 8031SOL    HW124992   5.279   6.224   2.957
 8031SOL    HW224993   5.182   6.354   2.978
 8032SOL     OW24994   5.735   4.506   6.437
 8032SOL    HW124995   5.656   4.513   6.375
 8032SOL    HW224996   5.770   4.598   6.455
 8033SOL     OW24997   4.606   2.679   6.193
 8033SOL    HW124998   4.592   2.716   6.285
 8033SOL    HW224999   4.551   2.596   6.183
 8034SOL     OW25000   6.078   0.595   4.739
 8034SOL    HW125001   6.094   0.512   4.685
 8034SOL    HW225002   6.134   0.592   4.822
 8035SOL     OW25003   5.025   1.913   4.290
 8035SOL    HW125004   4.968   1.939   4.368
 8035SOL    HW225005   5.021   1.984   4.220
 8036SOL     OW25006   1.054   4.483   2.685
 8036SOL    HW125007   0.997   4.543   2.741
 8036SOL    HW225008   1.131   4.450   2.740
 8037SOL     OW25009   1.438   3.174   1.064
 8037SOL    HW125010   1.519   3.216   1.023
 8037SOL    HW225011   1.368   3.161   0.994
 8038SOL     OW25012   3.589   0.714   3.478
 8038SOL    HW125013   3.504   0.710   3.531
 8038SOL    HW225014   3.624   0.807   3.480
 8039SOL     OW25015   0.592   1.719   4.535
 8039SOL    HW125016   0.602   1.818   4.548
 8039SOL    HW225017   0.628   1.694   4.445
 8040SOL     OW25018   1.765   6.618   0.441
 8040SOL    HW125019   1.857   6.580   0.431
 8040SOL    HW225020   1.719   6.618   0.352
 8041SOL     OW25021   2.825   1.580   1.621
 8041SOL    HW125022   2.865   1.489   1.629
 8041SOL    HW225023   2.894   1.648   1.647
 8042SOL     OW25024   3.360   2.932   3.959
 8042SOL    HW125025   3.288   2.983   4.004
 8042SOL    HW225026   3.449   2.968   3.986
 8043SOL     OW25027   4.396   6.781   2.748
 8043SOL    HW125028   4.368   6.707   2.808
 8043SOL    HW225029   4.328   6.854   2.751
 8044SOL     OW25030   3.665   2.933   1.189
 8044SOL    HW125031   3.653   3.012   1.250
 8044SOL    HW225032   3.699   2.855   1.241
 8045SOL     OW25033   5.309   0.861   1.280
 8045SOL    HW125034   5.383   0.896   1.223
 8045SOL    HW225035   5.342   0.849   1.373
 8046SOL     OW25036   0.647   4.972   0.853
 8046SOL    HW125037   0.581   5.033   0.809
 8046SOL    HW225038   0.721   4.952   0.789
 8047SOL     OW25039   3.292   5.451   4.428
 8047SOL    HW125040   3.298   5.352   4.435
 8047SOL    HW225041   3.360   5.484   4.362
 8048SOL     OW25042   5.028   1.130   5.858
 8048SOL    HW125043   5.053   1.190   5.934
 8048SOL    HW225044   5.044   1.035   5.884
 8049SOL     OW25045   0.802   0.482   0.129
 8049SOL    HW125046   0.874   0.413   0.141
 8049SOL    HW225047   0.810   0.551   0.201
 8050SOL     OW25048   1.674   3.987   2.805
 8050SOL    HW125049   1.732   3.908   2.825
 8050SOL    HW225050   1.712   4.038   2.728
 8051SOL     OW25051   4.899   5.902   3.032
 8051SOL    HW125052   4.896   5.841   2.953
 8051SOL    HW225053   4.963   5.866   3.100
 8052SOL     OW25054   4.673   1.831   1.793
 8052SOL    HW125055   4.772   1.841   1.780
 8052SOL    HW225056   4.627   1.914   1.759
 8053SOL     OW25057   3.072   3.930   3.730
 8053SOL    HW125058   3.021   3.915   3.646
 8053SOL    HW225059   3.112   3.843   3.760
 8054SOL     OW25060   4.431   0.139   4.412
 8054SOL    HW125061   4.487   0.138   4.496
 8054SOL    HW225062   4.486   0.174   4.337
 8055SOL     OW25063   0.535   0.210   5.756
 8055SOL    HW125064   0.494   0.300   5.741
 8055SOL    HW225065   0.470   0.152   5.804
 8056SOL     OW25066   4.012   2.044   3.861
 8056SOL    HW125067   3.921   2.027   3.822
 8056SOL    HW225068   4.005   2.112   3.934
 8057SOL     OW25069   3.051   1.997   3.064
 8057SOL    HW125070   3.011   2.086   3.046
 8057SOL    HW225071   3.034   1.936   2.987
 8058SOL     OW25072   4.542   0.587   2.106
 8058SOL    HW125073   4.607   0.612   2.178
 8058SOL    HW225074   4.496   0.501   2.130
 8059SOL     OW25075   4.489   2.395   4.343
 8059SOL    HW125076   4.536   2.416   4.429
 8059SOL    HW225077   4.400   2.355   4.363
 8060SOL     OW25078   0.866   2.554   3.586
 8060SOL    HW125079   0.772   2.587   3.584
 8060SOL    HW225080   0.868   2.460   3.551
 8061SOL     OW25081   0.058   0.482   2.410
 8061SOL    HW125082   0.086   0.439   2.324
 8061SOL    HW225083   0.138   0.492   2.470
 8062SOL     OW25084   3.590   5.240   4.331
 8062SOL    HW125085   3.513   5.238   4.393
 8062SOL    HW225086   3.616   5.146   4.307
 8063SOL     OW25087   0.672   2.714   0.377
 8063SOL    HW125088   0.591   2.690   0.430
 8063SOL    HW225089   0.654   2.701   0.280
 8064SOL     OW25090   0.198   4.481   1.542
 8064SOL    HW125091   0.177   4.564   1.593
 8064SOL    HW225092   0.252   4.503   1.461
 8065SOL     OW25093   3.300   5.821   4.511
 8065SOL    HW125094   3.233   5.857   4.576
 8065SOL    HW225095   3.253   5.778   4.435
 8066SOL     OW25096   0.487   1.909   5.794
 8066SOL    HW125097   0.542   1.969   5.853
 8066SOL    HW225098   0.521   1.816   5.801
 8067SOL     OW25099   4.692   2.736   1.975
 8067SOL    HW125100   4.761   2.726   1.904
 8067SOL    HW225101   4.682   2.832   2.000
 8068SOL     OW25102   6.822   4.514   0.379
 8068SOL    HW125103   6.877   4.434   0.353
 8068SOL    HW225104   6.808   4.573   0.300
 8069SOL     OW25105   2.169   6.705   1.123
 8069SOL    HW125106   2.145   6.800   1.142
 8069SOL    HW225107   2.089   6.646   1.135
 8070SOL     OW25108   3.247   3.682   0.323
 8070SOL    HW125109   3.148   3.673   0.324
 8070SOL    HW225110   3.272   3.775   0.350
 8071SOL     OW25111   2.781   6.448   4.662
 8071SOL    HW125112   2.862   6.489   4.622
 8071SOL    HW225113   2.794   6.349   4.671
 8072SOL     OW25114   3.498   0.876   0.178
 8072SOL    HW125115   3.594   0.900   0.165
 8072SOL    HW225116   3.445   0.899   0.096
 8073SOL     OW25117   4.234   6.012   5.063
 8073SOL    HW125118   4.301   6.008   5.138
 8073SOL    HW225119   4.253   5.941   4.996
 8074SOL     OW25120   3.800   2.807   0.849
 8074SOL    HW125121   3.731   2.760   0.905
 8074SOL    HW225122   3.784   2.786   0.753
 8075SOL     OW25123   6.417   0.969   0.467
 8075SOL    HW125124   6.319   0.953   0.460
 8075SOL    HW225125   6.440   1.058   0.427
 8076SOL     OW25126   5.041   2.677   5.717
 8076SOL    HW125127   5.088   2.592   5.692
 8076SOL    HW225128   5.107   2.752   5.718
 8077SOL     OW25129   1.923   5.513   1.840
 8077SOL    HW125130   1.929   5.494   1.742
 8077SOL    HW225131   1.894   5.430   1.888
 8078SOL     OW25132   5.982   1.537   0.154
 8078SOL    HW125133   5.976   1.446   0.113
 8078SOL    HW225134   5.972   1.606   0.082
 8079SOL     OW25135   4.887   1.544   3.303
 8079SOL    HW125136   4.895   1.500   3.213
 8079SOL    HW225137   4.896   1.475   3.375
 8080SOL     OW25138   0.499   3.052   0.258
 8080SOL    HW125139   0.451   3.001   0.187
 8080SOL    HW225140   0.433   3.096   0.318
 8081SOL     OW25141   5.080   6.872   4.248
 8081SOL    HW125142   5.165   6.823   4.261
 8081SOL    HW225143   5.056   6.922   4.331
 8082SOL     OW25144   5.378   6.904   1.881
 8082SOL    HW125145   5.411   6.988   1.838
 8082SOL    HW225146   5.320   6.854   1.816
 8083SOL     OW25147   4.896   3.864   2.330
 8083SOL    HW125148   4.948   3.936   2.375
 8083SOL    HW225149   4.846   3.902   2.252
 8084SOL     OW25150   4.994   0.356   6.941
 8084SOL    HW125151   5.069   0.291   6.927
 8084SOL    HW225152   4.920   0.335   6.877
 8085SOL     OW25153   5.630   6.832   2.640
 8085SOL    HW125154   5.714   6.881   2.663
 8085SOL    HW225155   5.561   6.897   2.606
 8086SOL     OW25156   4.378   1.171   3.749
 8086SOL    HW125157   4.368   1.084   3.796
 8086SOL    HW225158   4.357   1.159   3.652
 8087SOL     OW25159   3.023   1.073   0.990
 8087SOL    HW125160   2.952   1.092   1.059
 8087SOL    HW225161   3.008   1.131   0.910
 8088SOL     OW25162   5.364   2.879   1.119
 8088SOL    HW125163   5.428   2.803   1.124
 8088SOL    HW225164   5.277   2.852   1.160
 8089SOL     OW25165   4.801   2.737   0.674
 8089SOL    HW125166   4.738   2.681   0.728
 8089SOL    HW225167   4.894   2.727   0.710
 8090SOL     OW25168   3.903   2.075   6.783
 8090SOL    HW125169   3.883   1.994   6.728
 8090SOL    HW225170   3.984   2.121   6.747
 8091SOL     OW25171   2.751   3.682   6.309
 8091SOL    HW125172   2.654   3.661   6.318
 8091SOL    HW225173   2.806   3.605   6.342
 8092SOL     OW25174   0.010   2.577   5.318
 8092SOL    HW125175   0.022   2.605   5.223
 8092SOL    HW225176   6.995   2.486   5.321
 8093SOL     OW25177   4.728   5.575   2.719
 8093SOL    HW125178   4.723   5.620   2.808
 8093SOL    HW225179   4.762   5.481   2.731
 8094SOL     OW25180   1.594   3.332   5.319
 8094SOL    HW125181   1.557   3.315   5.227
 8094SOL    HW225182   1.656   3.410   5.316
 8095SOL     OW25183   6.582   4.121   4.622
 8095SOL    HW125184   6.523   4.041   4.608
 8095SOL    HW225185   6.557   4.166   4.708
 8096SOL     OW25186   2.775   6.049   3.727
 8096SOL    HW125187   2.800   6.145   3.717
 8096SOL    HW225188   2.731   6.017   3.643
 8097SOL     OW25189   4.700   6.460   3.517
 8097SOL    HW125190   4.626   6.515   3.477
 8097SOL    HW225191   4.767   6.520   3.559
 8098SOL     OW25192   2.422   6.636   3.931
 8098SOL    HW125193   2.445   6.569   3.861
 8098SOL    HW225194   2.373   6.591   4.006
 8099SOL     OW25195   4.387   6.929   3.855
 8099SOL    HW125196   4.349   6.906   3.945
 8099SOL    HW225197   4.344   7.012   3.820
 8100SOL     OW25198   6.168   0.378   0.280
 8100SOL    HW125199   6.226   0.339   0.208
 8100SOL    HW225200   6.072   0.355   0.261
 8101SOL     OW25201   2.285   6.911   4.053
 8101SOL    HW125202   2.237   6.880   3.970
 8101SOL    HW225203   2.375   6.944   4.028
 8102SOL     OW25204   0.422   4.889   4.466
 8102SOL    HW125205   0.489   4.823   4.499
 8102SOL    HW225206   0.368   4.847   4.393
 8103SOL     OW25207   4.519   0.529   0.922
 8103SOL    HW125208   4.561   0.450   0.965
 8103SOL    HW225209   4.590   0.597   0.900
 8104SOL     OW25210   2.861   6.822   6.164
 8104SOL    HW125211   2.948   6.795   6.124
 8104SOL    HW225212   2.848   6.920   6.154
 8105SOL     OW25213   0.816   2.311   3.443
 8105SOL    HW125214   0.780   2.361   3.364
 8105SOL    HW225215   0.889   2.250   3.413
 8106SOL     OW25216   2.360   6.007   3.047
 8106SOL    HW125217   2.344   5.916   3.010
 8106SOL    HW225218   2.280   6.064   3.030
 8107SOL     OW25219   0.019   5.426   5.263
 8107SOL    HW125220   6.971   5.482   5.228
 8107SOL    HW225221   0.102   5.481   5.271
 8108SOL     OW25222   6.558   3.920   4.923
 8108SOL    HW125223   6.578   3.830   4.962
 8108SOL    HW225224   6.499   3.971   4.985
 8109SOL     OW25225   1.724   3.549   4.633
 8109SOL    HW125226   1.639   3.599   4.651
 8109SOL    HW225227   1.771   3.590   4.554
 8110SOL     OW25228   3.131   6.384   0.592
 8110SOL    HW125229   3.191   6.318   0.546
 8110SOL    HW225230   3.037   6.370   0.562
 8111SOL     OW25231   3.941   0.936   4.932
 8111SOL    HW125232   3.935   0.859   4.868
 8111SOL    HW225233   3.920   0.903   5.025
 8112SOL     OW25234   2.306   1.877   4.761
 8112SOL    HW125235   2.316   1.859   4.663
 8112SOL    HW225236   2.390   1.853   4.808
 8113SOL     OW25237   3.444   3.292   0.890
 8113SOL    HW125238   3.376   3.325   0.954
 8113SOL    HW225239   3.437   3.343   0.804
 8114SOL     OW25240   2.228   3.670   1.509
 8114SOL    HW125241   2.327   3.662   1.499
 8114SOL    HW225242   2.198   3.621   1.590
 8115SOL     OW25243   3.709   0.231   0.256
 8115SOL    HW125244   3.713   0.196   0.162
 8115SOL    HW225245   3.615   0.259   0.277
 8116SOL     OW25246   4.602   6.212   5.077
 8116SOL    HW125247   4.561   6.241   4.991
 8116SOL    HW225248   4.701   6.224   5.073
 8117SOL     OW25249   1.708   1.034   4.020
 8117SOL    HW125250   1.689   0.936   4.017
 8117SOL    HW225251   1.803   1.051   3.994
 8118SOL     OW25252   6.155   3.079   5.469
 8118SOL    HW125253   6.162   3.140   5.390
 8118SOL    HW225254   6.243   3.035   5.485
 8119SOL     OW25255   6.100   5.621   5.493
 8119SOL    HW125256   6.021   5.562   5.473
 8119SOL    HW225257   6.163   5.573   5.554
 8120SOL     OW25258   3.400   4.537   6.981
 8120SOL    HW125259   3.412   4.616   6.921
 8120SOL    HW225260   3.487   4.489   6.989
 8121SOL     OW25261   0.372   5.767   1.830
 8121SOL    HW125262   0.389   5.693   1.895
 8121SOL    HW225263   0.386   5.734   1.737
 8122SOL     OW25264   1.765   5.634   2.454
 8122SOL    HW125265   1.751   5.554   2.395
 8122SOL    HW225266   1.853   5.626   2.500
 8123SOL     OW25267   6.768   0.311   0.320
 8123SOL    HW125268   6.702   0.247   0.280
 8123SOL    HW225269   6.740   0.405   0.299
 8124SOL     OW25270   7.003   6.446   0.709
 8124SOL    HW125271   0.063   6.490   0.687
 8124SOL    HW225272   7.008   6.407   0.801
 8125SOL     OW25273   1.230   0.704   3.113
 8125SOL    HW125274   1.307   0.746   3.063
 8125SOL    HW225275   1.231   0.735   3.208
 8126SOL     OW25276   5.889   4.544   2.756
 8126SOL    HW125277   5.895   4.451   2.792
 8126SOL    HW225278   5.879   4.540   2.656
 8127SOL     OW25279   3.045   5.847   0.149
 8127SOL    HW125280   3.036   5.932   0.097
 8127SOL    HW225281   3.125   5.852   0.208
 8128SOL     OW25282   2.851   3.207   1.245
 8128SOL    HW125283   2.753   3.220   1.261
 8128SOL    HW225284   2.865   3.156   1.160
 8129SOL     OW25285   4.286   1.188   5.688
 8129SOL    HW125286   4.371   1.171   5.738
 8129SOL    HW225287   4.255   1.103   5.646
 8130SOL     OW25288   0.025   4.319   6.782
 8130SOL    HW125289   0.053   4.331   6.687
 8130SOL    HW225290   7.023   4.408   6.820
 8131SOL     OW25291   3.428   0.955   1.041
 8131SOL    HW125292   3.351   1.001   1.085
 8131SOL    HW225293   3.405   0.935   0.946
 8132SOL     OW25294   5.475   6.219   6.300
 8132SOL    HW125295   5.572   6.234   6.318
 8132SOL    HW225296   5.427   6.201   6.387
 8133SOL     OW25297   3.201   5.195   1.620
 8133SOL    HW125298   3.265   5.212   1.696
 8133SOL    HW225299   3.164   5.103   1.628
 8134SOL     OW25300   1.021   2.120   4.793
 8134SOL    HW125301   0.993   2.182   4.865
 8134SOL    HW225302   1.085   2.166   4.731
 8135SOL     OW25303   1.770   5.772   1.044
 8135SOL    HW125304   1.827   5.791   0.964
 8135SOL    HW225305   1.829   5.755   1.123
 8136SOL     OW25306   5.030   4.706   2.706
 8136SOL    HW125307   4.933   4.724   2.726
 8136SOL    HW225308   5.079   4.691   2.792
 8137SOL     OW25309   2.958   1.389   4.670
 8137SOL    HW125310   2.966   1.290   4.657
 8137SOL    HW225311   3.047   1.432   4.659
 8138SOL     OW25312   5.543   2.444   0.653
 8138SOL    HW125313   5.585   2.511   0.592
 8138SOL    HW225314   5.545   2.353   0.610
 8139SOL     OW25315   1.831   1.846   4.080
 8139SOL    HW125316   1.917   1.866   4.035
 8139SOL    HW225317   1.807   1.749   4.066
 8140SOL     OW25318   4.607   6.830   0.136
 8140SOL    HW125319   4.515   6.867   0.146
 8140SOL    HW225320   4.628   6.818   0.038
 8141SOL     OW25321   4.324   0.014   5.587
 8141SOL    HW125322   4.281   6.986   5.515
 8141SOL    HW225323   4.314   0.111   5.566
 8142SOL     OW25324   1.709   5.230   0.411
 8142SOL    HW125325   1.728   5.149   0.354
 8142SOL    HW225326   1.795   5.274   0.436
 8143SOL     OW25327   6.246   5.277   0.352
 8143SOL    HW125328   6.289   5.276   0.443
 8143SOL    HW225329   6.268   5.362   0.306
 8144SOL     OW25330   0.707   6.335   5.959
 8144SOL    HW125331   0.780   6.300   6.018
 8144SOL    HW225332   0.622   6.341   6.010
 8145SOL     OW25333   5.600   5.474   0.829
 8145SOL    HW125334   5.568   5.474   0.924
 8145SOL    HW225335   5.598   5.381   0.793
 8146SOL     OW25336   5.013   0.118   5.306
 8146SOL    HW125337   5.002   0.040   5.244
 8146SOL    HW225338   5.110   0.131   5.326
 8147SOL     OW25339   6.094   0.965   1.547
 8147SOL    HW125340   6.127   0.874   1.570
 8147SOL    HW225341   6.172   1.025   1.529
 8148SOL     OW25342   5.548   4.890   0.671
 8148SOL    HW125343   5.587   4.979   0.693
 8148SOL    HW225344   5.546   4.877   0.572
 8149SOL     OW25345   1.711   6.861   3.620
 8149SOL    HW125346   1.624   6.840   3.576
 8149SOL    HW225347   1.743   6.779   3.669
 8150SOL     OW25348   1.960   4.011   0.649
 8150SOL    HW125349   2.001   4.005   0.558
 8150SOL    HW225350   1.892   3.939   0.661
 8151SOL     OW25351   6.004   5.135   3.270
 8151SOL    HW125352   5.928   5.197   3.251
 8151SOL    HW225353   6.060   5.172   3.344
 8152SOL     OW25354   6.482   3.035   3.343
 8152SOL    HW125355   6.469   3.126   3.304
 8152SOL    HW225356   6.450   2.965   3.279
 8153SOL     OW25357   1.258   1.460   3.972
 8153SOL    HW125358   1.306   1.433   4.056
 8153SOL    HW225359   1.249   1.380   3.912
 8154SOL     OW25360   3.641   6.172   2.226
 8154SOL    HW125361   3.566   6.224   2.186
 8154SOL    HW225362   3.609   6.126   2.310
 8155SOL     OW25363   1.505   3.653   2.195
 8155SOL    HW125364   1.513   3.670   2.293
 8155SOL    HW225365   1.541   3.562   2.174
 8156SOL     OW25366   4.370   6.157   0.719
 8156SOL    HW125367   4.344   6.204   0.803
 8156SOL    HW225368   4.394   6.062   0.739
 8157SOL     OW25369   6.459   4.513   6.345
 8157SOL    HW125370   6.420   4.432   6.389
 8157SOL    HW225371   6.454   4.591   6.407
 8158SOL     OW25372   5.077   4.149   0.566
 8158SOL    HW125373   5.010   4.214   0.530
 8158SOL    HW225374   5.050   4.057   0.540
 8159SOL     OW25375   2.472   5.646   3.169
 8159SOL    HW125376   2.539   5.602   3.229
 8159SOL    HW225377   2.386   5.595   3.171
 8160SOL     OW25378   5.070   0.493   3.649
 8160SOL    HW125379   5.089   0.417   3.711
 8160SOL    HW225380   5.155   0.543   3.631
 8161SOL     OW25381   6.049   2.908   5.966
 8161SOL    HW125382   6.092   2.851   5.896
 8161SOL    HW225383   5.973   2.959   5.926
 8162SOL     OW25384   6.539   6.569   0.006
 8162SOL    HW125385   6.472   6.508   0.047
 8162SOL    HW225386   6.622   6.570   0.062
 8163SOL     OW25387   2.749   4.777   5.247
 8163SOL    HW125388   2.755   4.741   5.340
 8163SOL    HW225389   2.791   4.713   5.183
 8164SOL     OW25390   5.134   2.285   0.457
 8164SOL    HW125391   5.219   2.307   0.503
 8164SOL    HW225392   5.142   2.306   0.359
 8165SOL     OW25393   6.634   3.676   5.573
 8165SOL    HW125394   6.558   3.698   5.634
 8165SOL    HW225395   6.663   3.758   5.524
 8166SOL     OW25396   1.062   0.671   3.566
 8166SOL    HW125397   1.125   0.593   3.564
 8166SOL    HW225398   1.002   0.663   3.646
 8167SOL     OW25399   6.777   0.773   3.786
 8167SOL    HW125400   6.856   0.712   3.794
 8167SOL    HW225401   6.788   0.850   3.848
 8168SOL     OW25402   2.363   1.601   1.536
 8168SOL    HW125403   2.298   1.587   1.461
 8168SOL    HW225404   2.456   1.600   1.499
 8169SOL     OW25405   4.795   1.956   0.420
 8169SOL    HW125406   4.796   1.857   0.405
 8169SOL    HW225407   4.720   1.980   0.482
 8170SOL     OW25408   1.604   5.166   1.664
 8170SOL    HW125409   1.584   5.089   1.724
 8170SOL    HW225410   1.593   5.251   1.715
 8171SOL     OW25411   1.906   1.571   6.532
 8171SOL    HW125412   1.820   1.567   6.480
 8171SOL    HW225413   1.921   1.665   6.564
 8172SOL     OW25414   6.709   2.048   2.737
 8172SOL    HW125415   6.727   2.111   2.813
 8172SOL    HW225416   6.647   2.092   2.672
 8173SOL     OW25417   5.402   2.318   1.913
 8173SOL    HW125418   5.435   2.230   1.946
 8173SOL    HW225419   5.403   2.318   1.813
 8174SOL     OW25420   6.843   0.563   2.240
 8174SOL    HW125421   6.925   0.572   2.297
 8174SOL    HW225422   6.797   0.476   2.261
 8175SOL     OW25423   7.018   3.354   5.611
 8175SOL    HW125424   0.031   3.415   5.542
 8175SOL    HW225425   7.019   3.400   5.700
 8176SOL     OW25426   2.409   5.054   1.203
 8176SOL    HW125427   2.416   5.007   1.116
 8176SOL    HW225428   2.501   5.067   1.241
 8177SOL     OW25429   4.007   0.236   3.826
 8177SOL    HW125430   3.996   0.317   3.883
 8177SOL    HW225431   3.931   0.173   3.842
 8178SOL     OW25432   3.430   6.867   0.822
 8178SOL    HW125433   3.492   6.942   0.799
 8178SOL    HW225434   3.341   6.883   0.780
 8179SOL     OW25435   4.741   1.732   4.267
 8179SOL    HW125436   4.738   1.804   4.197
 8179SOL    HW225437   4.823   1.743   4.323
 8180SOL     OW25438   6.152   0.903   5.680
 8180SOL    HW125439   6.062   0.943   5.665
 8180SOL    HW225440   6.210   0.968   5.729
 8181SOL     OW25441   1.111   1.658   0.375
 8181SOL    HW125442   1.057   1.743   0.372
 8181SOL    HW225443   1.049   1.581   0.394
 8182SOL     OW25444   3.194   3.451   5.630
 8182SOL    HW125445   3.259   3.398   5.685
 8182SOL    HW225446   3.183   3.408   5.540
 8183SOL     OW25447   6.171   2.406   5.032
 8183SOL    HW125448   6.137   2.394   4.938
 8183SOL    HW225449   6.139   2.330   5.089
 8184SOL     OW25450   6.496   0.278   0.516
 8184SOL    HW125451   6.590   0.275   0.483
 8184SOL    HW225452   6.445   0.202   0.476
 8185SOL     OW25453   2.183   0.389   6.587
 8185SOL    HW125454   2.199   0.487   6.598
 8185SOL    HW225455   2.201   0.362   6.493
 8186SOL     OW25456   3.348   4.696   5.272
 8186SOL    HW125457   3.402   4.739   5.200
 8186SOL    HW225458   3.264   4.659   5.233
 8187SOL     OW25459   2.318   1.248   5.061
 8187SOL    HW125460   2.368   1.168   5.029
 8187SOL    HW225461   2.378   1.328   5.061
 8188SOL     OW25462   5.233   3.213   3.731
 8188SOL    HW125463   5.158   3.269   3.767
 8188SOL    HW225464   5.219   3.118   3.755
 8189SOL     OW25465   5.138   5.080   2.757
 8189SOL    HW125466   5.084   5.048   2.835
 8189SOL    HW225467   5.158   5.178   2.768
 8190SOL     OW25468   4.923   4.198   4.460
 8190SOL    HW125469   5.002   4.241   4.417
 8190SOL    HW225470   4.879   4.263   4.521
 8191SOL     OW25471   3.866   6.329   1.731
 8191SOL    HW125472   3.913   6.347   1.644
 8191SOL    HW225473   3.858   6.230   1.744
 8192SOL     OW25474   3.479   5.135   0.656
 8192SOL    HW125475   3.401   5.076   0.678
 8192SOL    HW225476   3.448   5.231   0.654
 8193SOL     OW25477   5.853   5.611   5.739
 8193SOL    HW125478   5.817   5.662   5.661
 8193SOL    HW225479   5.780   5.593   5.804
 8194SOL     OW25480   5.133   1.875   1.116
 8194SOL    HW125481   5.178   1.869   1.206
 8194SOL    HW225482   5.199   1.854   1.044
 8195SOL     OW25483   1.009   0.023   3.363
 8195SOL    HW125484   1.022   0.074   3.278
 8195SOL    HW225485   1.074   0.054   3.431
 8196SOL     OW25486   4.455   5.860   6.316
 8196SOL    HW125487   4.449   5.940   6.255
 8196SOL    HW225488   4.536   5.806   6.292
 8197SOL     OW25489   4.159   1.677   0.656
 8197SOL    HW125490   4.079   1.718   0.613
 8197SOL    HW225491   4.241   1.706   0.607
 8198SOL     OW25492   2.917   6.507   2.873
 8198SOL    HW125493   2.904   6.597   2.915
 8198SOL    HW225494   2.885   6.509   2.779
 8199SOL     OW25495   6.008   2.470   5.859
 8199SOL    HW125496   6.100   2.447   5.826
 8199SOL    HW225497   5.980   2.402   5.927
 8200SOL     OW25498   5.927   5.042   2.393
 8200SOL    HW125499   5.919   5.130   2.441
 8200SOL    HW225500   5.980   5.055   2.309
 8201SOL     OW25501   5.684   0.826   4.145
 8201SOL    HW125502   5.686   0.741   4.093
 8201SOL    HW225503   5.738   0.895   4.098
 8202SOL     OW25504   7.014   5.649   3.886
 8202SOL    HW125505   6.930   5.594   3.886
 8202SOL    HW225506   0.067   5.589   3.896
 8203SOL     OW25507   3.582   2.357   6.940
 8203SOL    HW125508   3.612   2.300   6.864
 8203SOL    HW225509   3.503   2.412   6.912
 8204SOL     OW25510   3.362   4.882   6.935
 8204SOL    HW125511   3.363   4.888   6.835
 8204SOL    HW225512   3.371   4.974   6.974
 8205SOL     OW25513   0.787   4.541   0.588
 8205SOL    HW125514   0.792   4.468   0.657
 8205SOL    HW225515   0.837   4.621   0.620
 8206SOL     OW25516   4.704   1.798   6.610
 8206SOL    HW125517   4.740   1.722   6.557
 8206SOL    HW225518   4.682   1.874   6.549
 8207SOL     OW25519   2.984   3.691   4.471
 8207SOL    HW125520   2.989   3.608   4.415
 8207SOL    HW225521   3.025   3.767   4.421
 8208SOL     OW25522   1.265   0.482   1.500
 8208SOL    HW125523   1.321   0.426   1.561
 8208SOL    HW225524   1.301   0.575   1.499
 8209SOL     OW25525   0.892   1.789   5.068
 8209SOL    HW125526   0.811   1.844   5.084
 8209SOL    HW225527   0.974   1.843   5.088
 8210SOL     OW25528   2.071   1.363   1.124
 8210SOL    HW125529   2.088   1.372   1.026
 8210SOL    HW225530   1.996   1.423   1.150
 8211SOL     OW25531   3.665   4.123   1.892
 8211SOL    HW125532   3.606   4.183   1.838
 8211SOL    HW225533   3.755   4.118   1.851
 8212SOL     OW25534   2.063   2.152   1.564
 8212SOL    HW125535   2.102   2.151   1.656
 8212SOL    HW225536   2.070   2.061   1.523
 8213SOL     OW25537   6.723   4.497   2.577
 8213SOL    HW125538   6.645   4.502   2.640
 8213SOL    HW225539   6.808   4.512   2.627
 8214SOL     OW25540   5.915   5.414   4.626
 8214SOL    HW125541   6.003   5.371   4.642
 8214SOL    HW225542   5.906   5.438   4.529
 8215SOL     OW25543   2.878   5.793   6.035
 8215SOL    HW125544   2.844   5.711   5.989
 8215SOL    HW225545   2.941   5.765   6.108
 8216SOL     OW25546   5.480   5.228   3.866
 8216SOL    HW125547   5.536   5.158   3.910
 8216SOL    HW225548   5.477   5.310   3.923
 8217SOL     OW25549   2.119   3.487   0.572
 8217SOL    HW125550   2.099   3.558   0.639
 8217SOL    HW225551   2.034   3.448   0.537
 8218SOL     OW25552   6.636   6.998   5.270
 8218SOL    HW125553   6.626   6.900   5.250
 8218SOL    HW225554   6.547   0.011   5.292
 8219SOL     OW25555   4.422   3.146   0.842
 8219SOL    HW125556   4.405   3.051   0.813
 8219SOL    HW225557   4.375   3.164   0.928
 8220SOL     OW25558   3.094   3.197   3.898
 8220SOL    HW125559   3.093   3.112   3.846
 8220SOL    HW225560   3.185   3.239   3.894
 8221SOL     OW25561   5.813   6.693   3.811
 8221SOL    HW125562   5.720   6.716   3.840
 8221SOL    HW225563   5.862   6.650   3.887
 8222SOL     OW25564   5.817   1.488   1.216
 8222SOL    HW125565   5.859   1.435   1.291
 8222SOL    HW225566   5.812   1.431   1.134
 8223SOL     OW25567   0.984   4.325   5.113
 8223SOL    HW125568   0.940   4.317   5.203
 8223SOL    HW225569   1.079   4.353   5.125
 8224SOL     OW25570   5.620   1.381   2.231
 8224SOL    HW125571   5.680   1.306   2.203
 8224SOL    HW225572   5.635   1.459   2.171
 8225SOL     OW25573   3.227   1.696   1.030
 8225SOL    HW125574   3.267   1.606   1.013
 8225SOL    HW225575   3.132   1.697   1.000
 8226SOL     OW25576   3.608   6.627   0.277
 8226SOL    HW125577   3.641   6.608   0.369
 8226SOL    HW225578   3.528   6.688   0.282
 8227SOL     OW25579   0.079   1.089   2.774
 8227SOL    HW125580   0.024   1.021   2.725
 8227SOL    HW225581   0.176   1.066   2.766
 8228SOL     OW25582   6.605   1.947   6.138
 8228SOL    HW125583   6.553   1.955   6.223
 8228SOL    HW225584   6.680   1.882   6.149
 8229SOL     OW25585   4.991   3.224   0.736
 8229SOL    HW125586   4.993   3.150   0.669
 8229SOL    HW225587   5.044   3.197   0.816
 8230SOL     OW25588   3.498   0.160   5.276
 8230SOL    HW125589   3.472   0.182   5.370
 8230SOL    HW225590   3.538   0.241   5.233
 8231SOL     OW25591   3.007   3.833   0.633
 8231SOL    HW125592   2.957   3.746   0.642
 8231SOL    HW225593   2.989   3.889   0.714
 8232SOL     OW25594   4.368   1.653   1.666
 8232SOL    HW125595   4.421   1.611   1.740
 8232SOL    HW225596   4.388   1.751   1.662
 8233SOL     OW25597   0.749   6.262   5.697
 8233SOL    HW125598   0.745   6.168   5.664
 8233SOL    HW225599   0.709   6.267   5.788
 8234SOL     OW25600   3.017   3.874   6.581
 8234SOL    HW125601   2.968   3.792   6.610
 8234SOL    HW225602   2.964   3.921   6.510
 8235SOL     OW25603   0.514   2.493   0.293
 8235SOL    HW125604   0.462   2.561   0.343
 8235SOL    HW225605   0.467   2.470   0.207
 8236SOL     OW25606   0.833   4.362   0.771
 8236SOL    HW125607   0.744   4.365   0.815
 8236SOL    HW225608   0.868   4.268   0.770
 8237SOL     OW25609   4.697   6.506   5.337
 8237SOL    HW125610   4.656   6.458   5.415
 8237SOL    HW225611   4.786   6.466   5.317
 8238SOL     OW25612   0.571   5.455   6.350
 8238SOL    HW125613   0.543   5.509   6.271
 8238SOL    HW225614   0.671   5.454   6.356
 8239SOL     OW25615   7.018   1.041   5.642
 8239SOL    HW125616   6.937   1.060   5.698
 8239SOL    HW225617   0.073   1.078   5.688
 8240SOL     OW25618   3.271   3.812   2.293
 8240SOL    HW125619   3.313   3.783   2.207
 8240SOL    HW225620   3.178   3.778   2.298
 8241SOL     OW25621   3.505   6.267   6.009
 8241SOL    HW125622   3.421   6.273   6.063
 8241SOL    HW225623   3.583   6.253   6.070
 8242SOL     OW25624   0.687   4.182   6.180
 8242SOL    HW125625   0.612   4.177   6.246
 8242SOL    HW225626   0.652   4.216   6.093
 8243SOL     OW25627   0.359   2.974   0.548
 8243SOL    HW125628   0.417   3.017   0.617
 8243SOL    HW225629   0.335   3.041   0.478
 8244SOL     OW25630   0.196   0.787   4.660
 8244SOL    HW125631   0.237   0.849   4.726
 8244SOL    HW225632   0.258   0.775   4.583
 8245SOL     OW25633   3.945   1.371   2.429
 8245SOL    HW125634   3.911   1.418   2.511
 8245SOL    HW225635   4.012   1.428   2.383
 8246SOL     OW25636   1.391   3.162   6.068
 8246SOL    HW125637   1.465   3.211   6.114
 8246SOL    HW225638   1.407   3.163   5.969
 8247SOL     OW25639   1.341   0.991   2.646
 8247SOL    HW125640   1.418   1.033   2.693
 8247SOL    HW225641   1.258   1.044   2.664
 8248SOL     OW25642   6.957   5.193   4.982
 8248SOL    HW125643   0.013   5.204   4.927
 8248SOL    HW225644   6.882   5.160   4.923
 8249SOL     OW25645   2.115   2.409   5.813
 8249SOL    HW125646   2.096   2.311   5.812
 8249SOL    HW225647   2.076   2.452   5.732
 8250SOL     OW25648   3.298   3.861   1.537
 8250SOL    HW125649   3.215   3.916   1.542
 8250SOL    HW225650   3.274   3.764   1.527
 8251SOL     OW25651   5.049   3.420   4.652
 8251SOL    HW125652   5.009   3.376   4.733
 8251SOL    HW225653   5.064   3.517   4.671
 8252SOL     OW25654   3.450   1.528   5.401
 8252SOL    HW125655   3.503   1.608   5.373
 8252SOL    HW225656   3.511   1.461   5.442
 8253SOL     OW25657   4.473   5.239   5.993
 8253SOL    HW125658   4.568   5.270   5.987
 8253SOL    HW225659   4.448   5.193   5.908
 8254SOL     OW25660   4.584   4.221   5.176
 8254SOL    HW125661   4.658   4.188   5.235
 8254SOL    HW225662   4.612   4.212   5.080
 8255SOL     OW25663   1.825   6.845   5.153
 8255SOL    HW125664   1.908   6.892   5.183
 8255SOL    HW225665   1.754   6.855   5.224
 8256SOL     OW25666   6.892   6.310   1.558
 8256SOL    HW125667   6.847   6.265   1.635
 8256SOL    HW225668   6.933   6.395   1.588
 8257SOL     OW25669   5.231   4.205   3.077
 8257SOL    HW125670   5.289   4.176   3.001
 8257SOL    HW225671   5.197   4.124   3.125
 8258SOL     OW25672   5.662   2.459   1.169
 8258SOL    HW125673   5.663   2.534   1.235
 8258SOL    HW225674   5.593   2.476   1.099
 8259SOL     OW25675   3.682   1.602   4.173
 8259SOL    HW125676   3.668   1.589   4.075
 8259SOL    HW225677   3.778   1.587   4.196
 8260SOL     OW25678   2.366   6.795   0.941
 8260SOL    HW125679   2.320   6.739   1.010
 8260SOL    HW225680   2.457   6.756   0.922
 8261SOL     OW25681   5.707   0.079   1.853
 8261SOL    HW125682   5.790   0.059   1.801
 8261SOL    HW225683   5.717   0.166   1.900
 8262SOL     OW25684   0.850   2.384   6.881
 8262SOL    HW125685   0.849   2.477   6.918
 8262SOL    HW225686   0.774   2.332   6.921
 8263SOL     OW25687   0.503   2.615   6.308
 8263SOL    HW125688   0.542   2.707   6.309
 8263SOL    HW225689   0.441   2.604   6.385
 8264SOL     OW25690   1.821   6.465   1.849
 8264SOL    HW125691   1.721   6.463   1.843
 8264SOL    HW225692   1.860   6.452   1.759
 8265SOL     OW25693   6.393   0.907   1.205
 8265SOL    HW125694   6.303   0.931   1.168
 8265SOL    HW225695   6.422   0.819   1.166
 8266SOL     OW25696   2.368   1.262   4.027
 8266SOL    HW125697   2.301   1.312   3.972
 8266SOL    HW225698   2.337   1.261   4.122
 8267SOL     OW25699   2.125   3.464   1.014
 8267SOL    HW125700   2.094   3.371   1.035
 8267SOL    HW225701   2.131   3.476   0.915
 8268SOL     OW25702   1.905   6.847   6.008
 8268SOL    HW125703   1.841   6.864   5.933
 8268SOL    HW225704   1.862   6.788   6.076
 8269SOL     OW25705   4.568   1.339   2.140
 8269SOL    HW125706   4.624   1.345   2.223
 8269SOL    HW225707   4.514   1.423   2.131
 8270SOL     OW25708   3.123   6.156   5.113
 8270SOL    HW125709   3.149   6.067   5.075
 8270SOL    HW225710   3.085   6.143   5.205
 8271SOL     OW25711   0.536   6.827   4.045
 8271SOL    HW125712   0.535   6.798   4.140
 8271SOL    HW225713   0.446   6.864   4.020
 8272SOL     OW25714   6.339   2.006   3.029
 8272SOL    HW125715   6.330   2.058   2.944
 8272SOL    HW225716   6.314   1.911   3.012
 8273SOL     OW25717   2.654   0.844   1.064
 8273SOL    HW125718   2.713   0.870   1.140
 8273SOL    HW225719   2.576   0.906   1.059
 8274SOL     OW25720   4.225   5.330   3.820
 8274SOL    HW125721   4.268   5.241   3.833
 8274SOL    HW225722   4.174   5.354   3.903
 8275SOL     OW25723   6.014   1.207   4.921
 8275SOL    HW125724   5.916   1.221   4.902
 8275SOL    HW225725   6.068   1.234   4.842
 8276SOL     OW25726   0.787   2.357   4.227
 8276SOL    HW125727   0.861   2.290   4.231
 8276SOL    HW225728   0.736   2.355   4.313
 8277SOL     OW25729   0.346   6.241   6.316
 8277SOL    HW125730   0.259   6.287   6.335
 8277SOL    HW225731   0.331   6.167   6.250
 8278SOL     OW25732   3.227   1.298   6.555
 8278SOL    HW125733   3.160   1.226   6.570
 8278SOL    HW225734   3.225   1.327   6.460
 8279SOL     OW25735   1.136   6.105   4.703
 8279SOL    HW125736   1.053   6.161   4.710
 8279SOL    HW225737   1.216   6.161   4.722
 8280SOL     OW25738   2.542   2.956   0.735
 8280SOL    HW125739   2.548   3.054   0.715
 8280SOL    HW225740   2.450   2.933   0.764
 8281SOL     OW25741   2.732   4.370   1.634
 8281SOL    HW125742   2.687   4.451   1.595
 8281SOL    HW225743   2.801   4.399   1.700
 8282SOL     OW25744   5.112   3.814   0.308
 8282SOL    HW125745   5.112   3.725   0.354
 8282SOL    HW225746   5.067   3.882   0.367
 8283SOL     OW25747   1.135   5.237   5.379
 8283SOL    HW125748   1.149   5.242   5.478
 8283SOL    HW225749   1.199   5.298   5.333
 8284SOL     OW25750   1.167   3.815   1.412
 8284SOL    HW125751   1.182   3.843   1.318
 8284SOL    HW225752   1.150   3.895   1.470
 8285SOL     OW25753   3.398   3.944   5.021
 8285SOL    HW125754   3.423   3.983   5.110
 8285SOL    HW225755   3.371   4.017   4.959
 8286SOL     OW25756   5.298   1.965   5.487
 8286SOL    HW125757   5.374   2.022   5.456
 8286SOL    HW225758   5.218   1.982   5.430
 8287SOL     OW25759   1.442   4.554   4.546
 8287SOL    HW125760   1.438   4.624   4.617
 8287SOL    HW225761   1.496   4.476   4.578
 8288SOL     OW25762   2.999   2.093   2.151
 8288SOL    HW125763   3.090   2.118   2.186
 8288SOL    HW225764   2.964   2.167   2.094
 8289SOL     OW25765   0.581   6.309   6.774
 8289SOL    HW125766   0.610   6.285   6.866
 8289SOL    HW225767   0.541   6.229   6.729
 8290SOL     OW25768   5.222   1.583   0.905
 8290SOL    HW125769   5.234   1.679   0.879
 8290SOL    HW225770   5.155   1.577   0.979
 8291SOL     OW25771   4.352   5.776   4.947
 8291SOL    HW125772   4.359   5.821   4.859
 8291SOL    HW225773   4.331   5.679   4.934
 8292SOL     OW25774   3.081   6.714   6.759
 8292SOL    HW125775   3.117   6.713   6.666
 8292SOL    HW225776   3.127   6.644   6.813
 8293SOL     OW25777   2.175   5.654   0.600
 8293SOL    HW125778   2.117   5.600   0.662
 8293SOL    HW225779   2.123   5.730   0.563
 8294SOL     OW25780   5.999   3.751   5.267
 8294SOL    HW125781   6.061   3.748   5.346
 8294SOL    HW225782   5.905   3.754   5.300
 8295SOL     OW25783   5.016   5.262   1.814
 8295SOL    HW125784   4.929   5.260   1.764
 8295SOL    HW225785   5.041   5.169   1.841
 8296SOL     OW25786   2.059   4.917   6.520
 8296SOL    HW125787   2.105   4.886   6.437
 8296SOL    HW225788   2.122   4.914   6.597
 8297SOL     OW25789   0.120   3.098   2.766
 8297SOL    HW125790   0.051   3.035   2.732
 8297SOL    HW225791   0.087   3.192   2.759
 8298SOL     OW25792   6.257   1.501   0.918
 8298SOL    HW125793   6.258   1.409   0.880
 8298SOL    HW225794   6.193   1.558   0.865
 8299SOL     OW25795   0.261   2.539   2.453
 8299SOL    HW125796   0.162   2.530   2.460
 8299SOL    HW225797   0.306   2.463   2.499
 8300SOL     OW25798   6.737   5.478   4.278
 8300SOL    HW125799   6.641   5.460   4.297
 8300SOL    HW225800   6.745   5.531   4.193
 8301SOL     OW25801   3.659   1.330   0.531
 8301SOL    HW125802   3.605   1.247   0.545
 8301SOL    HW225803   3.720   1.344   0.609
 8302SOL     OW25804   5.401   7.004   6.642
 8302SOL    HW125805   5.389   6.969   6.735
 8302SOL    HW225806   5.489   0.025   6.635
 8303SOL     OW25807   6.054   0.665   3.999
 8303SOL    HW125808   6.138   0.715   3.975
 8303SOL    HW225809   6.042   0.666   4.098
 8304SOL     OW25810   6.092   3.339   0.922
 8304SOL    HW125811   6.098   3.247   0.960
 8304SOL    HW225812   6.151   3.346   0.842
 8305SOL     OW25813   4.307   4.763   3.550
 8305SOL    HW125814   4.232   4.766   3.484
 8305SOL    HW225815   4.392   4.737   3.504
 8306SOL     OW25816   5.690   1.518   4.898
 8306SOL    HW125817   5.781   1.490   4.930
 8306SOL    HW225818   5.648   1.577   4.967
 8307SOL     OW25819   3.572   5.084   1.414
 8307SOL    HW125820   3.495   5.056   1.357
 8307SOL    HW225821   3.581   5.022   1.491
 8308SOL     OW25822   2.628   5.776   1.153
 8308SOL    HW125823   2.609   5.753   1.249
 8308SOL    HW225824   2.637   5.691   1.100
 8309SOL     OW25825   6.671   5.661   3.671
 8309SOL    HW125826   6.662   5.604   3.589
 8309SOL    HW225827   6.723   5.612   3.741
 8310SOL     OW25828   0.352   5.681   1.550
 8310SOL    HW125829   0.390   5.656   1.461
 8310SOL    HW225830   0.293   5.761   1.540
 8311SOL     OW25831   0.630   2.202   5.263
 8311SOL    HW125832   0.652   2.288   5.309
 8311SOL    HW225833   0.665   2.204   5.169
 8312SOL     OW25834   4.872   0.160   6.773
 8312SOL    HW125835   4.876   0.081   6.833
 8312SOL    HW225836   4.937   0.148   6.698
 8313SOL     OW25837   5.302   0.094   0.319
 8313SOL    HW125838   5.251   0.008   0.319
 8313SOL    HW225839   5.245   0.167   0.356
 8314SOL     OW25840   5.068   0.259   0.373
 8314SOL    HW125841   5.034   0.327   0.437
 8314SOL    HW225842   5.022   0.172   0.388
 8315SOL     OW25843   4.587   3.065   1.270
 8315SOL    HW125844   4.510   3.081   1.332
 8315SOL    HW225845   4.673   3.068   1.322
 8316SOL     OW25846   1.789   2.035   1.916
 8316SOL    HW125847   1.806   2.132   1.898
 8316SOL    HW225848   1.838   1.979   1.850
 8317SOL     OW25849   1.412   2.766   2.330
 8317SOL    HW125850   1.439   2.733   2.239
 8317SOL    HW225851   1.452   2.707   2.399
 8318SOL     OW25852   4.045   1.635   5.812
 8318SOL    HW125853   4.119   1.579   5.848
 8318SOL    HW225854   3.996   1.679   5.887
 8319SOL     OW25855   1.479   1.691   0.598
 8319SOL    HW125856   1.484   1.610   0.656
 8319SOL    HW225857   1.383   1.707   0.572
 8320SOL     OW25858   3.026   3.383   2.324
 8320SOL    HW125859   2.945   3.381   2.265
 8320SOL    HW225860   3.036   3.295   2.370
 8321SOL     OW25861   6.873   7.007   6.623
 8321SOL    HW125862   6.888   6.914   6.591
 8321SOL    HW225863   6.868   7.008   6.723
 8322SOL     OW25864   6.163   0.193   0.753
 8322SOL    HW125865   6.145   0.198   0.655
 8322SOL    HW225866   6.177   0.286   0.789
 8323SOL     OW25867   5.486   5.694   1.861
 8323SOL    HW125868   5.458   5.762   1.928
 8323SOL    HW225869   5.562   5.641   1.898
 8324SOL     OW25870   5.861   6.867   1.342
 8324SOL    HW125871   5.817   6.941   1.393
 8324SOL    HW225872   5.795   6.793   1.327
 8325SOL     OW25873   2.311   3.770   5.302
 8325SOL    HW125874   2.245   3.727   5.240
 8325SOL    HW225875   2.358   3.844   5.254
 8326SOL     OW25876   5.158   3.126   6.288
 8326SOL    HW125877   5.070   3.098   6.250
 8326SOL    HW225878   5.179   3.070   6.368
 8327SOL     OW25879   7.008   0.487   6.082
 8327SOL    HW125880   6.981   0.531   6.168
 8327SOL    HW225881   6.937   0.502   6.013
 8328SOL     OW25882   2.452   6.416   6.209
 8328SOL    HW125883   2.366   6.376   6.242
 8328SOL    HW225884   2.444   6.515   6.205
 8329SOL     OW25885   1.188   2.990   5.960
 8329SOL    HW125886   1.205   2.962   5.865
 8329SOL    HW225887   1.265   3.046   5.992
 8330SOL     OW25888   2.714   1.091   6.219
 8330SOL    HW125889   2.783   1.073   6.148
 8330SOL    HW225890   2.729   1.182   6.257
 8331SOL     OW25891   3.304   0.727   1.390
 8331SOL    HW125892   3.357   0.714   1.306
 8331SOL    HW225893   3.227   0.663   1.390
 8332SOL     OW25894   5.279   5.336   2.496
 8332SOL    HW125895   5.323   5.394   2.428
 8332SOL    HW225896   5.184   5.318   2.469
 8333SOL     OW25897   0.032   5.453   6.349
 8333SOL    HW125898   0.023   5.467   6.448
 8333SOL    HW225899   0.098   5.517   6.311
 8334SOL     OW25900   4.049   1.166   4.141
 8334SOL    HW125901   3.959   1.167   4.097
 8334SOL    HW225902   4.087   1.074   4.137
 8335SOL     OW25903   5.299   0.870   0.249
 8335SOL    HW125904   5.240   0.926   0.307
 8335SOL    HW225905   5.242   0.814   0.188
 8336SOL     OW25906   0.290   4.455   3.141
 8336SOL    HW125907   0.344   4.534   3.167
 8336SOL    HW225908   0.203   4.456   3.190
 8337SOL     OW25909   1.868   6.593   3.235
 8337SOL    HW125910   1.790   6.572   3.295
 8337SOL    HW225911   1.864   6.689   3.208
 8338SOL     OW25912   3.702   5.293   1.875
 8338SOL    HW125913   3.640   5.215   1.867
 8338SOL    HW225914   3.795   5.265   1.850
 8339SOL     OW25915   6.381   0.251   1.895
 8339SOL    HW125916   6.418   0.215   1.810
 8339SOL    HW225917   6.456   0.269   1.959
 8340SOL     OW25918   5.137   3.162   0.970
 8340SOL    HW125919   5.076   3.225   1.018
 8340SOL    HW225920   5.229   3.201   0.967
 8341SOL     OW25921   3.146   6.891   0.186
 8341SOL    HW125922   3.165   6.919   0.280
 8341SOL    HW225923   3.223   6.918   0.127
 8342SOL     OW25924   4.454   6.547   0.718
 8342SOL    HW125925   4.538   6.491   0.718
 8342SOL    HW225926   4.470   6.631   0.769
 8343SOL     OW25927   0.880   5.141   4.796
 8343SOL    HW125928   0.874   5.074   4.722
 8343SOL    HW225929   0.963   5.125   4.849
 8344SOL     OW25930   4.737   5.625   4.973
 8344SOL    HW125931   4.759   5.625   5.071
 8344SOL    HW225932   4.803   5.567   4.924
 8345SOL     OW25933   4.312   1.330   2.822
 8345SOL    HW125934   4.224   1.306   2.862
 8345SOL    HW225935   4.353   1.248   2.781
 8346SOL     OW25936   4.192   4.813   0.194
 8346SOL    HW125937   4.179   4.714   0.189
 8346SOL    HW225938   4.152   4.857   0.114
 8347SOL     OW25939   3.838   5.643   3.748
 8347SOL    HW125940   3.816   5.594   3.832
 8347SOL    HW225941   3.804   5.591   3.669
 8348SOL     OW25942   2.025   1.379   1.681
 8348SOL    HW125943   2.063   1.349   1.593
 8348SOL    HW225944   2.057   1.319   1.754
 8349SOL     OW25945   6.307   6.680   1.927
 8349SOL    HW125946   6.291   6.595   1.876
 8349SOL    HW225947   6.374   6.736   1.879
 8350SOL     OW25948   3.215   6.913   6.129
 8350SOL    HW125949   3.206   6.854   6.049
 8350SOL    HW225950   3.281   6.874   6.192
 8351SOL     OW25951   5.696   5.224   4.242
 8351SOL    HW125952   5.681   5.142   4.187
 8351SOL    HW225953   5.622   5.289   4.225
 8352SOL     OW25954   0.507   0.167   3.564
 8352SOL    HW125955   0.587   0.156   3.623
 8352SOL    HW225956   0.538   0.184   3.470
 8353SOL     OW25957   7.000   3.588   1.547
 8353SOL    HW125958   6.952   3.621   1.628
 8353SOL    HW225959   0.024   3.664   1.506
 8354SOL     OW25960   4.273   6.864   5.375
 8354SOL    HW125961   4.337   6.787   5.371
 8354SOL    HW225962   4.239   6.884   5.283
 8355SOL     OW25963   2.303   0.685   6.033
 8355SOL    HW125964   2.268   0.602   6.078
 8355SOL    HW225965   2.402   0.689   6.046
 8356SOL     OW25966   0.751   6.770   0.918
 8356SOL    HW125967   0.767   6.772   0.819
 8356SOL    HW225968   0.830   6.728   0.964
 8357SOL     OW25969   3.243   6.909   4.891
 8357SOL    HW125970   3.294   6.897   4.805
 8357SOL    HW225971   3.152   6.868   4.881
 8358SOL     OW25972   1.598   4.158   4.889
 8358SOL    HW125973   1.583   4.153   4.791
 8358SOL    HW225974   1.694   4.138   4.910
 8359SOL     OW25975   2.872   0.713   5.091
 8359SOL    HW125976   2.924   0.798   5.096
 8359SOL    HW225977   2.841   0.698   4.997
 8360SOL     OW25978   3.911   6.132   0.787
 8360SOL    HW125979   3.907   6.182   0.874
 8360SOL    HW225980   3.930   6.197   0.713
 8361SOL     OW25981   3.241   0.514   2.653
 8361SOL    HW125982   3.253   0.431   2.599
 8361SOL    HW225983   3.291   0.506   2.739
 8362SOL     OW25984   3.968   2.184   0.838
 8362SOL    HW125985   4.005   2.159   0.927
 8362SOL    HW225986   3.912   2.109   0.802
 8363SOL     OW25987   6.266   3.110   6.427
 8363SOL    HW125988   6.207   3.155   6.494
 8363SOL    HW225989   6.276   3.013   6.450
 8364SOL     OW25990   1.152   2.590   3.495
 8364SOL    HW125991   1.058   2.556   3.494
 8364SOL    HW225992   1.155   2.679   3.450
 8365SOL     OW25993   1.645   3.101   2.091
 8365SOL    HW125994   1.556   3.060   2.110
 8365SOL    HW225995   1.635   3.172   2.021
 8366SOL     OW25996   2.020   5.903   1.644
 8366SOL    HW125997   2.084   5.980   1.646
 8366SOL    HW225998   2.013   5.864   1.736
 8367SOL     OW25999   4.250   5.788   4.023
 8367SOL    HW126000   4.320   5.860   4.028
 8367SOL    HW226001   4.295   5.700   4.005
 8368SOL     OW26002   1.571   5.923   6.319
 8368SOL    HW126003   1.543   5.938   6.225
 8368SOL    HW226004   1.637   5.848   6.323
 8369SOL     OW26005   1.307   6.845   6.546
 8369SOL    HW126006   1.229   6.824   6.488
 8369SOL    HW226007   1.287   6.820   6.641
 8370SOL     OW26008   2.952   1.289   6.065
 8370SOL    HW126009   2.945   1.189   6.069
 8370SOL    HW226010   3.038   1.314   6.020
 8371SOL     OW26011   2.455   4.672   0.987
 8371SOL    HW126012   2.526   4.603   0.977
 8371SOL    HW226013   2.368   4.627   1.007
 8372SOL     OW26014   1.954   5.264   1.946
 8372SOL    HW126015   1.924   5.180   1.993
 8372SOL    HW226016   2.054   5.264   1.940
 8373SOL     OW26017   1.529   0.032   4.606
 8373SOL    HW126018   1.570   6.967   4.593
 8373SOL    HW226019   1.448   0.040   4.549
 8374SOL     OW26020   0.159   0.967   5.423
 8374SOL    HW126021   0.127   0.893   5.364
 8374SOL    HW226022   0.085   0.996   5.484
 8375SOL     OW26023   3.153   6.466   5.118
 8375SOL    HW126024   3.177   6.369   5.115
 8375SOL    HW226025   3.186   6.507   5.203
 8376SOL     OW26026   1.137   1.298   4.351
 8376SOL    HW126027   1.174   1.212   4.315
 8376SOL    HW226028   1.100   1.282   4.443
 8377SOL     OW26029   5.031   6.062   0.635
 8377SOL    HW126030   5.070   6.147   0.600
 8377SOL    HW226031   5.083   5.984   0.600
 8378SOL     OW26032   4.637   5.670   2.963
 8378SOL    HW126033   4.568   5.626   3.021
 8378SOL    HW226034   4.599   5.756   2.927
 8379SOL     OW26035   5.676   3.117   1.136
 8379SOL    HW126036   5.739   3.060   1.188
 8379SOL    HW226037   5.585   3.113   1.178
 8380SOL     OW26038   0.451   0.395   2.724
 8380SOL    HW126039   0.487   0.417   2.814
 8380SOL    HW226040   0.527   0.387   2.659
 8381SOL     OW26041   0.466   2.868   5.121
 8381SOL    HW126042   0.479   2.812   5.039
 8381SOL    HW226043   0.379   2.917   5.114
 8382SOL     OW26044   2.841   0.474   2.944
 8382SOL    HW126045   2.743   0.494   2.948
 8382SOL    HW226046   2.873   0.485   2.850
 8383SOL     OW26047   2.765   0.045   6.154
 8383SOL    HW126048   2.819   0.096   6.088
 8383SOL    HW226049   2.668   0.052   6.131
 8384SOL     OW26050   6.239   0.712   1.603
 8384SOL    HW126051   6.304   0.661   1.546
 8384SOL    HW226052   6.254   0.689   1.699
 8385SOL     OW26053   5.928   2.362   1.082
 8385SOL    HW126054   5.906   2.322   0.993
 8385SOL    HW226055   5.844   2.371   1.137
 8386SOL     OW26056   2.316   5.820   1.844
 8386SOL    HW126057   2.355   5.846   1.932
 8386SOL    HW226058   2.286   5.901   1.794
 8387SOL     OW26059   1.295   1.357   1.528
 8387SOL    HW126060   1.348   1.293   1.585
 8387SOL    HW226061   1.203   1.367   1.566
 8388SOL     OW26062   2.176   6.280   0.107
 8388SOL    HW126063   2.101   6.215   0.120
 8388SOL    HW226064   2.233   6.282   0.189
 8389SOL     OW26065   0.417   3.408   2.693
 8389SOL    HW126066   0.379   3.483   2.748
 8389SOL    HW226067   0.345   3.372   2.633
 8390SOL     OW26068   4.934   1.397   7.019
 8390SOL    HW126069   4.997   1.327   6.985
 8390SOL    HW226070   4.855   1.403   6.958
 8391SOL     OW26071   6.415   5.282   1.156
 8391SOL    HW126072   6.323   5.244   1.164
 8391SOL    HW226073   6.479   5.227   1.211
 8392SOL     OW26074   6.631   4.363   4.749
 8392SOL    HW126075   6.714   4.397   4.794
 8392SOL    HW226076   6.652   4.341   4.654
 8393SOL     OW26077   0.282   6.120   2.750
 8393SOL    HW126078   0.364   6.119   2.807
 8393SOL    HW226079   0.288   6.194   2.683
 8394SOL     OW26080   6.715   3.017   1.919
 8394SOL    HW126081   6.772   3.095   1.944
 8394SOL    HW226082   6.634   3.049   1.871
 8395SOL     OW26083   2.163   6.680   5.288
 8395SOL    HW126084   2.162   6.734   5.204
 8395SOL    HW226085   2.100   6.603   5.279
 8396SOL     OW26086   5.013   5.164   2.111
 8396SOL    HW126087   4.993   5.229   2.038
 8396SOL    HW226088   4.974   5.197   2.197
 8397SOL     OW26089   1.743   0.559   2.777
 8397SOL    HW126090   1.740   0.582   2.680
 8397SOL    HW226091   1.712   0.638   2.830
 8398SOL     OW26092   3.829   1.832   6.710
 8398SOL    HW126093   3.890   1.771   6.761
 8398SOL    HW226094   3.740   1.788   6.697
 8399SOL     OW26095   5.876   5.970   6.888
 8399SOL    HW126096   5.951   6.021   6.929
 8399SOL    HW226097   5.838   5.907   6.956
 8400SOL     OW26098   1.655   1.330   4.329
 8400SOL    HW126099   1.636   1.321   4.426
 8400SOL    HW226100   1.741   1.283   4.308
 8401SOL     OW26101   2.517   1.394   6.192
 8401SOL    HW126102   2.456   1.450   6.247
 8401SOL    HW226103   2.470   1.309   6.166
 8402SOL     OW26104   4.327   1.694   5.593
 8402SOL    HW126105   4.248   1.634   5.580
 8402SOL    HW226106   4.411   1.641   5.591
 8403SOL     OW26107   1.131   2.673   4.618
 8403SOL    HW126108   1.176   2.626   4.541
 8403SOL    HW226109   1.201   2.706   4.681
 8404SOL     OW26110   4.162   6.971   5.823
 8404SOL    HW126111   4.213   6.975   5.909
 8404SOL    HW226112   4.225   6.974   5.746
 8405SOL     OW26113   1.666   0.883   5.573
 8405SOL    HW126114   1.572   0.910   5.555
 8405SOL    HW226115   1.680   0.876   5.672
 8406SOL     OW26116   4.763   0.422   0.533
 8406SOL    HW126117   4.854   0.454   0.557
 8406SOL    HW226118   4.754   0.326   0.557
 8407SOL     OW26119   3.580   6.354   3.639
 8407SOL    HW126120   3.658   6.300   3.608
 8407SOL    HW226121   3.504   6.293   3.661
 8408SOL     OW26122   6.241   4.006   1.864
 8408SOL    HW126123   6.170   3.951   1.908
 8408SOL    HW226124   6.238   4.099   1.899
 8409SOL     OW26125   5.982   2.486   3.452
 8409SOL    HW126126   5.918   2.495   3.528
 8409SOL    HW226127   5.960   2.403   3.400
 8410SOL     OW26128   4.947   0.888   2.002
 8410SOL    HW126129   4.929   0.967   2.060
 8410SOL    HW226130   5.038   0.852   2.021
 8411SOL     OW26131   0.832   4.792   0.091
 8411SOL    HW126132   0.857   4.882   0.057
 8411SOL    HW226133   0.754   4.757   0.039
 8412SOL     OW26134   3.523   1.396   1.560
 8412SOL    HW126135   3.621   1.399   1.545
 8412SOL    HW226136   3.476   1.432   1.480
 8413SOL     OW26137   4.281   5.561   0.053
 8413SOL    HW126138   4.344   5.563   7.002
 8413SOL    HW226139   4.243   5.470   0.063
 8414SOL     OW26140   3.587   5.376   3.142
 8414SOL    HW126141   3.518   5.370   3.214
 8414SOL    HW226142   3.672   5.413   3.181
 8415SOL     OW26143   0.070   6.335   4.028
 8415SOL    HW126144   7.007   6.291   4.024
 8415SOL    HW226145   0.123   6.296   4.102
 8416SOL     OW26146   5.501   3.575   2.240
 8416SOL    HW126147   5.465   3.582   2.333
 8416SOL    HW226148   5.586   3.628   2.234
 8417SOL     OW26149   1.600   4.235   5.669
 8417SOL    HW126150   1.652   4.261   5.588
 8417SOL    HW226151   1.662   4.227   5.747
 8418SOL     OW26152   5.946   5.012   1.131
 8418SOL    HW126153   5.903   4.949   1.066
 8418SOL    HW226154   6.045   5.001   1.128
 8419SOL     OW26155   5.642   6.878   1.989
 8419SOL    HW126156   5.557   6.835   1.956
 8419SOL    HW226157   5.641   6.975   1.966
 8420SOL     OW26158   4.313   0.290   6.871
 8420SOL    HW126159   4.299   0.371   6.927
 8420SOL    HW226160   4.378   0.229   6.917
 8421SOL     OW26161   2.108   5.064   6.867
 8421SOL    HW126162   2.084   4.969   6.846
 8421SOL    HW226163   2.100   5.079   6.965
 8422SOL     OW26164   3.940   1.146   1.575
 8422SOL    HW126165   3.956   1.052   1.603
 8422SOL    HW226166   3.913   1.148   1.479
 8423SOL     OW26167   3.236   4.787   5.491
 8423SOL    HW126168   3.155   4.843   5.506
 8423SOL    HW226169   3.234   4.750   5.398
 8424SOL     OW26170   2.600   1.961   2.324
 8424SOL    HW126171   2.580   1.940   2.229
 8424SOL    HW226172   2.515   1.975   2.374
 8425SOL     OW26173   5.105   4.840   5.989
 8425SOL    HW126174   5.076   4.891   6.070
 8425SOL    HW226175   5.149   4.903   5.925
 8426SOL     OW26176   3.498   3.482   3.188
 8426SOL    HW126177   3.412   3.494   3.138
 8426SOL    HW226178   3.490   3.405   3.251
 8427SOL     OW26179   3.759   4.187   4.941
 8427SOL    HW126180   3.714   4.147   4.861
 8427SOL    HW226181   3.765   4.286   4.928
 8428SOL     OW26182   0.766   5.597   1.502
 8428SOL    HW126183   0.764   5.514   1.558
 8428SOL    HW226184   0.737   5.675   1.557
 8429SOL     OW26185   1.032   5.800   4.003
 8429SOL    HW126186   1.128   5.789   3.979
 8429SOL    HW226187   0.991   5.710   4.017
 8430SOL     OW26188   3.252   5.307   3.291
 8430SOL    HW126189   3.252   5.353   3.202
 8430SOL    HW226190   3.290   5.215   3.281
 8431SOL     OW26191   2.996   4.652   0.412
 8431SOL    HW126192   2.980   4.566   0.363
 8431SOL    HW226193   3.089   4.685   0.392
 8432SOL     OW26194   5.535   6.892   6.103
 8432SOL    HW126195   5.470   6.928   6.170
 8432SOL    HW226196   5.485   6.840   6.033
 8433SOL     OW26197   5.320   2.576   0.626
 8433SOL    HW126198   5.413   2.537   0.620
 8433SOL    HW226199   5.286   2.594   0.533
 8434SOL     OW26200   2.702   6.249   4.882
 8434SOL    HW126201   2.670   6.328   4.831
 8434SOL    HW226202   2.633   6.177   4.879
 8435SOL     OW26203   6.280   0.622   1.945
 8435SOL    HW126204   6.222   0.701   1.965
 8435SOL    HW226205   6.363   0.626   2.001
 8436SOL     OW26206   3.070   6.527   3.291
 8436SOL    HW126207   3.042   6.436   3.322
 8436SOL    HW226208   3.112   6.519   3.200
 8437SOL     OW26209   2.494   0.911   4.551
 8437SOL    HW126210   2.416   0.957   4.593
 8437SOL    HW226211   2.489   0.922   4.452
 8438SOL     OW26212   2.274   4.731   2.521
 8438SOL    HW126213   2.356   4.678   2.543
 8438SOL    HW226214   2.232   4.764   2.605
 8439SOL     OW26215   6.765   4.776   2.815
 8439SOL    HW126216   6.675   4.816   2.826
 8439SOL    HW226217   6.830   4.823   2.875
 8440SOL     OW26218   1.677   2.181   3.633
 8440SOL    HW126219   1.613   2.242   3.680
 8440SOL    HW226220   1.711   2.113   3.697
 8441SOL     OW26221   6.103   6.519   0.305
 8441SOL    HW126222   6.061   6.522   0.396
 8441SOL    HW226223   6.032   6.505   0.236
 8442SOL     OW26224   2.911   2.169   5.067
 8442SOL    HW126225   2.987   2.230   5.045
 8442SOL    HW226226   2.886   2.180   5.163
 8443SOL     OW26227   2.383   4.691   3.391
 8443SOL    HW126228   2.296   4.729   3.422
 8443SOL    HW226229   2.367   4.634   3.310
 8444SOL     OW26230   3.023   6.260   3.904
 8444SOL    HW126231   3.051   6.303   3.818
 8444SOL    HW226232   3.061   6.168   3.908
 8445SOL     OW26233   3.727   6.674   1.315
 8445SOL    HW126234   3.641   6.726   1.309
 8445SOL    HW226235   3.710   6.585   1.356
 8446SOL     OW26236   4.821   4.932   6.662
 8446SOL    HW126237   4.883   4.880   6.722
 8446SOL    HW226238   4.738   4.956   6.713
 8447SOL     OW26239   4.727   1.371   2.362
 8447SOL    HW126240   4.686   1.441   2.420
 8447SOL    HW226241   4.817   1.403   2.330
 8448SOL     OW26242   4.460   5.700   4.351
 8448SOL    HW126243   4.440   5.798   4.350
 8448SOL    HW226244   4.503   5.674   4.265
 8449SOL     OW26245   0.047   2.729   3.734
 8449SOL    HW126246   0.144   2.735   3.757
 8449SOL    HW226247   0.029   2.781   3.650
 8450SOL     OW26248   0.381   6.827   1.193
 8450SOL    HW126249   0.331   6.863   1.272
 8450SOL    HW226250   0.348   6.736   1.170
 8451SOL     OW26251   3.626   1.664   0.288
 8451SOL    HW126252   3.691   1.616   0.229
 8451SOL    HW226253   3.657   1.757   0.304
 8452SOL     OW26254   6.056   1.720   2.718
 8452SOL    HW126255   6.070   1.783   2.641
 8452SOL    HW226256   6.012   1.637   2.685
 8453SOL     OW26257   0.563   4.146   6.879
 8453SOL    HW126258   0.661   4.151   6.857
 8453SOL    HW226259   0.547   4.071   6.943
 8454SOL     OW26260   6.648   6.342   1.779
 8454SOL    HW126261   6.700   6.358   1.862
 8454SOL    HW226262   6.629   6.430   1.734
 8455SOL     OW26263   6.143   2.486   2.238
 8455SOL    HW126264   6.120   2.445   2.149
 8455SOL    HW226265   6.060   2.521   2.281
 8456SOL     OW26266   3.627   5.900   3.021
 8456SOL    HW126267   3.555   5.960   2.987
 8456SOL    HW226268   3.595   5.805   3.018
 8457SOL     OW26269   6.405   6.792   4.358
 8457SOL    HW126270   6.342   6.746   4.295
 8457SOL    HW226271   6.440   6.875   4.314
 8458SOL     OW26272   3.336   0.775   6.703
 8458SOL    HW126273   3.238   0.771   6.685
 8458SOL    HW226274   3.376   0.684   6.690
 8459SOL     OW26275   2.964   6.015   2.097
 8459SOL    HW126276   2.910   6.067   2.164
 8459SOL    HW226277   2.998   5.932   2.140
 8460SOL     OW26278   4.088   4.234   5.254
 8460SOL    HW126279   4.163   4.300   5.245
 8460SOL    HW226280   4.070   4.192   5.166
 8461SOL     OW26281   0.798   4.066   4.778
 8461SOL    HW126282   0.782   4.147   4.834
 8461SOL    HW226283   0.711   4.035   4.739
 8462SOL     OW26284   2.605   2.892   6.880
 8462SOL    HW126285   2.642   2.937   6.961
 8462SOL    HW226286   2.679   2.845   6.831
 8463SOL     OW26287   6.594   6.966   1.455
 8463SOL    HW126288   6.584   6.923   1.365
 8463SOL    HW226289   6.624   0.034   1.444
 8464SOL     OW26290   5.516   3.603   4.265
 8464SOL    HW126291   5.546   3.551   4.184
 8464SOL    HW226292   5.556   3.562   4.347
 8465SOL     OW26293   0.990   2.978   0.716
 8465SOL    HW126294   0.920   3.050   0.719
 8465SOL    HW226295   0.995   2.934   0.806
 8466SOL     OW26296   0.759   6.324   4.113
 8466SOL    HW126297   0.682   6.289   4.060
 8466SOL    HW226298   0.828   6.362   4.051
 8467SOL     OW26299   4.066   6.960   6.608
 8467SOL    HW126300   4.105   6.972   6.517
 8467SOL    HW226301   4.135   6.922   6.669
 8468SOL     OW26302   3.633   2.224   6.705
 8468SOL    HW126303   3.646   2.128   6.728
 8468SOL    HW226304   3.542   2.237   6.665
 8469SOL     OW26305   3.323   2.107   6.880
 8469SOL    HW126306   3.385   2.029   6.881
 8469SOL    HW226307   3.375   2.192   6.867
 8470SOL     OW26308   1.724   3.977   7.017
 8470SOL    HW126309   1.677   3.998   0.075
 8470SOL    HW226310   1.657   3.952   6.946
 8471SOL     OW26311   3.149   1.144   3.756
 8471SOL    HW126312   3.187   1.095   3.834
 8471SOL    HW226313   3.073   1.090   3.717
 8472SOL     OW26314   6.736   0.896   4.656
 8472SOL    HW126315   6.694   0.977   4.613
 8472SOL    HW226316   6.827   0.920   4.691
 8473SOL     OW26317   6.404   6.449   6.508
 8473SOL    HW126318   6.348   6.410   6.581
 8473SOL    HW226319   6.348   6.465   6.427
 8474SOL     OW26320   3.334   3.248   1.817
 8474SOL    HW126321   3.261   3.224   1.882
 8474SOL    HW226322   3.422   3.247   1.865
 8475SOL     OW26323   0.645   2.703   3.588
 8475SOL    HW126324   0.654   2.717   3.687
 8475SOL    HW226325   0.638   2.792   3.542
 8476SOL     OW26326   6.841   2.174   0.968
 8476SOL    HW126327   6.747   2.143   0.956
 8476SOL    HW226328   6.869   2.159   1.063
 8477SOL     OW26329   4.926   6.736   1.605
 8477SOL    HW126330   4.952   6.643   1.632
 8477SOL    HW226331   4.870   6.732   1.522
 8478SOL     OW26332   1.111   6.749   6.114
 8478SOL    HW126333   1.017   6.717   6.128
 8478SOL    HW226334   1.175   6.684   6.154
 8479SOL     OW26335   0.330   3.000   1.140
 8479SOL    HW126336   0.376   2.988   1.052
 8479SOL    HW226337   0.333   2.914   1.191
 8480SOL     OW26338   4.457   1.535   7.026
 8480SOL    HW126339   4.459   1.478   0.082
 8480SOL    HW226340   4.484   1.628   0.023
 8481SOL     OW26341   4.419   2.064   3.591
 8481SOL    HW126342   4.327   2.051   3.555
 8481SOL    HW226343   4.419   2.047   3.689
 8482SOL     OW26344   4.565   5.682   1.952
 8482SOL    HW126345   4.597   5.774   1.973
 8482SOL    HW226346   4.610   5.616   2.012
 8483SOL     OW26347   4.070   6.233   2.246
 8483SOL    HW126348   4.121   6.317   2.265
 8483SOL    HW226349   4.131   6.165   2.205
 8484SOL     OW26350   0.825   5.795   3.251
 8484SOL    HW126351   0.817   5.791   3.350
 8484SOL    HW226352   0.744   5.753   3.209
 8485SOL     OW26353   3.752   3.447   0.823
 8485SOL    HW126354   3.666   3.492   0.843
 8485SOL    HW226355   3.820   3.515   0.794
 8486SOL     OW26356   3.507   0.883   3.204
 8486SOL    HW126357   3.549   0.794   3.187
 8486SOL    HW226358   3.412   0.882   3.174
 8487SOL     OW26359   5.310   2.162   5.812
 8487SOL    HW126360   5.216   2.166   5.844
 8487SOL    HW226361   5.353   2.252   5.823
 8488SOL     OW26362   6.006   5.645   6.742
 8488SOL    HW126363   5.955   5.712   6.686
 8488SOL    HW226364   6.013   5.559   6.692
 8489SOL     OW26365   6.293   1.757   1.292
 8489SOL    HW126366   6.196   1.765   1.313
 8489SOL    HW226367   6.347   1.776   1.374
 8490SOL     OW26368   4.118   6.560   3.864
 8490SOL    HW126369   4.155   6.610   3.785
 8490SOL    HW226370   4.124   6.462   3.847
 8491SOL     OW26371   2.208   6.570   0.706
 8491SOL    HW126372   2.121   6.615   0.686
 8491SOL    HW226373   2.253   6.545   0.621
 8492SOL     OW26374   4.574   4.105   6.234
 8492SOL    HW126375   4.497   4.105   6.170
 8492SOL    HW226376   4.615   4.196   6.236
 8493SOL     OW26377   2.667   2.735   6.506
 8493SOL    HW126378   2.609   2.813   6.481
 8493SOL    HW226379   2.635   2.654   6.457
 8494SOL     OW26380   3.083   5.425   1.202
 8494SOL    HW126381   3.091   5.477   1.117
 8494SOL    HW226382   3.168   5.374   1.218
 8495SOL     OW26383   6.938   4.780   1.803
 8495SOL    HW126384   6.876   4.855   1.783
 8495SOL    HW226385   6.953   4.775   1.902
 8496SOL     OW26386   0.560   2.038   2.217
 8496SOL    HW126387   0.499   2.103   2.262
 8496SOL    HW226388   0.655   2.066   2.233
 8497SOL     OW26389   6.204   0.936   3.883
 8497SOL    HW126390   6.288   0.886   3.860
 8497SOL    HW226391   6.227   1.029   3.910
 8498SOL     OW26392   0.551   6.412   2.868
 8498SOL    HW126393   0.467   6.459   2.840
 8498SOL    HW226394   0.537   6.313   2.864
 8499SOL     OW26395   2.414   4.605   6.444
 8499SOL    HW126396   2.491   4.662   6.416
 8499SOL    HW226397   2.437   4.555   6.527
 8500SOL     OW26398   2.234   6.361   4.756
 8500SOL    HW126399   2.297   6.288   4.731
 8500SOL    HW226400   2.270   6.411   4.834
 8501SOL     OW26401   0.557   1.690   6.914
 8501SOL    HW126402   0.517   1.689   6.822
 8501SOL    HW226403   0.646   1.736   6.911
 8502SOL     OW26404   1.864   4.751   1.298
 8502SOL    HW126405   1.837   4.659   1.326
 8502SOL    HW226406   1.858   4.813   1.377
 8503SOL     OW26407   1.430   0.005   4.156
 8503SOL    HW126408   1.393   0.097   4.164
 8503SOL    HW226409   1.388   6.984   4.079
 8504SOL     OW26410   2.737   5.183   2.734
 8504SOL    HW126411   2.767   5.241   2.810
 8504SOL    HW226412   2.637   5.180   2.732
 8505SOL     OW26413   4.887   3.362   3.651
 8505SOL    HW126414   4.902   3.329   3.557
 8505SOL    HW226415   4.883   3.284   3.713
 8506SOL     OW26416   6.419   1.271   6.852
 8506SOL    HW126417   6.506   1.296   6.893
 8506SOL    HW226418   6.368   1.353   6.827
 8507SOL     OW26419   3.517   0.723   5.488
 8507SOL    HW126420   3.580   0.752   5.560
 8507SOL    HW226421   3.547   0.636   5.450
 8508SOL     OW26422   6.039   1.905   4.790
 8508SOL    HW126423   5.991   1.991   4.806
 8508SOL    HW226424   5.973   1.834   4.766
 8509SOL     OW26425   4.472   1.693   3.203
 8509SOL    HW126426   4.507   1.611   3.159
 8509SOL    HW226427   4.373   1.685   3.215
 8510SOL     OW26428   5.766   4.105   2.974
 8510SOL    HW126429   5.746   4.023   2.920
 8510SOL    HW226430   5.689   4.124   3.035
 8511SOL     OW26431   6.652   4.014   1.344
 8511SOL    HW126432   6.743   3.984   1.371
 8511SOL    HW226433   6.594   3.934   1.327
 8512SOL     OW26434   3.344   2.319   1.328
 8512SOL    HW126435   3.348   2.237   1.385
 8512SOL    HW226436   3.362   2.399   1.385
 8513SOL     OW26437   4.822   4.374   1.779
 8513SOL    HW126438   4.825   4.340   1.873
 8513SOL    HW226439   4.736   4.345   1.736
 8514SOL     OW26440   2.584   2.507   3.927
 8514SOL    HW126441   2.573   2.600   3.892
 8514SOL    HW226442   2.573   2.508   4.027
 8515SOL     OW26443   5.398   1.742   0.684
 8515SOL    HW126444   5.456   1.660   0.681
 8515SOL    HW226445   5.453   1.823   0.665
 8516SOL     OW26446   6.671   1.756   1.269
 8516SOL    HW126447   6.591   1.700   1.247
 8516SOL    HW226448   6.718   1.718   1.348
 8517SOL     OW26449   1.590   3.246   6.509
 8517SOL    HW126450   1.499   3.286   6.521
 8517SOL    HW226451   1.660   3.316   6.523
 8518SOL     OW26452   5.252   4.302   0.216
 8518SOL    HW126453   5.218   4.208   0.219
 8518SOL    HW226454   5.248   4.342   0.308
 8519SOL     OW26455   1.448   4.071   1.463
 8519SOL    HW126456   1.403   3.996   1.415
 8519SOL    HW226457   1.506   4.033   1.536
 8520SOL     OW26458   3.380   3.424   0.215
 8520SOL    HW126459   3.322   3.503   0.233
 8520SOL    HW226460   3.330   3.340   0.241
 8521SOL     OW26461   1.879   5.246   5.581
 8521SOL    HW126462   1.928   5.176   5.529
 8521SOL    HW226463   1.918   5.335   5.562
 8522SOL     OW26464   1.037   6.506   1.756
 8522SOL    HW126465   1.073   6.413   1.747
 8522SOL    HW226466   1.052   6.556   1.671
 8523SOL     OW26467   1.854   6.484   6.752
 8523SOL    HW126468   1.841   6.580   6.726
 8523SOL    HW226469   1.765   6.439   6.759
 8524SOL     OW26470   0.557   2.784   5.362
 8524SOL    HW126471   0.528   2.813   5.271
 8524SOL    HW226472   0.485   2.805   5.429
 8525SOL     OW26473   6.501   4.264   2.704
 8525SOL    HW126474   6.552   4.219   2.631
 8525SOL    HW226475   6.414   4.299   2.669
 8526SOL     OW26476   4.155   6.047   6.383
 8526SOL    HW126477   4.203   6.055   6.470
 8526SOL    HW226478   4.207   6.094   6.312
 8527SOL     OW26479   2.555   0.794   6.127
 8527SOL    HW126480   2.641   0.748   6.147
 8527SOL    HW226481   2.538   0.865   6.195
 8528SOL     OW26482   3.817   1.304   6.589
 8528SOL    HW126483   3.815   1.295   6.688
 8528SOL    HW226484   3.723   1.309   6.554
 8529SOL     OW26485   0.763   0.753   0.978
 8529SOL    HW126486   0.688   0.702   1.019
 8529SOL    HW226487   0.732   0.796   0.893
 8530SOL     OW26488   3.837   4.177   5.370
 8530SOL    HW126489   3.856   4.250   5.435
 8530SOL    HW226490   3.914   4.169   5.306
 8531SOL     OW26491   6.572   5.332   2.776
 8531SOL    HW126492   6.649   5.377   2.730
 8531SOL    HW226493   6.489   5.344   2.723
 8532SOL     OW26494   4.369   4.953   5.042
 8532SOL    HW126495   4.393   5.004   4.960
 8532SOL    HW226496   4.270   4.953   5.054
 8533SOL     OW26497   1.416   7.019   6.810
 8533SOL    HW126498   1.367   0.051   6.875
 8533SOL    HW226499   1.352   6.955   6.768
 8534SOL     OW26500   6.960   3.035   3.829
 8534SOL    HW126501   6.884   3.071   3.884
 8534SOL    HW226502   6.935   2.944   3.794
 8535SOL     OW26503   6.192   2.183   4.491
 8535SOL    HW126504   6.191   2.272   4.537
 8535SOL    HW226505   6.138   2.189   4.407
 8536SOL     OW26506   0.477   2.503   5.021
 8536SOL    HW126507   0.418   2.538   4.948
 8536SOL    HW226508   0.546   2.442   4.981
 8537SOL     OW26509   4.819   1.178   2.114
 8537SOL    HW126510   4.899   1.204   2.060
 8537SOL    HW226511   4.745   1.243   2.099
 8538SOL     OW26512   0.367   0.621   0.371
 8538SOL    HW126513   0.269   0.643   0.370
 8538SOL    HW226514   0.394   0.586   0.281
 8539SOL     OW26515   5.150   0.585   2.790
 8539SOL    HW126516   5.143   0.620   2.697
 8539SOL    HW226517   5.219   0.513   2.794
 8540SOL     OW26518   4.594   0.359   6.344
 8540SOL    HW126519   4.690   0.336   6.361
 8540SOL    HW226520   4.574   0.449   6.383
 8541SOL     OW26521   2.668   1.710   4.206
 8541SOL    HW126522   2.692   1.614   4.211
 8541SOL    HW226523   2.579   1.726   4.250
 8542SOL     OW26524   3.900   4.670   6.984
 8542SOL    HW126525   3.822   4.699   0.013
 8542SOL    HW226526   3.873   4.593   6.926
 8543SOL     OW26527   3.466   0.714   1.144
 8543SOL    HW126528   3.450   0.810   1.120
 8543SOL    HW226529   3.413   0.655   1.083
 8544SOL     OW26530   5.404   3.520   4.770
 8544SOL    HW126531   5.444   3.591   4.712
 8544SOL    HW226532   5.341   3.562   4.835
 8545SOL     OW26533   4.681   6.628   4.934
 8545SOL    HW126534   4.663   6.677   4.848
 8545SOL    HW226535   4.775   6.594   4.934
 8546SOL     OW26536   6.973   1.562   3.521
 8546SOL    HW126537   6.888   1.524   3.484
 8546SOL    HW226538   0.023   1.536   3.461
 8547SOL     OW26539   1.471   0.006   6.336
 8547SOL    HW126540   1.439   6.980   6.415
 8547SOL    HW226541   1.459   6.978   6.253
 8548SOL     OW26542   5.591   2.996   5.568
 8548SOL    HW126543   5.618   3.021   5.474
 8548SOL    HW226544   5.661   2.937   5.607
 8549SOL     OW26545   1.372   2.753   4.189
 8549SOL    HW126546   1.434   2.738   4.112
 8549SOL    HW226547   1.425   2.761   4.273
 8550SOL     OW26548   1.789   4.993   0.266
 8550SOL    HW126549   1.849   4.970   0.343
 8550SOL    HW226550   1.813   4.937   0.187
 8551SOL     OW26551   3.352   3.602   6.714
 8551SOL    HW126552   3.383   3.569   6.803
 8551SOL    HW226553   3.431   3.635   6.662
 8552SOL     OW26554   2.440   0.461   3.982
 8552SOL    HW126555   2.347   0.476   4.016
 8552SOL    HW226556   2.453   0.363   3.965
 8553SOL     OW26557   4.494   4.239   6.990
 8553SOL    HW126558   4.588   4.271   6.980
 8553SOL    HW226559   4.489   4.142   6.968
 8554SOL     OW26560   1.046   4.630   0.461
 8554SOL    HW126561   0.963   4.580   0.436
 8554SOL    HW226562   1.039   4.725   0.433
 8555SOL     OW26563   2.005   1.764   3.345
 8555SOL    HW126564   1.977   1.804   3.257
 8555SOL    HW226565   1.951   1.803   3.419
 8556SOL     OW26566   1.496   6.099   5.008
 8556SOL    HW126567   1.585   6.144   5.002
 8556SOL    HW226568   1.492   6.024   4.942
 8557SOL     OW26569   5.728   6.782   3.181
 8557SOL    HW126570   5.693   6.776   3.088
 8557SOL    HW226571   5.804   6.847   3.185
 8558SOL     OW26572   3.230   4.905   3.013
 8558SOL    HW126573   3.210   4.928   2.917
 8558SOL    HW226574   3.194   4.814   3.033
 8559SOL     OW26575   0.968   0.309   2.505
 8559SOL    HW126576   0.957   0.228   2.447
 8559SOL    HW226577   1.011   0.282   2.592
 8560SOL     OW26578   6.565   6.244   2.031
 8560SOL    HW126579   6.586   6.266   2.126
 8560SOL    HW226580   6.468   6.259   2.013
 8561SOL     OW26581   2.873   0.758   2.517
 8561SOL    HW126582   2.789   0.812   2.524
 8561SOL    HW226583   2.896   0.720   2.606
 8562SOL     OW26584   3.888   5.766   5.831
 8562SOL    HW126585   3.790   5.782   5.842
 8562SOL    HW226586   3.902   5.691   5.766
 8563SOL     OW26587   2.021   4.578   6.785
 8563SOL    HW126588   2.086   4.593   6.710
 8563SOL    HW226589   1.931   4.556   6.748
 8564SOL     OW26590   2.983   1.263   5.456
 8564SOL    HW126591   3.012   1.231   5.365
 8564SOL    HW226592   3.048   1.332   5.488
 8565SOL     OW26593   3.995   5.523   1.155
 8565SOL    HW126594   3.966   5.613   1.122
 8565SOL    HW226595   4.047   5.534   1.239
 8566SOL     OW26596   1.859   0.706   1.169
 8566SOL    HW126597   1.935   0.648   1.199
 8566SOL    HW226598   1.893   0.772   1.101
 8567SOL     OW26599   0.323   2.515   2.734
 8567SOL    HW126600   0.237   2.465   2.743
 8567SOL    HW226601   0.399   2.452   2.743
 8568SOL     OW26602   5.347   1.414   6.336
 8568SOL    HW126603   5.300   1.502   6.345
 8568SOL    HW226604   5.281   1.339   6.345
 8569SOL     OW26605   4.794   1.008   6.382
 8569SOL    HW126606   4.743   0.957   6.312
 8569SOL    HW226607   4.768   1.104   6.379
 8570SOL     OW26608   1.838   2.242   5.213
 8570SOL    HW126609   1.771   2.229   5.140
 8570SOL    HW226610   1.928   2.213   5.181
 8571SOL     OW26611   1.204   5.559   5.395
 8571SOL    HW126612   1.268   5.493   5.353
 8571SOL    HW226613   1.140   5.592   5.325
 8572SOL     OW26614   2.942   4.669   6.587
 8572SOL    HW126615   2.942   4.569   6.594
 8572SOL    HW226616   2.946   4.695   6.491
 8573SOL     OW26617   3.560   6.164   6.373
 8573SOL    HW126618   3.557   6.262   6.392
 8573SOL    HW226619   3.481   6.139   6.317
 8574SOL     OW26620   6.643   5.678   5.792
 8574SOL    HW126621   6.617   5.618   5.867
 8574SOL    HW226622   6.738   5.706   5.804
 8575SOL     OW26623   2.471   2.603   4.937
 8575SOL    HW126624   2.468   2.636   5.032
 8575SOL    HW226625   2.528   2.521   4.932
 8576SOL     OW26626   1.724   5.248   6.651
 8576SOL    HW126627   1.663   5.194   6.592
 8576SOL    HW226628   1.816   5.210   6.646
 8577SOL     OW26629   6.844   6.537   4.304
 8577SOL    HW126630   6.821   6.440   4.303
 8577SOL    HW226631   6.909   6.556   4.230
 8578SOL     OW26632   5.241   1.002   4.303
 8578SOL    HW126633   5.309   0.936   4.273
 8578SOL    HW226634   5.182   1.027   4.226
 8579SOL     OW26635   1.614   0.482   2.139
 8579SOL    HW126636   1.572   0.512   2.054
 8579SOL    HW226637   1.679   0.408   2.120
 8580SOL     OW26638   1.620   0.032   2.063
 8580SOL    HW126639   1.672   6.996   2.006
 8580SOL    HW226640   1.529   7.021   2.081
 8581SOL     OW26641   3.058   3.993   2.027
 8581SOL    HW126642   3.064   3.893   2.020
 8581SOL    HW226643   3.046   4.019   2.123
 8582SOL     OW26644   4.605   4.499   3.024
 8582SOL    HW126645   4.598   4.483   3.122
 8582SOL    HW226646   4.700   4.486   2.995
 8583SOL     OW26647   5.525   0.537   4.516
 8583SOL    HW126648   5.513   0.514   4.613
 8583SOL    HW226649   5.589   0.614   4.508
 8584SOL     OW26650   1.191   4.441   5.824
 8584SOL    HW126651   1.193   4.449   5.725
 8584SOL    HW226652   1.105   4.480   5.858
 8585SOL     OW26653   0.246   6.022   6.146
 8585SOL    HW126654   0.221   5.927   6.127
 8585SOL    HW226655   0.199   6.082   6.082
 8586SOL     OW26656   2.411   0.124   2.745
 8586SOL    HW126657   2.462   0.204   2.775
 8586SOL    HW226658   2.452   0.042   2.786
 8587SOL     OW26659   1.330   6.777   4.375
 8587SOL    HW126660   1.322   6.753   4.471
 8587SOL    HW226661   1.427   6.774   4.348
 8588SOL     OW26662   2.898   1.032   0.527
 8588SOL    HW126663   2.935   1.105   0.470
 8588SOL    HW226664   2.908   0.944   0.480
 8589SOL     OW26665   4.770   2.918   5.029
 8589SOL    HW126666   4.856   2.894   5.074
 8589SOL    HW226667   4.718   2.835   5.009
 8590SOL     OW26668   6.783   6.053   4.139
 8590SOL    HW126669   6.713   5.999   4.091
 8590SOL    HW226670   6.830   5.996   4.205
 8591SOL     OW26671   0.503   3.944   0.020
 8591SOL    HW126672   0.480   3.917   0.114
 8591SOL    HW226673   0.448   3.891   6.982
 8592SOL     OW26674   0.094   2.460   6.160
 8592SOL    HW126675   0.060   2.461   6.066
 8592SOL    HW226676   0.076   2.549   6.203
 8593SOL     OW26677   2.882   0.294   0.943
 8593SOL    HW126678   2.960   0.275   0.883
 8593SOL    HW226679   2.798   0.295   0.889
 8594SOL     OW26680   4.317   2.103   5.501
 8594SOL    HW126681   4.266   2.174   5.452
 8594SOL    HW226682   4.403   2.140   5.535
 8595SOL     OW26683   0.909   2.880   3.326
 8595SOL    HW126684   1.008   2.875   3.340
 8595SOL    HW226685   0.889   2.880   3.228
 8596SOL     OW26686   0.440   5.398   3.389
 8596SOL    HW126687   0.360   5.449   3.419
 8596SOL    HW226688   0.414   5.303   3.370
 8597SOL     OW26689   4.582   1.483   1.110
 8597SOL    HW126690   4.525   1.433   1.175
 8597SOL    HW226691   4.641   1.418   1.062
 8598SOL     OW26692   5.963   6.532   0.841
 8598SOL    HW126693   5.945   6.531   0.743
 8598SOL    HW226694   5.879   6.552   0.890
 8599SOL     OW26695   1.082   2.969   4.468
 8599SOL    HW126696   1.027   2.889   4.492
 8599SOL    HW226697   1.122   2.956   4.378
 8600SOL     OW26698   4.671   5.022   5.521
 8600SOL    HW126699   4.702   4.980   5.435
 8600SOL    HW226700   4.595   4.968   5.558
 8601SOL     OW26701   0.629   1.313   5.113
 8601SOL    HW126702   0.708   1.304   5.053
 8601SOL    HW226703   0.641   1.253   5.193
 8602SOL     OW26704   2.765   5.468   2.566
 8602SOL    HW126705   2.817   5.453   2.482
 8602SOL    HW226706   2.739   5.380   2.606
 8603SOL     OW26707   3.766   5.678   0.437
 8603SOL    HW126708   3.859   5.714   0.431
 8603SOL    HW226709   3.711   5.713   0.361
 8604SOL     OW26710   0.514   2.487   4.569
 8604SOL    HW126711   0.440   2.447   4.515
 8604SOL    HW226712   0.600   2.441   4.545
 8605SOL     OW26713   2.952   5.726   4.443
 8605SOL    HW126714   2.897   5.795   4.490
 8605SOL    HW226715   2.893   5.670   4.384
 8606SOL     OW26716   1.764   3.212   6.263
 8606SOL    HW126717   1.747   3.303   6.226
 8606SOL    HW226718   1.700   3.193   6.337
 8607SOL     OW26719   3.488   5.983   0.470
 8607SOL    HW126720   3.427   5.951   0.543
 8607SOL    HW226721   3.583   5.964   0.495
 8608SOL     OW26722   4.310   5.322   2.778
 8608SOL    HW126723   4.227   5.314   2.723
 8608SOL    HW226724   4.357   5.408   2.757
 8609SOL     OW26725   5.325   1.376   3.226
 8609SOL    HW126726   5.418   1.412   3.236
 8609SOL    HW226727   5.330   1.281   3.197
 8610SOL     OW26728   1.995   2.222   2.729
 8610SOL    HW126729   1.963   2.184   2.642
 8610SOL    HW226730   1.929   2.289   2.762
 8611SOL     OW26731   2.843   1.908   4.683
 8611SOL    HW126732   2.903   1.833   4.711
 8611SOL    HW226733   2.821   1.898   4.586
 8612SOL     OW26734   3.536   3.283   1.317
 8612SOL    HW126735   3.473   3.347   1.273
 8612SOL    HW226736   3.497   3.253   1.405
 8613SOL     OW26737   2.236   1.826   1.125
 8613SOL    HW126738   2.165   1.763   1.157
 8613SOL    HW226739   2.258   1.891   1.198
 8614SOL     OW26740   1.399   3.009   2.151
 8614SOL    HW126741   1.409   2.911   2.168
 8614SOL    HW226742   1.312   3.041   2.189
 8615SOL     OW26743   4.792   1.648   5.025
 8615SOL    HW126744   4.707   1.609   4.989
 8615SOL    HW226745   4.823   1.720   4.963
 8616SOL     OW26746   3.148   4.499   1.629
 8616SOL    HW126747   3.183   4.582   1.672
 8616SOL    HW226748   3.064   4.470   1.675
 8617SOL     OW26749   6.785   0.982   6.617
 8617SOL    HW126750   6.763   1.077   6.598
 8617SOL    HW226751   6.884   0.972   6.627
 8618SOL     OW26752   6.068   5.699   0.643
 8618SOL    HW126753   5.968   5.694   0.654
 8618SOL    HW226754   6.106   5.606   0.647
 8619SOL     OW26755   3.876   4.840   2.080
 8619SOL    HW126756   3.895   4.836   2.178
 8619SOL    HW226757   3.782   4.809   2.063
 8620SOL     OW26758   0.934   0.178   4.288
 8620SOL    HW126759   1.026   0.178   4.327
 8620SOL    HW226760   0.929   0.109   4.215
 8621SOL     OW26761   5.722   1.356   3.046
 8621SOL    HW126762   5.822   1.367   3.048
 8621SOL    HW226763   5.684   1.418   2.977
 8622SOL     OW26764   5.325   3.490   0.070
 8622SOL    HW126765   5.234   3.472   0.108
 8622SOL    HW226766   5.395   3.447   0.128
 8623SOL     OW26767   1.036   3.612   4.026
 8623SOL    HW126768   1.009   3.700   4.064
 8623SOL    HW226769   1.004   3.539   4.087
 8624SOL     OW26770   1.229   3.858   4.827
 8624SOL    HW126771   1.268   3.923   4.892
 8624SOL    HW226772   1.131   3.848   4.845
 8625SOL     OW26773   4.672   0.350   6.072
 8625SOL    HW126774   4.636   0.335   6.164
 8625SOL    HW226775   4.709   0.265   6.036
 8626SOL     OW26776   3.996   3.147   5.474
 8626SOL    HW126777   4.003   3.123   5.377
 8626SOL    HW226778   4.070   3.105   5.525
 8627SOL     OW26779   0.413   1.304   3.321
 8627SOL    HW126780   0.322   1.312   3.362
 8627SOL    HW226781   0.413   1.231   3.253
 8628SOL     OW26782   6.273   6.336   0.443
 8628SOL    HW126783   6.371   6.350   0.458
 8628SOL    HW226784   6.238   6.407   0.382
 8629SOL     OW26785   1.389   4.861   5.147
 8629SOL    HW126786   1.413   4.833   5.055
 8629SOL    HW226787   1.471   4.890   5.196
 8630SOL     OW26788   5.222   4.094   3.718
 8630SOL    HW126789   5.259   4.093   3.625
 8630SOL    HW226790   5.286   4.143   3.778
 8631SOL     OW26791   1.962   4.918   5.859
 8631SOL    HW126792   1.918   4.920   5.949
 8631SOL    HW226793   2.032   4.989   5.854
 8632SOL     OW26794   3.632   6.111   3.966
 8632SOL    HW126795   3.718   6.137   3.923
 8632SOL    HW226796   3.571   6.071   3.896
 8633SOL     OW26797   4.860   1.785   5.261
 8633SOL    HW126798   4.841   1.724   5.184
 8633SOL    HW226799   4.932   1.746   5.318
 8634SOL     OW26800   5.492   3.321   0.242
 8634SOL    HW126801   5.585   3.296   0.266
 8634SOL    HW226802   5.450   3.248   0.188
 8635SOL     OW26803   5.521   4.353   6.613
 8635SOL    HW126804   5.560   4.420   6.550
 8635SOL    HW226805   5.582   4.275   6.622
 8636SOL     OW26806   4.923   5.783   0.998
 8636SOL    HW126807   4.857   5.856   1.016
 8636SOL    HW226808   4.904   5.742   0.908
 8637SOL     OW26809   2.360   1.225   0.364
 8637SOL    HW126810   2.324   1.148   0.417
 8637SOL    HW226811   2.285   1.281   0.331
 8638SOL     OW26812   2.492   3.344   6.771
 8638SOL    HW126813   2.455   3.353   6.864
 8638SOL    HW226814   2.459   3.258   6.731
 8639SOL     OW26815   5.277   2.565   1.683
 8639SOL    HW126816   5.271   2.602   1.590
 8639SOL    HW226817   5.278   2.641   1.749
 8640SOL     OW26818   4.920   3.962   0.435
 8640SOL    HW126819   4.835   3.918   0.462
 8640SOL    HW226820   4.901   4.034   0.368
 8641SOL     OW26821   5.482   5.053   4.387
 8641SOL    HW126822   5.577   5.059   4.418
 8641SOL    HW226823   5.461   4.958   4.362
 8642SOL     OW26824   2.404   7.009   3.085
 8642SOL    HW126825   2.310   0.003   3.112
 8642SOL    HW226826   2.404   6.962   2.997
 8643SOL     OW26827   2.804   0.206   6.649
 8643SOL    HW126828   2.801   0.140   6.575
 8643SOL    HW226829   2.717   0.254   6.656
 8644SOL     OW26830   5.074   2.030   5.311
 8644SOL    HW126831   5.051   1.935   5.292
 8644SOL    HW226832   5.076   2.082   5.225
 8645SOL     OW26833   4.529   4.775   1.555
 8645SOL    HW126834   4.445   4.823   1.529
 8645SOL    HW226835   4.607   4.833   1.533
 8646SOL     OW26836   6.628   1.057   1.632
 8646SOL    HW126837   6.722   1.058   1.666
 8646SOL    HW226838   6.616   1.130   1.564
 8647SOL     OW26839   2.796   5.557   5.902
 8647SOL    HW126840   2.701   5.532   5.918
 8647SOL    HW226841   2.827   5.519   5.815
 8648SOL     OW26842   6.253   0.400   3.193
 8648SOL    HW126843   6.311   0.328   3.232
 8648SOL    HW226844   6.163   0.363   3.172
 8649SOL     OW26845   5.294   5.243   6.035
 8649SOL    HW126846   5.215   5.222   5.977
 8649SOL    HW226847   5.270   5.227   6.131
 8650SOL     OW26848   2.147   5.153   4.852
 8650SOL    HW126849   2.101   5.239   4.830
 8650SOL    HW226850   2.176   5.154   4.948
 8651SOL     OW26851   3.428   0.323   0.311
 8651SOL    HW126852   3.358   0.252   0.304
 8651SOL    HW226853   3.390   0.411   0.285
 8652SOL     OW26854   1.811   4.288   4.119
 8652SOL    HW126855   1.840   4.342   4.198
 8652SOL    HW226856   1.717   4.312   4.095
 8653SOL     OW26857   5.915   0.479   6.482
 8653SOL    HW126858   5.956   0.452   6.394
 8653SOL    HW226859   5.836   0.537   6.465
 8654SOL     OW26860   1.370   4.999   1.397
 8654SOL    HW126861   1.420   5.043   1.322
 8654SOL    HW226862   1.308   4.930   1.360
 8655SOL     OW26863   6.545   1.564   3.687
 8655SOL    HW126864   6.526   1.659   3.708
 8655SOL    HW226865   6.498   1.538   3.603
 8656SOL     OW26866   6.483   0.652   1.079
 8656SOL    HW126867   6.529   0.659   0.990
 8656SOL    HW226868   6.483   0.557   1.109
 8657SOL     OW26869   5.327   4.678   0.603
 8657SOL    HW126870   5.376   4.623   0.536
 8657SOL    HW226871   5.392   4.724   0.664
 8658SOL     OW26872   4.938   6.639   0.192
 8658SOL    HW126873   4.846   6.620   0.225
 8658SOL    HW226874   4.973   6.559   0.143
 8659SOL     OW26875   4.605   1.732   2.881
 8659SOL    HW126876   4.509   1.763   2.880
 8659SOL    HW226877   4.607   1.632   2.892
 8660SOL     OW26878   6.181   4.357   1.671
 8660SOL    HW126879   6.176   4.311   1.759
 8660SOL    HW226880   6.186   4.290   1.598
 8661SOL     OW26881   5.637   3.934   1.416
 8661SOL    HW126882   5.554   3.893   1.454
 8661SOL    HW226883   5.712   3.868   1.421
 8662SOL     OW26884   4.360   6.274   0.971
 8662SOL    HW126885   4.277   6.235   1.012
 8662SOL    HW226886   4.383   6.359   1.017
 8663SOL     OW26887   3.305   5.954   1.639
 8663SOL    HW126888   3.326   5.856   1.631
 8663SOL    HW226889   3.295   5.978   1.735
 8664SOL     OW26890   1.853   5.845   0.775
 8664SOL    HW126891   1.832   5.797   0.690
 8664SOL    HW226892   1.900   5.931   0.755
 8665SOL     OW26893   5.071   6.508   4.877
 8665SOL    HW126894   5.087   6.517   4.779
 8665SOL    HW226895   5.136   6.443   4.915
 8666SOL     OW26896   5.083   2.125   4.074
 8666SOL    HW126897   5.065   2.084   3.985
 8666SOL    HW226898   5.181   2.126   4.092
 8667SOL     OW26899   4.517   2.399   2.994
 8667SOL    HW126900   4.490   2.333   2.924
 8667SOL    HW226901   4.616   2.400   3.002
 8668SOL     OW26902   5.426   3.839   3.589
 8668SOL    HW126903   5.426   3.830   3.689
 8668SOL    HW226904   5.459   3.930   3.564
 8669SOL     OW26905   1.704   6.471   6.980
 8669SOL    HW126906   1.803   6.464   6.965
 8669SOL    HW226907   1.662   6.381   6.969
 8670SOL     OW26908   3.997   4.056   5.042
 8670SOL    HW126909   3.917   4.111   5.015
 8670SOL    HW226910   4.029   4.003   4.964
 8671SOL     OW26911   5.208   1.742   3.691
 8671SOL    HW126912   5.154   1.822   3.664
 8671SOL    HW226913   5.241   1.754   3.784
 8672SOL     OW26914   1.845   4.676   3.940
 8672SOL    HW126915   1.829   4.774   3.947
 8672SOL    HW226916   1.758   4.627   3.949
 8673SOL     OW26917   6.095   2.684   0.270
 8673SOL    HW126918   6.171   2.619   0.259
 8673SOL    HW226919   6.096   2.720   0.363
 8674SOL     OW26920   6.062   6.011   3.632
 8674SOL    HW126921   6.138   5.990   3.569
 8674SOL    HW226922   6.082   6.096   3.681
 8675SOL     OW26923   2.727   2.288   4.363
 8675SOL    HW126924   2.820   2.274   4.399
 8675SOL    HW226925   2.670   2.330   4.433
 8676SOL     OW26926   4.330   0.479   2.409
 8676SOL    HW126927   4.424   0.449   2.396
 8676SOL    HW226928   4.328   0.574   2.440
 8677SOL     OW26929   2.016   5.860   5.330
 8677SOL    HW126930   2.014   5.850   5.429
 8677SOL    HW226931   2.086   5.800   5.291
 8678SOL     OW26932   6.403   0.625   1.378
 8678SOL    HW126933   6.410   0.725   1.371
 8678SOL    HW226934   6.479   0.584   1.327
 8679SOL     OW26935   0.244   2.305   3.009
 8679SOL    HW126936   0.223   2.247   3.088
 8679SOL    HW226937   0.249   2.249   2.926
 8680SOL     OW26938   1.286   3.813   1.161
 8680SOL    HW126939   1.311   3.716   1.164
 8680SOL    HW226940   1.362   3.866   1.124
 8681SOL     OW26941   5.274   5.025   0.293
 8681SOL    HW126942   5.198   4.967   0.324
 8681SOL    HW226943   5.244   5.080   0.215
 8682SOL     OW26944   4.917   6.922   2.334
 8682SOL    HW126945   4.985   6.851   2.354
 8682SOL    HW226946   4.826   6.888   2.359
 8683SOL     OW26947   1.564   1.985   2.829
 8683SOL    HW126948   1.616   2.030   2.902
 8683SOL    HW226949   1.539   1.893   2.859
 8684SOL     OW26950   0.229   2.958   5.050
 8684SOL    HW126951   0.162   2.984   5.120
 8684SOL    HW226952   0.232   3.029   4.979
 8685SOL     OW26953   0.218   1.913   5.998
 8685SOL    HW126954   0.244   1.821   5.968
 8685SOL    HW226955   0.247   1.980   5.929
 8686SOL     OW26956   0.115   1.761   2.042
 8686SOL    HW126957   0.158   1.762   2.132
 8686SOL    HW226958   0.098   1.855   2.012
 8687SOL     OW26959   4.919   5.306   2.309
 8687SOL    HW126960   4.829   5.343   2.332
 8687SOL    HW226961   4.953   5.251   2.386
 8688SOL     OW26962   2.437   5.626   0.088
 8688SOL    HW126963   2.366   5.678   0.040
 8688SOL    HW226964   2.461   5.545   0.034
 8689SOL     OW26965   3.928   4.183   1.678
 8689SOL    HW126966   4.024   4.173   1.705
 8689SOL    HW226967   3.909   4.124   1.599
 8690SOL     OW26968   1.665   2.920   3.065
 8690SOL    HW126969   1.761   2.914   3.038
 8690SOL    HW226970   1.644   3.014   3.093
 8691SOL     OW26971   2.912   2.088   6.145
 8691SOL    HW126972   2.827   2.126   6.110
 8691SOL    HW226973   2.947   2.019   6.082
 8692SOL     OW26974   2.386   1.667   4.272
 8692SOL    HW126975   2.371   1.732   4.346
 8692SOL    HW226976   2.360   1.575   4.302
 8693SOL     OW26977   5.743   0.846   0.349
 8693SOL    HW126978   5.704   0.926   0.303
 8693SOL    HW226979   5.843   0.852   0.348
 8694SOL     OW26980   4.932   1.192   4.916
 8694SOL    HW126981   4.891   1.243   4.840
 8694SOL    HW226982   4.906   1.235   5.003
 8695SOL     OW26983   4.314   2.648   5.874
 8695SOL    HW126984   4.277   2.674   5.963
 8695SOL    HW226985   4.329   2.730   5.819
 8696SOL     OW26986   2.337   5.138   6.992
 8696SOL    HW126987   2.398   5.059   6.998
 8696SOL    HW226988   2.264   5.119   6.927
 8697SOL     OW26989   6.923   2.640   6.559
 8697SOL    HW126990   6.872   2.608   6.479
 8697SOL    HW226991   6.887   2.596   6.641
 8698SOL     OW26992   5.306   6.404   5.517
 8698SOL    HW126993   5.282   6.318   5.471
 8698SOL    HW226994   5.241   6.421   5.592
 8699SOL     OW26995   2.293   2.398   5.485
 8699SOL    HW126996   2.342   2.363   5.565
 8699SOL    HW226997   2.195   2.393   5.501
 8700SOL     OW26998   0.618   0.859   4.577
 8700SOL    HW126999   0.623   0.839   4.675
 8700SOL    HW227000   0.532   0.824   4.541
 8701SOL     OW27001   0.570   1.618   0.970
 8701SOL    HW127002   0.523   1.637   1.057
 8701SOL    HW227003   0.512   1.648   0.894
 8702SOL     OW27004   5.457   5.072   1.595
 8702SOL    HW127005   5.466   5.171   1.599
 8702SOL    HW227006   5.456   5.035   1.688
 8703SOL     OW27007   2.887   4.873   6.865
 8703SOL    HW127008   2.969   4.820   6.846
 8703SOL    HW227009   2.869   4.874   6.963
 8704SOL     OW27010   0.311   3.626   3.088
 8704SOL    HW127011   0.397   3.577   3.107
 8704SOL    HW227012   0.255   3.571   3.026
 8705SOL     OW27013   5.208   1.730   6.095
 8705SOL    HW127014   5.244   1.703   6.184
 8705SOL    HW227015   5.193   1.828   6.093
 8706SOL     OW27016   4.727   2.297   6.792
 8706SOL    HW127017   4.665   2.228   6.754
 8706SOL    HW227018   4.717   2.299   6.891
 8707SOL     OW27019   0.185   2.015   6.427
 8707SOL    HW127020   0.102   1.975   6.467
 8707SOL    HW227021   0.169   2.111   6.404
 8708SOL     OW27022   4.564   2.231   2.566
 8708SOL    HW127023   4.582   2.146   2.615
 8708SOL    HW227024   4.492   2.282   2.613
 8709SOL     OW27025   0.069   6.414   0.025
 8709SOL    HW127026   7.015   6.392   6.996
 8709SOL    HW227027   0.152   6.381   7.004
 8710SOL     OW27028   2.125   3.453   4.122
 8710SOL    HW127029   2.120   3.375   4.059
 8710SOL    HW227030   2.137   3.419   4.216
 8711SOL     OW27031   1.359   6.750   3.198
 8711SOL    HW127032   1.433   6.704   3.148
 8711SOL    HW227033   1.321   6.688   3.266
 8712SOL     OW27034   4.162   2.306   4.656
 8712SOL    HW127035   4.144   2.384   4.716
 8712SOL    HW227036   4.115   2.225   4.692
 8713SOL     OW27037   6.798   2.589   4.506
 8713SOL    HW127038   6.758   2.544   4.427
 8713SOL    HW227039   6.843   2.521   4.564
 8714SOL     OW27040   1.070   1.070   6.441
 8714SOL    HW127041   1.118   0.995   6.487
 8714SOL    HW227042   1.027   1.129   6.509
 8715SOL     OW27043   5.086   0.358   0.885
 8715SOL    HW127044   5.085   0.303   0.969
 8715SOL    HW227045   5.056   0.451   0.906
 8716SOL     OW27046   6.623   7.022   1.911
 8716SOL    HW127047   6.573   0.059   1.853
 8716SOL    HW227048   6.721   0.013   1.903
 8717SOL     OW27049   3.810   3.533   4.061
 8717SOL    HW127050   3.722   3.548   4.105
 8717SOL    HW227051   3.813   3.583   3.974
 8718SOL     OW27052   1.112   3.759   5.384
 8718SOL    HW127053   1.064   3.841   5.353
 8718SOL    HW227054   1.087   3.681   5.326
 8719SOL     OW27055   3.436   0.058   6.260
 8719SOL    HW127056   3.389   0.134   6.306
 8719SOL    HW227057   3.392   6.998   6.284
 8720SOL     OW27058   6.674   4.988   6.310
 8720SOL    HW127059   6.597   4.970   6.248
 8720SOL    HW227060   6.696   5.086   6.307
 8721SOL     OW27061   6.825   3.138   2.213
 8721SOL    HW127062   6.741   3.094   2.244
 8721SOL    HW227063   6.897   3.125   2.282
 8722SOL     OW27064   3.815   1.520   0.120
 8722SOL    HW127065   3.894   1.511   0.180
 8722SOL    HW227066   3.756   1.440   0.130
 8723SOL     OW27067   5.321   5.662   0.935
 8723SOL    HW127068   5.263   5.736   0.901
 8723SOL    HW227069   5.402   5.653   0.878
 8724SOL     OW27070   4.666   0.008   5.281
 8724SOL    HW127071   4.572   0.043   5.278
 8724SOL    HW227072   4.667   6.939   5.251
 8725SOL     OW27073   1.715   6.218   6.083
 8725SOL    HW127074   1.738   6.145   6.019
 8725SOL    HW227075   1.672   6.294   6.034
 8726SOL     OW27076   0.246   0.790   2.535
 8726SOL    HW127077   0.155   0.802   2.497
 8726SOL    HW227078   0.315   0.809   2.465
 8727SOL     OW27079   6.818   6.224   2.681
 8727SOL    HW127080   6.805   6.199   2.585
 8727SOL    HW227081   6.730   6.216   2.730
 8728SOL     OW27082   5.364   0.440   2.837
 8728SOL    HW127083   5.449   0.467   2.794
 8728SOL    HW227084   5.361   0.475   2.931
 8729SOL     OW27085   4.715   5.779   4.751
 8729SOL    HW127086   4.685   5.745   4.840
 8729SOL    HW227087   4.680   5.720   4.678
 8730SOL     OW27088   6.933   3.860   2.017
 8730SOL    HW127089   6.981   3.907   1.943
 8730SOL    HW227090   6.889   3.928   2.076
 8731SOL     OW27091   1.943   2.626   2.596
 8731SOL    HW127092   2.038   2.656   2.606
 8731SOL    HW227093   1.882   2.702   2.620
 8732SOL     OW27094   5.917   5.089   1.457
 8732SOL    HW127095   5.953   4.999   1.479
 8732SOL    HW227096   5.971   5.129   1.382
 8733SOL     OW27097   1.287   5.678   0.976
 8733SOL    HW127098   1.380   5.643   0.974
 8733SOL    HW227099   1.281   5.755   1.040
 8734SOL     OW27100   2.017   4.035   2.150
 8734SOL    HW127101   1.953   3.964   2.180
 8734SOL    HW227102   1.966   4.110   2.108
 8735SOL     OW27103   1.097   2.556   0.754
 8735SOL    HW127104   1.006   2.596   0.765
 8735SOL    HW227105   1.092   2.474   0.698
 8736SOL     OW27106   0.240   5.679   6.882
 8736SOL    HW127107   0.237   5.758   6.945
 8736SOL    HW227108   0.262   5.711   6.790
 8737SOL     OW27109   1.843   6.783   6.696
 8737SOL    HW127110   1.891   6.837   6.626
 8737SOL    HW227111   1.747   6.773   6.670
 8738SOL     OW27112   2.023   5.276   4.310
 8738SOL    HW127113   2.092   5.328   4.260
 8738SOL    HW227114   2.059   5.251   4.400
 8739SOL     OW27115   5.103   5.841   6.322
 8739SOL    HW127116   5.147   5.878   6.403
 8739SOL    HW227117   5.046   5.763   6.347
 8740SOL     OW27118   4.709   1.170   4.323
 8740SOL    HW127119   4.660   1.182   4.237
 8740SOL    HW227120   4.659   1.105   4.381
 8741SOL     OW27121   2.463   1.330   2.150
 8741SOL    HW127122   2.453   1.270   2.229
 8741SOL    HW227123   2.399   1.406   2.158
 8742SOL     OW27124   6.152   6.357   0.969
 8742SOL    HW127125   6.094   6.418   0.915
 8742SOL    HW227126   6.110   6.343   1.059
 8743SOL     OW27127   0.915   0.138   2.294
 8743SOL    HW127128   0.925   0.041   2.319
 8743SOL    HW227129   0.967   0.156   2.211
 8744SOL     OW27130   3.306   2.688   6.506
 8744SOL    HW127131   3.361   2.611   6.475
 8744SOL    HW227132   3.274   2.741   6.427
 8745SOL     OW27133   5.739   2.663   6.358
 8745SOL    HW127134   5.737   2.745   6.301
 8745SOL    HW227135   5.675   2.673   6.434
 8746SOL     OW27136   5.038   4.711   4.482
 8746SOL    HW127137   5.094   4.733   4.402
 8746SOL    HW227138   5.059   4.774   4.556
 8747SOL     OW27139   0.827   2.906   3.078
 8747SOL    HW127140   0.865   2.964   3.006
 8747SOL    HW227141   0.805   2.816   3.040
 8748SOL     OW27142   6.940   1.408   5.096
 8748SOL    HW127143   7.024   1.436   5.142
 8748SOL    HW227144   6.963   1.347   5.020
 8749SOL     OW27145   2.469   0.973   5.666
 8749SOL    HW127146   2.390   0.922   5.633
 8749SOL    HW227147   2.486   1.052   5.607
 8750SOL     OW27148   3.544   3.810   5.550
 8750SOL    HW127149   3.635   3.842   5.524
 8750SOL    HW227150   3.512   3.862   5.630
 8751SOL     OW27151   5.737   1.010   1.939
 8751SOL    HW127152   5.787   1.066   1.873
 8751SOL    HW227153   5.803   0.961   1.997
 8752SOL     OW27154   2.661   3.476   0.653
 8752SOL    HW127155   2.599   3.555   0.655
 8752SOL    HW227156   2.754   3.506   0.672
 8753SOL     OW27157   4.017   1.808   5.439
 8753SOL    HW127158   3.987   1.889   5.489
 8753SOL    HW227159   3.939   1.766   5.392
 8754SOL     OW27160   1.922   3.368   5.782
 8754SOL    HW127161   1.871   3.417   5.712
 8754SOL    HW227162   1.957   3.432   5.849
 8755SOL     OW27163   2.367   0.425   0.645
 8755SOL    HW127164   2.388   0.464   0.735
 8755SOL    HW227165   2.284   0.469   0.609
 8756SOL     OW27166   1.351   2.999   3.578
 8756SOL    HW127167   1.344   2.998   3.677
 8756SOL    HW227168   1.402   2.918   3.547
 8757SOL     OW27169   3.988   5.625   6.320
 8757SOL    HW127170   3.978   5.592   6.226
 8757SOL    HW227171   4.081   5.657   6.335
 8758SOL     OW27172   4.747   5.984   2.768
 8758SOL    HW127173   4.727   5.999   2.671
 8758SOL    HW227174   4.780   6.070   2.808
 8759SOL     OW27175   4.281   2.521   0.092
 8759SOL    HW127176   4.322   2.519   0.183
 8759SOL    HW227177   4.225   2.439   0.079
 8760SOL     OW27178   2.113   1.204   5.246
 8760SOL    HW127179   2.053   1.124   5.243
 8760SOL    HW227180   2.179   1.198   5.170
 8761SOL     OW27181   5.800   2.323   1.802
 8761SOL    HW127182   5.758   2.236   1.829
 8761SOL    HW227183   5.876   2.305   1.740
 8762SOL     OW27184   1.671   3.593   2.809
 8762SOL    HW127185   1.579   3.553   2.800
 8762SOL    HW227186   1.715   3.556   2.891
 8763SOL     OW27187   0.217   0.091   6.008
 8763SOL    HW127188   0.184   0.178   5.972
 8763SOL    HW227189   0.192   0.083   6.104
 8764SOL     OW27190   5.036   0.484   4.742
 8764SOL    HW127191   5.103   0.473   4.668
 8764SOL    HW227192   4.969   0.554   4.716
 8765SOL     OW27193   5.551   6.798   4.011
 8765SOL    HW127194   5.473   6.776   3.953
 8765SOL    HW227195   5.548   6.894   4.036
 8766SOL     OW27196   4.587   4.351   3.584
 8766SOL    HW127197   4.488   4.344   3.569
 8766SOL    HW227198   4.607   4.335   3.680
 8767SOL     OW27199   5.054   6.378   2.585
 8767SOL    HW127200   5.113   6.421   2.516
 8767SOL    HW227201   4.979   6.440   2.607
 8768SOL     OW27202   1.216   2.497   0.444
 8768SOL    HW127203   1.174   2.432   0.508
 8768SOL    HW227204   1.148   2.564   0.415
 8769SOL     OW27205   0.368   0.771   4.446
 8769SOL    HW127206   0.318   0.820   4.374
 8769SOL    HW227207   0.422   0.698   4.405
 8770SOL     OW27208   4.639   4.460   2.594
 8770SOL    HW127209   4.694   4.456   2.511
 8770SOL    HW227210   4.593   4.373   2.608
 8771SOL     OW27211   0.657   1.142   6.525
 8771SOL    HW127212   0.744   1.112   6.564
 8771SOL    HW227213   0.618   1.213   6.583
 8772SOL     OW27214   5.020   0.350   6.108
 8772SOL    HW127215   5.105   0.330   6.157
 8772SOL    HW227216   5.033   0.335   6.010
 8773SOL     OW27217   4.455   2.349   3.241
 8773SOL    HW127218   4.483   2.364   3.146
 8773SOL    HW227219   4.360   2.379   3.252
 8774SOL     OW27220   1.032   1.043   6.831
 8774SOL    HW127221   0.978   1.106   6.887
 8774SOL    HW227222   1.127   1.042   6.864
 8775SOL     OW27223   5.778   7.017   4.934
 8775SOL    HW127224   5.716   6.939   4.927
 8775SOL    HW227225   5.831   7.025   4.850
 8776SOL     OW27226   3.514   3.158   6.555
 8776SOL    HW127227   3.424   3.115   6.562
 8776SOL    HW227228   3.574   3.100   6.499
 8777SOL     OW27229   0.059   4.255   1.507
 8777SOL    HW127230   0.095   4.347   1.522
 8777SOL    HW227231   0.130   4.187   1.525
 8778SOL     OW27232   6.728   2.890   5.066
 8778SOL    HW127233   6.822   2.911   5.038
 8778SOL    HW227234   6.720   2.791   5.083
 8779SOL     OW27235   3.164   5.564   2.278
 8779SOL    HW127236   3.168   5.602   2.370
 8779SOL    HW227237   3.113   5.478   2.280
 8780SOL     OW27238   0.963   6.058   2.268
 8780SOL    HW127239   0.919   6.086   2.354
 8780SOL    HW227240   0.911   6.094   2.191
 8781SOL     OW27241   5.185   1.574   3.359
 8781SOL    HW127242   5.222   1.509   3.292
 8781SOL    HW227243   5.086   1.567   3.362
 8782SOL     OW27244   5.905   6.440   1.468
 8782SOL    HW127245   5.890   6.341   1.467
 8782SOL    HW227246   5.916   6.470   1.563
 8783SOL     OW27247   6.495   4.165   3.172
 8783SOL    HW127248   6.479   4.125   3.081
 8783SOL    HW227249   6.475   4.263   3.169
 8784SOL     OW27250   6.042   4.046   6.447
 8784SOL    HW127251   6.043   4.008   6.539
 8784SOL    HW227252   6.026   4.145   6.452
 8785SOL     OW27253   5.926   3.108   7.007
 8785SOL    HW127254   5.925   3.195   0.030
 8785SOL    HW227255   5.874   3.116   6.922
 8786SOL     OW27256   2.182   0.398   0.314
 8786SOL    HW127257   2.166   0.312   0.361
 8786SOL    HW227258   2.205   0.469   0.380
 8787SOL     OW27259   3.079   2.108   1.328
 8787SOL    HW127260   3.092   2.174   1.254
 8787SOL    HW227261   3.128   2.024   1.306
 8788SOL     OW27262   6.791   1.765   6.151
 8788SOL    HW127263   6.758   1.671   6.141
 8788SOL    HW227264   6.889   1.768   6.134
 8789SOL     OW27265   6.255   0.084   5.061
 8789SOL    HW127266   6.281   0.039   4.976
 8789SOL    HW227267   6.159   0.112   5.055
 8790SOL     OW27268   0.563   0.311   0.014
 8790SOL    HW127269   0.644   0.358   0.048
 8790SOL    HW227270   0.484   0.372   0.021
 8791SOL     OW27271   5.324   0.143   4.576
 8791SOL    HW127272   5.415   0.159   4.615
 8791SOL    HW227273   5.256   0.188   4.633
 8792SOL     OW27274   2.496   6.805   3.286
 8792SOL    HW127275   2.468   6.710   3.272
 8792SOL    HW227276   2.475   6.858   3.205
 8793SOL     OW27277   1.647   4.156   3.241
 8793SOL    HW127278   1.732   4.173   3.291
 8793SOL    HW227279   1.569   4.188   3.296
 8794SOL     OW27280   4.490   6.375   2.155
 8794SOL    HW127281   4.509   6.277   2.155
 8794SOL    HW227282   4.419   6.396   2.221
 8795SOL     OW27283   1.467   5.250   5.722
 8795SOL    HW127284   1.510   5.313   5.657
 8795SOL    HW227285   1.369   5.249   5.707
 8796SOL     OW27286   3.769   2.051   4.474
 8796SOL    HW127287   3.677   2.087   4.464
 8796SOL    HW227288   3.767   1.951   4.463
 8797SOL     OW27289   6.843   6.691   6.859
 8797SOL    HW127290   6.782   6.674   6.781
 8797SOL    HW227291   6.868   6.788   6.861
 8798SOL     OW27292   5.125   5.887   5.667
 8798SOL    HW127293   5.074   5.826   5.727
 8798SOL    HW227294   5.178   5.834   5.602
 8799SOL     OW27295   2.633   5.010   3.796
 8799SOL    HW127296   2.705   5.054   3.741
 8799SOL    HW227297   2.592   4.936   3.744
 8800SOL     OW27298   6.168   3.692   5.453
 8800SOL    HW127299   6.160   3.698   5.552
 8800SOL    HW227300   6.259   3.655   5.430
 8801SOL     OW27301   0.351   1.945   5.039
 8801SOL    HW127302   0.275   1.901   4.991
 8801SOL    HW227303   0.323   2.038   5.065
 8802SOL     OW27304   1.745   6.906   0.652
 8802SOL    HW127305   1.766   6.923   0.555
 8802SOL    HW227306   1.830   6.913   0.705
 8803SOL     OW27307   6.580   5.888   6.941
 8803SOL    HW127308   6.550   5.949   7.014
 8803SOL    HW227309   6.680   5.892   6.932
 8804SOL     OW27310   2.936   0.370   2.184
 8804SOL    HW127311   2.918   0.462   2.150
 8804SOL    HW227312   3.026   0.340   2.152
 8805SOL     OW27313   2.861   6.905   4.372
 8805SOL    HW127314   2.930   6.920   4.301
 8805SOL    HW227315   2.845   6.990   4.422
 8806SOL     OW27316   2.789   5.962   2.502
 8806SOL    HW127317   2.859   6.028   2.476
 8806SOL    HW227318   2.825   5.869   2.493
 8807SOL     OW27319   5.192   0.209   6.802
 8807SOL    HW127320   5.175   0.266   6.722
 8807SOL    HW227321   5.290   0.213   6.825
 8808SOL     OW27322   5.958   2.720   6.826
 8808SOL    HW127323   5.927   2.779   6.900
 8808SOL    HW227324   5.996   2.635   6.864
 8809SOL     OW27325   4.894   5.297   3.108
 8809SOL    HW127326   4.933   5.289   3.200
 8809SOL    HW227327   4.844   5.213   3.086
 8810SOL     OW27328   5.065   0.856   5.968
 8810SOL    HW127329   5.121   0.817   6.041
 8810SOL    HW227330   5.055   0.790   5.894
 8811SOL     OW27331   3.009   0.788   3.196
 8811SOL    HW127332   2.944   0.859   3.168
 8811SOL    HW227333   2.990   0.763   3.291
 8812SOL     OW27334   2.270   0.206   1.016
 8812SOL    HW127335   2.248   0.174   1.109
 8812SOL    HW227336   2.335   0.144   0.974
 8813SOL     OW27337   2.346   4.735   1.361
 8813SOL    HW127338   2.322   4.657   1.303
 8813SOL    HW227339   2.306   4.819   1.323
 8814SOL     OW27340   5.421   0.107   1.773
 8814SOL    HW127341   5.325   0.131   1.786
 8814SOL    HW227342   5.479   0.183   1.804
 8815SOL     OW27343   5.714   6.863   0.839
 8815SOL    HW127344   5.739   6.934   0.905
 8815SOL    HW227345   5.629   6.889   0.794
 8816SOL     OW27346   1.036   6.948   6.965
 8816SOL    HW127347   1.084   6.958   0.025
 8816SOL    HW227348   0.957   6.888   6.978
 8817SOL     OW27349   0.550   5.080   4.601
 8817SOL    HW127350   0.572   5.038   4.689
 8817SOL    HW227351   0.496   5.016   4.546
 8818SOL     OW27352   0.251   4.311   4.989
 8818SOL    HW127353   0.274   4.236   5.051
 8818SOL    HW227354   0.219   4.390   5.042
 8819SOL     OW27355   5.334   5.032   4.966
 8819SOL    HW127356   5.302   5.121   4.935
 8819SOL    HW227357   5.385   5.042   5.052
 8820SOL     OW27358   2.170   1.305   5.511
 8820SOL    HW127359   2.130   1.292   5.420
 8820SOL    HW227360   2.142   1.230   5.571
 8821SOL     OW27361   2.248   6.238   0.388
 8821SOL    HW127362   2.268   6.148   0.349
 8821SOL    HW227363   2.219   6.228   0.483
 8822SOL     OW27364   0.193   0.038   4.661
 8822SOL    HW127365   0.116   0.100   4.648
 8822SOL    HW227366   0.264   0.084   4.715
 8823SOL     OW27367   2.427   0.749   1.321
 8823SOL    HW127368   2.456   0.826   1.378
 8823SOL    HW227369   2.490   0.672   1.334
 8824SOL     OW27370   1.124   2.314   0.624
 8824SOL    HW127371   1.151   2.234   0.678
 8824SOL    HW227372   1.041   2.292   0.572
 8825SOL     OW27373   2.337   0.975   1.867
 8825SOL    HW127374   2.320   0.934   1.777
 8825SOL    HW227375   2.407   0.921   1.915
 8826SOL     OW27376   6.709   3.457   0.592
 8826SOL    HW127377   6.784   3.515   0.623
 8826SOL    HW227378   6.693   3.384   0.659
 8827SOL     OW27379   4.076   1.838   2.502
 8827SOL    HW127380   4.081   1.744   2.469
 8827SOL    HW227381   3.998   1.884   2.458
 8828SOL     OW27382   4.709   6.059   5.848
 8828SOL    HW127383   4.668   6.095   5.765
 8828SOL    HW227384   4.718   6.132   5.916
 8829SOL     OW27385   5.309   2.654   0.915
 8829SOL    HW127386   5.323   2.631   0.818
 8829SOL    HW227387   5.263   2.743   0.921
 8830SOL     OW27388   1.201   1.715   2.575
 8830SOL    HW127389   1.188   1.661   2.492
 8830SOL    HW227390   1.121   1.774   2.590
 8831SOL     OW27391   3.974   2.228   4.079
 8831SOL    HW127392   3.877   2.251   4.087
 8831SOL    HW227393   4.009   2.199   4.167
 8832SOL     OW27394   0.196   5.918   3.256
 8832SOL    HW127395   0.122   5.873   3.306
 8832SOL    HW227396   0.273   5.855   3.247
 8833SOL     OW27397   2.550   5.249   5.533
 8833SOL    HW127398   2.497   5.286   5.457
 8833SOL    HW227399   2.646   5.272   5.523
 8834SOL     OW27400   5.403   3.860   4.940
 8834SOL    HW127401   5.325   3.798   4.926
 8834SOL    HW227402   5.472   3.813   4.997
 8835SOL     OW27403   4.783   1.030   5.831
 8835SOL    HW127404   4.816   0.986   5.748
 8835SOL    HW227405   4.860   1.051   5.890
 8836SOL     OW27406   5.451   2.918   0.041
 8836SOL    HW127407   5.505   2.939   6.986
 8836SOL    HW227408   5.394   2.838   0.023
 8837SOL     OW27409   7.021   6.112   2.830
 8837SOL    HW127410   0.087   6.136   2.800
 8837SOL    HW227411   6.955   6.142   2.761
 8838SOL     OW27412   2.021   5.632   3.336
 8838SOL    HW127413   1.954   5.601   3.269
 8838SOL    HW227414   2.050   5.725   3.314
 8839SOL     OW27415   5.712   5.393   3.068
 8839SOL    HW127416   5.797   5.398   3.017
 8839SOL    HW227417   5.727   5.341   3.152
 8840SOL     OW27418   6.632   2.147   2.398
 8840SOL    HW127419   6.650   2.160   2.301
 8840SOL    HW227420   6.651   2.232   2.447
 8841SOL     OW27421   1.071   1.311   5.466
 8841SOL    HW127422   1.037   1.293   5.559
 8841SOL    HW227423   1.025   1.393   5.430
 8842SOL     OW27424   3.745   3.349   2.377
 8842SOL    HW127425   3.785   3.332   2.287
 8842SOL    HW227426   3.787   3.288   2.445
 8843SOL     OW27427   1.911   3.091   5.762
 8843SOL    HW127428   1.952   3.049   5.681
 8843SOL    HW227429   1.942   3.185   5.771
 8844SOL     OW27430   6.720   2.057   6.424
 8844SOL    HW127431   6.653   1.993   6.460
 8844SOL    HW227432   6.674   2.140   6.391
 8845SOL     OW27433   4.155   3.577   0.409
 8845SOL    HW127434   4.090   3.617   0.344
 8845SOL    HW227435   4.139   3.616   0.500
 8846SOL     OW27436   3.518   5.407   4.022
 8846SOL    HW127437   3.584   5.333   4.012
 8846SOL    HW227438   3.425   5.373   4.004
 8847SOL     OW27439   2.527   0.755   3.284
 8847SOL    HW127440   2.467   0.789   3.212
 8847SOL    HW227441   2.557   0.662   3.260
 8848SOL     OW27442   2.378   1.550   1.816
 8848SOL    HW127443   2.331   1.554   1.728
 8848SOL    HW227444   2.477   1.544   1.801
 8849SOL     OW27445   2.956   6.270   3.437
 8849SOL    HW127446   3.051   6.247   3.456
 8849SOL    HW227447   2.909   6.295   3.522
 8850SOL     OW27448   1.251   2.115   0.169
 8850SOL    HW127449   1.327   2.122   0.235
 8850SOL    HW227450   1.187   2.045   0.200
 8851SOL     OW27451   1.183   4.178   3.286
 8851SOL    HW127452   1.205   4.170   3.189
 8851SOL    HW227453   1.258   4.225   3.333
 8852SOL     OW27454   6.922   2.663   5.038
 8852SOL    HW127455   6.862   2.686   4.961
 8852SOL    HW227456   7.016   2.686   5.014
 8853SOL     OW27457   3.057   1.307   1.318
 8853SOL    HW127458   2.960   1.298   1.338
 8853SOL    HW227459   3.074   1.394   1.272
 8854SOL     OW27460   3.048   2.758   5.838
 8854SOL    HW127461   3.007   2.667   5.830
 8854SOL    HW227462   3.083   2.788   5.750
 8855SOL     OW27463   0.055   5.238   1.461
 8855SOL    HW127464   0.067   5.220   1.363
 8855SOL    HW227465   0.025   5.333   1.474
 8856SOL     OW27466   0.138   6.530   6.190
 8856SOL    HW127467   0.084   6.508   6.109
 8856SOL    HW227468   0.213   6.592   6.165
 8857SOL     OW27469   6.862   1.704   4.184
 8857SOL    HW127470   6.912   1.724   4.269
 8857SOL    HW227471   6.926   1.702   4.108
 8858SOL     OW27472   1.029   3.611   5.100
 8858SOL    HW127473   0.972   3.537   5.136
 8858SOL    HW227474   1.035   3.603   5.001
 8859SOL     OW27475   0.520   0.644   3.786
 8859SOL    HW127476   0.465   0.622   3.705
 8859SOL    HW227477   0.488   0.731   3.825
 8860SOL     OW27478   6.708   2.789   2.484
 8860SOL    HW127479   6.687   2.880   2.449
 8860SOL    HW227480   6.626   2.732   2.482
 8861SOL     OW27481   4.408   1.618   6.329
 8861SOL    HW127482   4.416   1.573   6.240
 8861SOL    HW227483   4.456   1.565   6.398
 8862SOL     OW27484   5.011   0.372   3.422
 8862SOL    HW127485   4.950   0.319   3.481
 8862SOL    HW227486   5.065   0.435   3.478
 8863SOL     OW27487   2.160   4.757   3.778
 8863SOL    HW127488   2.144   4.782   3.683
 8863SOL    HW227489   2.150   4.658   3.790
 8864SOL     OW27490   2.776   5.095   6.375
 8864SOL    HW127491   2.769   5.164   6.303
 8864SOL    HW227492   2.849   5.031   6.352
 8865SOL     OW27493   2.937   0.335   4.871
 8865SOL    HW127494   2.975   0.243   4.863
 8865SOL    HW227495   2.843   0.329   4.902
 8866SOL     OW27496   4.891   0.243   2.680
 8866SOL    HW127497   4.882   0.304   2.601
 8866SOL    HW227498   4.987   0.232   2.704
 8867SOL     OW27499   6.104   4.730   3.203
 8867SOL    HW127500   6.033   4.712   3.135
 8867SOL    HW227501   6.193   4.738   3.156
 8868SOL     OW27502   0.232   3.262   1.432
 8868SOL    HW127503   0.214   3.323   1.509
 8868SOL    HW227504   0.301   3.195   1.457
 8869SOL     OW27505   3.950   5.961   5.137
 8869SOL    HW127506   3.960   5.862   5.127
 8869SOL    HW227507   4.034   6.006   5.105
 8870SOL     OW27508   2.702   7.015   0.847
 8870SOL    HW127509   2.614   0.013   0.887
 8870SOL    HW227510   2.699   0.001   0.748
 8871SOL     OW27511   2.136   0.872   3.950
 8871SOL    HW127512   2.216   0.844   4.004
 8871SOL    HW227513   2.152   0.848   3.854
 8872SOL     OW27514   1.812   4.486   5.202
 8872SOL    HW127515   1.903   4.446   5.211
 8872SOL    HW227516   1.776   4.467   5.111
 8873SOL     OW27517   0.522   6.439   2.280
 8873SOL    HW127518   0.447   6.489   2.323
 8873SOL    HW227519   0.485   6.378   2.210
 8874SOL     OW27520   2.065   6.124   2.943
 8874SOL    HW127521   2.082   6.197   2.877
 8874SOL    HW227522   2.054   6.037   2.895
 8875SOL     OW27523   0.397   3.828   4.928
 8875SOL    HW127524   0.337   3.754   4.898
 8875SOL    HW227525   0.492   3.799   4.920
 8876SOL     OW27526   2.005   6.438   5.727
 8876SOL    HW127527   1.906   6.447   5.728
 8876SOL    HW227528   2.033   6.389   5.645
 8877SOL     OW27529   2.721   1.875   4.005
 8877SOL    HW127530   2.710   1.785   4.047
 8877SOL    HW227531   2.664   1.942   4.054
 8878SOL     OW27532   5.785   4.619   1.155
 8878SOL    HW127533   5.743   4.544   1.206
 8878SOL    HW227534   5.773   4.705   1.204
 8879SOL     OW27535   5.050   4.320   2.291
 8879SOL    HW127536   5.022   4.407   2.331
 8879SOL    HW227537   5.149   4.310   2.298
 8880SOL     OW27538   4.436   6.323   4.783
 8880SOL    HW127539   4.373   6.301   4.858
 8880SOL    HW227540   4.425   6.255   4.710
 8881SOL     OW27541   5.132   6.686   3.644
 8881SOL    HW127542   5.064   6.616   3.665
 8881SOL    HW227543   5.091   6.755   3.585
 8882SOL     OW27544   5.080   0.970   1.446
 8882SOL    HW127545   4.984   0.960   1.472
 8882SOL    HW227546   5.116   0.881   1.415
 8883SOL     OW27547   1.511   6.302   6.288
 8883SOL    HW127548   1.537   6.377   6.348
 8883SOL    HW227549   1.592   6.267   6.241
 8884SOL     OW27550   6.029   4.208   5.070
 8884SOL    HW127551   6.095   4.147   5.113
 8884SOL    HW227552   6.019   4.291   5.126
 8885SOL     OW27553   5.786   4.236   1.649
 8885SOL    HW127554   5.870   4.202   1.607
 8885SOL    HW227555   5.708   4.218   1.589
 8886SOL     OW27556   3.119   5.872   5.036
 8886SOL    HW127557   3.153   5.797   4.979
 8886SOL    HW227558   3.040   5.915   4.991
 8887SOL     OW27559   3.955   0.624   0.579
 8887SOL    HW127560   3.892   0.550   0.555
 8887SOL    HW227561   4.011   0.597   0.657
 8888SOL     OW27562   2.096   1.380   5.795
 8888SOL    HW127563   2.101   1.447   5.722
 8888SOL    HW227564   2.180   1.384   5.850
 8889SOL     OW27565   6.556   0.142   0.233
 8889SOL    HW127566   6.496   0.188   0.167
 8889SOL    HW227567   6.501   0.083   0.292
 8890SOL     OW27568   0.399   6.189   5.717
 8890SOL    HW127569   0.457   6.160   5.793
 8890SOL    HW227570   0.317   6.131   5.714
 8891SOL     OW27571   3.986   3.395   6.676
 8891SOL    HW127572   4.018   3.300   6.677
 8891SOL    HW227573   3.888   3.397   6.696
 8892SOL     OW27574   3.601   5.378   2.332
 8892SOL    HW127575   3.667   5.303   2.344
 8892SOL    HW227576   3.630   5.435   2.255
 8893SOL     OW27577   0.680   5.644   3.956
 8893SOL    HW127578   0.748   5.575   3.977
 8893SOL    HW227579   0.711   5.734   3.988
 8894SOL     OW27580   3.097   2.452   6.794
 8894SOL    HW127581   3.041   2.462   6.712
 8894SOL    HW227582   3.082   2.361   6.834
 8895SOL     OW27583   6.618   3.001   2.298
 8895SOL    HW127584   6.611   2.927   2.231
 8895SOL    HW227585   6.528   3.042   2.312
 8896SOL     OW27586   2.479   2.997   5.512
 8896SOL    HW127587   2.491   3.035   5.421
 8896SOL    HW227588   2.465   2.898   5.506
 8897SOL     OW27589   2.318   2.839   3.671
 8897SOL    HW127590   2.386   2.801   3.608
 8897SOL    HW227591   2.347   2.819   3.765
 8898SOL     OW27592   4.872   3.633   2.483
 8898SOL    HW127593   4.868   3.715   2.426
 8898SOL    HW227594   4.903   3.556   2.428
 8899SOL     OW27595   1.234   5.114   1.618
 8899SOL    HW127596   1.149   5.127   1.567
 8899SOL    HW227597   1.309   5.099   1.554
 8900SOL     OW27598   5.942   2.957   3.043
 8900SOL    HW127599   5.928   2.875   2.988
 8900SOL    HW227600   5.856   3.007   3.050
 8901SOL     OW27601   1.356   0.887   4.934
 8901SOL    HW127602   1.409   0.889   5.019
 8901SOL    HW227603   1.406   0.936   4.863
 8902SOL     OW27604   1.056   6.002   0.529
 8902SOL    HW127605   0.959   6.007   0.552
 8902SOL    HW227606   1.077   5.914   0.488
 8903SOL     OW27607   0.591   1.985   4.441
 8903SOL    HW127608   0.661   2.052   4.468
 8903SOL    HW227609   0.618   1.943   4.355
 8904SOL     OW27610   6.577   0.901   4.879
 8904SOL    HW127611   6.651   0.909   4.812
 8904SOL    HW227612   6.510   0.974   4.864
 8905SOL     OW27613   2.088   3.480   3.381
 8905SOL    HW127614   2.029   3.410   3.340
 8905SOL    HW227615   2.120   3.449   3.470
 8906SOL     OW27616   1.069   6.361   6.692
 8906SOL    HW127617   1.013   6.434   6.652
 8906SOL    HW227618   1.038   6.272   6.659
 8907SOL     OW27619   2.830   2.793   5.488
 8907SOL    HW127620   2.822   2.878   5.435
 8907SOL    HW227621   2.789   2.806   5.578
 8908SOL     OW27622   1.354   5.333   6.968
 8908SOL    HW127623   1.339   5.392   6.888
 8908SOL    HW227624   1.273   5.336   0.000
 8909SOL     OW27625   2.437   1.324   5.647
 8909SOL    HW127626   2.350   1.316   5.597
 8909SOL    HW227627   2.512   1.292   5.589
 8910SOL     OW27628   0.331   2.880   5.905
 8910SOL    HW127629   0.310   2.783   5.895
 8910SOL    HW227630   0.248   2.930   5.932
 8911SOL     OW27631   4.740   2.705   4.280
 8911SOL    HW127632   4.670   2.643   4.244
 8911SOL    HW227633   4.764   2.772   4.210
 8912SOL     OW27634   3.690   3.538   6.873
 8912SOL    HW127635   3.746   3.616   6.846
 8912SOL    HW227636   3.606   3.570   6.916
 8913SOL     OW27637   4.453   5.510   5.833
 8913SOL    HW127638   4.418   5.470   5.749
 8913SOL    HW227639   4.495   5.439   5.889
 8914SOL     OW27640   4.058   6.843   4.462
 8914SOL    HW127641   4.043   6.774   4.391
 8914SOL    HW227642   4.152   6.876   4.457
 8915SOL     OW27643   1.076   2.408   3.739
 8915SOL    HW127644   1.031   2.396   3.827
 8915SOL    HW227645   1.026   2.475   3.685
 8916SOL     OW27646   0.208   3.246   1.168
 8916SOL    HW127647   0.271   3.171   1.147
 8916SOL    HW227648   0.207   3.262   1.267
 8917SOL     OW27649   6.525   3.099   0.730
 8917SOL    HW127650   6.521   3.128   0.634
 8917SOL    HW227651   6.592   3.156   0.779
 8918SOL     OW27652   6.929   4.016   1.058
 8918SOL    HW127653   6.921   3.919   1.035
 8918SOL    HW227654   6.837   4.054   1.073
 8919SOL     OW27655   4.547   4.203   0.408
 8919SOL    HW127656   4.516   4.297   0.394
 8919SOL    HW227657   4.475   4.140   0.377
 8920SOL     OW27658   0.014   1.266   6.703
 8920SOL    HW127659   0.062   1.330   6.762
 8920SOL    HW227660   6.962   1.311   6.661
 8921SOL     OW27661   1.758   2.692   1.769
 8921SOL    HW127662   1.770   2.719   1.864
 8921SOL    HW227663   1.847   2.674   1.727
 8922SOL     OW27664   4.328   4.940   1.532
 8922SOL    HW127665   4.242   4.971   1.492
 8922SOL    HW227666   4.390   5.018   1.541
 8923SOL     OW27667   2.226   1.533   6.726
 8923SOL    HW127668   2.288   1.592   6.673
 8923SOL    HW227669   2.169   1.591   6.785
 8924SOL     OW27670   4.420   6.061   5.456
 8924SOL    HW127671   4.500   6.111   5.490
 8924SOL    HW227672   4.432   6.041   5.359
 8925SOL     OW27673   1.017   1.025   3.136
 8925SOL    HW127674   1.059   0.989   3.220
 8925SOL    HW227675   1.002   0.951   3.071
 8926SOL     OW27676   0.023   2.818   5.846
 8926SOL    HW127677   7.003   2.738   5.811
 8926SOL    HW227678   0.002   2.898   5.790
 8927SOL     OW27679   6.992   0.884   4.773
 8927SOL    HW127680   7.024   0.881   4.868
 8927SOL    HW227681   0.041   0.863   4.712
 8928SOL     OW27682   1.220   6.984   6.065
 8928SOL    HW127683   1.178   6.893   6.069
 8928SOL    HW227684   1.315   6.975   6.036
 8929SOL     OW27685   5.864   1.881   5.130
 8929SOL    HW127686   5.841   1.876   5.227
 8929SOL    HW227687   5.946   1.826   5.112
 8930SOL     OW27688   1.671   2.817   4.724
 8930SOL    HW127689   1.659   2.742   4.659
 8930SOL    HW227690   1.654   2.904   4.677
 8931SOL     OW27691   3.096   3.368   0.808
 8931SOL    HW127692   3.170   3.379   0.742
 8931SOL    HW227693   3.036   3.293   0.779
 8932SOL     OW27694   6.287   2.194   1.474
 8932SOL    HW127695   6.356   2.245   1.421
 8932SOL    HW227696   6.318   2.186   1.569
 8933SOL     OW27697   2.464   3.063   6.672
 8933SOL    HW127698   2.521   3.024   6.744
 8933SOL    HW227699   2.521   3.079   6.591
 8934SOL     OW27700   2.414   5.222   4.484
 8934SOL    HW127701   2.480   5.154   4.516
 8934SOL    HW227702   2.459   5.289   4.426
 8935SOL     OW27703   0.582   4.560   0.412
 8935SOL    HW127704   0.580   4.461   0.404
 8935SOL    HW227705   0.647   4.587   0.483
 8936SOL     OW27706   1.283   3.577   2.484
 8936SOL    HW127707   1.369   3.582   2.434
 8936SOL    HW227708   1.277   3.653   2.549
 8937SOL     OW27709   0.564   0.543   5.859
 8937SOL    HW127710   0.652   0.585   5.878
 8937SOL    HW227711   0.548   0.543   5.760
 8938SOL     OW27712   0.567   6.598   0.419
 8938SOL    HW127713   0.526   6.589   0.510
 8938SOL    HW227714   0.549   6.515   0.366
 8939SOL     OW27715   5.093   4.473   4.262
 8939SOL    HW127716   5.024   4.546   4.264
 8939SOL    HW227717   5.070   4.407   4.190
 8940SOL     OW27718   0.047   1.007   1.975
 8940SOL    HW127719   0.053   1.104   1.955
 8940SOL    HW227720   0.099   0.955   1.907
 8941SOL     OW27721   6.128   2.587   5.373
 8941SOL    HW127722   6.065   2.619   5.302
 8941SOL    HW227723   6.092   2.612   5.463
 8942SOL     OW27724   6.270   5.163   5.505
 8942SOL    HW127725   6.361   5.204   5.500
 8942SOL    HW227726   6.264   5.106   5.587
 8943SOL     OW27727   3.815   5.367   6.614
 8943SOL    HW127728   3.780   5.461   6.623
 8943SOL    HW227729   3.847   5.352   6.521
 8944SOL     OW27730   5.483   5.064   5.899
 8944SOL    HW127731   5.385   5.055   5.914
 8944SOL    HW227732   5.502   5.153   5.857
 8945SOL     OW27733   0.972   0.781   3.027
 8945SOL    HW127734   0.957   0.780   2.928
 8945SOL    HW227735   1.057   0.733   3.048
 8946SOL     OW27736   3.118   1.667   5.177
 8946SOL    HW127737   3.206   1.649   5.132
 8946SOL    HW227738   3.077   1.749   5.137
 8947SOL     OW27739   1.852   2.900   6.507
 8947SOL    HW127740   1.837   2.909   6.409
 8947SOL    HW227741   1.783   2.954   6.556
 8948SOL     OW27742   5.793   5.719   4.872
 8948SOL    HW127743   5.701   5.722   4.832
 8948SOL    HW227744   5.827   5.813   4.883
 8949SOL     OW27745   2.839   6.376   0.530
 8949SOL    HW127746   2.771   6.309   0.559
 8949SOL    HW227747   2.833   6.457   0.589
 8950SOL     OW27748   4.844   4.254   6.394
 8950SOL    HW127749   4.878   4.289   6.306
 8950SOL    HW227750   4.850   4.155   6.395
 8951SOL     OW27751   1.265   1.499   5.333
 8951SOL    HW127752   1.193   1.430   5.324
 8951SOL    HW227753   1.305   1.518   5.244
 8952SOL     OW27754   1.413   6.390   2.463
 8952SOL    HW127755   1.401   6.489   2.462
 8952SOL    HW227756   1.343   6.348   2.521
 8953SOL     OW27757   1.869   4.089   6.814
 8953SOL    HW127758   1.815   4.044   6.885
 8953SOL    HW227759   1.923   4.020   6.765
 8954SOL     OW27760   0.861   6.767   4.673
 8954SOL    HW127761   0.906   6.758   4.584
 8954SOL    HW227762   0.887   6.854   4.715
 8955SOL     OW27763   0.108   5.135   2.381
 8955SOL    HW127764   0.036   5.195   2.346
 8955SOL    HW227765   0.156   5.181   2.455
 8956SOL     OW27766   1.759   1.106   6.599
 8956SOL    HW127767   1.773   1.038   6.671
 8956SOL    HW227768   1.789   1.196   6.632
 8957SOL     OW27769   3.123   4.877   0.813
 8957SOL    HW127770   3.039   4.899   0.863
 8957SOL    HW227771   3.119   4.918   0.722
 8958SOL     OW27772   0.221   1.463   4.784
 8958SOL    HW127773   0.156   1.534   4.757
 8958SOL    HW227774   0.295   1.458   4.717
 8959SOL     OW27775   1.831   4.484   2.123
 8959SOL    HW127776   1.803   4.551   2.191
 8959SOL    HW227777   1.794   4.508   2.034
 8960SOL     OW27778   4.625   4.808   2.222
 8960SOL    HW127779   4.565   4.780   2.297
 8960SOL    HW227780   4.570   4.841   2.146
 8961SOL     OW27781   2.455   0.969   4.281
 8961SOL    HW127782   2.490   1.045   4.337
 8961SOL    HW227783   2.487   0.980   4.187
 8962SOL     OW27784   6.675   5.833   2.835
 8962SOL    HW127785   6.746   5.765   2.818
 8962SOL    HW227786   6.704   5.895   2.907
 8963SOL     OW27787   4.114   6.351   4.152
 8963SOL    HW127788   4.019   6.356   4.183
 8963SOL    HW227789   4.121   6.288   4.075
 8964SOL     OW27790   4.993   3.524   3.266
 8964SOL    HW127791   5.089   3.496   3.258
 8964SOL    HW227792   4.938   3.478   3.197
 8965SOL     OW27793   2.647   4.611   0.203
 8965SOL    HW127794   2.721   4.623   0.137
 8965SOL    HW227795   2.572   4.672   0.181
 8966SOL     OW27796   0.091   4.368   0.161
 8966SOL    HW127797   0.111   4.433   0.089
 8966SOL    HW227798   0.151   4.385   0.240
 8967SOL     OW27799   4.177   0.231   1.403
 8967SOL    HW127800   4.231   0.198   1.326
 8967SOL    HW227801   4.126   0.155   1.443
 8968SOL     OW27802   4.562   5.170   3.031
 8968SOL    HW127803   4.473   5.130   3.006
 8968SOL    HW227804   4.624   5.164   2.953
 8969SOL     OW27805   6.601   1.094   4.568
 8969SOL    HW127806   6.562   1.135   4.486
 8969SOL    HW227807   6.644   1.165   4.624
 8970SOL     OW27808   2.497   2.934   0.279
 8970SOL    HW127809   2.442   2.973   0.205
 8970SOL    HW227810   2.546   2.853   0.246
 8971SOL     OW27811   5.873   5.268   1.037
 8971SOL    HW127812   5.972   5.270   1.042
 8971SOL    HW227813   5.837   5.204   1.105
 8972SOL     OW27814   5.143   4.195   6.930
 8972SOL    HW127815   5.100   4.168   6.844
 8972SOL    HW227816   5.239   4.216   6.914
 8973SOL     OW27817   0.605   2.760   2.690
 8973SOL    HW127818   0.562   2.832   2.743
 8973SOL    HW227819   0.609   2.676   2.744
 8974SOL     OW27820   1.411   4.519   5.154
 8974SOL    HW127821   1.334   4.573   5.120
 8974SOL    HW227822   1.459   4.571   5.225
 8975SOL     OW27823   1.390   6.571   5.868
 8975SOL    HW127824   1.397   6.607   5.775
 8975SOL    HW227825   1.299   6.590   5.905
 8976SOL     OW27826   6.830   4.974   5.960
 8976SOL    HW127827   6.847   4.905   6.031
 8976SOL    HW227828   6.731   4.991   5.954
 8977SOL     OW27829   6.382   2.760   0.056
 8977SOL    HW127830   6.388   2.857   0.033
 8977SOL    HW227831   6.350   2.750   0.149
 8978SOL     OW27832   5.302   0.032   3.913
 8978SOL    HW127833   5.322   0.115   3.860
 8978SOL    HW227834   5.203   0.019   3.918
 8979SOL     OW27835   1.265   4.062   4.610
 8979SOL    HW127836   1.259   3.999   4.687
 8979SOL    HW227837   1.360   4.088   4.596
 8980SOL     OW27838   3.671   2.624   5.575
 8980SOL    HW127839   3.638   2.664   5.660
 8980SOL    HW227840   3.684   2.696   5.507
 8981SOL     OW27841   3.929   1.047   5.853
 8981SOL    HW127842   3.915   1.000   5.766
 8981SOL    HW227843   3.842   1.089   5.882
 8982SOL     OW27844   0.711   2.234   1.759
 8982SOL    HW127845   0.767   2.232   1.842
 8982SOL    HW227846   0.617   2.259   1.784
 8983SOL     OW27847   1.006   5.770   7.019
 8983SOL    HW127848   1.056   5.784   6.934
 8983SOL    HW227849   1.069   5.781   0.070
 8984SOL     OW27850   6.432   6.884   3.664
 8984SOL    HW127851   6.359   6.837   3.714
 8984SOL    HW227852   6.476   6.820   3.601
 8985SOL     OW27853   2.803   2.005   0.727
 8985SOL    HW127854   2.859   1.985   0.807
 8985SOL    HW227855   2.839   2.086   0.681
 8986SOL     OW27856   4.483   5.034   1.894
 8986SOL    HW127857   4.387   5.054   1.915
 8986SOL    HW227858   4.492   4.936   1.875
 8987SOL     OW27859   5.123   6.910   1.023
 8987SOL    HW127860   5.114   6.811   1.010
 8987SOL    HW227861   5.032   6.952   1.019
 8988SOL     OW27862   1.251   3.771   5.889
 8988SOL    HW127863   1.317   3.725   5.829
 8988SOL    HW227864   1.161   3.729   5.877
 8989SOL     OW27865   4.691   4.014   1.752
 8989SOL    HW127866   4.769   4.018   1.814
 8989SOL    HW227867   4.702   3.938   1.688
 8990SOL     OW27868   1.987   5.827   2.983
 8990SOL    HW127869   1.888   5.831   2.969
 8990SOL    HW227870   2.008   5.845   3.079
 8991SOL     OW27871   1.477   1.729   6.680
 8991SOL    HW127872   1.467   1.630   6.676
 8991SOL    HW227873   1.535   1.753   6.758
 8992SOL     OW27874   5.786   1.977   0.075
 8992SOL    HW127875   5.780   2.000   7.004
 8992SOL    HW227876   5.809   1.881   0.086
 8993SOL     OW27877   4.491   2.461   2.361
 8993SOL    HW127878   4.428   2.498   2.429
 8993SOL    HW227879   4.500   2.363   2.374
 8994SOL     OW27880   1.285   4.896   4.502
 8994SOL    HW127881   1.320   4.904   4.595
 8994SOL    HW227882   1.241   4.982   4.475
 8995SOL     OW27883   0.706   2.288   0.059
 8995SOL    HW127884   0.804   2.294   0.081
 8995SOL    HW227885   0.682   2.194   0.036
 8996SOL     OW27886   6.392   4.892   0.997
 8996SOL    HW127887   6.403   4.902   0.898
 8996SOL    HW227888   6.474   4.926   1.043
 8997SOL     OW27889   4.636   1.379   6.023
 8997SOL    HW127890   4.593   1.462   5.990
 8997SOL    HW227891   4.617   1.304   5.959
 8998SOL     OW27892   6.815   4.111   4.941
 8998SOL    HW127893   6.739   4.067   4.893
 8998SOL    HW227894   6.878   4.151   4.875
 8999SOL     OW27895   5.261   6.075   0.048
 8999SOL    HW127896   5.282   5.996   0.105
 8999SOL    HW227897   5.162   6.084   0.040
 9000SOL     OW27898   2.319   3.884   0.872
 9000SOL    HW127899   2.256   3.942   0.923
 9000SOL    HW227900   2.406   3.877   0.922
 9001SOL     OW27901   1.079   5.313   2.434
 9001SOL    HW127902   1.041   5.378   2.368
 9001SOL    HW227903   1.152   5.357   2.487
 9002SOL     OW27904   0.101   4.943   5.476
 9002SOL    HW127905   0.019   5.001   5.471
 9002SOL    HW227906   0.175   4.995   5.518
 9003SOL     OW27907   5.102   2.789   1.277
 9003SOL    HW127908   5.003   2.787   1.265
 9003SOL    HW227909   5.142   2.707   1.237
 9004SOL     OW27910   4.226   6.254   1.400
 9004SOL    HW127911   4.282   6.171   1.394
 9004SOL    HW227912   4.234   6.306   1.315
 9005SOL     OW27913   5.369   2.583   4.398
 9005SOL    HW127914   5.383   2.553   4.492
 9005SOL    HW227915   5.345   2.680   4.397
 9006SOL     OW27916   2.879   6.610   0.680
 9006SOL    HW127917   2.849   6.636   0.772
 9006SOL    HW227918   2.852   6.682   0.615
 9007SOL     OW27919   3.724   1.016   4.234
 9007SOL    HW127920   3.803   0.985   4.287
 9007SOL    HW227921   3.718   0.965   4.149
 9008SOL     OW27922   1.041   5.857   3.123
 9008SOL    HW127923   0.948   5.847   3.158
 9008SOL    HW227924   1.095   5.776   3.147
 9009SOL     OW27925   3.107   0.675   0.629
 9009SOL    HW127926   3.128   0.764   0.671
 9009SOL    HW227927   3.189   0.639   0.584
 9010SOL     OW27928   1.394   6.358   3.785
 9010SOL    HW127929   1.448   6.338   3.867
 9010SOL    HW227930   1.456   6.376   3.709
 9011SOL     OW27931   4.984   2.572   2.102
 9011SOL    HW127932   5.006   2.661   2.063
 9011SOL    HW227933   4.887   2.567   2.124
 9012SOL     OW27934   2.959   4.331   1.477
 9012SOL    HW127935   2.969   4.417   1.427
 9012SOL    HW227936   2.872   4.330   1.526
 9013SOL     OW27937   6.868   6.530   5.392
 9013SOL    HW127938   6.962   6.523   5.425
 9013SOL    HW227939   6.807   6.481   5.453
 9014SOL     OW27940   6.561   1.991   0.022
 9014SOL    HW127941   6.549   2.091   0.028
 9014SOL    HW227942   6.640   1.964   0.077
 9015SOL     OW27943   5.300   1.638   1.234
 9015SOL    HW127944   5.205   1.611   1.250
 9015SOL    HW227945   5.361   1.560   1.249
 9016SOL     OW27946   0.927   7.005   6.511
 9016SOL    HW127947   0.985   0.050   6.550
 9016SOL    HW227948   0.857   6.978   6.577
 9017SOL     OW27949   4.328   1.824   2.894
 9017SOL    HW127950   4.324   1.872   2.982
 9017SOL    HW227951   4.294   1.884   2.822
 9018SOL     OW27952   4.054   1.822   0.102
 9018SOL    HW127953   4.112   1.902   0.113
 9018SOL    HW227954   3.964   1.840   0.141
 9019SOL     OW27955   1.416   0.362   2.308
 9019SOL    HW127956   1.498   0.389   2.259
 9019SOL    HW227957   1.408   0.414   2.393
 9020SOL     OW27958   0.552   3.931   1.630
 9020SOL    HW127959   0.637   3.909   1.678
 9020SOL    HW227960   0.573   3.984   1.548
 9021SOL     OW27961   6.476   7.014   4.189
 9021SOL    HW127962   6.470   7.011   4.089
 9021SOL    HW227963   6.420   0.063   4.223
 9022SOL     OW27964   3.124   2.389   0.133
 9022SOL    HW127965   3.218   2.369   0.159
 9022SOL    HW227966   3.088   2.464   0.190
 9023SOL     OW27967   3.038   3.129   2.425
 9023SOL    HW127968   2.951   3.116   2.472
 9023SOL    HW227969   3.113   3.126   2.491
 9024SOL     OW27970   0.616   4.501   5.085
 9024SOL    HW127971   0.556   4.430   5.049
 9024SOL    HW227972   0.562   4.582   5.108
 9025SOL     OW27973   0.784   5.207   0.300
 9025SOL    HW127974   0.839   5.282   0.337
 9025SOL    HW227975   0.817   5.185   0.208
 9026SOL     OW27976   4.227   3.389   1.334
 9026SOL    HW127977   4.293   3.370   1.408
 9026SOL    HW227978   4.268   3.364   1.246
 9027SOL     OW27979   1.151   2.594   4.312
 9027SOL    HW127980   1.066   2.642   4.290
 9027SOL    HW227981   1.228   2.638   4.265
 9028SOL     OW27982   2.420   3.437   5.608
 9028SOL    HW127983   2.468   3.403   5.690
 9028SOL    HW227984   2.436   3.535   5.599
 9029SOL     OW27985   3.434   6.173   5.389
 9029SOL    HW127986   3.355   6.127   5.430
 9029SOL    HW227987   3.516   6.152   5.443
 9030SOL     OW27988   2.266   1.889   3.283
 9030SOL    HW127989   2.216   1.823   3.338
 9030SOL    HW227990   2.359   1.900   3.320
 9031SOL     OW27991   4.473   5.905   4.691
 9031SOL    HW127992   4.478   5.940   4.597
 9031SOL    HW227993   4.560   5.920   4.737
 9032SOL     OW27994   4.170   3.306   0.593
 9032SOL    HW127995   4.089   3.311   0.535
 9032SOL    HW227996   4.201   3.398   0.616
 9033SOL     OW27997   1.072   3.863   3.234
 9033SOL    HW127998   1.067   3.920   3.317
 9033SOL    HW227999   1.077   3.767   3.261
 9034SOL     OW28000   2.661   0.150   5.750
 9034SOL    HW128001   2.748   0.153   5.800
 9034SOL    HW228002   2.653   0.063   5.703
 9035SOL     OW28003   1.207   4.977   5.917
 9035SOL    HW128004   1.234   4.890   5.875
 9035SOL    HW228005   1.150   4.959   5.997
 9036SOL     OW28006   1.797   1.329   5.439
 9036SOL    HW128007   1.797   1.354   5.536
 9036SOL    HW228008   1.845   1.399   5.387
 9037SOL     OW28009   1.416   4.088   5.518
 9037SOL    HW128010   1.474   4.135   5.585
 9037SOL    HW228011   1.400   4.148   5.440
 9038SOL     OW28012   4.377   6.929   6.015
 9038SOL    HW128013   4.451   6.903   5.953
 9038SOL    HW228014   4.414   6.943   6.107
 9039SOL     OW28015   2.836   5.457   5.288
 9039SOL    HW128016   2.786   5.387   5.238
 9039SOL    HW228017   2.850   5.537   5.229
 9040SOL     OW28018   3.364   1.752   2.527
 9040SOL    HW128019   3.351   1.838   2.479
 9040SOL    HW228020   3.461   1.725   2.522
 9041SOL     OW28021   1.022   2.605   1.455
 9041SOL    HW128022   1.064   2.654   1.532
 9041SOL    HW228023   1.031   2.507   1.469
 9042SOL     OW28024   2.820   0.140   4.086
 9042SOL    HW128025   2.782   0.232   4.075
 9042SOL    HW228026   2.882   0.138   4.165
 9043SOL     OW28027   1.313   0.873   0.065
 9043SOL    HW128028   1.411   0.890   0.064
 9043SOL    HW228029   1.270   0.931   0.134
 9044SOL     OW28030   6.276   1.087   0.825
 9044SOL    HW128031   6.333   1.025   0.772
 9044SOL    HW228032   6.227   1.149   0.763
 9045SOL     OW28033   2.186   1.357   2.537
 9045SOL    HW128034   2.132   1.404   2.607
 9045SOL    HW228035   2.132   1.349   2.453
 9046SOL     OW28036   3.756   3.591   3.289
 9046SOL    HW128037   3.684   3.553   3.231
 9046SOL    HW228038   3.715   3.629   3.373
 9047SOL     OW28039   1.430   3.161   5.799
 9047SOL    HW128040   1.377   3.085   5.761
 9047SOL    HW228041   1.449   3.229   5.728
 9048SOL     OW28042   5.405   2.768   6.348
 9048SOL    HW128043   5.396   2.710   6.267
 9048SOL    HW228044   5.364   2.722   6.427
 9049SOL     OW28045   3.754   0.067   5.907
 9049SOL    HW128046   3.727   0.062   5.811
 9049SOL    HW228047   3.816   7.018   5.929
 9050SOL     OW28048   0.178   3.277   0.097
 9050SOL    HW128049   0.218   3.277   0.006
 9050SOL    HW228050   0.108   3.348   0.103
 9051SOL     OW28051   4.155   6.661   0.669
 9051SOL    HW128052   4.243   6.613   0.679
 9051SOL    HW228053   4.169   6.759   0.679
 9052SOL     OW28054   2.298   2.417   3.865
 9052SOL    HW128055   2.273   2.334   3.815
 9052SOL    HW228056   2.315   2.394   3.961
 9053SOL     OW28057   2.121   1.522   2.816
 9053SOL    HW128058   2.143   1.620   2.814
 9053SOL    HW228059   2.025   1.509   2.790
 9054SOL     OW28060   2.602   6.073   2.951
 9054SOL    HW128061   2.611   6.065   2.852
 9054SOL    HW228062   2.508   6.097   2.974
 9055SOL     OW28063   5.738   3.049   4.216
 9055SOL    HW128064   5.740   2.980   4.289
 9055SOL    HW228065   5.748   3.003   4.128
 9056SOL     OW28066   0.362   1.354   2.217
 9056SOL    HW128067   0.392   1.275   2.164
 9056SOL    HW228068   0.270   1.337   2.254
 9057SOL     OW28069   5.487   4.662   5.795
 9057SOL    HW128070   5.548   4.588   5.823
 9057SOL    HW228071   5.393   4.627   5.791
 9058SOL     OW28072   2.783   2.006   2.596
 9058SOL    HW128073   2.697   1.963   2.570
 9058SOL    HW228074   2.812   2.069   2.523
 9059SOL     OW28075   0.971   2.145   4.264
 9059SOL    HW128076   0.947   2.078   4.334
 9059SOL    HW228077   1.025   2.101   4.192
 9060SOL     OW28078   6.461   2.676   3.589
 9060SOL    HW128079   6.539   2.626   3.627
 9060SOL    HW228080   6.393   2.611   3.555
 9061SOL     OW28081   2.403   5.920   2.108
 9061SOL    HW128082   2.500   5.896   2.119
 9061SOL    HW228083   2.395   6.018   2.090
 9062SOL     OW28084   1.643   6.111   2.025
 9062SOL    HW128085   1.629   6.097   2.123
 9062SOL    HW228086   1.716   6.178   2.011
 9063SOL     OW28087   1.709   0.302   3.174
 9063SOL    HW128088   1.677   0.383   3.223
 9063SOL    HW228089   1.744   0.329   3.084
 9064SOL     OW28090   6.101   2.200   5.184
 9064SOL    HW128091   6.135   2.140   5.112
 9064SOL    HW228092   6.089   2.147   5.268
 9065SOL     OW28093   3.105   0.015   5.709
 9065SOL    HW128094   3.013   7.026   5.673
 9065SOL    HW228095   3.098   0.051   5.802
 9066SOL     OW28096   4.741   6.111   0.549
 9066SOL    HW128097   4.829   6.081   0.584
 9066SOL    HW228098   4.754   6.156   0.460
 9067SOL     OW28099   6.734   0.918   4.308
 9067SOL    HW128100   6.660   0.954   4.364
 9067SOL    HW228101   6.759   0.826   4.340
 9068SOL     OW28102   2.020   6.185   4.674
 9068SOL    HW128103   2.083   6.253   4.711
 9068SOL    HW228104   1.926   6.214   4.691
 9069SOL     OW28105   1.640   3.298   1.909
 9069SOL    HW128106   1.582   3.267   1.833
 9069SOL    HW228107   1.688   3.382   1.882
 9070SOL     OW28108   1.382   4.013   5.033
 9070SOL    HW128109   1.411   3.921   5.060
 9070SOL    HW228110   1.459   4.060   4.990
 9071SOL     OW28111   5.336   0.452   1.628
 9071SOL    HW128112   5.282   0.385   1.679
 9071SOL    HW228113   5.287   0.480   1.546
 9072SOL     OW28114   0.310   1.477   1.969
 9072SOL    HW128115   0.214   1.486   1.943
 9072SOL    HW228116   0.317   1.432   2.058
 9073SOL     OW28117   2.753   6.794   2.484
 9073SOL    HW128118   2.796   6.882   2.462
 9073SOL    HW228119   2.662   6.791   2.443
 9074SOL     OW28120   1.593   1.923   1.721
 9074SOL    HW128121   1.617   1.843   1.775
 9074SOL    HW228122   1.631   1.913   1.629
 9075SOL     OW28123   0.850   1.234   2.311
 9075SOL    HW128124   0.833   1.248   2.213
 9075SOL    HW228125   0.763   1.237   2.360
 9076SOL     OW28126   6.504   2.082   5.935
 9076SOL    HW128127   6.562   2.037   6.003
 9076SOL    HW228128   6.545   2.169   5.908
 9077SOL     OW28129   4.479   0.106   7.024
 9077SOL    HW128130   4.501   0.016   6.985
 9077SOL    HW228131   4.542   0.125   0.073
 9078SOL     OW28132   4.567   3.466   6.092
 9078SOL    HW128133   4.614   3.395   6.143
 9078SOL    HW228134   4.571   3.552   6.142
 9079SOL     OW28135   3.245   0.195   4.383
 9079SOL    HW128136   3.231   0.293   4.399
 9079SOL    HW228137   3.335   0.182   4.341
 9080SOL     OW28138   4.554   2.671   6.764
 9080SOL    HW128139   4.503   2.604   6.818
 9080SOL    HW228140   4.564   2.755   6.817
 9081SOL     OW28141   3.982   6.672   2.408
 9081SOL    HW128142   3.902   6.650   2.352
 9081SOL    HW228143   4.065   6.659   2.354
 9082SOL     OW28144   2.092   0.072   5.766
 9082SOL    HW128145   2.178   0.081   5.816
 9082SOL    HW228146   2.018   0.053   5.831
 9083SOL     OW28147   3.330   6.125   6.219
 9083SOL    HW128148   3.247   6.180   6.218
 9083SOL    HW228149   3.314   6.039   6.170
 9084SOL     OW28150   3.302   4.093   4.422
 9084SOL    HW128151   3.278   4.008   4.469
 9084SOL    HW228152   3.267   4.091   4.329
 9085SOL     OW28153   2.607   6.582   1.762
 9085SOL    HW128154   2.638   6.557   1.670
 9085SOL    HW228155   2.593   6.681   1.766
 9086SOL     OW28156   1.126   4.302   0.544
 9086SOL    HW128157   1.185   4.228   0.513
 9086SOL    HW228158   1.130   4.308   0.644
 9087SOL     OW28159   4.421   2.222   1.506
 9087SOL    HW128160   4.357   2.218   1.584
 9087SOL    HW228161   4.494   2.155   1.520
 9088SOL     OW28162   6.738   6.796   0.975
 9088SOL    HW128163   6.652   6.769   0.931
 9088SOL    HW228164   6.805   6.723   0.963
 9089SOL     OW28165   5.290   5.684   5.534
 9089SOL    HW128166   5.326   5.652   5.622
 9089SOL    HW228167   5.332   5.632   5.460
 9090SOL     OW28168   0.133   1.217   4.115
 9090SOL    HW128169   0.142   1.267   4.201
 9090SOL    HW228170   0.036   1.198   4.097
 9091SOL     OW28171   3.472   4.307   6.735
 9091SOL    HW128172   3.522   4.357   6.806
 9091SOL    HW228173   3.397   4.364   6.702
 9092SOL     OW28174   6.724   0.786   0.266
 9092SOL    HW128175   6.705   0.759   0.360
 9092SOL    HW228176   6.642   0.827   0.225
 9093SOL     OW28177   0.768   6.039   6.057
 9093SOL    HW128178   0.790   6.107   6.127
 9093SOL    HW228179   0.846   5.978   6.043
 9094SOL     OW28180   6.601   5.030   3.141
 9094SOL    HW128181   6.628   5.053   3.048
 9094SOL    HW228182   6.510   5.067   3.160
 9095SOL     OW28183   4.814   4.479   5.985
 9095SOL    HW128184   4.838   4.570   5.951
 9095SOL    HW228185   4.821   4.412   5.911
 9096SOL     OW28186   5.924   5.088   2.873
 9096SOL    HW128187   5.829   5.073   2.900
 9096SOL    HW228188   5.960   5.007   2.827
 9097SOL     OW28189   1.185   1.654   0.879
 9097SOL    HW128190   1.273   1.616   0.909
 9097SOL    HW228191   1.193   1.684   0.784
 9098SOL     OW28192   3.099   2.048   4.668
 9098SOL    HW128193   3.005   2.023   4.691
 9098SOL    HW228194   3.146   2.080   4.750
 9099SOL     OW28195   3.408   2.991   5.892
 9099SOL    HW128196   3.359   2.971   5.807
 9099SOL    HW228197   3.494   3.038   5.871
 9100SOL     OW28198   0.251   3.000   3.591
 9100SOL    HW128199   0.312   2.931   3.630
 9100SOL    HW228200   0.167   2.955   3.560
 9101SOL     OW28201   2.720   2.415   1.775
 9101SOL    HW128202   2.673   2.375   1.854
 9101SOL    HW228203   2.817   2.427   1.795
 9102SOL     OW28204   3.604   6.269   1.772
 9102SOL    HW128205   3.702   6.288   1.774
 9102SOL    HW228206   3.558   6.335   1.713
 9103SOL     OW28207   6.396   2.677   6.630
 9103SOL    HW128208   6.422   2.606   6.695
 9103SOL    HW228209   6.446   2.665   6.544
 9104SOL     OW28210   6.960   6.090   1.772
 9104SOL    HW128211   0.004   6.023   1.799
 9104SOL    HW228212   6.994   6.182   1.790
 9105SOL     OW28213   0.411   1.015   6.516
 9105SOL    HW128214   0.509   1.031   6.503
 9105SOL    HW228215   0.368   1.100   6.549
 9106SOL     OW28216   6.009   4.060   1.571
 9106SOL    HW128217   5.999   3.961   1.583
 9106SOL    HW228218   6.103   4.081   1.543
 9107SOL     OW28219   2.429   0.634   6.844
 9107SOL    HW128220   2.437   0.728   6.875
 9107SOL    HW228221   2.377   0.631   6.758
 9108SOL     OW28222   5.128   4.397   5.258
 9108SOL    HW128223   5.104   4.493   5.240
 9108SOL    HW228224   5.158   4.354   5.173
 9109SOL     OW28225   6.422   3.637   3.151
 9109SOL    HW128226   6.508   3.643   3.101
 9109SOL    HW228227   6.438   3.654   3.248
 9110SOL     OW28228   2.237   4.738   4.263
 9110SOL    HW128229   2.179   4.690   4.329
 9110SOL    HW228230   2.228   4.837   4.276
 9111SOL     OW28231   4.879   2.697   0.364
 9111SOL    HW128232   4.801   2.755   0.340
 9111SOL    HW228233   4.861   2.652   0.451
 9112SOL     OW28234   1.660   5.969   2.568
 9112SOL    HW128235   1.742   5.960   2.511
 9112SOL    HW228236   1.644   5.883   2.617
 9113SOL     OW28237   5.219   2.861   2.537
 9113SOL    HW128238   5.185   2.946   2.497
 9113SOL    HW228239   5.184   2.783   2.484
 9114SOL     OW28240   6.972   5.553   3.493
 9114SOL    HW128241   7.000   5.504   3.411
 9114SOL    HW228242   6.904   5.500   3.543
 9115SOL     OW28243   6.449   5.335   5.245
 9115SOL    HW128244   6.509   5.311   5.169
 9115SOL    HW228245   6.354   5.313   5.221
 9116SOL     OW28246   0.677   6.958   2.992
 9116SOL    HW128247   0.706   0.027   2.993
 9116SOL    HW228248   0.710   6.914   2.908
 9117SOL     OW28249   3.269   2.796   6.016
 9117SOL    HW128250   3.185   2.791   5.961
 9117SOL    HW228251   3.322   2.876   5.988
 9118SOL     OW28252   6.621   3.529   0.014
 9118SOL    HW128253   6.584   3.565   0.100
 9118SOL    HW228254   6.550   3.477   6.993
 9119SOL     OW28255   3.298   0.973   2.377
 9119SOL    HW128256   3.276   0.916   2.456
 9119SOL    HW228257   3.374   1.034   2.400
 9120SOL     OW28258   6.985   1.993   5.953
 9120SOL    HW128259   0.048   1.953   5.974
 9120SOL    HW228260   6.939   1.938   5.883
 9121SOL     OW28261   3.291   6.127   4.850
 9121SOL    HW128262   3.204   6.172   4.830
 9121SOL    HW228263   3.341   6.180   4.918
 9122SOL     OW28264   2.492   4.527   2.153
 9122SOL    HW128265   2.567   4.512   2.089
 9122SOL    HW228266   2.506   4.614   2.201
 9123SOL     OW28267   2.001   0.686   4.422
 9123SOL    HW128268   1.924   0.666   4.362
 9123SOL    HW228269   2.038   0.776   4.400
 9124SOL     OW28270   4.110   5.333   0.386
 9124SOL    HW128271   4.140   5.413   0.437
 9124SOL    HW228272   4.019   5.349   0.347
 9125SOL     OW28273   4.173   4.735   1.260
 9125SOL    HW128274   4.225   4.812   1.224
 9125SOL    HW228275   4.080   4.765   1.281
 9126SOL     OW28276   5.473   3.937   1.756
 9126SOL    HW128277   5.458   3.842   1.784
 9126SOL    HW228278   5.434   3.951   1.665
 9127SOL     OW28279   6.713   1.521   6.117
 9127SOL    HW128280   6.698   1.428   6.149
 9127SOL    HW228281   6.625   1.563   6.094
 9128SOL     OW28282   6.317   2.398   5.297
 9128SOL    HW128283   6.284   2.315   5.253
 9128SOL    HW228284   6.241   2.460   5.316
 9129SOL     OW28285   6.191   2.028   0.385
 9129SOL    HW128286   6.231   1.940   0.410
 9129SOL    HW228287   6.144   2.067   0.464
 9130SOL     OW28288   1.794   4.499   6.609
 9130SOL    HW128289   1.707   4.547   6.607
 9130SOL    HW228290   1.842   4.512   6.522
 9131SOL     OW28291   5.385   3.416   6.070
 9131SOL    HW128292   5.390   3.472   6.153
 9131SOL    HW228293   5.408   3.322   6.093
 9132SOL     OW28294   0.806   5.396   4.291
 9132SOL    HW128295   0.808   5.468   4.361
 9132SOL    HW228296   0.737   5.328   4.315
 9133SOL     OW28297   3.990   6.889   0.837
 9133SOL    HW128298   3.917   6.884   0.906
 9133SOL    HW228299   4.079   6.893   0.882
 9134SOL     OW28300   4.007   5.213   1.032
 9134SOL    HW128301   4.017   5.236   0.935
 9134SOL    HW228302   3.924   5.255   1.068
 9135SOL     OW28303   0.738   0.098   1.548
 9135SOL    HW128304   0.811   0.057   1.603
 9135SOL    HW228305   0.762   0.092   1.451
 9136SOL     OW28306   4.680   6.427   5.592
 9136SOL    HW128307   4.772   6.465   5.585
 9136SOL    HW228308   4.615   6.502   5.603
 9137SOL     OW28309   3.949   0.514   6.970
 9137SOL    HW128310   3.925   0.441   0.008
 9137SOL    HW228311   3.971   0.597   7.021
 9138SOL     OW28312   1.089   4.292   6.691
 9138SOL    HW128313   1.153   4.223   6.658
 9138SOL    HW228314   1.134   4.347   6.762
 9139SOL     OW28315   1.109   1.305   2.372
 9139SOL    HW128316   1.130   1.403   2.373
 9139SOL    HW228317   1.012   1.292   2.351
 9140SOL     OW28318   0.981   4.175   2.063
 9140SOL    HW128319   1.006   4.243   2.132
 9140SOL    HW228320   0.882   4.160   2.065
 9141SOL     OW28321   6.124   6.738   0.945
 9141SOL    HW128322   6.067   6.657   0.934
 9141SOL    HW228323   6.096   6.808   0.879
 9142SOL     OW28324   0.818   3.970   1.317
 9142SOL    HW128325   0.726   4.009   1.327
 9142SOL    HW228326   0.855   3.950   1.408
 9143SOL     OW28327   6.763   3.774   0.863
 9143SOL    HW128328   6.689   3.831   0.898
 9143SOL    HW228329   6.735   3.678   0.862
 9144SOL     OW28330   3.565   5.482   4.550
 9144SOL    HW128331   3.663   5.462   4.546
 9144SOL    HW228332   3.536   5.523   4.464
 9145SOL     OW28333   0.448   6.068   6.652
 9145SOL    HW128334   0.376   6.000   6.664
 9145SOL    HW228335   0.536   6.022   6.641
 9146SOL     OW28336   5.153   3.809   2.725
 9146SOL    HW128337   5.182   3.716   2.700
 9146SOL    HW228338   5.228   3.856   2.771
 9147SOL     OW28339   6.611   0.518   5.418
 9147SOL    HW128340   6.679   0.446   5.426
 9147SOL    HW228341   6.650   0.606   5.447
 9148SOL     OW28342   5.934   6.607   2.218
 9148SOL    HW128343   5.982   6.670   2.279
 9148SOL    HW228344   5.920   6.650   2.129
 9149SOL     OW28345   5.355   3.375   1.744
 9149SOL    HW128346   5.287   3.320   1.792
 9149SOL    HW228347   5.414   3.421   1.811
 9150SOL     OW28348   3.456   4.422   0.372
 9150SOL    HW128349   3.472   4.479   0.452
 9150SOL    HW228350   3.360   4.393   0.370
 9151SOL     OW28351   2.195   4.203   3.328
 9151SOL    HW128352   2.216   4.157   3.242
 9151SOL    HW228353   2.121   4.269   3.314
 9152SOL     OW28354   1.879   4.065   4.671
 9152SOL    HW128355   1.979   4.064   4.677
 9152SOL    HW228356   1.851   4.059   4.576
 9153SOL     OW28357   0.152   2.622   6.954
 9153SOL    HW128358   0.072   2.588   6.904
 9153SOL    HW228359   0.123   2.692   7.019
 9154SOL     OW28360   4.648   4.274   4.290
 9154SOL    HW128361   4.669   4.336   4.366
 9154SOL    HW228362   4.575   4.211   4.318
 9155SOL     OW28363   2.582   5.001   2.537
 9155SOL    HW128364   2.654   5.049   2.486
 9155SOL    HW228365   2.601   4.903   2.539
 9156SOL     OW28366   6.769   2.047   1.622
 9156SOL    HW128367   6.837   2.119   1.610
 9156SOL    HW228368   6.735   2.018   1.533
 9157SOL     OW28369   3.502   4.065   6.664
 9157SOL    HW128370   3.505   4.163   6.686
 9157SOL    HW228371   3.412   4.028   6.686
 9158SOL     OW28372   6.591   4.024   3.974
 9158SOL    HW128373   6.629   3.932   3.978
 9158SOL    HW228374   6.583   4.061   4.067
 9159SOL     OW28375   2.081   7.023   4.207
 9159SOL    HW128376   2.164   6.983   4.169
 9159SOL    HW228377   2.093   0.095   4.217
 9160SOL     OW28378   0.158   6.018   5.748
 9160SOL    HW128379   0.159   6.095   5.811
 9160SOL    HW228380   0.132   6.050   5.657
 9161SOL     OW28381   6.572   4.909   3.540
 9161SOL    HW128382   6.609   4.851   3.612
 9161SOL    HW228383   6.554   4.855   3.458
 9162SOL     OW28384   3.678   0.197   2.725
 9162SOL    HW128385   3.604   0.180   2.790
 9162SOL    HW228386   3.679   0.293   2.699
 9163SOL     OW28387   6.823   3.502   2.796
 9163SOL    HW128388   6.785   3.484   2.886
 9163SOL    HW228389   6.750   3.503   2.728
 9164SOL     OW28390   1.953   0.640   6.728
 9164SOL    HW128391   1.869   0.614   6.681
 9164SOL    HW228392   1.983   0.564   6.786
 9165SOL     OW28393   4.519   1.801   6.132
 9165SOL    HW128394   4.490   1.765   6.221
 9165SOL    HW228395   4.459   1.876   6.106
 9166SOL     OW28396   4.618   5.410   1.477
 9166SOL    HW128397   4.646   5.467   1.399
 9166SOL    HW228398   4.551   5.460   1.532
 9167SOL     OW28399   1.542   2.409   6.069
 9167SOL    HW128400   1.642   2.398   6.070
 9167SOL    HW228401   1.499   2.320   6.060
 9168SOL     OW28402   6.687   6.275   6.592
 9168SOL    HW128403   6.648   6.354   6.544
 9168SOL    HW228404   6.613   6.214   6.621
 9169SOL     OW28405   6.504   6.237   6.023
 9169SOL    HW128406   6.406   6.252   6.013
 9169SOL    HW228407   6.554   6.297   5.961
 9170SOL     OW28408   1.760   0.576   6.287
 9170SOL    HW128409   1.765   0.649   6.356
 9170SOL    HW228410   1.771   0.488   6.332
 9171SOL     OW28411   3.372   5.393   0.610
 9171SOL    HW128412   3.284   5.362   0.575
 9171SOL    HW228413   3.363   5.485   0.648
 9172SOL     OW28414   4.464   2.058   4.398
 9172SOL    HW128415   4.425   1.990   4.460
 9172SOL    HW228416   4.539   2.105   4.443
 9173SOL     OW28417   5.963   3.005   4.631
 9173SOL    HW128418   6.000   3.097   4.621
 9173SOL    HW228419   6.010   2.943   4.568
 9174SOL     OW28420   0.653   5.885   6.832
 9174SOL    HW128421   0.695   5.928   6.912
 9174SOL    HW228422   0.697   5.921   6.749
 9175SOL     OW28423   1.585   0.149   0.055
 9175SOL    HW128424   1.666   0.190   0.098
 9175SOL    HW228425   1.611   0.062   0.012
 9176SOL     OW28426   2.260   7.021   1.294
 9176SOL    HW128427   2.357   0.010   1.275
 9176SOL    HW228428   2.243   0.007   1.392
 9177SOL     OW28429   1.727   2.651   3.810
 9177SOL    HW128430   1.661   2.712   3.853
 9177SOL    HW228431   1.753   2.579   3.874
 9178SOL     OW28432   2.126   5.431   6.094
 9178SOL    HW128433   2.109   5.334   6.115
 9178SOL    HW228434   2.208   5.461   6.143
 9179SOL     OW28435   1.628   5.985   5.235
 9179SOL    HW128436   1.572   6.025   5.163
 9179SOL    HW228437   1.649   5.890   5.213
 9180SOL     OW28438   6.726   2.570   3.660
 9180SOL    HW128439   6.799   2.596   3.595
 9180SOL    HW228440   6.731   2.472   3.678
 9181SOL     OW28441   4.966   2.987   3.712
 9181SOL    HW128442   4.892   2.928   3.679
 9181SOL    HW228443   5.030   3.004   3.637
 9182SOL     OW28444   3.085   0.500   3.701
 9182SOL    HW128445   3.023   0.463   3.770
 9182SOL    HW228446   3.103   0.431   3.631
 9183SOL     OW28447   5.197   4.296   6.486
 9183SOL    HW128448   5.285   4.250   6.475
 9183SOL    HW228449   5.173   4.343   6.401
 9184SOL     OW28450   3.783   1.956   0.799
 9184SOL    HW128451   3.833   1.882   0.844
 9184SOL    HW228452   3.701   1.920   0.756
 9185SOL     OW28453   0.018   6.636   5.609
 9185SOL    HW128454   6.959   6.653   5.658
 9185SOL    HW228455   0.096   6.657   5.669
 9186SOL     OW28456   4.714   0.571   5.217
 9186SOL    HW128457   4.737   0.478   5.190
 9186SOL    HW228458   4.762   0.636   5.157
 9187SOL     OW28459   4.476   2.030   6.748
 9187SOL    HW128460   4.554   2.024   6.811
 9187SOL    HW228461   4.405   1.965   6.776
 9188SOL     OW28462   1.010   0.516   1.710
 9188SOL    HW128463   0.946   0.498   1.785
 9188SOL    HW228464   1.041   0.429   1.671
 9189SOL     OW28465   2.652   6.985   3.546
 9189SOL    HW128466   2.712   6.917   3.505
 9189SOL    HW228467   2.568   6.993   3.492
 9190SOL     OW28468   6.884   3.261   5.259
 9190SOL    HW128469   6.862   3.244   5.163
 9190SOL    HW228470   6.979   3.233   5.276
 9191SOL     OW28471   5.278   6.830   6.423
 9191SOL    HW128472   5.298   6.817   6.520
 9191SOL    HW228473   5.323   6.914   6.391
 9192SOL     OW28474   6.218   3.279   5.983
 9192SOL    HW128475   6.214   3.229   5.897
 9192SOL    HW228476   6.265   3.224   6.052
 9193SOL     OW28477   3.577   3.758   3.834
 9193SOL    HW128478   3.480   3.782   3.831
 9193SOL    HW228479   3.625   3.821   3.895
 9194SOL     OW28480   3.770   5.959   2.050
 9194SOL    HW128481   3.737   6.013   2.127
 9194SOL    HW228482   3.695   5.938   1.988
 9195SOL     OW28483   2.073   2.571   4.175
 9195SOL    HW128484   2.102   2.485   4.217
 9195SOL    HW228485   2.058   2.558   4.077
 9196SOL     OW28486   5.427   0.245   3.778
 9196SOL    HW128487   5.509   0.189   3.771
 9196SOL    HW228488   5.448   0.328   3.830
 9197SOL     OW28489   3.778   5.186   0.072
 9197SOL    HW128490   3.762   5.088   0.088
 9197SOL    HW228491   3.801   5.200   7.002
 9198SOL     OW28492   5.803   4.369   6.089
 9198SOL    HW128493   5.710   4.396   6.064
 9198SOL    HW228494   5.799   4.294   6.154
 9199SOL     OW28495   0.169   2.767   6.243
 9199SOL    HW128496   0.090   2.815   6.205
 9199SOL    HW228497   0.236   2.833   6.275
 9200SOL     OW28498   1.888   5.743   6.643
 9200SOL    HW128499   1.940   5.783   6.717
 9200SOL    HW228500   1.875   5.811   6.570
 9201SOL     OW28501   0.385   3.520   1.037
 9201SOL    HW128502   0.410   3.566   0.952
 9201SOL    HW228503   0.468   3.483   1.080
 9202SOL     OW28504   1.288   5.731   3.971
 9202SOL    HW128505   1.319   5.723   3.876
 9202SOL    HW228506   1.368   5.739   4.031
 9203SOL     OW28507   5.082   2.261   6.442
 9203SOL    HW128508   5.011   2.191   6.452
 9203SOL    HW228509   5.067   2.334   6.509
 9204SOL     OW28510   4.869   3.618   3.497
 9204SOL    HW128511   4.860   3.548   3.568
 9204SOL    HW228512   4.897   3.575   3.411
 9205SOL     OW28513   5.031   4.108   2.471
 9205SOL    HW128514   5.047   4.190   2.417
 9205SOL    HW228515   5.100   4.102   2.544
 9206SOL     OW28516   2.989   0.127   4.303
 9206SOL    HW128517   2.914   0.136   4.369
 9206SOL    HW228518   3.074   0.158   4.346
 9207SOL     OW28519   3.795   6.009   6.136
 9207SOL    HW128520   3.821   6.086   6.194
 9207SOL    HW228521   3.864   5.996   6.064
 9208SOL     OW28522   5.934   4.395   2.200
 9208SOL    HW128523   5.951   4.482   2.153
 9208SOL    HW228524   5.917   4.324   2.132
 9209SOL     OW28525   4.164   0.337   1.713
 9209SOL    HW128526   4.110   0.257   1.689
 9209SOL    HW228527   4.214   0.370   1.633
 9210SOL     OW28528   0.636   1.073   1.591
 9210SOL    HW128529   0.593   1.140   1.531
 9210SOL    HW228530   0.689   1.008   1.537
 9211SOL     OW28531   5.235   2.872   5.715
 9211SOL    HW128532   5.262   2.886   5.620
 9211SOL    HW228533   5.316   2.866   5.773
 9212SOL     OW28534   4.782   4.046   5.316
 9212SOL    HW128535   4.825   3.983   5.252
 9212SOL    HW228536   4.845   4.121   5.337
 9213SOL     OW28537   5.184   5.948   3.932
 9213SOL    HW128538   5.103   5.995   3.896
 9213SOL    HW228539   5.265   6.004   3.915
 9214SOL     OW28540   0.168   2.364   5.323
 9214SOL    HW128541   0.132   2.320   5.241
 9214SOL    HW228542   0.166   2.463   5.312
 9215SOL     OW28543   0.639   4.883   2.733
 9215SOL    HW128544   0.607   4.896   2.639
 9215SOL    HW228545   0.604   4.796   2.768
 9216SOL     OW28546   2.550   6.612   4.611
 9216SOL    HW128547   2.634   6.566   4.638
 9216SOL    HW228548   2.570   6.673   4.534
 9217SOL     OW28549   5.350   1.936   6.726
 9217SOL    HW128550   5.297   2.015   6.755
 9217SOL    HW228551   5.394   1.955   6.638
 9218SOL     OW28552   4.357   1.271   6.997
 9218SOL    HW128553   4.352   1.237   6.903
 9218SOL    HW228554   4.406   1.358   6.999
 9219SOL     OW28555   4.347   3.644   5.783
 9219SOL    HW128556   4.254   3.614   5.804
 9219SOL    HW228557   4.407   3.565   5.777
 9220SOL     OW28558   1.987   5.941   2.703
 9220SOL    HW128559   2.044   5.874   2.655
 9220SOL    HW228560   1.933   5.896   2.773
 9221SOL     OW28561   2.389   6.967   5.529
 9221SOL    HW128562   2.302   7.010   5.507
 9221SOL    HW228563   2.391   6.874   5.492
 9222SOL     OW28564   2.597   4.604   4.836
 9222SOL    HW128565   2.633   4.659   4.760
 9222SOL    HW228566   2.672   4.577   4.896
 9223SOL     OW28567   1.193   2.517   3.993
 9223SOL    HW128568   1.111   2.534   4.048
 9223SOL    HW228569   1.165   2.491   3.901
 9224SOL     OW28570   1.641   3.249   3.616
 9224SOL    HW128571   1.569   3.230   3.549
 9224SOL    HW228572   1.656   3.168   3.673
 9225SOL     OW28573   4.224   5.823   5.951
 9225SOL    HW128574   4.217   5.817   5.851
 9225SOL    HW228575   4.132   5.835   5.990
 9226SOL     OW28576   1.011   0.357   1.308
 9226SOL    HW128577   1.060   0.424   1.363
 9226SOL    HW228578   1.069   0.326   1.233
 9227SOL     OW28579   1.787   6.331   1.388
 9227SOL    HW128580   1.746   6.240   1.399
 9227SOL    HW228581   1.717   6.401   1.403
 9228SOL     OW28582   1.724   2.582   6.724
 9228SOL    HW128583   1.713   2.551   6.630
 9228SOL    HW228584   1.761   2.675   6.725
 9229SOL     OW28585   0.694   5.107   6.322
 9229SOL    HW128586   0.685   5.167   6.243
 9229SOL    HW228587   0.744   5.154   6.395
 9230SOL     OW28588   4.792   2.924   2.950
 9230SOL    HW128589   4.866   2.857   2.955
 9230SOL    HW228590   4.726   2.896   2.879
 9231SOL     OW28591   0.791   4.292   4.914
 9231SOL    HW128592   0.698   4.316   4.943
 9231SOL    HW228593   0.855   4.314   4.988
 9232SOL     OW28594   2.898   5.873   1.052
 9232SOL    HW128595   2.913   5.936   1.128
 9232SOL    HW228596   2.806   5.835   1.058
 9233SOL     OW28597   0.867   6.983   0.478
 9233SOL    HW128598   0.893   6.944   0.390
 9233SOL    HW228599   0.829   0.048   0.464
 9234SOL     OW28600   2.060   6.055   0.755
 9234SOL    HW128601   2.100   6.023   0.841
 9234SOL    HW228602   2.088   5.995   0.680
 9235SOL     OW28603   2.339   2.578   2.697
 9235SOL    HW128604   2.400   2.525   2.756
 9235SOL    HW228605   2.279   2.515   2.646
 9236SOL     OW28606   2.505   3.630   6.661
 9236SOL    HW128607   2.575   3.644   6.590
 9236SOL    HW228608   2.522   3.543   6.707
 9237SOL     OW28609   0.539   5.556   2.763
 9237SOL    HW128610   0.632   5.594   2.760
 9237SOL    HW228611   0.484   5.607   2.829
 9238SOL     OW28612   2.713   2.531   6.013
 9238SOL    HW128613   2.801   2.519   5.968
 9238SOL    HW228614   2.640   2.494   5.955
 9239SOL     OW28615   0.053   4.627   6.778
 9239SOL    HW128616   0.123   4.635   6.707
 9239SOL    HW228617   0.036   4.717   6.818
 9240SOL     OW28618   5.034   2.876   2.061
 9240SOL    HW128619   4.986   2.935   1.996
 9240SOL    HW228620   4.972   2.849   2.135
 9241SOL     OW28621   0.651   5.764   0.861
 9241SOL    HW128622   0.553   5.746   0.852
 9241SOL    HW228623   0.699   5.677   0.877
 9242SOL     OW28624   2.118   3.330   1.785
 9242SOL    HW128625   2.166   3.307   1.700
 9242SOL    HW228626   2.181   3.379   1.846
 9243SOL     OW28627   0.431   0.416   1.735
 9243SOL    HW128628   0.434   0.370   1.824
 9243SOL    HW228629   0.420   0.348   1.663
 9244SOL     OW28630   2.414   6.676   6.230
 9244SOL    HW128631   2.338   6.729   6.269
 9244SOL    HW228632   2.442   6.718   6.144
 9245SOL     OW28633   0.331   4.285   3.606
 9245SOL    HW128634   0.307   4.248   3.517
 9245SOL    HW228635   0.411   4.344   3.597
 9246SOL     OW28636   5.578   0.570   3.708
 9246SOL    HW128637   5.605   0.610   3.621
 9246SOL    HW228638   5.631   0.613   3.782
 9247SOL     OW28639   3.836   4.951   3.181
 9247SOL    HW128640   3.915   4.899   3.149
 9247SOL    HW228641   3.807   5.015   3.109
 9248SOL     OW28642   2.946   1.863   5.067
 9248SOL    HW128643   2.867   1.854   5.128
 9248SOL    HW228644   2.968   1.959   5.053
 9249SOL     OW28645   4.946   5.618   1.717
 9249SOL    HW128646   4.940   5.520   1.736
 9249SOL    HW228647   4.993   5.663   1.793
 9250SOL     OW28648   0.091   3.096   4.216
 9250SOL    HW128649   0.091   3.079   4.314
 9250SOL    HW228650   7.024   3.096   4.182
 9251SOL     OW28651   4.151   1.860   2.193
 9251SOL    HW128652   4.196   1.940   2.233
 9251SOL    HW228653   4.164   1.860   2.094
 9252SOL     OW28654   5.774   0.567   4.744
 9252SOL    HW128655   5.860   0.601   4.782
 9252SOL    HW228656   5.747   0.624   4.666
 9253SOL     OW28657   5.172   5.575   5.175
 9253SOL    HW128658   5.262   5.551   5.212
 9253SOL    HW228659   5.128   5.492   5.139
 9254SOL     OW28660   4.808   4.822   2.453
 9254SOL    HW128661   4.812   4.862   2.544
 9254SOL    HW228662   4.723   4.850   2.408
 9255SOL     OW28663   5.460   3.105   6.527
 9255SOL    HW128664   5.461   3.073   6.432
 9255SOL    HW228665   5.434   3.202   6.529
 9256SOL     OW28666   1.969   0.253   1.753
 9256SOL    HW128667   1.895   0.316   1.730
 9256SOL    HW228668   1.987   0.192   1.676
 9257SOL     OW28669   5.987   5.713   3.314
 9257SOL    HW128670   5.923   5.790   3.318
 9257SOL    HW228671   6.010   5.693   3.219
 9258SOL     OW28672   4.038   3.558   1.364
 9258SOL    HW128673   4.111   3.490   1.351
 9258SOL    HW228674   3.953   3.510   1.385
 9259SOL     OW28675   2.186   1.042   0.482
 9259SOL    HW128676   2.249   0.966   0.472
 9259SOL    HW228677   2.100   1.021   0.434
 9260SOL     OW28678   6.651   2.741   5.628
 9260SOL    HW128679   6.561   2.713   5.596
 9260SOL    HW228680   6.642   2.824   5.683
 9261SOL     OW28681   4.590   1.015   6.891
 9261SOL    HW128682   4.497   0.978   6.882
 9261SOL    HW228683   4.650   0.967   6.827
 9262SOL     OW28684   1.093   5.965   4.950
 9262SOL    HW128685   0.994   5.975   4.940
 9262SOL    HW228686   1.139   6.009   4.873
 9263SOL     OW28687   3.339   5.325   2.228
 9263SOL    HW128688   3.300   5.415   2.209
 9263SOL    HW228689   3.427   5.336   2.274
 9264SOL     OW28690   4.961   3.541   0.286
 9264SOL    HW128691   5.018   3.480   0.231
 9264SOL    HW228692   4.947   3.627   0.237
 9265SOL     OW28693   3.997   2.528   6.983
 9265SOL    HW128694   4.064   2.583   0.006
 9265SOL    HW228695   4.014   2.536   6.885
 9266SOL     OW28696   0.533   6.334   1.214
 9266SOL    HW128697   0.504   6.390   1.137
 9266SOL    HW228698   0.593   6.387   1.273
 9267SOL     OW28699   1.040   1.930   4.490
 9267SOL    HW128700   1.003   1.879   4.568
 9267SOL    HW228701   1.139   1.940   4.500
 9268SOL     OW28702   0.991   6.909   2.364
 9268SOL    HW128703   1.040   6.847   2.303
 9268SOL    HW228704   1.028   6.902   2.456
 9269SOL     OW28705   3.922   0.026   6.220
 9269SOL    HW128706   3.852   0.025   6.292
 9269SOL    HW228707   3.915   6.968   6.166
 9270SOL     OW28708   3.762   0.259   5.445
 9270SOL    HW128709   3.824   0.287   5.372
 9270SOL    HW228710   3.810   0.197   5.508
 9271SOL     OW28711   6.017   0.300   0.027
 9271SOL    HW128712   6.048   0.207   0.008
 9271SOL    HW228713   5.945   0.298   0.096
 9272SOL     OW28714   0.659   6.430   6.530
 9272SOL    HW128715   0.745   6.479   6.541
 9272SOL    HW228716   0.631   6.391   6.618
 9273SOL     OW28717   6.194   6.248   3.343
 9273SOL    HW128718   6.109   6.199   3.325
 9273SOL    HW228719   6.270   6.183   3.350
 9274SOL     OW28720   6.753   2.331   6.901
 9274SOL    HW128721   6.787   2.264   6.837
 9274SOL    HW228722   6.655   2.316   6.917
 9275SOL     OW28723   6.913   6.719   0.347
 9275SOL    HW128724   7.002   6.675   0.344
 9275SOL    HW228725   6.924   6.818   0.334
 9276SOL     OW28726   1.992   5.176   6.621
 9276SOL    HW128727   2.052   5.176   6.701
 9276SOL    HW228728   1.998   5.089   6.574
 9277SOL     OW28729   4.226   4.990   2.287
 9277SOL    HW128730   4.155   5.001   2.219
 9277SOL    HW228731   4.313   5.023   2.251
 9278SOL     OW28732   1.529   0.598   5.722
 9278SOL    HW128733   1.545   0.590   5.623
 9278SOL    HW228734   1.616   0.593   5.770
 9279SOL     OW28735   3.904   6.849   1.852
 9279SOL    HW128736   3.968   6.908   1.900
 9279SOL    HW228737   3.955   6.782   1.798
 9280SOL     OW28738   2.510   1.653   2.448
 9280SOL    HW128739   2.609   1.654   2.435
 9280SOL    HW228740   2.465   1.630   2.362
 9281SOL     OW28741   3.673   4.324   6.494
 9281SOL    HW128742   3.642   4.261   6.422
 9281SOL    HW228743   3.593   4.362   6.541
 9282SOL     OW28744   4.521   0.874   4.175
 9282SOL    HW128745   4.595   0.914   4.120
 9282SOL    HW228746   4.529   0.775   4.174
 9283SOL     OW28747   5.081   0.558   5.417
 9283SOL    HW128748   5.172   0.549   5.457
 9283SOL    HW228749   5.077   0.511   5.330
 9284SOL     OW28750   2.702   3.615   5.317
 9284SOL    HW128751   2.777   3.650   5.262
 9284SOL    HW228752   2.689   3.518   5.299
 9285SOL     OW28753   5.106   3.560   0.894
 9285SOL    HW128754   5.182   3.496   0.909
 9285SOL    HW228755   5.023   3.508   0.872
 9286SOL     OW28756   4.963   5.127   0.542
 9286SOL    HW128757   4.994   5.115   0.636
 9286SOL    HW228758   4.864   5.137   0.541
 9287SOL     OW28759   3.696   4.847   6.024
 9287SOL    HW128760   3.790   4.819   6.045
 9287SOL    HW228761   3.680   4.837   5.926
 9288SOL     OW28762   4.466   1.829   2.339
 9288SOL    HW128763   4.469   1.924   2.307
 9288SOL    HW228764   4.558   1.791   2.342
 9289SOL     OW28765   4.664   0.675   0.559
 9289SOL    HW128766   4.729   0.739   0.517
 9289SOL    HW228767   4.698   0.582   0.546
 9290SOL     OW28768   5.969   1.219   4.070
 9290SOL    HW128769   5.943   1.295   4.130
 9290SOL    HW228770   5.941   1.133   4.112
 9291SOL     OW28771   1.254   5.812   6.132
 9291SOL    HW128772   1.341   5.848   6.101
 9291SOL    HW228773   1.247   5.823   6.231
 9292SOL     OW28774   2.375   1.349   6.603
 9292SOL    HW128775   2.308   1.415   6.638
 9292SOL    HW228776   2.344   1.315   6.514
 9293SOL     OW28777   5.779   3.592   6.499
 9293SOL    HW128778   5.683   3.564   6.510
 9293SOL    HW228779   5.802   3.591   6.402
 9294SOL     OW28780   5.019   0.880   6.474
 9294SOL    HW128781   4.927   0.914   6.455
 9294SOL    HW228782   5.016   0.781   6.488
 9295SOL     OW28783   6.298   0.771   5.069
 9295SOL    HW128784   6.272   0.687   5.022
 9295SOL    HW228785   6.388   0.759   5.111
 9296SOL     OW28786   1.974   4.962   0.499
 9296SOL    HW128787   1.999   4.989   0.592
 9296SOL    HW228788   2.029   5.016   0.434
 9297SOL     OW28789   0.671   6.813   3.215
 9297SOL    HW128790   0.684   6.883   3.145
 9297SOL    HW228791   0.720   6.730   3.188
 9298SOL     OW28792   1.096   6.520   6.412
 9298SOL    HW128793   1.171   6.456   6.427
 9298SOL    HW228794   1.133   6.613   6.407
 9299SOL     OW28795   0.904   1.769   4.165
 9299SOL    HW128796   0.962   1.846   4.139
 9299SOL    HW228797   0.943   1.723   4.244
 9300SOL     OW28798   6.976   5.137   5.252
 9300SOL    HW128799   7.005   5.232   5.264
 9300SOL    HW228800   6.922   5.129   5.169
 9301SOL     OW28801   6.805   4.437   5.282
 9301SOL    HW128802   6.843   4.528   5.266
 9301SOL    HW228803   6.874   4.368   5.260
 9302SOL     OW28804   1.990   3.471   4.943
 9302SOL    HW128805   2.039   3.510   4.865
 9302SOL    HW228806   2.054   3.423   5.002
 9303SOL     OW28807   2.915   4.126   0.235
 9303SOL    HW128808   2.980   4.090   0.167
 9303SOL    HW228809   2.914   4.065   0.315
 9304SOL     OW28810   4.373   5.179   0.588
 9304SOL    HW128811   4.361   5.155   0.492
 9304SOL    HW228812   4.415   5.102   0.636
 9305SOL     OW28813   3.793   0.861   0.630
 9305SOL    HW128814   3.711   0.869   0.574
 9305SOL    HW228815   3.844   0.779   0.602
 9306SOL     OW28816   0.994   4.609   5.522
 9306SOL    HW128817   0.904   4.588   5.560
 9306SOL    HW228818   1.061   4.543   5.555
 9307SOL     OW28819   1.725   4.118   0.450
 9307SOL    HW128820   1.750   4.033   0.495
 9307SOL    HW228821   1.807   4.174   0.436
 9308SOL     OW28822   1.441   4.413   2.043
 9308SOL    HW128823   1.428   4.314   2.054
 9308SOL    HW228824   1.352   4.458   2.051
 9309SOL     OW28825   3.744   6.356   5.779
 9309SOL    HW128826   3.681   6.370   5.855
 9309SOL    HW228827   3.836   6.340   5.814
 9310SOL     OW28828   5.758   6.461   5.770
 9310SOL    HW128829   5.812   6.423   5.695
 9310SOL    HW228830   5.718   6.548   5.742
 9311SOL     OW28831   5.428   4.480   1.613
 9311SOL    HW128832   5.512   4.430   1.597
 9311SOL    HW228833   5.382   4.497   1.525
 9312SOL     OW28834   1.527   1.923   0.832
 9312SOL    HW128835   1.605   1.984   0.826
 9312SOL    HW228836   1.483   1.916   0.742
 9313SOL     OW28837   0.220   7.002   1.677
 9313SOL    HW128838   0.303   6.973   1.724
 9313SOL    HW228839   0.219   6.963   1.584
 9314SOL     OW28840   6.928   3.466   0.377
 9314SOL    HW128841   6.992   3.391   0.391
 9314SOL    HW228842   6.853   3.458   0.442
 9315SOL     OW28843   6.005   0.112   5.828
 9315SOL    HW128844   6.067   0.060   5.769
 9315SOL    HW228845   5.914   0.072   5.824
 9316SOL     OW28846   5.338   6.997   5.243
 9316SOL    HW128847   5.397   6.941   5.302
 9316SOL    HW228848   5.313   0.054   5.292
 9317SOL     OW28849   4.130   5.618   2.841
 9317SOL    HW128850   4.137   5.589   2.745
 9317SOL    HW228851   4.110   5.538   2.898
 9318SOL     OW28852   4.849   6.940   0.203
 9318SOL    HW128853   4.898   6.853   0.200
 9318SOL    HW228854   4.751   6.923   0.197
 9319SOL     OW28855   2.840   2.962   1.085
 9319SOL    HW128856   2.848   2.872   1.130
 9319SOL    HW228857   2.756   3.007   1.116
 9320SOL     OW28858   4.490   0.667   5.082
 9320SOL    HW128859   4.552   0.646   5.158
 9320SOL    HW228860   4.542   0.675   4.997
 9321SOL     OW28861   1.040   1.053   5.909
 9321SOL    HW128862   0.944   1.052   5.936
 9321SOL    HW228863   1.097   1.076   5.988
 9322SOL     OW28864   0.311   4.298   6.557
 9322SOL    HW128865   0.312   4.217   6.616
 9322SOL    HW228866   0.216   4.320   6.532
 9323SOL     OW28867   2.185   1.731   5.127
 9323SOL    HW128868   2.096   1.763   5.096
 9323SOL    HW228869   2.190   1.631   5.118
 9324SOL     OW28870   2.106   3.580   2.671
 9324SOL    HW128871   2.008   3.599   2.664
 9324SOL    HW228872   2.145   3.573   2.580
 9325SOL     OW28873   0.116   6.725   0.848
 9325SOL    HW128874   0.181   6.796   0.874
 9325SOL    HW228875   0.154   6.671   0.773
 9326SOL     OW28876   3.249   4.957   6.570
 9326SOL    HW128877   3.318   4.901   6.523
 9326SOL    HW228878   3.192   4.897   6.628
 9327SOL     OW28879   4.666   6.874   2.660
 9327SOL    HW128880   4.572   6.844   2.675
 9327SOL    HW228881   4.725   6.834   2.730
 9328SOL     OW28882   2.064   0.697   4.964
 9328SOL    HW128883   2.029   0.636   5.035
 9328SOL    HW228884   2.029   0.668   4.875
 9329SOL     OW28885   6.685   5.894   0.965
 9329SOL    HW128886   6.587   5.901   0.985
 9329SOL    HW228887   6.710   5.799   0.951
 9330SOL     OW28888   0.357   0.609   6.022
 9330SOL    HW128889   0.437   0.576   5.971
 9330SOL    HW228890   0.312   0.532   6.067
 9331SOL     OW28891   1.838   1.502   6.018
 9331SOL    HW128892   1.771   1.512   6.091
 9331SOL    HW228893   1.821   1.570   5.947
 9332SOL     OW28894   4.514   5.655   0.754
 9332SOL    HW128895   4.502   5.556   0.744
 9332SOL    HW228896   4.494   5.700   0.667
 9333SOL     OW28897   3.760   5.639   6.591
 9333SOL    HW128898   3.845   5.679   6.625
 9333SOL    HW228899   3.755   5.651   6.492
 9334SOL     OW28900   4.745   6.806   4.438
 9334SOL    HW128901   4.726   6.901   4.460
 9334SOL    HW228902   4.841   6.786   4.457
 9335SOL     OW28903   1.956   1.639   0.169
 9335SOL    HW128904   2.014   1.589   0.105
 9335SOL    HW228905   2.000   1.725   0.195
 9336SOL     OW28906   5.421   0.219   4.338
 9336SOL    HW128907   5.398   0.315   4.322
 9336SOL    HW228908   5.394   0.194   4.431
 9337SOL     OW28909   5.121   1.255   6.394
 9337SOL    HW128910   5.081   1.163   6.400
 9337SOL    HW228911   5.060   1.321   6.438
 9338SOL     OW28912   6.579   6.393   1.041
 9338SOL    HW128913   6.663   6.447   1.044
 9338SOL    HW228914   6.524   6.413   1.123
 9339SOL     OW28915   5.626   6.088   0.587
 9339SOL    HW128916   5.603   6.037   0.504
 9339SOL    HW228917   5.606   6.185   0.574
 9340SOL     OW28918   4.254   4.781   2.502
 9340SOL    HW128919   4.320   4.711   2.474
 9340SOL    HW228920   4.269   4.864   2.449
 9341SOL     OW28921   6.749   4.242   0.660
 9341SOL    HW128922   6.663   4.290   0.678
 9341SOL    HW228923   6.789   4.214   0.747
 9342SOL     OW28924   2.331   0.652   4.688
 9342SOL    HW128925   2.387   0.571   4.673
 9342SOL    HW228926   2.366   0.704   4.766
 9343SOL     OW28927   5.097   3.503   2.143
 9343SOL    HW128928   5.122   3.587   2.191
 9343SOL    HW228929   5.113   3.514   2.045
 9344SOL     OW28930   5.154   5.505   0.203
 9344SOL    HW128931   5.238   5.492   0.150
 9344SOL    HW228932   5.140   5.425   0.262
 9345SOL     OW28933   7.001   4.543   1.327
 9345SOL    HW128934   7.009   4.638   1.359
 9345SOL    HW228935   6.989   4.482   1.405
 9346SOL     OW28936   5.210   7.018   2.070
 9346SOL    HW128937   5.120   7.003   2.028
 9346SOL    HW228938   5.282   6.992   2.006
 9347SOL     OW28939   2.726   5.716   0.339
 9347SOL    HW128940   2.755   5.700   0.244
 9347SOL    HW228941   2.677   5.636   0.373
 9348SOL     OW28942   2.822   5.499   2.879
 9348SOL    HW128943   2.822   5.588   2.832
 9348SOL    HW228944   2.896   5.498   2.947
 9349SOL     OW28945   6.637   5.852   2.553
 9349SOL    HW128946   6.649   5.830   2.650
 9349SOL    HW228947   6.551   5.814   2.520
 9350SOL     OW28948   0.448   1.996   4.162
 9350SOL    HW128949   0.513   1.943   4.107
 9350SOL    HW228950   0.467   2.093   4.151
 9351SOL     OW28951   2.608   0.439   6.148
 9351SOL    HW128952   2.576   0.434   6.243
 9351SOL    HW228953   2.540   0.397   6.088
 9352SOL     OW28954   3.098   3.029   5.826
 9352SOL    HW128955   3.045   2.947   5.847
 9352SOL    HW228956   3.039   3.109   5.833
 9353SOL     OW28957   1.928   3.829   1.685
 9353SOL    HW128958   1.969   3.753   1.736
 9353SOL    HW228959   1.996   3.901   1.673
 9354SOL     OW28960   6.522   1.941   0.406
 9354SOL    HW128961   6.438   1.885   0.412
 9354SOL    HW228962   6.575   1.911   0.327
 9355SOL     OW28963   6.280   1.698   4.281
 9355SOL    HW128964   6.269   1.605   4.247
 9355SOL    HW228965   6.346   1.698   4.357
 9356SOL     OW28966   4.332   5.506   1.306
 9356SOL    HW128967   4.403   5.570   1.336
 9356SOL    HW228968   4.243   5.540   1.334
 9357SOL     OW28969   3.296   3.299   6.401
 9357SOL    HW128970   3.212   3.247   6.417
 9357SOL    HW228971   3.371   3.257   6.452
 9358SOL     OW28972   6.571   3.519   2.260
 9358SOL    HW128973   6.579   3.444   2.326
 9358SOL    HW228974   6.660   3.562   2.247
 9359SOL     OW28975   1.201   3.368   5.914
 9359SOL    HW128976   1.270   3.432   5.881
 9359SOL    HW228977   1.240   3.277   5.922
 9360SOL     OW28978   0.974   6.995   5.846
 9360SOL    HW128979   1.035   6.959   5.776
 9360SOL    HW228980   1.019   6.989   5.935
 9361SOL     OW28981   2.390   6.213   3.728
 9361SOL    HW128982   2.444   6.217   3.643
 9361SOL    HW228983   2.371   6.306   3.759
 9362SOL     OW28984   0.984   1.965   2.052
 9362SOL    HW128985   1.011   1.870   2.039
 9362SOL    HW228986   1.027   2.001   2.135
 9363SOL     OW28987   4.160   5.336   1.906
 9363SOL    HW128988   4.076   5.388   1.894
 9363SOL    HW228989   4.138   5.240   1.923
 9364SOL     OW28990   4.396   3.270   5.986
 9364SOL    HW128991   4.456   3.196   6.016
 9364SOL    HW228992   4.441   3.322   5.913
 9365SOL     OW28993   2.832   2.257   5.355
 9365SOL    HW128994   2.907   2.321   5.373
 9365SOL    HW228995   2.774   2.294   5.282
 9366SOL     OW28996   2.876   0.831   6.997
 9366SOL    HW128997   2.816   0.766   6.950
 9366SOL    HW228998   2.950   0.781   0.016
 9367SOL     OW28999   0.218   6.191   3.162
 9367SOL    HW129000   0.206   6.106   3.214
 9367SOL    HW229001   0.315   6.214   3.159
 9368SOL     OW29002   2.443   1.608   3.537
 9368SOL    HW129003   2.380   1.574   3.467
 9368SOL    HW229004   2.476   1.699   3.511
 9369SOL     OW29005   0.099   0.741   5.258
 9369SOL    HW129006   0.045   0.679   5.315
 9369SOL    HW229007   0.147   0.689   5.187
 9370SOL     OW29008   4.597   0.476   2.444
 9370SOL    HW129009   4.624   0.547   2.379
 9370SOL    HW229010   4.674   0.456   2.505
 9371SOL     OW29011   2.459   4.739   0.732
 9371SOL    HW129012   2.530   4.720   0.664
 9371SOL    HW229013   2.481   4.693   0.818
 9372SOL     OW29014   5.416   6.040   2.953
 9372SOL    HW129015   5.330   5.993   2.932
 9372SOL    HW229016   5.446   6.016   3.045
 9373SOL     OW29017   4.025   2.189   2.753
 9373SOL    HW129018   3.954   2.123   2.777
 9373SOL    HW229019   4.028   2.262   2.821
 9374SOL     OW29020   0.384   3.465   0.427
 9374SOL    HW129021   0.478   3.497   0.419
 9374SOL    HW229022   0.364   3.400   0.353
 9375SOL     OW29023   6.088   1.827   2.973
 9375SOL    HW129024   6.009   1.873   3.013
 9375SOL    HW229025   6.065   1.793   2.882
 9376SOL     OW29026   2.787   4.077   1.381
 9376SOL    HW129027   2.712   4.057   1.318
 9376SOL    HW229028   2.833   4.162   1.352
 9377SOL     OW29029   1.696   5.579   3.643
 9377SOL    HW129030   1.698   5.523   3.561
 9377SOL    HW229031   1.686   5.675   3.618
 9378SOL     OW29032   0.975   0.631   5.320
 9378SOL    HW129033   1.056   0.628   5.262
 9378SOL    HW229034   0.957   0.725   5.349
 9379SOL     OW29035   4.770   5.622   5.311
 9379SOL    HW129036   4.689   5.657   5.360
 9379SOL    HW229037   4.853   5.657   5.355
 9380SOL     OW29038   5.444   4.509   5.015
 9380SOL    HW129039   5.463   4.423   5.062
 9380SOL    HW229040   5.390   4.568   5.075
 9381SOL     OW29041   2.902   3.087   6.177
 9381SOL    HW129042   2.876   3.004   6.225
 9381SOL    HW229043   2.857   3.089   6.087
 9382SOL     OW29044   3.401   0.991   3.623
 9382SOL    HW129045   3.442   1.032   3.541
 9382SOL    HW229046   3.334   1.055   3.661
 9383SOL     OW29047   1.840   5.945   4.581
 9383SOL    HW129048   1.802   6.019   4.636
 9383SOL    HW229049   1.914   5.980   4.524
 9384SOL     OW29050   2.945   6.019   1.289
 9384SOL    HW129051   3.006   5.978   1.357
 9384SOL    HW229052   2.855   6.035   1.331
 9385SOL     OW29053   3.795   0.933   3.066
 9385SOL    HW129054   3.752   0.860   3.120
 9385SOL    HW229055   3.893   0.934   3.084
 9386SOL     OW29056   2.881   6.189   4.621
 9386SOL    HW129057   2.950   6.139   4.569
 9386SOL    HW229058   2.822   6.124   4.668
 9387SOL     OW29059   2.976   1.722   6.976
 9387SOL    HW129060   2.967   1.649   0.018
 9387SOL    HW229061   2.916   1.798   7.002
 9388SOL     OW29062   1.791   5.263   2.729
 9388SOL    HW129063   1.785   5.253   2.629
 9388SOL    HW229064   1.834   5.182   2.768
 9389SOL     OW29065   1.314   6.477   5.120
 9389SOL    HW129066   1.244   6.407   5.106
 9389SOL    HW229067   1.290   6.560   5.068
 9390SOL     OW29068   3.855   5.185   4.822
 9390SOL    HW129069   3.807   5.149   4.743
 9390SOL    HW229070   3.942   5.225   4.793
 9391SOL     OW29071   2.162   0.867   4.644
 9391SOL    HW129072   2.194   0.772   4.645
 9391SOL    HW229073   2.062   0.867   4.652
 9392SOL     OW29074   0.069   0.320   4.992
 9392SOL    HW129075   0.086   0.408   4.948
 9392SOL    HW229076   0.092   0.326   5.089
 9393SOL     OW29077   2.571   6.498   5.156
 9393SOL    HW129078   2.661   6.456   5.143
 9393SOL    HW229079   2.581   6.598   5.160
 9394SOL     OW29080   0.035   1.481   1.990
 9394SOL    HW129081   0.071   1.571   2.014
 9394SOL    HW229082   6.981   1.461   2.048
 9395SOL     OW29083   2.937   1.555   0.181
 9395SOL    HW129084   3.014   1.564   0.243
 9395SOL    HW229085   2.914   1.458   0.170
 9396SOL     OW29086   1.873   5.403   3.802
 9396SOL    HW129087   1.829   5.466   3.738
 9396SOL    HW229088   1.806   5.337   3.836
 9397SOL     OW29089   3.324   0.259   6.987
 9397SOL    HW129090   3.257   0.245   0.034
 9397SOL    HW229091   3.357   0.170   6.955
 9398SOL     OW29092   0.509   0.701   5.218
 9398SOL    HW129093   0.580   0.643   5.178
 9398SOL    HW229094   0.420   0.677   5.179
 9399SOL     OW29095   6.695   1.708   6.454
 9399SOL    HW129096   6.779   1.716   6.508
 9399SOL    HW229097   6.713   1.652   6.372
 9400SOL     OW29098   3.820   1.249   2.009
 9400SOL    HW129099   3.749   1.265   2.077
 9400SOL    HW229100   3.790   1.175   1.947
 9401SOL     OW29101   5.426   0.024   3.338
 9401SOL    HW129102   5.385   0.101   3.387
 9401SOL    HW229103   5.516   0.050   3.305
 9402SOL     OW29104   1.234   4.524   3.640
 9402SOL    HW129105   1.161   4.456   3.646
 9402SOL    HW229106   1.292   4.503   3.561
 9403SOL     OW29107   6.282   1.795   2.574
 9403SOL    HW129108   6.367   1.841   2.598
 9403SOL    HW229109   6.248   1.745   2.654
 9404SOL     OW29110   1.320   3.297   6.532
 9404SOL    HW129111   1.309   3.290   6.433
 9404SOL    HW229112   1.272   3.378   6.566
 9405SOL     OW29113   1.343   5.793   2.397
 9405SOL    HW129114   1.271   5.848   2.441
 9405SOL    HW229115   1.302   5.725   2.337
 9406SOL     OW29116   6.580   2.557   5.995
 9406SOL    HW129117   6.574   2.600   5.905
 9406SOL    HW229118   6.613   2.623   6.061
 9407SOL     OW29119   2.622   5.507   3.334
 9407SOL    HW129120   2.557   5.480   3.404
 9407SOL    HW229121   2.709   5.459   3.348
 9408SOL     OW29122   4.283   1.717   6.558
 9408SOL    HW129123   4.350   1.696   6.630
 9408SOL    HW229124   4.323   1.695   6.469
 9409SOL     OW29125   6.053   4.613   6.671
 9409SOL    HW129126   6.145   4.650   6.659
 9409SOL    HW229127   6.013   4.597   6.581
 9410SOL     OW29128   2.998   0.013   2.283
 9410SOL    HW129129   2.927   0.005   2.212
 9410SOL    HW229130   3.063   6.964   2.273
 9411SOL     OW29131   3.332   3.494   2.134
 9411SOL    HW129132   3.283   3.414   2.099
 9411SOL    HW229133   3.351   3.481   2.232
 9412SOL     OW29134   7.004   2.606   1.486
 9412SOL    HW129135   7.003   2.690   1.432
 9412SOL    HW229136   6.942   2.615   1.563
 9413SOL     OW29137   3.221   6.025   4.250
 9413SOL    HW129138   3.180   6.089   4.185
 9413SOL    HW229139   3.320   6.043   4.256
 9414SOL     OW29140   2.901   0.678   3.443
 9414SOL    HW129141   2.837   0.699   3.517
 9414SOL    HW229142   2.876   0.590   3.402
 9415SOL     OW29143   2.769   6.936   2.127
 9415SOL    HW129144   2.754   0.007   2.112
 9415SOL    HW229145   2.681   6.888   2.122
 9416SOL     OW29146   0.360   2.216   0.848
 9416SOL    HW129147   0.419   2.146   0.808
 9416SOL    HW229148   0.416   2.291   0.883
 9417SOL     OW29149   3.880   6.748   6.165
 9417SOL    HW129150   3.868   6.799   6.079
 9417SOL    HW229151   3.858   6.652   6.150
 9418SOL     OW29152   3.512   6.311   1.244
 9418SOL    HW129153   3.569   6.307   1.326
 9418SOL    HW229154   3.415   6.310   1.271
 9419SOL     OW29155   3.737   5.424   6.033
 9419SOL    HW129156   3.697   5.394   6.120
 9419SOL    HW229157   3.817   5.481   6.051
 9420SOL     OW29158   6.658   3.083   5.352
 9420SOL    HW129159   6.610   3.093   5.265
 9420SOL    HW229160   6.688   2.988   5.363
 9421SOL     OW29161   2.039   6.807   4.559
 9421SOL    HW129162   2.128   6.808   4.514
 9421SOL    HW229163   1.971   6.850   4.500
 9422SOL     OW29164   4.691   6.252   3.115
 9422SOL    HW129165   4.687   6.351   3.107
 9422SOL    HW229166   4.770   6.218   3.063
 9423SOL     OW29167   3.740   0.595   4.113
 9423SOL    HW129168   3.737   0.527   4.186
 9423SOL    HW229169   3.706   0.554   4.028
 9424SOL     OW29170   4.812   0.453   4.945
 9424SOL    HW129171   4.842   0.544   4.973
 9424SOL    HW229172   4.892   0.395   4.927
 9425SOL     OW29173   6.168   3.157   6.885
 9425SOL    HW129174   6.096   3.105   6.930
 9425SOL    HW229175   6.150   3.158   6.786
 9426SOL     OW29176   3.404   2.341   0.203
 9426SOL    HW129177   3.449   2.366   0.117
 9426SOL    HW229178   3.446   2.392   0.278
 9427SOL     OW29179   3.145   5.500   3.936
 9427SOL    HW129180   3.199   5.561   3.994
 9427SOL    HW229181   3.183   5.408   3.941
 9428SOL     OW29182   5.820   0.661   1.221
 9428SOL    HW129183   5.891   0.731   1.211
 9428SOL    HW229184   5.830   0.593   1.149
 9429SOL     OW29185   2.124   3.273   2.131
 9429SOL    HW129186   2.170   3.342   2.074
 9429SOL    HW229187   2.123   3.185   2.084
 9430SOL     OW29188   0.722   4.267   2.562
 9430SOL    HW129189   0.780   4.197   2.522
 9430SOL    HW229190   0.713   4.251   2.661
 9431SOL     OW29191   6.166   4.258   1.943
 9431SOL    HW129192   6.068   4.239   1.940
 9431SOL    HW229193   6.193   4.285   2.035
 9432SOL     OW29194   4.046   0.358   3.360
 9432SOL    HW129195   3.981   0.381   3.288
 9432SOL    HW229196   3.997   0.318   3.438
 9433SOL     OW29197   3.384   5.158   2.873
 9433SOL    HW129198   3.293   5.188   2.903
 9433SOL    HW229199   3.391   5.167   2.774
 9434SOL     OW29200   5.283   4.964   3.570
 9434SOL    HW129201   5.335   4.881   3.551
 9434SOL    HW229202   5.226   4.986   3.491
 9435SOL     OW29203   0.971   2.871   4.854
 9435SOL    HW129204   0.954   2.882   4.952
 9435SOL    HW229205   0.885   2.880   4.803
 9436SOL     OW29206   1.149   2.751   1.994
 9436SOL    HW129207   1.152   2.654   2.016
 9436SOL    HW229208   1.056   2.785   2.008
 9437SOL     OW29209   2.438   6.524   3.295
 9437SOL    HW129210   2.508   6.461   3.329
 9437SOL    HW229211   2.368   6.537   3.365
 9438SOL     OW29212   0.146   0.142   1.885
 9438SOL    HW129213   0.166   0.102   1.795
 9438SOL    HW229214   0.228   0.188   1.919
 9439SOL     OW29215   0.670   3.396   1.676
 9439SOL    HW129216   0.598   3.450   1.633
 9439SOL    HW229217   0.629   3.332   1.741
 9440SOL     OW29218   3.746   5.199   3.496
 9440SOL    HW129219   3.723   5.238   3.407
 9440SOL    HW229220   3.750   5.099   3.488
 9441SOL     OW29221   1.310   3.195   5.332
 9441SOL    HW129222   1.311   3.275   5.272
 9441SOL    HW229223   1.284   3.114   5.280
 9442SOL     OW29224   4.761   3.390   0.448
 9442SOL    HW129225   4.765   3.290   0.442
 9442SOL    HW229226   4.832   3.430   0.391
 9443SOL     OW29227   2.612   5.523   1.017
 9443SOL    HW129228   2.579   5.435   1.049
 9443SOL    HW229229   2.613   5.524   0.917
 9444SOL     OW29230   1.548   3.894   6.833
 9444SOL    HW129231   1.536   3.895   6.733
 9444SOL    HW229232   1.486   3.827   6.873
 9445SOL     OW29233   5.833   3.640   3.433
 9445SOL    HW129234   5.754   3.601   3.480
 9445SOL    HW229235   5.801   3.691   3.353
 9446SOL     OW29236   6.037   6.164   4.340
 9446SOL    HW129237   6.023   6.248   4.289
 9446SOL    HW229238   5.980   6.091   4.303
 9447SOL     OW29239   6.054   3.584   4.542
 9447SOL    HW129240   6.133   3.579   4.481
 9447SOL    HW229241   6.085   3.602   4.635
 9448SOL     OW29242   6.928   6.358   6.813
 9448SOL    HW129243   6.891   6.451   6.820
 9448SOL    HW229244   6.900   6.317   6.727
 9449SOL     OW29245   6.716   5.879   0.377
 9449SOL    HW129246   6.656   5.806   0.408
 9449SOL    HW229247   6.797   5.840   0.334
 9450SOL     OW29248   3.104   5.614   5.433
 9450SOL    HW129249   3.071   5.565   5.514
 9450SOL    HW229250   3.032   5.616   5.364
 9451SOL     OW29251   4.023   6.322   5.963
 9451SOL    HW129252   4.025   6.398   5.897
 9451SOL    HW229253   4.055   6.355   6.052
 9452SOL     OW29254   1.980   3.710   0.380
 9452SOL    HW129255   1.980   3.628   0.437
 9452SOL    HW229256   2.035   3.781   0.424
 9453SOL     OW29257   2.227   4.659   3.125
 9453SOL    HW129258   2.270   4.725   3.063
 9453SOL    HW229259   2.207   4.575   3.075
 9454SOL     OW29260   3.155   3.494   6.940
 9454SOL    HW129261   3.175   3.572   6.999
 9454SOL    HW229262   3.183   3.516   6.846
 9455SOL     OW29263   3.327   1.785   3.312
 9455SOL    HW129264   3.354   1.695   3.347
 9455SOL    HW229265   3.234   1.781   3.276
 9456SOL     OW29266   1.418   3.569   1.206
 9456SOL    HW129267   1.416   3.475   1.239
 9456SOL    HW229268   1.504   3.612   1.231
 9457SOL     OW29269   2.153   3.678   5.089
 9457SOL    HW129270   2.063   3.697   5.050
 9457SOL    HW229271   2.224   3.691   5.020
 9458SOL     OW29272   1.695   3.196   6.903
 9458SOL    HW129273   1.741   3.284   6.894
 9458SOL    HW229274   1.615   3.206   6.962
 9459SOL     OW29275   5.242   4.673   3.308
 9459SOL    HW129276   5.303   4.752   3.302
 9459SOL    HW229277   5.288   4.593   3.268
 9460SOL     OW29278   0.525   2.278   3.716
 9460SOL    HW129279   0.574   2.339   3.779
 9460SOL    HW229280   0.556   2.295   3.623
 9461SOL     OW29281   6.150   1.290   2.267
 9461SOL    HW129282   6.208   1.340   2.203
 9461SOL    HW229283   6.172   1.317   2.361
 9462SOL     OW29284   1.975   3.299   2.673
 9462SOL    HW129285   2.019   3.285   2.584
 9462SOL    HW229286   1.975   3.396   2.695
 9463SOL     OW29287   6.835   0.948   1.828
 9463SOL    HW129288   6.858   0.939   1.731
 9463SOL    HW229289   6.915   0.923   1.883
 9464SOL     OW29290   6.184   0.452   1.373
 9464SOL    HW129291   6.255   0.522   1.371
 9464SOL    HW229292   6.117   0.474   1.444
 9465SOL     OW29293   1.770   5.532   2.751
 9465SOL    HW129294   1.796   5.435   2.749
 9465SOL    HW229295   1.677   5.541   2.788
 9466SOL     OW29296   4.852   4.779   5.918
 9466SOL    HW129297   4.831   4.843   5.845
 9466SOL    HW229298   4.945   4.795   5.951
 9467SOL     OW29299   0.967   2.322   1.579
 9467SOL    HW129300   0.980   2.379   1.660
 9467SOL    HW229301   0.893   2.257   1.595
 9468SOL     OW29302   5.835   2.657   5.955
 9468SOL    HW129303   5.901   2.595   5.913
 9468SOL    HW229304   5.882   2.719   6.018
 9469SOL     OW29305   6.500   6.124   1.694
 9469SOL    HW129306   6.548   6.206   1.723
 9469SOL    HW229307   6.429   6.148   1.628
 9470SOL     OW29308   4.282   3.865   5.295
 9470SOL    HW129309   4.346   3.789   5.291
 9470SOL    HW229310   4.330   3.948   5.324
 9471SOL     OW29311   6.376   1.715   4.548
 9471SOL    HW129312   6.430   1.667   4.618
 9471SOL    HW229313   6.354   1.807   4.580
 9472SOL     OW29314   5.641   3.463   4.932
 9472SOL    HW129315   5.648   3.494   5.027
 9472SOL    HW229316   5.552   3.489   4.895
 9473SOL     OW29317   2.715   5.558   5.531
 9473SOL    HW129318   2.723   5.506   5.446
 9473SOL    HW229319   2.803   5.557   5.579
 9474SOL     OW29320   0.296   3.198   0.353
 9474SOL    HW129321   0.267   3.226   0.262
 9474SOL    HW229322   0.217   3.195   0.414
 9475SOL     OW29323   3.560   3.724   6.569
 9475SOL    HW129324   3.621   3.666   6.516
 9475SOL    HW229325   3.531   3.801   6.512
 9476SOL     OW29326   3.053   3.702   4.940
 9476SOL    HW129327   3.128   3.639   4.923
 9476SOL    HW229328   2.970   3.669   4.894
 9477SOL     OW29329   0.420   3.616   1.894
 9477SOL    HW129330   0.432   3.592   1.797
 9477SOL    HW229331   0.448   3.539   1.951
 9478SOL     OW29332   5.321   3.172   6.807
 9478SOL    HW129333   5.330   3.084   6.761
 9478SOL    HW229334   5.238   3.218   6.774
 9479SOL     OW29335   4.347   6.120   6.645
 9479SOL    HW129336   4.262   6.099   6.692
 9479SOL    HW229337   4.422   6.068   6.686
 9480SOL     OW29338   4.560   3.982   1.135
 9480SOL    HW129339   4.582   3.885   1.136
 9480SOL    HW229340   4.523   4.009   1.224
 9481SOL     OW29341   5.238   3.722   2.428
 9481SOL    HW129342   5.194   3.761   2.509
 9481SOL    HW229343   5.202   3.631   2.410
 9482SOL     OW29344   6.621   0.701   3.311
 9482SOL    HW129345   6.704   0.756   3.297
 9482SOL    HW229346   6.612   0.680   3.409
 9483SOL     OW29347   0.757   1.714   1.975
 9483SOL    HW129348   0.762   1.689   1.878
 9483SOL    HW229349   0.849   1.707   2.015
 9484SOL     OW29350   3.259   1.000   3.966
 9484SOL    HW129351   3.247   1.058   4.046
 9484SOL    HW229352   3.309   0.917   3.991
 9485SOL     OW29353   0.564   0.296   1.489
 9485SOL    HW129354   0.611   0.212   1.516
 9485SOL    HW229355   0.522   0.284   1.399
 9486SOL     OW29356   3.213   6.061   1.138
 9486SOL    HW129357   3.122   6.093   1.161
 9486SOL    HW229358   3.263   6.040   1.222
 9487SOL     OW29359   3.151   3.062   3.380
 9487SOL    HW129360   3.067   3.117   3.376
 9487SOL    HW229361   3.229   3.119   3.356
 9488SOL     OW29362   1.441   6.453   0.435
 9488SOL    HW129363   1.461   6.405   0.519
 9488SOL    HW229364   1.346   6.487   0.438
 9489SOL     OW29365   4.464   4.506   1.509
 9489SOL    HW129366   4.548   4.458   1.486
 9489SOL    HW229367   4.485   4.599   1.538
 9490SOL     OW29368   0.130   5.535   0.954
 9490SOL    HW129369   0.102   5.550   1.049
 9490SOL    HW229370   0.056   5.563   0.893
 9491SOL     OW29371   6.566   4.321   3.805
 9491SOL    HW129372   6.607   4.230   3.792
 9491SOL    HW229373   6.638   4.388   3.819
 9492SOL     OW29374   3.359   2.860   2.854
 9492SOL    HW129375   3.400   2.847   2.945
 9492SOL    HW229376   3.268   2.900   2.864
 9493SOL     OW29377   3.669   5.187   3.974
 9493SOL    HW129378   3.680   5.092   4.004
 9493SOL    HW229379   3.635   5.188   3.880
 9494SOL     OW29380   4.997   4.612   1.794
 9494SOL    HW129381   5.007   4.635   1.697
 9494SOL    HW229382   4.939   4.531   1.802
 9495SOL     OW29383   6.542   1.842   3.385
 9495SOL    HW129384   6.626   1.831   3.439
 9495SOL    HW229385   6.565   1.840   3.288
 9496SOL     OW29386   6.232   5.003   1.198
 9496SOL    HW129387   6.282   5.009   1.111
 9496SOL    HW229388   6.249   4.914   1.239
 9497SOL     OW29389   5.863   5.871   6.631
 9497SOL    HW129390   5.852   5.912   6.721
 9497SOL    HW229391   5.781   5.819   6.607
 9498SOL     OW29392   5.205   6.466   4.605
 9498SOL    HW129393   5.274   6.414   4.655
 9498SOL    HW229394   5.245   6.552   4.572
 9499SOL     OW29395   1.634   5.075   6.410
 9499SOL    HW129396   1.538   5.088   6.435
 9499SOL    HW229397   1.642   5.069   6.310
 9500SOL     OW29398   5.469   0.432   0.692
 9500SOL    HW129399   5.413   0.374   0.751
 9500SOL    HW229400   5.459   0.527   0.720
 9501SOL     OW29401   2.963   1.483   4.920
 9501SOL    HW129402   2.971   1.415   4.993
 9501SOL    HW229403   2.968   1.439   4.831
 9502SOL     OW29404   6.756   2.321   5.055
 9502SOL    HW129405   6.760   2.285   4.962
 9502SOL    HW229406   6.675   2.379   5.065
 9503SOL     OW29407   0.360   1.433   1.589
 9503SOL    HW129408   0.409   1.413   1.673
 9503SOL    HW229409   0.317   1.523   1.597
 9504SOL     OW29410   6.788   2.518   1.126
 9504SOL    HW129411   6.785   2.467   1.212
 9504SOL    HW229412   6.709   2.495   1.069
 9505SOL     OW29413   5.544   4.796   3.459
 9505SOL    HW129414   5.601   4.725   3.418
 9505SOL    HW229415   5.473   4.822   3.395
 9506SOL     OW29416   0.752   2.333   6.140
 9506SOL    HW129417   0.831   2.393   6.146
 9506SOL    HW229418   0.772   2.258   6.077
 9507SOL     OW29419   1.223   2.017   3.103
 9507SOL    HW129420   1.197   1.969   3.186
 9507SOL    HW229421   1.213   2.116   3.117
 9508SOL     OW29422   6.829   3.687   1.126
 9508SOL    HW129423   6.745   3.643   1.156
 9508SOL    HW229424   6.815   3.727   1.036
 9509SOL     OW29425   0.621   0.878   4.882
 9509SOL    HW129426   0.540   0.846   4.931
 9509SOL    HW229427   0.696   0.893   4.947
 9510SOL     OW29428   1.543   3.711   2.468
 9510SOL    HW129429   1.576   3.700   2.562
 9510SOL    HW229430   1.563   3.804   2.437
 9511SOL     OW29431   0.423   1.122   0.372
 9511SOL    HW129432   0.491   1.050   0.383
 9511SOL    HW229433   0.354   1.114   0.443
 9512SOL     OW29434   5.610   1.610   1.492
 9512SOL    HW129435   5.521   1.643   1.524
 9512SOL    HW229436   5.608   1.599   1.393
 9513SOL     OW29437   2.028   3.238   6.291
 9513SOL    HW129438   2.083   3.155   6.298
 9513SOL    HW229439   1.932   3.213   6.273
 9514SOL     OW29440   2.154   4.616   6.542
 9514SOL    HW129441   2.245   4.617   6.501
 9514SOL    HW229442   2.100   4.543   6.499
 9515SOL     OW29443   1.470   6.161   1.724
 9515SOL    HW129444   1.417   6.150   1.808
 9515SOL    HW229445   1.423   6.115   1.649
 9516SOL     OW29446   5.341   3.918   5.236
 9516SOL    HW129447   5.388   3.830   5.242
 9516SOL    HW229448   5.410   3.991   5.232
 9517SOL     OW29449   0.850   4.637   0.918
 9517SOL    HW129450   0.786   4.563   0.896
 9517SOL    HW229451   0.921   4.603   0.980
 9518SOL     OW29452   1.554   1.805   6.939
 9518SOL    HW129453   1.524   1.887   6.891
 9518SOL    HW229454   1.481   1.772   6.999
 9519SOL     OW29455   3.682   4.165   4.229
 9519SOL    HW129456   3.585   4.170   4.205
 9519SOL    HW229457   3.736   4.215   4.162
 9520SOL     OW29458   1.070   1.184   3.547
 9520SOL    HW129459   1.105   1.257   3.489
 9520SOL    HW229460   1.003   1.130   3.497
 9521SOL     OW29461   5.076   5.238   1.352
 9521SOL    HW129462   4.985   5.204   1.376
 9521SOL    HW229463   5.073   5.337   1.345
 9522SOL     OW29464   4.069   4.979   1.448
 9522SOL    HW129465   3.994   4.918   1.422
 9522SOL    HW229466   4.070   5.058   1.386
 9523SOL     OW29467   2.707   5.008   4.797
 9523SOL    HW129468   2.708   5.048   4.705
 9523SOL    HW229469   2.790   4.953   4.809
 9524SOL     OW29470   2.979   3.351   0.428
 9524SOL    HW129471   2.974   3.389   0.336
 9524SOL    HW229472   3.034   3.411   0.487
 9525SOL     OW29473   2.251   2.183   6.018
 9525SOL    HW129474   2.325   2.170   6.084
 9525SOL    HW229475   2.231   2.281   6.009
 9526SOL     OW29476   6.294   4.754   1.322
 9526SOL    HW129477   6.256   4.687   1.385
 9526SOL    HW229478   6.338   4.707   1.245
 9527SOL     OW29479   0.609   1.291   4.544
 9527SOL    HW129480   0.659   1.376   4.561
 9527SOL    HW229481   0.637   1.222   4.611
 9528SOL     OW29482   6.831   1.908   1.139
 9528SOL    HW129483   6.877   1.873   1.058
 9528SOL    HW229484   6.781   1.834   1.184
 9529SOL     OW29485   6.384   3.565   6.360
 9529SOL    HW129486   6.462   3.623   6.337
 9529SOL    HW229487   6.322   3.561   6.282
 9530SOL     OW29488   1.748   2.831   3.345
 9530SOL    HW129489   1.830   2.787   3.309
 9530SOL    HW229490   1.693   2.866   3.269
 9531SOL     OW29491   5.213   4.698   2.485
 9531SOL    HW129492   5.155   4.696   2.566
 9531SOL    HW229493   5.302   4.660   2.507
 9532SOL     OW29494   0.567   6.024   1.441
 9532SOL    HW129495   0.490   6.000   1.382
 9532SOL    HW229496   0.547   6.110   1.488
 9533SOL     OW29497   0.241   5.573   5.379
 9533SOL    HW129498   0.219   5.643   5.447
 9533SOL    HW229499   0.335   5.543   5.391
 9534SOL     OW29500   6.704   4.052   5.321
 9534SOL    HW129501   6.689   4.102   5.236
 9534SOL    HW229502   6.653   4.096   5.395
 9535SOL     OW29503   1.775   0.524   5.848
 9535SOL    HW129504   1.809   0.451   5.788
 9535SOL    HW229505   1.846   0.594   5.858
 9536SOL     OW29506   3.090   4.160   5.778
 9536SOL    HW129507   3.000   4.160   5.733
 9536SOL    HW229508   3.137   4.246   5.757
 9537SOL     OW29509   2.631   0.001   4.674
 9537SOL    HW129510   2.659   6.955   4.738
 9537SOL    HW229511   2.540   0.033   4.699
 9538SOL     OW29512   5.483   1.112   3.509
 9538SOL    HW129513   5.403   1.097   3.567
 9538SOL    HW229514   5.561   1.140   3.566
 9539SOL     OW29515   3.441   3.345   4.832
 9539SOL    HW129516   3.428   3.288   4.751
 9539SOL    HW229517   3.522   3.315   4.882
 9540SOL     OW29518   6.290   4.391   4.441
 9540SOL    HW129519   6.369   4.396   4.381
 9540SOL    HW229520   6.272   4.481   4.481
 9541SOL     OW29521   3.010   0.490   5.828
 9541SOL    HW129522   2.942   0.561   5.807
 9541SOL    HW229523   3.098   0.516   5.790
 9542SOL     OW29524   4.887   3.952   4.869
 9542SOL    HW129525   4.986   3.970   4.871
 9542SOL    HW229526   4.868   3.887   4.796
 9543SOL     OW29527   3.534   6.950   6.011
 9543SOL    HW129528   3.516   6.970   6.108
 9543SOL    HW229529   3.619   6.996   5.984
 9544SOL     OW29530   6.850   2.224   2.915
 9544SOL    HW129531   6.930   2.164   2.904
 9544SOL    HW229532   6.840   2.247   3.012
 9545SOL     OW29533   5.538   5.729   4.788
 9545SOL    HW129534   5.561   5.732   4.691
 9545SOL    HW229535   5.439   5.727   4.799
 9546SOL     OW29536   4.075   1.850   5.111
 9546SOL    HW129537   4.156   1.835   5.054
 9546SOL    HW229538   4.091   1.810   5.202
 9547SOL     OW29539   2.962   5.835   3.707
 9547SOL    HW129540   2.968   5.766   3.779
 9547SOL    HW229541   2.893   5.903   3.732
 9548SOL     OW29542   6.108   4.972   6.158
 9548SOL    HW129543   6.093   4.938   6.251
 9548SOL    HW229544   6.104   4.896   6.093
 9549SOL     OW29545   2.610   3.113   1.117
 9549SOL    HW129546   2.568   3.170   1.187
 9549SOL    HW229547   2.545   3.044   1.086
 9550SOL     OW29548   6.767   1.111   0.325
 9550SOL    HW129549   6.738   1.115   0.421
 9550SOL    HW229550   6.840   1.043   0.315
 9551SOL     OW29551   5.999   1.722   5.558
 9551SOL    HW129552   6.014   1.645   5.496
 9551SOL    HW229553   5.918   1.773   5.529
 9552SOL     OW29554   1.606   6.839   4.330
 9552SOL    HW129555   1.645   6.782   4.258
 9552SOL    HW229556   1.548   6.909   4.290
 9553SOL     OW29557   6.294   2.927   6.652
 9553SOL    HW129558   6.330   2.834   6.656
 9553SOL    HW229559   6.306   2.971   6.741
 9554SOL     OW29560   2.247   0.082   1.885
 9554SOL    HW129561   2.303   0.052   1.962
 9554SOL    HW229562   2.160   0.117   1.919
 9555SOL     OW29563   0.923   0.514   2.854
 9555SOL    HW129564   0.885   0.442   2.797
 9555SOL    HW229565   0.922   0.601   2.804
 9556SOL     OW29566   1.763   3.529   1.581
 9556SOL    HW129567   1.777   3.497   1.487
 9556SOL    HW229568   1.809   3.467   1.645
 9557SOL     OW29569   0.099   5.999   2.118
 9557SOL    HW129570   0.154   6.000   2.035
 9557SOL    HW229571   0.151   6.039   2.194
 9558SOL     OW29572   5.826   6.017   4.849
 9558SOL    HW129573   5.908   6.074   4.842
 9558SOL    HW229574   5.800   5.984   4.758
 9559SOL     OW29575   0.631   4.481   0.935
 9559SOL    HW129576   0.605   4.577   0.924
 9559SOL    HW229577   0.553   4.422   0.912
 9560SOL     OW29578   1.569   1.549   3.333
 9560SOL    HW129579   1.621   1.620   3.286
 9560SOL    HW229580   1.491   1.591   3.380
 9561SOL     OW29581   2.073   0.200   0.662
 9561SOL    HW129582   2.171   0.192   0.681
 9561SOL    HW229583   2.028   0.248   0.737
 9562SOL     OW29584   2.496   0.146   5.361
 9562SOL    HW129585   2.484   0.066   5.421
 9562SOL    HW229586   2.412   0.201   5.361
 9563SOL     OW29587   6.527   6.417   0.779
 9563SOL    HW129588   6.445   6.361   0.786
 9563SOL    HW229589   6.583   6.405   0.861
 9564SOL     OW29590   2.895   6.872   0.553
 9564SOL    HW129591   2.832   6.940   0.589
 9564SOL    HW229592   2.883   6.864   0.454
 9565SOL     OW29593   3.466   0.128   4.576
 9565SOL    HW129594   3.490   0.074   4.656
 9565SOL    HW229595   3.515   0.215   4.579
 9566SOL     OW29596   1.946   4.757   0.160
 9566SOL    HW129597   1.989   4.760   0.069
 9566SOL    HW229598   2.003   4.806   0.225
 9567SOL     OW29599   5.366   4.913   0.885
 9567SOL    HW129600   5.391   4.894   0.790
 9567SOL    HW229601   5.412   4.996   0.916
 9568SOL     OW29602   4.180   2.133   6.738
 9568SOL    HW129603   4.178   2.075   6.657
 9568SOL    HW229604   4.234   2.088   6.810
 9569SOL     OW29605   0.121   1.566   2.391
 9569SOL    HW129606   0.037   1.614   2.414
 9569SOL    HW229607   0.200   1.621   2.420
 9570SOL     OW29608   0.882   3.088   2.206
 9570SOL    HW129609   0.795   3.129   2.231
 9570SOL    HW229610   0.939   3.155   2.159
 9571SOL     OW29611   4.134   4.349   6.019
 9571SOL    HW129612   4.181   4.261   6.013
 9571SOL    HW229613   4.097   4.361   6.111
 9572SOL     OW29614   2.140   5.103   1.240
 9572SOL    HW129615   2.109   5.111   1.335
 9572SOL    HW229616   2.234   5.071   1.238
 9573SOL     OW29617   0.671   2.005   6.649
 9573SOL    HW129618   0.636   2.095   6.624
 9573SOL    HW229619   0.597   1.938   6.644
 9574SOL     OW29620   3.799   3.002   3.416
 9574SOL    HW129621   3.785   3.020   3.318
 9574SOL    HW229622   3.813   3.089   3.464
 9575SOL     OW29623   0.241   1.242   1.428
 9575SOL    HW129624   0.233   1.281   1.336
 9575SOL    HW229625   0.280   1.310   1.490
 9576SOL     OW29626   2.228   0.598   1.691
 9576SOL    HW129627   2.128   0.590   1.699
 9576SOL    HW229628   2.251   0.688   1.656
 9577SOL     OW29629   1.379   0.573   5.977
 9577SOL    HW129630   1.297   0.551   6.031
 9577SOL    HW229631   1.461   0.555   6.032
 9578SOL     OW29632   0.724   4.020   3.763
 9578SOL    HW129633   0.766   3.941   3.809
 9578SOL    HW229634   0.651   4.057   3.821
 9579SOL     OW29635   1.518   5.036   2.729
 9579SOL    HW129636   1.588   5.095   2.690
 9579SOL    HW229637   1.547   4.940   2.721
 9580SOL     OW29638   4.713   3.112   0.859
 9580SOL    HW129639   4.646   3.116   0.784
 9580SOL    HW229640   4.804   3.100   0.821
 9581SOL     OW29641   0.290   5.608   6.309
 9581SOL    HW129642   0.324   5.587   6.401
 9581SOL    HW229643   0.349   5.564   6.241
 9582SOL     OW29644   4.900   5.214   6.272
 9582SOL    HW129645   4.884   5.255   6.182
 9582SOL    HW229646   4.833   5.249   6.337
 9583SOL     OW29647   3.966   4.571   1.118
 9583SOL    HW129648   4.061   4.542   1.129
 9583SOL    HW229649   3.909   4.528   1.187
 9584SOL     OW29650   6.911   5.803   0.171
 9584SOL    HW129651   6.886   5.740   0.097
 9584SOL    HW229652   6.911   5.897   0.136
 9585SOL     OW29653   6.656   0.491   4.588
 9585SOL    HW129654   6.608   0.558   4.646
 9585SOL    HW229655   6.607   0.404   4.592
 9586SOL     OW29656   5.602   4.647   2.778
 9586SOL    HW129657   5.697   4.616   2.783
 9586SOL    HW229658   5.541   4.570   2.794
 9587SOL     OW29659   6.682   1.303   1.808
 9587SOL    HW129660   6.776   1.337   1.810
 9587SOL    HW229661   6.642   1.324   1.719
 9588SOL     OW29662   6.958   1.307   1.818
 9588SOL    HW129663   0.009   1.267   1.770
 9588SOL    HW229664   6.990   1.357   1.898
 9589SOL     OW29665   2.280   4.981   5.779
 9589SOL    HW129666   2.210   5.052   5.766
 9589SOL    HW229667   2.253   4.921   5.854
 9590SOL     OW29668   6.671   3.341   1.620
 9590SOL    HW129669   6.678   3.340   1.719
 9590SOL    HW229670   6.589   3.292   1.591
 9591SOL     OW29671   3.551   6.443   6.353
 9591SOL    HW129672   3.452   6.442   6.369
 9591SOL    HW229673   3.599   6.451   6.440
 9592SOL     OW29674   4.039   3.914   0.851
 9592SOL    HW129675   4.082   3.911   0.760
 9592SOL    HW229676   4.104   3.952   0.917
 9593SOL     OW29677   0.082   1.238   4.870
 9593SOL    HW129678   0.138   1.162   4.903
 9593SOL    HW229679   0.141   1.315   4.847
 9594SOL     OW29680   1.126   6.452   3.116
 9594SOL    HW129681   1.102   6.357   3.134
 9594SOL    HW229682   1.224   6.460   3.099
 9595SOL     OW29683   1.282   4.333   5.323
 9595SOL    HW129684   1.267   4.253   5.265
 9595SOL    HW229685   1.313   4.409   5.267
 9596SOL     OW29686   0.156   5.477   0.023
 9596SOL    HW129687   0.145   5.545   6.977
 9596SOL    HW229688   0.232   5.504   0.083
 9597SOL     OW29689   0.736   4.476   1.189
 9597SOL    HW129690   0.772   4.385   1.212
 9597SOL    HW229691   0.695   4.474   1.098
 9598SOL     OW29692   1.314   3.320   4.201
 9598SOL    HW129693   1.405   3.362   4.205
 9598SOL    HW229694   1.267   3.335   4.289
 9599SOL     OW29695   3.879   6.652   5.261
 9599SOL    HW129696   3.850   6.582   5.326
 9599SOL    HW229697   3.819   6.650   5.181
 9600SOL     OW29698   2.360   0.053   6.762
 9600SOL    HW129699   2.302   7.010   6.719
 9600SOL    HW229700   2.310   0.098   6.835
 9601SOL     OW29701   5.869   3.646   1.293
 9601SOL    HW129702   5.826   3.679   1.209
 9601SOL    HW229703   5.967   3.663   1.289
 9602SOL     OW29704   6.991   4.999   6.348
 9602SOL    HW129705   0.005   4.973   6.436
 9602SOL    HW229706   6.943   4.921   6.309
 9603SOL     OW29707   3.742   1.789   4.438
 9603SOL    HW129708   3.744   1.738   4.352
 9603SOL    HW229709   3.673   1.749   4.498
 9604SOL     OW29710   4.011   0.642   0.314
 9604SOL    HW129711   4.002   0.661   0.412
 9604SOL    HW229712   3.961   0.559   0.292
 9605SOL     OW29713   0.422   5.066   3.807
 9605SOL    HW129714   0.331   5.065   3.766
 9605SOL    HW229715   0.464   5.156   3.794
 9606SOL     OW29716   2.153   6.753   6.320
 9606SOL    HW129717   2.144   6.745   6.220
 9606SOL    HW229718   2.140   6.663   6.361
 9607SOL     OW29719   1.515   1.488   0.750
 9607SOL    HW129720   1.492   1.404   0.700
 9607SOL    HW229721   1.468   1.487   0.839
 9608SOL     OW29722   6.761   6.463   2.231
 9608SOL    HW129723   6.781   6.488   2.326
 9608SOL    HW229724   6.813   6.380   2.207
 9609SOL     OW29725   2.388   4.122   6.146
 9609SOL    HW129726   2.429   4.207   6.178
 9609SOL    HW229727   2.449   4.046   6.165
 9610SOL     OW29728   1.803   4.975   3.963
 9610SOL    HW129729   1.752   5.051   3.924
 9610SOL    HW229730   1.807   4.984   4.063
 9611SOL     OW29731   0.090   6.732   6.373
 9611SOL    HW129732   0.100   6.687   6.285
 9611SOL    HW229733   0.168   6.710   6.431
 9612SOL     OW29734   0.803   3.740   1.886
 9612SOL    HW129735   0.886   3.772   1.932
 9612SOL    HW229736   0.828   3.699   1.798
 9613SOL     OW29737   4.490   6.265   3.856
 9613SOL    HW129738   4.500   6.357   3.894
 9613SOL    HW229739   4.500   6.269   3.757
 9614SOL     OW29740   3.950   2.395   0.439
 9614SOL    HW129741   3.931   2.346   0.354
 9614SOL    HW229742   3.870   2.389   0.499
 9615SOL     OW29743   0.637   6.926   1.136
 9615SOL    HW129744   0.542   6.897   1.151
 9615SOL    HW229745   0.679   6.867   1.067
 9616SOL     OW29746   4.574   3.444   1.012
 9616SOL    HW129747   4.481   3.423   0.985
 9616SOL    HW229748   4.622   3.360   1.037
 9617SOL     OW29749   1.633   3.218   4.050
 9617SOL    HW129750   1.727   3.248   4.032
 9617SOL    HW229751   1.584   3.289   4.100
 9618SOL     OW29752   3.639   7.025   5.530
 9618SOL    HW129753   3.583   7.018   5.612
 9618SOL    HW229754   3.635   0.092   5.494
 9619SOL     OW29755   0.586   6.893   0.098
 9619SOL    HW129756   0.657   6.827   0.121
 9619SOL    HW229757   0.622   6.986   0.107
 9620SOL     OW29758   4.441   2.784   0.059
 9620SOL    HW129759   4.356   2.829   0.032
 9620SOL    HW229760   4.435   2.686   0.041
 9621SOL     OW29761   0.910   0.973   2.572
 9621SOL    HW129762   0.834   1.034   2.594
 9621SOL    HW229763   0.996   1.014   2.602
 9622SOL     OW29764   6.099   0.547   6.961
 9622SOL    HW129765   6.059   0.458   6.985
 9622SOL    HW229766   6.190   0.555   7.001
 9623SOL     OW29767   4.070   4.939   5.527
 9623SOL    HW129768   3.993   4.996   5.553
 9623SOL    HW229769   4.036   4.849   5.499
 9624SOL     OW29770   5.954   4.484   3.673
 9624SOL    HW129771   5.946   4.542   3.754
 9624SOL    HW229772   6.048   4.452   3.664
 9625SOL     OW29773   5.079   5.452   6.892
 9625SOL    HW129774   5.017   5.401   6.951
 9625SOL    HW229775   5.063   5.550   6.904
 9626SOL     OW29776   2.407   6.498   0.216
 9626SOL    HW129777   2.339   6.570   0.227
 9626SOL    HW229778   2.421   6.451   0.303
 9627SOL     OW29779   6.901   3.921   3.249
 9627SOL    HW129780   6.805   3.949   3.254
 9627SOL    HW229781   6.911   3.845   3.186
 9628SOL     OW29782   6.630   4.663   6.874
 9628SOL    HW129783   6.545   4.664   6.822
 9628SOL    HW229784   6.700   4.612   6.823
 9629SOL     OW29785   0.039   6.840   2.996
 9629SOL    HW129786   7.022   6.919   3.038
 9629SOL    HW229787   0.129   6.866   2.960
 9630SOL     OW29788   5.840   6.441   4.899
 9630SOL    HW129789   5.782   6.429   4.980
 9630SOL    HW229790   5.792   6.410   4.818
 9631SOL     OW29791   5.941   1.021   7.002
 9631SOL    HW129792   5.961   0.932   0.017
 9631SOL    HW229793   5.967   1.019   6.906
 9632SOL     OW29794   2.334   5.518   2.379
 9632SOL    HW129795   2.329   5.603   2.327
 9632SOL    HW229796   2.404   5.525   2.450
 9633SOL     OW29797   5.400   4.941   6.969
 9633SOL    HW129798   5.323   4.991   7.010
 9633SOL    HW229799   5.484   4.994   6.982
 9634SOL     OW29800   0.695   6.447   4.649
 9634SOL    HW129801   0.638   6.463   4.568
 9634SOL    HW229802   0.646   6.478   4.731
 9635SOL     OW29803   2.418   4.520   5.443
 9635SOL    HW129804   2.434   4.476   5.532
 9635SOL    HW229805   2.467   4.470   5.372
 9636SOL     OW29806   3.991   1.798   6.031
 9636SOL    HW129807   3.960   1.882   6.074
 9636SOL    HW229808   3.972   1.720   6.091
 9637SOL     OW29809   2.266   2.071   0.290
 9637SOL    HW129810   2.308   2.036   0.374
 9637SOL    HW229811   2.337   2.107   0.229
 9638SOL     OW29812   6.790   3.851   6.620
 9638SOL    HW129813   6.835   3.778   6.671
 9638SOL    HW229814   6.841   3.936   6.630
 9639SOL     OW29815   4.820   2.024   1.940
 9639SOL    HW129816   4.732   1.978   1.932
 9639SOL    HW229817   4.852   2.018   2.035
 9640SOL     OW29818   3.005   1.161   2.943
 9640SOL    HW129819   3.008   1.253   2.904
 9640SOL    HW229820   2.915   1.145   2.984
 9641SOL     OW29821   5.184   5.925   0.931
 9641SOL    HW129822   5.199   5.924   1.030
 9641SOL    HW229823   5.086   5.929   0.912
 9642SOL     OW29824   2.018   5.867   4.764
 9642SOL    HW129825   2.089   5.817   4.714
 9642SOL    HW229826   1.963   5.919   4.699
 9643SOL     OW29827   6.200   4.659   3.937
 9643SOL    HW129828   6.113   4.708   3.935
 9643SOL    HW229829   6.230   4.641   3.844
 9644SOL     OW29830   0.037   5.006   4.619
 9644SOL    HW129831   0.084   5.075   4.563
 9644SOL    HW229832   0.040   5.034   4.715
 9645SOL     OW29833   2.970   4.848   3.470
 9645SOL    HW129834   3.043   4.908   3.502
 9645SOL    HW229835   2.920   4.812   3.549
 9646SOL     OW29836   2.690   4.737   2.080
 9646SOL    HW129837   2.751   4.678   2.028
 9646SOL    HW229838   2.723   4.746   2.174
 9647SOL     OW29839   0.835   5.374   1.630
 9647SOL    HW129840   0.922   5.347   1.671
 9647SOL    HW229841   0.781   5.293   1.609
 9648SOL     OW29842   3.774   2.472   0.082
 9648SOL    HW129843   3.855   2.496   0.029
 9648SOL    HW229844   3.706   2.429   0.023
 9649SOL     OW29845   2.682   4.871   6.655
 9649SOL    HW129846   2.740   4.866   6.736
 9649SOL    HW229847   2.616   4.946   6.666
 9650SOL     OW29848   4.966   4.573   3.121
 9650SOL    HW129849   4.915   4.504   3.071
 9650SOL    HW229850   5.026   4.529   3.188
 9651SOL     OW29851   5.998   0.773   0.408
 9651SOL    HW129852   6.001   0.726   0.497
 9651SOL    HW229853   6.071   0.842   0.405
 9652SOL     OW29854   2.471   4.293   1.031
 9652SOL    HW129855   2.517   4.378   1.003
 9652SOL    HW229856   2.374   4.299   1.009
 9653SOL     OW29857   4.117   5.312   5.395
 9653SOL    HW129858   4.045   5.253   5.432
 9653SOL    HW229859   4.169   5.263   5.326
 9654SOL     OW29860   3.786   3.300   2.105
 9654SOL    HW129861   3.878   3.264   2.109
 9654SOL    HW229862   3.784   3.382   2.048
 9655SOL     OW29863   6.973   1.579   6.980
 9655SOL    HW129864   6.954   1.572   0.052
 9655SOL    HW229865   0.032   1.531   6.959
 9656SOL     OW29866   4.503   1.792   0.923
 9656SOL    HW129867   4.409   1.758   0.924
 9656SOL    HW229868   4.545   1.778   1.012
 9657SOL     OW29869   6.503   2.363   3.871
 9657SOL    HW129870   6.592   2.322   3.851
 9657SOL    HW229871   6.433   2.319   3.814
 9658SOL     OW29872   5.507   1.968   2.562
 9658SOL    HW129873   5.540   2.062   2.575
 9658SOL    HW229874   5.511   1.919   2.649
 9659SOL     OW29875   6.883   2.806   0.498
 9659SOL    HW129876   6.978   2.781   0.518
 9659SOL    HW229877   6.824   2.771   0.570
 9660SOL     OW29878   0.271   6.549   2.327
 9660SOL    HW129879   0.281   6.645   2.304
 9660SOL    HW229880   0.215   6.540   2.410
 9661SOL     OW29881   3.595   6.175   1.519
 9661SOL    HW129882   3.613   6.080   1.495
 9661SOL    HW229883   3.598   6.185   1.619
 9662SOL     OW29884   4.477   2.731   5.310
 9662SOL    HW129885   4.379   2.713   5.322
 9662SOL    HW229886   4.509   2.686   5.227
 9663SOL     OW29887   6.404   6.788   3.377
 9663SOL    HW129888   6.442   6.875   3.346
 9663SOL    HW229889   6.370   6.737   3.297
 9664SOL     OW29890   5.146   6.257   4.460
 9664SOL    HW129891   5.167   6.272   4.364
 9664SOL    HW229892   5.168   6.339   4.513
 9665SOL     OW29893   5.699   6.344   6.938
 9665SOL    HW129894   5.687   6.248   6.912
 9665SOL    HW229895   5.624   6.398   6.902
 9666SOL     OW29896   6.735   4.003   2.129
 9666SOL    HW129897   6.727   3.977   2.226
 9666SOL    HW229898   6.650   3.980   2.082
 9667SOL     OW29899   3.892   3.761   5.709
 9667SOL    HW129900   3.864   3.850   5.745
 9667SOL    HW229901   3.847   3.688   5.761
 9668SOL     OW29902   0.029   0.869   6.399
 9668SOL    HW129903   0.044   0.863   6.497
 9668SOL    HW229904   6.979   0.810   6.372
 9669SOL     OW29905   1.943   0.338   2.306
 9669SOL    HW129906   1.905   0.341   2.398
 9669SOL    HW229907   1.869   0.328   2.240
 9670SOL     OW29908   6.352   4.570   6.785
 9670SOL    HW129909   6.305   4.645   6.830
 9670SOL    HW229910   6.329   4.484   6.831
 9671SOL     OW29911   6.396   4.473   0.198
 9671SOL    HW129912   6.316   4.478   0.138
 9671SOL    HW229913   6.423   4.377   0.209
 9672SOL     OW29914   1.540   5.648   3.390
 9672SOL    HW129915   1.602   5.574   3.417
 9672SOL    HW229916   1.474   5.665   3.463
 9673SOL     OW29917   5.244   3.974   0.739
 9673SOL    HW129918   5.166   4.013   0.690
 9673SOL    HW229919   5.314   3.946   0.674
 9674SOL     OW29920   2.014   0.071   2.813
 9674SOL    HW129921   2.001   0.030   2.903
 9674SOL    HW229922   1.985   0.006   2.742
 9675SOL     OW29923   5.811   2.656   0.708
 9675SOL    HW129924   5.726   2.605   0.690
 9675SOL    HW229925   5.889   2.595   0.693
 9676SOL     OW29926   1.820   3.843   5.419
 9676SOL    HW129927   1.777   3.921   5.372
 9676SOL    HW229928   1.756   3.804   5.484
 9677SOL     OW29929   0.503   5.459   5.104
 9677SOL    HW129930   0.509   5.547   5.151
 9677SOL    HW229931   0.531   5.386   5.167
 9678SOL     OW29932   3.135   4.028   3.053
 9678SOL    HW129933   3.051   3.974   3.042
 9678SOL    HW229934   3.206   3.990   2.995
 9679SOL     OW29935   2.740   1.150   3.049
 9679SOL    HW129936   2.683   1.206   3.109
 9679SOL    HW229937   2.740   1.055   3.081
 9680SOL     OW29938   4.619   1.151   2.840
 9680SOL    HW129939   4.562   1.142   2.922
 9680SOL    HW229940   4.568   1.121   2.760
 9681SOL     OW29941   3.155   1.566   0.316
 9681SOL    HW129942   3.224   1.510   0.363
 9681SOL    HW229943   3.195   1.604   0.232
 9682SOL     OW29944   5.180   4.502   3.540
 9682SOL    HW129945   5.148   4.411   3.517
 9682SOL    HW229946   5.279   4.499   3.558
 9683SOL     OW29947   3.065   5.233   0.351
 9683SOL    HW129948   3.124   5.153   0.359
 9683SOL    HW229949   3.121   5.316   0.346
 9684SOL     OW29950   0.374   3.435   5.613
 9684SOL    HW129951   0.323   3.517   5.587
 9684SOL    HW229952   0.387   3.434   5.712
 9685SOL     OW29953   3.277   5.097   0.873
 9685SOL    HW129954   3.374   5.088   0.894
 9685SOL    HW229955   3.237   5.006   0.864
 9686SOL     OW29956   6.690   1.556   6.826
 9686SOL    HW129957   6.693   1.469   6.777
 9686SOL    HW229958   6.764   1.559   6.894
 9687SOL     OW29959   1.638   0.764   4.019
 9687SOL    HW129960   1.734   0.738   4.033
 9687SOL    HW229961   1.579   0.705   4.074
 9688SOL     OW29962   0.471   3.236   2.933
 9688SOL    HW129963   0.544   3.227   3.001
 9688SOL    HW229964   0.496   3.304   2.865
 9689SOL     OW29965   1.010   4.950   6.407
 9689SOL    HW129966   0.940   4.878   6.409
 9689SOL    HW229967   1.005   5.003   6.492
 9690SOL     OW29968   5.478   5.198   0.321
 9690SOL    HW129969   5.400   5.137   0.307
 9690SOL    HW229970   5.563   5.148   0.307
 9691SOL     OW29971   3.079   5.271   0.811
 9691SOL    HW129972   3.025   5.229   0.739
 9691SOL    HW229973   3.153   5.209   0.837
 9692SOL     OW29974   3.896   5.236   2.887
 9692SOL    HW129975   3.980   5.207   2.841
 9692SOL    HW229976   3.833   5.158   2.893
 9693SOL     OW29977   6.104   5.038   2.159
 9693SOL    HW129978   6.110   5.091   2.075
 9693SOL    HW229979   6.070   4.946   2.138
 9694SOL     OW29980   2.450   0.929   0.691
 9694SOL    HW129981   2.513   0.866   0.735
 9694SOL    HW229982   2.502   1.003   0.647
 9695SOL     OW29983   7.013   3.324   2.679
 9695SOL    HW129984   6.951   3.391   2.720
 9695SOL    HW229985   7.000   3.324   2.579
 9696SOL     OW29986   5.501   3.733   1.019
 9696SOL    HW129987   5.435   3.807   1.032
 9696SOL    HW229988   5.463   3.665   0.957
 9697SOL     OW29989   0.589   5.354   6.754
 9697SOL    HW129990   0.530   5.344   6.673
 9697SOL    HW229991   0.615   5.450   6.765
 9698SOL     OW29992   4.493   1.613   5.914
 9698SOL    HW129993   4.542   1.682   5.967
 9698SOL    HW229994   4.484   1.644   5.819
 9699SOL     OW29995   0.055   4.933   6.603
 9699SOL    HW129996   0.143   4.980   6.608
 9699SOL    HW229997   0.019   4.919   6.695
 9700SOL     OW29998   4.597   5.332   5.025
 9700SOL    HW129999   4.597   5.412   4.966
 9700SOL    HW230000   4.540   5.349   5.106
 9701SOL     OW30001   4.321   5.002   5.471
 9701SOL    HW130002   4.222   4.993   5.461
 9701SOL    HW230003   4.365   4.919   5.436
 9702SOL     OW30004   4.631   0.378   6.743
 9702SOL    HW130005   4.677   0.297   6.778
 9702SOL    HW230006   4.669   0.402   6.653
 9703SOL     OW30007   4.578   4.437   3.286
 9703SOL    HW130008   4.607   4.353   3.333
 9703SOL    HW230009   4.481   4.452   3.301
 9704SOL     OW30010   3.506   1.207   2.919
 9704SOL    HW130011   3.580   1.239   2.978
 9704SOL    HW230012   3.420   1.247   2.950
 9705SOL     OW30013   5.997   4.561   6.147
 9705SOL    HW130014   5.933   4.484   6.142
 9705SOL    HW230015   5.973   4.620   6.224
 9706SOL     OW30016   0.971   3.732   0.472
 9706SOL    HW130017   0.921   3.693   0.549
 9706SOL    HW230018   0.910   3.740   0.393
 9707SOL     OW30019   0.050   4.820   2.230
 9707SOL    HW130020   6.980   4.792   2.225
 9707SOL    HW230021   0.057   4.905   2.282
 9708SOL     OW30022   1.356   2.154   2.753
 9708SOL    HW130023   1.277   2.116   2.801
 9708SOL    HW230024   1.434   2.093   2.764
 9709SOL     OW30025   6.171   6.413   3.696
 9709SOL    HW130026   6.106   6.378   3.763
 9709SOL    HW230027   6.122   6.452   3.619
 9710SOL     OW30028   6.612   0.839   1.891
 9710SOL    HW130029   6.631   0.783   1.971
 9710SOL    HW230030   6.697   0.884   1.861
 9711SOL     OW30031   2.444   5.422   5.695
 9711SOL    HW130032   2.377   5.482   5.651
 9711SOL    HW230033   2.482   5.358   5.628
 9712SOL     OW30034   5.895   3.749   0.167
 9712SOL    HW130035   5.872   3.706   0.080
 9712SOL    HW230036   5.993   3.739   0.186
 9713SOL     OW30037   1.097   4.722   3.416
 9713SOL    HW130038   1.028   4.655   3.389
 9713SOL    HW230039   1.138   4.693   3.503
 9714SOL     OW30040   3.380   6.956   7.013
 9714SOL    HW130041   3.474   6.966   6.980
 9714SOL    HW230042   3.318   6.948   6.935
 9715SOL     OW30043   5.430   3.759   6.438
 9715SOL    HW130044   5.427   3.700   6.519
 9715SOL    HW230045   5.362   3.728   6.372
 9716SOL     OW30046   3.995   3.670   0.207
 9716SOL    HW130047   3.895   3.666   0.206
 9716SOL    HW230048   4.031   3.640   0.118
 9717SOL     OW30049   5.587   6.506   6.547
 9717SOL    HW130050   5.505   6.530   6.494
 9717SOL    HW230051   5.580   6.544   6.639
 9718SOL     OW30052   4.501   2.557   0.688
 9718SOL    HW130053   4.520   2.474   0.635
 9718SOL    HW230054   4.480   2.632   0.626
 9719SOL     OW30055   6.689   1.752   5.795
 9719SOL    HW130056   6.656   1.674   5.741
 9719SOL    HW230057   6.611   1.799   5.837
 9720SOL     OW30058   6.947   5.239   2.214
 9720SOL    HW130059   6.978   5.334   2.225
 9720SOL    HW230060   6.853   5.232   2.249
 9721SOL     OW30061   0.058   1.827   1.032
 9721SOL    HW130062   0.092   1.778   0.952
 9721SOL    HW230063   0.099   1.918   1.035
 9722SOL     OW30064   6.412   0.793   4.380
 9722SOL    HW130065   6.433   0.719   4.316
 9722SOL    HW230066   6.426   0.762   4.474
 9723SOL     OW30067   1.660   6.955   2.651
 9723SOL    HW130068   1.602   6.968   2.571
 9723SOL    HW230069   1.681   0.017   2.691
 9724SOL     OW30070   1.659   4.681   0.457
 9724SOL    HW130071   1.751   4.693   0.420
 9724SOL    HW230072   1.663   4.621   0.537
 9725SOL     OW30073   3.843   4.942   6.337
 9725SOL    HW130074   3.881   4.894   6.258
 9725SOL    HW230075   3.855   4.886   6.419
 9726SOL     OW30076   4.962   1.232   4.324
 9726SOL    HW130077   4.998   1.280   4.403
 9726SOL    HW230078   4.864   1.217   4.335
 9727SOL     OW30079   1.326   3.989   6.036
 9727SOL    HW130080   1.422   3.998   6.008
 9727SOL    HW230081   1.292   3.898   6.009
 9728SOL     OW30082   0.024   0.738   5.674
 9728SOL    HW130083   0.119   0.721   5.698
 9728SOL    HW230084   0.003   0.835   5.690
 9729SOL     OW30085   1.101   3.861   3.733
 9729SOL    HW130086   1.102   3.761   3.728
 9729SOL    HW230087   1.086   3.898   3.641
 9730SOL     OW30088   1.270   3.454   3.636
 9730SOL    HW130089   1.201   3.510   3.682
 9730SOL    HW230090   1.320   3.400   3.704
 9731SOL     OW30091   4.863   4.555   1.081
 9731SOL    HW130092   4.766   4.550   1.105
 9731SOL    HW230093   4.915   4.491   1.139
 9732SOL     OW30094   6.362   6.044   3.432
 9732SOL    HW130095   6.319   5.958   3.458
 9732SOL    HW230096   6.432   6.026   3.362
 9733SOL     OW30097   5.721   5.075   0.755
 9733SOL    HW130098   5.812   5.100   0.722
 9733SOL    HW230099   5.728   4.996   0.816
 9734SOL     OW30100   6.454   1.703   2.160
 9734SOL    HW130101   6.439   1.766   2.084
 9734SOL    HW230102   6.489   1.754   2.239
 9735SOL     OW30103   2.562   4.570   3.830
 9735SOL    HW130104   2.558   4.619   3.743
 9735SOL    HW230105   2.598   4.630   3.901
 9736SOL     OW30106   6.418   1.592   6.821
 9736SOL    HW130107   6.513   1.566   6.839
 9736SOL    HW230108   6.402   1.596   6.723
 9737SOL     OW30109   5.700   2.524   3.377
 9737SOL    HW130110   5.713   2.623   3.377
 9737SOL    HW230111   5.605   2.504   3.401
 9738SOL     OW30112   1.301   6.905   1.148
 9738SOL    HW130113   1.216   6.939   1.187
 9738SOL    HW230114   1.282   6.828   1.087
 9739SOL     OW30115   6.017   4.673   2.107
 9739SOL    HW130116   5.950   4.687   2.180
 9739SOL    HW230117   5.986   4.717   2.023
 9740SOL     OW30118   6.303   1.676   3.091
 9740SOL    HW130119   6.303   1.582   3.055
 9740SOL    HW230120   6.240   1.732   3.036
 9741SOL     OW30121   3.796   1.215   3.034
 9741SOL    HW130122   3.782   1.117   3.046
 9741SOL    HW230123   3.852   1.232   2.953
 9742SOL     OW30124   4.540   7.010   0.553
 9742SOL    HW130125   4.446   6.975   0.562
 9742SOL    HW230126   4.602   6.951   0.604
 9743SOL     OW30127   0.341   2.028   5.408
 9743SOL    HW130128   0.296   2.111   5.374
 9743SOL    HW230129   0.415   2.054   5.469
 9744SOL     OW30130   0.752   6.987   2.598
 9744SOL    HW130131   0.724   6.913   2.538
 9744SOL    HW230132   0.722   0.048   2.560
 9745SOL     OW30133   5.537   2.676   5.326
 9745SOL    HW130134   5.550   2.758   5.269
 9745SOL    HW230135   5.517   2.704   5.420
 9746SOL     OW30136   6.493   0.442   5.934
 9746SOL    HW130137   6.578   0.454   5.883
 9746SOL    HW230138   6.417   0.433   5.870
 9747SOL     OW30139   2.153   1.250   1.474
 9747SOL    HW130140   2.106   1.170   1.437
 9747SOL    HW230141   2.196   1.300   1.398
 9748SOL     OW30142   0.612   1.467   3.160
 9748SOL    HW130143   0.698   1.483   3.209
 9748SOL    HW230144   0.563   1.391   3.204
 9749SOL     OW30145   2.429   1.349   5.350
 9749SOL    HW130146   2.329   1.348   5.358
 9749SOL    HW230147   2.463   1.255   5.350
 9750SOL     OW30148   5.438   4.459   3.616
 9750SOL    HW130149   5.448   4.380   3.676
 9750SOL    HW230150   5.468   4.541   3.665
 9751SOL     OW30151   0.732   1.261   1.142
 9751SOL    HW130152   0.636   1.244   1.162
 9751SOL    HW230153   0.764   1.339   1.195
 9752SOL     OW30154   4.836   2.017   5.485
 9752SOL    HW130155   4.872   2.046   5.396
 9752SOL    HW230156   4.768   1.944   5.471
 9753SOL     OW30157   5.567   5.809   5.715
 9753SOL    HW130158   5.528   5.901   5.705
 9753SOL    HW230159   5.644   5.798   5.652
 9754SOL     OW30160   0.908   1.201   6.267
 9754SOL    HW130161   0.958   1.257   6.202
 9754SOL    HW230162   0.971   1.167   6.338
 9755SOL     OW30163   4.040   3.253   4.426
 9755SOL    HW130164   4.054   3.254   4.327
 9755SOL    HW230165   4.001   3.340   4.455
 9756SOL     OW30166   6.624   3.733   0.478
 9756SOL    HW130167   6.624   3.826   0.514
 9756SOL    HW230168   6.639   3.668   0.553
 9757SOL     OW30169   5.856   3.773   3.843
 9757SOL    HW130170   5.871   3.728   3.931
 9757SOL    HW230171   5.866   3.706   3.769
 9758SOL     OW30172   2.521   6.726   6.818
 9758SOL    HW130173   2.468   6.712   6.734
 9758SOL    HW230174   2.611   6.763   6.795
 9759SOL     OW30175   1.948   6.984   6.939
 9759SOL    HW130176   1.925   6.928   6.858
 9759SOL    HW230177   2.045   7.007   6.937
 9760SOL     OW30178   4.453   2.426   4.923
 9760SOL    HW130179   4.508   2.498   4.966
 9760SOL    HW230180   4.363   2.423   4.965
 9761SOL     OW30181   5.649   1.046   2.555
 9761SOL    HW130182   5.743   1.011   2.549
 9761SOL    HW230183   5.649   1.129   2.611
 9762SOL     OW30184   3.381   1.431   4.051
 9762SOL    HW130185   3.419   1.442   4.143
 9762SOL    HW230186   3.281   1.434   4.056
 9763SOL     OW30187   5.271   2.469   2.123
 9763SOL    HW130188   5.217   2.538   2.075
 9763SOL    HW230189   5.314   2.407   2.057
 9764SOL     OW30190   0.369   2.694   2.948
 9764SOL    HW130191   0.369   2.627   2.874
 9764SOL    HW230192   0.360   2.786   2.910
 9765SOL     OW30193   6.507   1.500   3.204
 9765SOL    HW130194   6.583   1.553   3.167
 9765SOL    HW230195   6.447   1.470   3.130
 9766SOL     OW30196   2.548   0.206   2.985
 9766SOL    HW130197   2.501   0.121   3.009
 9766SOL    HW230198   2.484   0.283   2.991
 9767SOL     OW30199   5.073   1.384   5.314
 9767SOL    HW130200   4.989   1.352   5.359
 9767SOL    HW230201   5.123   1.306   5.278
 9768SOL     OW30202   5.604   1.935   2.873
 9768SOL    HW130203   5.570   1.857   2.926
 9768SOL    HW230204   5.560   2.019   2.905
 9769SOL     OW30205   2.779   0.877   2.820
 9769SOL    HW130206   2.875   0.853   2.819
 9769SOL    HW230207   2.759   0.940   2.745
 9770SOL     OW30208   5.727   6.717   6.845
 9770SOL    HW130209   5.762   6.624   6.835
 9770SOL    HW230210   5.743   6.768   6.761
 9771SOL     OW30211   2.862   5.507   0.806
 9771SOL    HW130212   2.945   5.530   0.856
 9771SOL    HW230213   2.872   5.416   0.765
 9772SOL     OW30214   1.281   6.165   2.594
 9772SOL    HW130215   1.200   6.178   2.650
 9772SOL    HW230216   1.362   6.161   2.654
 9773SOL     OW30217   5.608   5.512   4.358
 9773SOL    HW130218   5.583   5.445   4.428
 9773SOL    HW230219   5.565   5.487   4.271
 9774SOL     OW30220   0.160   5.094   1.863
 9774SOL    HW130221   0.203   5.177   1.899
 9774SOL    HW230222   0.065   5.090   1.892
 9775SOL     OW30223   2.097   0.421   3.601
 9775SOL    HW130224   2.043   0.451   3.523
 9775SOL    HW230225   2.194   0.424   3.578
 9776SOL     OW30226   1.308   4.653   4.054
 9776SOL    HW130227   1.255   4.729   4.093
 9776SOL    HW230228   1.249   4.574   4.041
 9777SOL     OW30229   5.816   4.821   5.886
 9777SOL    HW130230   5.780   4.747   5.828
 9777SOL    HW230231   5.915   4.816   5.888
 9778SOL     OW30232   0.258   0.896   3.598
 9778SOL    HW130233   0.172   0.940   3.574
 9778SOL    HW230234   0.275   0.819   3.536
 9779SOL     OW30235   1.817   1.401   4.943
 9779SOL    HW130236   1.812   1.491   4.898
 9779SOL    HW230237   1.852   1.413   5.036
 9780SOL     OW30238   2.793   1.855   1.102
 9780SOL    HW130239   2.870   1.823   1.156
 9780SOL    HW230240   2.741   1.922   1.154
 9781SOL     OW30241   1.817   3.715   4.388
 9781SOL    HW130242   1.859   3.798   4.354
 9781SOL    HW230243   1.717   3.723   4.382
 9782SOL     OW30244   6.616   0.829   1.502
 9782SOL    HW130245   6.640   0.774   1.582
 9782SOL    HW230246   6.618   0.926   1.527
 9783SOL     OW30247   4.855   1.788   3.007
 9783SOL    HW130248   4.835   1.798   3.104
 9783SOL    HW230249   4.772   1.760   2.958
 9784SOL     OW30250   3.871   1.500   4.659
 9784SOL    HW130251   3.895   1.506   4.562
 9784SOL    HW230252   3.923   1.426   4.702
 9785SOL     OW30253   0.973   3.446   5.990
 9785SOL    HW130254   0.966   3.546   5.990
 9785SOL    HW230255   1.066   3.419   5.965
 9786SOL     OW30256   2.548   4.377   6.943
 9786SOL    HW130257   2.533   4.309   6.871
 9786SOL    HW230258   2.570   4.331   0.002
 9787SOL     OW30259   4.838   3.692   1.766
 9787SOL    HW130260   4.893   3.767   1.802
 9787SOL    HW230261   4.777   3.726   1.694
 9788SOL     OW30262   0.528   0.496   3.450
 9788SOL    HW130263   0.541   0.445   3.365
 9788SOL    HW230264   0.606   0.481   3.510
 9789SOL     OW30265   1.220   5.486   0.781
 9789SOL    HW130266   1.297   5.500   0.719
 9789SOL    HW230267   1.204   5.568   0.835
 9790SOL     OW30268   5.909   4.285   5.864
 9790SOL    HW130269   5.974   4.359   5.850
 9790SOL    HW230270   5.863   4.297   5.952
 9791SOL     OW30271   0.412   1.014   3.199
 9791SOL    HW130272   0.389   0.918   3.191
 9791SOL    HW230273   0.509   1.027   3.179
 9792SOL     OW30274   5.222   5.405   1.917
 9792SOL    HW130275   5.140   5.362   1.881
 9792SOL    HW230276   5.272   5.449   1.842
 9793SOL     OW30277   5.231   5.893   3.431
 9793SOL    HW130278   5.216   5.866   3.336
 9793SOL    HW230279   5.195   5.984   3.447
 9794SOL     OW30280   0.059   4.011   0.731
 9794SOL    HW130281   7.012   3.974   0.674
 9794SOL    HW230282   0.058   3.965   0.820
 9795SOL     OW30283   2.148   1.930   4.275
 9795SOL    HW130284   2.246   1.930   4.259
 9795SOL    HW230285   2.122   1.845   4.321
 9796SOL     OW30286   4.649   2.361   1.460
 9796SOL    HW130287   4.560   2.321   1.481
 9796SOL    HW230288   4.693   2.308   1.388
 9797SOL     OW30289   2.745   5.359   6.679
 9797SOL    HW130290   2.766   5.436   6.740
 9797SOL    HW230291   2.808   5.284   6.697
 9798SOL     OW30292   2.726   0.338   1.393
 9798SOL    HW130293   2.651   0.273   1.384
 9798SOL    HW230294   2.792   0.305   1.460
 9799SOL     OW30295   3.558   4.088   3.618
 9799SOL    HW130296   3.559   4.088   3.518
 9799SOL    HW230297   3.465   4.106   3.651
 9800SOL     OW30298   3.642   6.259   4.797
 9800SOL    HW130299   3.579   6.246   4.720
 9800SOL    HW230300   3.603   6.326   4.860
 9801SOL     OW30301   4.650   3.656   0.304
 9801SOL    HW130302   4.672   3.666   0.207
 9801SOL    HW230303   4.724   3.607   0.350
 9802SOL     OW30304   1.156   3.172   1.666
 9802SOL    HW130305   1.170   3.109   1.743
 9802SOL    HW230306   1.126   3.121   1.586
 9803SOL     OW30307   0.316   2.230   6.667
 9803SOL    HW130308   0.228   2.271   6.642
 9803SOL    HW230309   0.305   2.175   6.750
 9804SOL     OW30310   0.855   6.656   3.102
 9804SOL    HW130311   0.767   6.614   3.080
 9804SOL    HW230312   0.907   6.671   3.018
 9805SOL     OW30313   0.740   0.234   5.408
 9805SOL    HW130314   0.749   0.171   5.485
 9805SOL    HW230315   0.743   0.328   5.442
 9806SOL     OW30316   1.420   1.257   0.648
 9806SOL    HW130317   1.470   1.175   0.619
 9806SOL    HW230318   1.330   1.230   0.683
 9807SOL     OW30319   2.538   3.154   0.073
 9807SOL    HW130320   2.470   3.207   0.125
 9807SOL    HW230321   2.494   3.110   7.022
 9808SOL     OW30322   4.534   0.740   5.417
 9808SOL    HW130323   4.620   0.694   5.394
 9808SOL    HW230324   4.519   0.817   5.354
 9809SOL     OW30325   0.920   2.108   6.797
 9809SOL    HW130326   0.881   2.200   6.802
 9809SOL    HW230327   0.846   2.041   6.794
 9810SOL     OW30328   2.361   2.706   3.908
 9810SOL    HW130329   2.336   2.613   3.882
 9810SOL    HW230330   2.347   2.718   4.006
 9811SOL     OW30331   5.835   5.266   3.800
 9811SOL    HW130332   5.846   5.307   3.891
 9811SOL    HW230333   5.769   5.319   3.747
 9812SOL     OW30334   3.389   2.342   5.755
 9812SOL    HW130335   3.326   2.323   5.830
 9812SOL    HW230336   3.353   2.418   5.700
 9813SOL     OW30337   5.657   0.609   6.491
 9813SOL    HW130338   5.687   0.657   6.574
 9813SOL    HW230339   5.644   0.676   6.418
 9814SOL     OW30340   0.709   0.466   0.449
 9814SOL    HW130341   0.754   0.545   0.408
 9814SOL    HW230342   0.724   0.466   0.548
 9815SOL     OW30343   6.001   4.255   2.876
 9815SOL    HW130344   6.036   4.318   2.945
 9815SOL    HW230345   5.924   4.204   2.913
 9816SOL     OW30346   0.053   1.502   6.336
 9816SOL    HW130347   0.051   1.449   6.251
 9816SOL    HW230348   0.074   1.598   6.315
 9817SOL     OW30349   2.420   6.223   2.562
 9817SOL    HW130350   2.323   6.204   2.567
 9817SOL    HW230351   2.472   6.151   2.609
 9818SOL     OW30352   1.680   0.742   4.630
 9818SOL    HW130353   1.662   0.731   4.728
 9818SOL    HW230354   1.672   0.839   4.607
 9819SOL     OW30355   5.111   3.031   4.069
 9819SOL    HW130356   5.122   2.940   4.109
 9819SOL    HW230357   5.123   3.100   4.140
 9820SOL     OW30358   4.235   3.279   6.208
 9820SOL    HW130359   4.140   3.309   6.199
 9820SOL    HW230360   4.284   3.300   6.124
 9821SOL     OW30361   5.053   0.948   0.950
 9821SOL    HW130362   5.087   1.007   1.024
 9821SOL    HW230363   4.964   0.912   0.975
 9822SOL     OW30364   2.640   5.950   3.482
 9822SOL    HW130365   2.643   5.859   3.522
 9822SOL    HW230366   2.696   5.951   3.398
 9823SOL     OW30367   2.277   0.431   1.349
 9823SOL    HW130368   2.308   0.336   1.355
 9823SOL    HW230369   2.330   0.488   1.411
 9824SOL     OW30370   1.463   5.396   4.432
 9824SOL    HW130371   1.433   5.445   4.514
 9824SOL    HW230372   1.491   5.461   4.362
 9825SOL     OW30373   5.172   6.573   3.988
 9825SOL    HW130374   5.145   6.550   3.895
 9825SOL    HW230375   5.200   6.669   3.992
 9826SOL     OW30376   3.795   6.041   5.358
 9826SOL    HW130377   3.759   6.086   5.277
 9826SOL    HW230378   3.851   5.963   5.331
 9827SOL     OW30379   1.849   3.455   2.993
 9827SOL    HW130380   1.809   3.466   3.084
 9827SOL    HW230381   1.943   3.423   3.001
 9828SOL     OW30382   3.321   2.636   5.310
 9828SOL    HW130383   3.280   2.558   5.262
 9828SOL    HW230384   3.315   2.717   5.252
 9829SOL     OW30385   4.718   5.908   6.392
 9829SOL    HW130386   4.711   5.833   6.327
 9829SOL    HW230387   4.641   5.971   6.379
 9830SOL     OW30388   5.399   1.758   1.899
 9830SOL    HW130389   5.314   1.731   1.853
 9830SOL    HW230390   5.477   1.716   1.853
 9831SOL     OW30391   1.175   5.085   2.662
 9831SOL    HW130392   1.218   5.133   2.738
 9831SOL    HW230393   1.077   5.106   2.660
 9832SOL     OW30394   5.141   5.597   2.402
 9832SOL    HW130395   5.064   5.619   2.343
 9832SOL    HW230396   5.113   5.606   2.498
 9833SOL     OW30397   3.380   3.787   3.633
 9833SOL    HW130398   3.369   3.704   3.580
 9833SOL    HW230399   3.477   3.802   3.652
 9834SOL     OW30400   2.356   4.582   4.953
 9834SOL    HW130401   2.302   4.665   4.937
 9834SOL    HW230402   2.450   4.598   4.922
 9835SOL     OW30403   3.627   3.304   4.446
 9835SOL    HW130404   3.664   3.223   4.400
 9835SOL    HW230405   3.675   3.316   4.534
 9836SOL     OW30406   0.556   4.033   4.144
 9836SOL    HW130407   0.614   4.106   4.109
 9836SOL    HW230408   0.585   3.946   4.106
 9837SOL     OW30409   4.392   0.773   2.901
 9837SOL    HW130410   4.410   0.861   2.944
 9837SOL    HW230411   4.437   0.700   2.953
 9838SOL     OW30412   1.870   6.921   0.390
 9838SOL    HW130413   1.836   6.889   0.302
 9838SOL    HW230414   1.940   6.992   0.374
 9839SOL     OW30415   4.522   6.631   3.413
 9839SOL    HW130416   4.574   6.680   3.342
 9839SOL    HW230417   4.453   6.574   3.371
 9840SOL     OW30418   5.371   2.127   0.743
 9840SOL    HW130419   5.336   2.169   0.826
 9840SOL    HW230420   5.317   2.046   0.721
 9841SOL     OW30421   1.027   4.362   4.327
 9841SOL    HW130422   1.108   4.419   4.312
 9841SOL    HW230423   1.042   4.304   4.407
 9842SOL     OW30424   3.358   3.411   1.167
 9842SOL    HW130425   3.285   3.369   1.221
 9842SOL    HW230426   3.342   3.509   1.159
 9843SOL     OW30427   6.161   0.099   1.945
 9843SOL    HW130428   6.231   0.166   1.920
 9843SOL    HW230429   6.074   0.125   1.903
 9844SOL     OW30430   6.048   1.336   3.822
 9844SOL    HW130431   6.023   1.269   3.892
 9844SOL    HW230432   5.977   1.337   3.751
 9845SOL     OW30433   1.740   1.555   3.726
 9845SOL    HW130434   1.749   1.457   3.744
 9845SOL    HW230435   1.650   1.586   3.756
 9846SOL     OW30436   4.747   2.210   1.221
 9846SOL    HW130437   4.770   2.118   1.190
 9846SOL    HW230438   4.780   2.277   1.155
 9847SOL     OW30439   3.840   3.627   2.385
 9847SOL    HW130440   3.765   3.685   2.352
 9847SOL    HW230441   3.826   3.534   2.351
 9848SOL     OW30442   4.513   4.743   6.156
 9848SOL    HW130443   4.597   4.761   6.207
 9848SOL    HW230444   4.480   4.828   6.114
 9849SOL     OW30445   1.175   0.165   6.523
 9849SOL    HW130446   1.264   0.119   6.531
 9849SOL    HW230447   1.141   0.154   6.429
 9850SOL     OW30448   6.513   0.919   3.992
 9850SOL    HW130449   6.570   0.941   4.071
 9850SOL    HW230450   6.499   1.001   3.937
 9851SOL     OW30451   1.891   0.132   4.478
 9851SOL    HW130452   1.955   0.207   4.494
 9851SOL    HW230453   1.858   0.135   4.384
 9852SOL     OW30454   1.739   1.685   4.903
 9852SOL    HW130455   1.802   1.721   4.972
 9852SOL    HW230456   1.729   1.752   4.829
 9853SOL     OW30457   6.670   3.354   5.381
 9853SOL    HW130458   6.748   3.318   5.331
 9853SOL    HW230459   6.597   3.286   5.383
 9854SOL     OW30460   0.069   5.928   3.968
 9854SOL    HW130461   0.060   5.829   3.967
 9854SOL    HW230462   0.100   5.960   3.878
 9855SOL     OW30463   2.329   3.334   0.817
 9855SOL    HW130464   2.248   3.277   0.804
 9855SOL    HW230465   2.307   3.429   0.795
 9856SOL     OW30466   5.069   4.549   3.797
 9856SOL    HW130467   5.096   4.543   3.701
 9856SOL    HW230468   5.125   4.486   3.851
 9857SOL     OW30469   5.617   2.419   3.128
 9857SOL    HW130470   5.572   2.473   3.057
 9857SOL    HW230471   5.644   2.480   3.203
 9858SOL     OW30472   0.192   6.904   1.396
 9858SOL    HW130473   0.172   6.981   1.336
 9858SOL    HW230474   0.144   6.823   1.363
 9859SOL     OW30475   6.799   5.483   3.891
 9859SOL    HW130476   6.707   5.454   3.915
 9859SOL    HW230477   6.865   5.420   3.931
 9860SOL     OW30478   1.939   1.998   4.813
 9860SOL    HW130479   1.880   2.054   4.756
 9860SOL    HW230480   2.024   2.047   4.832
 9861SOL     OW30481   2.605   0.216   3.280
 9861SOL    HW130482   2.533   0.157   3.318
 9861SOL    HW230483   2.625   0.187   3.186
 9862SOL     OW30484   2.309   3.986   6.978
 9862SOL    HW130485   2.389   4.028   6.937
 9862SOL    HW230486   2.318   3.886   6.976
 9863SOL     OW30487   3.072   5.945   1.524
 9863SOL    HW130488   3.045   5.935   1.620
 9863SOL    HW230489   3.167   5.975   1.520
 9864SOL     OW30490   3.480   0.746   4.793
 9864SOL    HW130491   3.462   0.842   4.774
 9864SOL    HW230492   3.573   0.736   4.827
 9865SOL     OW30493   1.311   6.345   4.130
 9865SOL    HW130494   1.401   6.316   4.099
 9865SOL    HW230495   1.301   6.444   4.116
 9866SOL     OW30496   6.051   4.523   5.844
 9866SOL    HW130497   6.103   4.546   5.761
 9866SOL    HW230498   6.114   4.495   5.916
 9867SOL     OW30499   6.502   1.444   2.476
 9867SOL    HW130500   6.571   1.472   2.409
 9867SOL    HW230501   6.508   1.345   2.490
 9868SOL     OW30502   0.770   3.240   4.595
 9868SOL    HW130503   0.753   3.218   4.691
 9868SOL    HW230504   0.698   3.301   4.561
 9869SOL     OW30505   0.362   2.428   1.142
 9869SOL    HW130506   0.436   2.426   1.075
 9869SOL    HW230507   0.371   2.350   1.204
 9870SOL     OW30508   4.349   5.812   2.685
 9870SOL    HW130509   4.266   5.761   2.705
 9870SOL    HW230510   4.390   5.844   2.770
 9871SOL     OW30511   6.439   3.808   5.741
 9871SOL    HW130512   6.349   3.847   5.725
 9871SOL    HW230513   6.473   3.837   5.830
 9872SOL     OW30514   2.999   5.308   4.609
 9872SOL    HW130515   3.066   5.235   4.598
 9872SOL    HW230516   3.046   5.394   4.628
 9873SOL     OW30517   1.981   2.566   0.475
 9873SOL    HW130518   1.969   2.603   0.568
 9873SOL    HW230519   2.077   2.575   0.449
 9874SOL     OW30520   0.599   2.983   5.738
 9874SOL    HW130521   0.594   2.886   5.762
 9874SOL    HW230522   0.529   3.005   5.670
 9875SOL     OW30523   6.216   5.930   2.863
 9875SOL    HW130524   6.207   5.954   2.960
 9875SOL    HW230525   6.127   5.937   2.819
 9876SOL     OW30526   5.084   0.808   3.863
 9876SOL    HW130527   5.102   0.902   3.836
 9876SOL    HW230528   5.170   0.757   3.866
 9877SOL     OW30529   0.204   4.479   4.249
 9877SOL    HW130530   0.117   4.455   4.291
 9877SOL    HW230531   0.192   4.558   4.188
 9878SOL     OW30532   2.580   3.666   5.572
 9878SOL    HW130533   2.631   3.630   5.493
 9878SOL    HW230534   2.645   3.691   5.644
 9879SOL     OW30535   6.144   4.551   5.585
 9879SOL    HW130536   6.166   4.578   5.491
 9879SOL    HW230537   6.209   4.482   5.617
 9880SOL     OW30538   2.640   0.760   0.800
 9880SOL    HW130539   2.725   0.709   0.784
 9880SOL    HW230540   2.649   0.815   0.883
 9881SOL     OW30541   6.582   1.982   4.597
 9881SOL    HW130542   6.587   1.912   4.526
 9881SOL    HW230543   6.553   1.941   4.683
 9882SOL     OW30544   3.064   3.905   5.637
 9882SOL    HW130545   3.077   3.822   5.691
 9882SOL    HW230546   3.044   3.982   5.698
 9883SOL     OW30547   0.773   6.793   1.437
 9883SOL    HW130548   0.722   6.871   1.400
 9883SOL    HW230549   0.766   6.793   1.537
 9884SOL     OW30550   4.253   1.700   0.957
 9884SOL    HW130551   4.249   1.611   1.002
 9884SOL    HW230552   4.171   1.714   0.903
 9885SOL     OW30553   0.633   3.173   4.826
 9885SOL    HW130554   0.590   3.199   4.912
 9885SOL    HW230555   0.634   3.073   4.818
 9886SOL     OW30556   6.951   6.240   2.163
 9886SOL    HW130557   7.016   6.268   2.093
 9886SOL    HW230558   6.938   6.141   2.159
 9887SOL     OW30559   3.710   0.167   6.999
 9887SOL    HW130560   3.809   0.158   6.990
 9887SOL    HW230561   3.665   0.088   6.958
 9888SOL     OW30562   5.709   5.759   3.456
 9888SOL    HW130563   5.783   5.775   3.521
 9888SOL    HW230564   5.621   5.778   3.500
 9889SOL     OW30565   0.674   4.749   1.903
 9889SOL    HW130566   0.608   4.697   1.849
 9889SOL    HW230567   0.628   4.789   1.982
 9890SOL     OW30568   0.538   3.107   0.722
 9890SOL    HW130569   0.488   3.193   0.713
 9890SOL    HW230570   0.633   3.120   0.694
 9891SOL     OW30571   6.236   4.605   1.756
 9891SOL    HW130572   6.150   4.650   1.734
 9891SOL    HW230573   6.232   4.509   1.728
 9892SOL     OW30574   1.868   5.576   3.121
 9892SOL    HW130575   1.921   5.534   3.047
 9892SOL    HW230576   1.832   5.664   3.090
 9893SOL     OW30577   6.341   0.090   2.203
 9893SOL    HW130578   6.280   0.069   2.126
 9893SOL    HW230579   6.411   0.020   2.210
 9894SOL     OW30580   2.744   1.445   6.036
 9894SOL    HW130581   2.662   1.416   6.086
 9894SOL    HW230582   2.819   1.383   6.058
 9895SOL     OW30583   6.469   2.347   5.561
 9895SOL    HW130584   6.433   2.358   5.468
 9895SOL    HW230585   6.492   2.251   5.576
 9896SOL     OW30586   4.970   1.836   0.706
 9896SOL    HW130587   5.039   1.768   0.680
 9896SOL    HW230588   4.972   1.912   0.641
 9897SOL     OW30589   4.850   0.661   2.824
 9897SOL    HW130590   4.941   0.652   2.865
 9897SOL    HW230591   4.795   0.581   2.848
 9898SOL     OW30592   0.137   4.976   5.116
 9898SOL    HW130593   0.113   4.888   5.157
 9898SOL    HW230594   0.084   5.048   5.159
 9899SOL     OW30595   6.683   5.014   2.381
 9899SOL    HW130596   6.606   4.957   2.352
 9899SOL    HW230597   6.736   4.966   2.451
 9900SOL     OW30598   1.819   2.452   2.798
 9900SOL    HW130599   1.870   2.518   2.742
 9900SOL    HW230600   1.727   2.487   2.816
 9901SOL     OW30601   1.963   1.294   6.963
 9901SOL    HW130602   2.038   1.355   6.938
 9901SOL    HW230603   1.998   1.219   7.019
 9902SOL     OW30604   4.095   3.828   1.418
 9902SOL    HW130605   4.101   3.728   1.414
 9902SOL    HW230606   4.139   3.860   1.502
 9903SOL     OW30607   4.837   6.583   2.359
 9903SOL    HW130608   4.830   6.520   2.282
 9903SOL    HW230609   4.760   6.647   2.356
 9904SOL     OW30610   6.778   3.971   6.900
 9904SOL    HW130611   6.825   4.052   6.935
 9904SOL    HW230612   6.751   3.987   6.805
 9905SOL     OW30613   1.494   6.281   6.969
 9905SOL    HW130614   1.509   6.182   6.977
 9905SOL    HW230615   1.411   6.298   6.916
 9906SOL     OW30616   2.283   3.707   6.945
 9906SOL    HW130617   2.191   3.684   6.977
 9906SOL    HW230618   2.348   3.639   6.979
 9907SOL     OW30619   1.866   6.932   4.013
 9907SOL    HW130620   1.860   6.987   3.930
 9907SOL    HW230621   1.950   6.956   4.063
 9908SOL     OW30622   0.469   3.767   5.757
 9908SOL    HW130623   0.379   3.805   5.737
 9908SOL    HW230624   0.464   3.710   5.839
 9909SOL     OW30625   3.136   0.296   3.515
 9909SOL    HW130626   3.100   0.203   3.516
 9909SOL    HW230627   3.116   0.339   3.427
 9910SOL     OW30628   1.379   5.575   1.688
 9910SOL    HW130629   1.463   5.545   1.734
 9910SOL    HW230630   1.390   5.561   1.589
 9911SOL     OW30631   4.434   5.553   2.420
 9911SOL    HW130632   4.372   5.607   2.364
 9911SOL    HW230633   4.382   5.485   2.472
 9912SOL     OW30634   4.108   0.712   1.421
 9912SOL    HW130635   4.030   0.656   1.445
 9912SOL    HW230636   4.090   0.760   1.335
 9913SOL     OW30637   6.653   3.312   2.458
 9913SOL    HW130638   6.638   3.364   2.543
 9913SOL    HW230639   6.653   3.214   2.479
 9914SOL     OW30640   0.818   0.672   5.788
 9914SOL    HW130641   0.866   0.584   5.783
 9914SOL    HW230642   0.847   0.721   5.870
 9915SOL     OW30643   4.744   2.845   4.059
 9915SOL    HW130644   4.837   2.843   4.022
 9915SOL    HW230645   4.694   2.765   4.027
 9916SOL     OW30646   1.977   2.350   3.427
 9916SOL    HW130647   2.055   2.410   3.412
 9916SOL    HW230648   1.922   2.384   3.503
 9917SOL     OW30649   3.381   3.611   4.634
 9917SOL    HW130650   3.475   3.589   4.660
 9917SOL    HW230651   3.320   3.596   4.712
 9918SOL     OW30652   0.765   2.318   1.087
 9918SOL    HW130653   0.782   2.244   1.153
 9918SOL    HW230654   0.849   2.335   1.035
 9919SOL     OW30655   2.524   6.152   1.279
 9919SOL    HW130656   2.586   6.223   1.313
 9919SOL    HW230657   2.488   6.180   1.190
 9920SOL     OW30658   3.410   0.621   3.136
 9920SOL    HW130659   3.354   0.701   3.117
 9920SOL    HW230660   3.370   0.569   3.212
 9921SOL     OW30661   4.985   6.062   4.510
 9921SOL    HW130662   5.024   5.970   4.497
 9921SOL    HW230663   5.055   6.130   4.488
 9922SOL     OW30664   4.755   4.546   0.766
 9922SOL    HW130665   4.687   4.491   0.815
 9922SOL    HW230666   4.788   4.494   0.687
 9923SOL     OW30667   6.813   3.266   6.946
 9923SOL    HW130668   6.757   3.188   6.919
 9923SOL    HW230669   6.772   3.350   6.909
 9924SOL     OW30670   5.353   2.240   3.436
 9924SOL    HW130671   5.287   2.183   3.387
 9924SOL    HW230672   5.432   2.185   3.462
 9925SOL     OW30673   2.120   4.572   4.615
 9925SOL    HW130674   2.109   4.498   4.682
 9925SOL    HW230675   2.212   4.610   4.622
 9926SOL     OW30676   3.385   2.511   0.961
 9926SOL    HW130677   3.353   2.416   0.955
 9926SOL    HW230678   3.306   2.573   0.958
 9927SOL     OW30679   0.947   2.082   0.880
 9927SOL    HW130680   0.857   2.050   0.910
 9927SOL    HW230681   0.966   2.171   0.922
 9928SOL     OW30682   5.682   3.645   2.908
 9928SOL    HW130683   5.758   3.677   2.965
 9928SOL    HW230684   5.719   3.610   2.822
 9929SOL     OW30685   3.557   4.528   5.394
 9929SOL    HW130686   3.488   4.590   5.356
 9929SOL    HW230687   3.541   4.436   5.358
 9930SOL     OW30688   0.609   0.350   6.152
 9930SOL    HW130689   0.552   0.403   6.089
 9930SOL    HW230690   0.562   0.265   6.176
 9931SOL     OW30691   6.804   5.497   5.130
 9931SOL    HW130692   6.853   5.487   5.044
 9931SOL    HW230693   6.740   5.574   5.124
 9932SOL     OW30694   1.458   1.421   6.621
 9932SOL    HW130695   1.543   1.441   6.573
 9932SOL    HW230696   1.380   1.442   6.563
 9933SOL     OW30697   1.565   0.974   4.301
 9933SOL    HW130698   1.632   1.046   4.284
 9933SOL    HW230699   1.540   0.930   4.215
 9934SOL     OW30700   6.025   1.815   6.808
 9934SOL    HW130701   6.100   1.853   6.862
 9934SOL    HW230702   5.963   1.888   6.780
 9935SOL     OW30703   2.364   0.839   0.440
 9935SOL    HW130704   2.420   0.858   0.521
 9935SOL    HW230705   2.413   0.775   0.381
 9936SOL     OW30706   0.006   5.286   6.817
 9936SOL    HW130707   6.998   5.192   6.805
 9936SOL    HW230708   6.980   5.332   6.888
 9937SOL     OW30709   1.223   0.788   3.372
 9937SOL    HW130710   1.193   0.752   3.460
 9937SOL    HW230711   1.268   0.876   3.385
 9938SOL     OW30712   5.484   0.455   3.956
 9938SOL    HW130713   5.475   0.426   4.051
 9938SOL    HW230714   5.564   0.514   3.946
 9939SOL     OW30715   2.228   3.059   1.151
 9939SOL    HW130716   2.222   3.023   1.244
 9939SOL    HW230717   2.271   2.991   1.091
 9940SOL     OW30718   0.853   0.645   4.163
 9940SOL    HW130719   0.820   0.609   4.076
 9940SOL    HW230720   0.808   0.731   4.183
 9941SOL     OW30721   3.126   5.749   5.776
 9941SOL    HW130722   3.085   5.840   5.788
 9941SOL    HW230723   3.205   5.741   5.837
 9942SOL     OW30724   4.624   5.314   1.932
 9942SOL    HW130725   4.667   5.395   1.971
 9942SOL    HW230726   4.552   5.281   1.994
 9943SOL     OW30727   1.275   4.037   6.560
 9943SOL    HW130728   1.246   4.083   6.476
 9943SOL    HW230729   1.339   3.963   6.538
 9944SOL     OW30730   6.873   5.647   6.605
 9944SOL    HW130731   6.851   5.726   6.548
 9944SOL    HW230732   6.821   5.651   6.690
 9945SOL     OW30733   5.393   3.924   6.668
 9945SOL    HW130734   5.420   3.887   6.580
 9945SOL    HW230735   5.459   3.897   6.738
 9946SOL     OW30736   6.007   0.300   3.179
 9946SOL    HW130737   5.937   0.281   3.111
 9946SOL    HW230738   5.971   0.278   3.270
 9947SOL     OW30739   2.200   1.392   3.852
 9947SOL    HW130740   2.142   1.327   3.803
 9947SOL    HW230741   2.283   1.409   3.799
 9948SOL     OW30742   6.695   5.593   5.502
 9948SOL    HW130743   6.664   5.633   5.588
 9948SOL    HW230744   6.775   5.535   5.520
 9949SOL     OW30745   6.929   5.009   4.229
 9949SOL    HW130746   7.023   5.026   4.198
 9949SOL    HW230747   6.928   4.929   4.289
 9950SOL     OW30748   6.909   5.760   5.877
 9950SOL    HW130749   6.903   5.689   5.946
 9950SOL    HW230750   6.999   5.758   5.833
 9951SOL     OW30751   1.904   2.144   2.485
 9951SOL    HW130752   1.846   2.195   2.422
 9951SOL    HW230753   1.850   2.073   2.529
 9952SOL     OW30754   1.701   4.105   0.802
 9952SOL    HW130755   1.759   4.178   0.768
 9952SOL    HW230756   1.696   4.032   0.734
 9953SOL     OW30757   5.552   2.721   3.891
 9953SOL    HW130758   5.531   2.663   3.812
 9953SOL    HW230759   5.563   2.816   3.860
 9954SOL     OW30760   1.342   0.219   5.030
 9954SOL    HW130761   1.262   0.181   4.984
 9954SOL    HW230762   1.413   0.240   4.962
 9955SOL     OW30763   4.295   4.030   6.582
 9955SOL    HW130764   4.261   3.956   6.525
 9955SOL    HW230765   4.220   4.069   6.634
 9956SOL     OW30766   0.783   3.743   2.471
 9956SOL    HW130767   0.710   3.729   2.538
 9956SOL    HW230768   0.744   3.775   2.384
 9957SOL     OW30769   5.591   6.996   2.267
 9957SOL    HW130770   5.575   6.925   2.336
 9957SOL    HW230771   5.602   6.953   2.177
 9958SOL     OW30772   3.173   6.204   5.913
 9958SOL    HW130773   3.247   6.142   5.887
 9958SOL    HW230774   3.097   6.152   5.952
 9959SOL     OW30775   4.134   3.589   2.508
 9959SOL    HW130776   4.085   3.581   2.594
 9959SOL    HW230777   4.119   3.680   2.469
 9960SOL     OW30778   0.694   6.522   1.397
 9960SOL    HW130779   0.682   6.477   1.486
 9960SOL    HW230780   0.685   6.621   1.408
 9961SOL     OW30781   2.544   4.474   2.849
 9961SOL    HW130782   2.556   4.554   2.909
 9961SOL    HW230783   2.632   4.447   2.811
 9962SOL     OW30784   3.664   0.693   2.210
 9962SOL    HW130785   3.674   0.629   2.134
 9962SOL    HW230786   3.575   0.739   2.204
 9963SOL     OW30787   2.631   3.353   6.370
 9963SOL    HW130788   2.650   3.353   6.272
 9963SOL    HW230789   2.532   3.345   6.385
 9964SOL     OW30790   3.951   4.728   6.080
 9964SOL    HW130791   3.954   4.628   6.078
 9964SOL    HW230792   4.045   4.763   6.077
 9965SOL     OW30793   3.306   5.043   4.833
 9965SOL    HW130794   3.317   5.133   4.875
 9965SOL    HW230795   3.387   5.022   4.777
 9966SOL     OW30796   2.357   5.000   1.656
 9966SOL    HW130797   2.447   5.019   1.617
 9966SOL    HW230798   2.326   4.910   1.626
 9967SOL     OW30799   6.306   5.040   2.703
 9967SOL    HW130800   6.294   5.139   2.703
 9967SOL    HW230801   6.249   5.000   2.631
 9968SOL     OW30802   4.198   5.763   6.325
 9968SOL    HW130803   4.296   5.768   6.311
 9968SOL    HW230804   4.159   5.855   6.324
 9969SOL     OW30805   1.723   2.642   4.494
 9969SOL    HW130806   1.751   2.548   4.508
 9969SOL    HW230807   1.804   2.701   4.487
 9970SOL     OW30808   6.840   4.596   1.609
 9970SOL    HW130809   6.814   4.666   1.543
 9970SOL    HW230810   6.883   4.639   1.688
 9971SOL     OW30811   2.551   3.893   1.004
 9971SOL    HW130812   2.576   3.822   1.070
 9971SOL    HW230813   2.607   3.882   0.921
 9972SOL     OW30814   3.039   4.627   0.689
 9972SOL    HW130815   3.054   4.724   0.707
 9972SOL    HW230816   3.004   4.615   0.596
 9973SOL     OW30817   3.943   2.129   4.692
 9973SOL    HW130818   3.900   2.081   4.768
 9973SOL    HW230819   3.888   2.117   4.610
 9974SOL     OW30820   6.748   3.177   2.826
 9974SOL    HW130821   6.694   3.187   2.910
 9974SOL    HW230822   6.764   3.267   2.786
 9975SOL     OW30823   0.281   4.614   6.615
 9975SOL    HW130824   0.318   4.535   6.665
 9975SOL    HW230825   0.291   4.598   6.517
 9976SOL     OW30826   0.404   4.973   5.234
 9976SOL    HW130827   0.306   4.979   5.215
 9976SOL    HW230828   0.418   4.920   5.318
 9977SOL     OW30829   6.433   5.285   6.055
 9977SOL    HW130830   6.483   5.216   6.106
 9977SOL    HW230831   6.489   5.367   6.045
 9978SOL     OW30832   6.321   1.571   5.516
 9978SOL    HW130833   6.282   1.629   5.587
 9978SOL    HW230834   6.260   1.493   5.499
 9979SOL     OW30835   6.610   4.213   6.177
 9979SOL    HW130836   6.569   4.284   6.121
 9979SOL    HW230837   6.680   4.164   6.124
 9980SOL     OW30838   1.784   0.315   0.627
 9980SOL    HW130839   1.833   0.262   0.696
 9980SOL    HW230840   1.708   0.261   0.590
 9981SOL     OW30841   3.162   2.079   0.428
 9981SOL    HW130842   3.253   2.081   0.388
 9981SOL    HW230843   3.158   2.008   0.498
 9982SOL     OW30844   0.901   1.578   3.929
 9982SOL    HW130845   0.952   1.500   3.963
 9982SOL    HW230846   0.887   1.645   4.003
 9983SOL     OW30847   0.671   1.019   1.869
 9983SOL    HW130848   0.768   0.999   1.852
 9983SOL    HW230849   0.625   1.032   1.781
 9984SOL     OW30850   0.510   6.878   0.403
 9984SOL    HW130851   0.529   6.784   0.431
 9984SOL    HW230852   0.535   6.890   0.307
 9985SOL     OW30853   3.146   6.732   1.131
 9985SOL    HW130854   3.196   6.713   1.215
 9985SOL    HW230855   3.053   6.698   1.139
 9986SOL     OW30856   5.770   4.552   0.170
 9986SOL    HW130857   5.692   4.571   0.109
 9986SOL    HW230858   5.818   4.638   0.190
 9987SOL     OW30859   6.516   2.213   3.102
 9987SOL    HW130860   6.494   2.274   3.026
 9987SOL    HW230861   6.465   2.127   3.092
 9988SOL     OW30862   6.983   5.327   4.625
 9988SOL    HW130863   6.976   5.426   4.640
 9988SOL    HW230864   0.050   5.304   4.600
 9989SOL     OW30865   5.933   3.938   2.695
 9989SOL    HW130866   6.024   3.972   2.720
 9989SOL    HW230867   5.940   3.886   2.609
 9990SOL     OW30868   2.306   6.858   3.752
 9990SOL    HW130869   2.336   6.848   3.657
 9990SOL    HW230870   2.349   6.787   3.808
 9991SOL     OW30871   1.809   3.089   4.255
 9991SOL    HW130872   1.815   3.155   4.330
 9991SOL    HW230873   1.757   3.128   4.179
 9992SOL     OW30874   4.373   3.816   0.584
 9992SOL    HW130875   4.340   3.725   0.611
 9992SOL    HW230876   4.473   3.819   0.594
 9993SOL     OW30877   3.619   6.463   2.890
 9993SOL    HW130878   3.659   6.445   2.980
 9993SOL    HW230879   3.676   6.529   2.841
 9994SOL     OW30880   6.891   4.098   2.992
 9994SOL    HW130881   6.894   4.048   3.078
 9994SOL    HW230882   6.888   4.033   2.916
 9995SOL     OW30883   3.275   6.939   3.894
 9995SOL    HW130884   3.220   6.948   3.977
 9995SOL    HW230885   3.277   6.843   3.865
 9996SOL     OW30886   2.800   2.993   1.381
 9996SOL    HW130887   2.828   3.066   1.319
 9996SOL    HW230888   2.866   2.918   1.376
 9997SOL     OW30889   5.053   1.257   1.411
 9997SOL    HW130890   4.962   1.281   1.445
 9997SOL    HW230891   5.075   1.163   1.437
 9998SOL     OW30892   5.474   3.921   2.424
 9998SOL    HW130893   5.402   3.943   2.357
 9998SOL    HW230894   5.450   3.961   2.512
 9999SOL     OW30895   0.199   5.789   5.206
 9999SOL    HW130896   0.224   5.700   5.244
 9999SOL    HW230897   0.221   5.791   5.108
10000SOL     OW30898   5.785   2.045   6.474
10000SOL    HW130899   5.848   2.042   6.551
10000SOL    HW230900   5.757   1.952   6.449
10001SOL     OW30901   3.877   0.607   1.557
10001SOL    HW130902   3.810   0.660   1.506
10001SOL    HW230903   3.868   0.510   1.533
10002SOL     OW30904   1.208   0.966   1.699
10002SOL    HW130905   1.288   1.017   1.731
10002SOL    HW230906   1.202   0.880   1.749
10003SOL     OW30907   2.855   2.171   2.379
10003SOL    HW130908   2.767   2.198   2.339
10003SOL    HW230909   2.924   2.166   2.307
10004SOL     OW30910   5.487   3.303   5.418
10004SOL    HW130911   5.505   3.368   5.343
10004SOL    HW230912   5.455   3.216   5.380
10005SOL     OW30913   3.543   6.125   2.703
10005SOL    HW130914   3.547   6.153   2.799
10005SOL    HW230915   3.635   6.127   2.663
10006SOL     OW30916   5.914   0.610   5.798
10006SOL    HW130917   5.920   0.626   5.699
10006SOL    HW230918   5.995   0.648   5.843
10007SOL     OW30919   0.886   3.133   4.107
10007SOL    HW130920   0.940   3.051   4.085
10007SOL    HW230921   0.855   3.127   4.202
10008SOL     OW30922   4.060   1.165   3.394
10008SOL    HW130923   4.046   1.094   3.463
10008SOL    HW230924   4.010   1.247   3.421
10009SOL     OW30925   2.023   4.284   1.606
10009SOL    HW130926   1.991   4.214   1.670
10009SOL    HW230927   2.099   4.247   1.552
10010SOL     OW30928   2.163   5.714   0.283
10010SOL    HW130929   2.120   5.624   0.277
10010SOL    HW230930   2.263   5.704   0.282
10011SOL     OW30931   0.722   3.603   6.354
10011SOL    HW130932   0.669   3.664   6.413
10011SOL    HW230933   0.712   3.509   6.387
10012SOL     OW30934   5.519   6.590   2.051
10012SOL    HW130935   5.496   6.600   2.148
10012SOL    HW230936   5.581   6.513   2.039
10013SOL     OW30937   2.061   1.502   4.064
10013SOL    HW130938   2.091   1.471   3.974
10013SOL    HW230939   2.115   1.581   4.092
10014SOL     OW30940   0.548   1.861   1.532
10014SOL    HW130941   0.539   1.841   1.435
10014SOL    HW230942   0.458   1.864   1.575
10015SOL     OW30943   4.324   4.911   6.730
10015SOL    HW130944   4.417   4.939   6.753
10015SOL    HW230945   4.289   4.851   6.802
10016SOL     OW30946   1.315   0.287   4.693
10016SOL    HW130947   1.414   0.275   4.696
10016SOL    HW230948   1.294   0.384   4.681
10017SOL     OW30949   1.862   1.527   2.653
10017SOL    HW130950   1.779   1.543   2.600
10017SOL    HW230951   1.931   1.594   2.627
10018SOL     OW30952   6.687   4.555   6.198
10018SOL    HW130953   6.731   4.466   6.188
10018SOL    HW230954   6.607   4.546   6.257
10019SOL     OW30955   0.621   2.087   3.155
10019SOL    HW130956   0.549   2.143   3.196
10019SOL    HW230957   0.665   2.032   3.225
10020SOL     OW30958   0.112   0.876   1.466
10020SOL    HW130959   0.206   0.877   1.430
10020SOL    HW230960   0.115   0.869   1.566
10021SOL     OW30961   0.826   1.971   2.821
10021SOL    HW130962   0.839   1.905   2.748
10021SOL    HW230963   0.742   1.948   2.872
10022SOL     OW30964   4.205   6.866   0.996
10022SOL    HW130965   4.231   6.963   0.996
10022SOL    HW230966   4.223   6.827   1.086
10023SOL     OW30967   2.341   4.874   4.854
10023SOL    HW130968   2.293   4.958   4.829
10023SOL    HW230969   2.388   4.888   4.941
10024SOL     OW30970   1.551   6.400   1.829
10024SOL    HW130971   1.527   6.307   1.799
10024SOL    HW230972   1.473   6.441   1.877
10025SOL     OW30973   2.250   2.456   1.769
10025SOL    HW130974   2.272   2.467   1.866
10025SOL    HW230975   2.187   2.379   1.757
10026SOL     OW30976   4.868   6.841   2.864
10026SOL    HW130977   4.859   6.917   2.929
10026SOL    HW230978   4.911   6.763   2.909
10027SOL     OW30979   1.057   3.517   4.845
10027SOL    HW130980   1.064   3.534   4.746
10027SOL    HW230981   1.023   3.425   4.861
10028SOL     OW30982   1.005   1.433   1.902
10028SOL    HW130983   0.946   1.379   1.963
10028SOL    HW230984   1.008   1.391   1.812
10029SOL     OW30985   2.271   1.678   3.769
10029SOL    HW130986   2.175   1.670   3.743
10029SOL    HW230987   2.327   1.622   3.707
10030SOL     OW30988   2.851   0.479   4.344
10030SOL    HW130989   2.826   0.433   4.429
10030SOL    HW230990   2.777   0.539   4.315
10031SOL     OW30991   5.713   4.772   4.074
10031SOL    HW130992   5.752   4.774   4.165
10031SOL    HW230993   5.613   4.769   4.080
10032SOL     OW30994   3.625   0.641   5.145
10032SOL    HW130995   3.647   0.612   5.238
10032SOL    HW230996   3.571   0.725   5.148
10033SOL     OW30997   4.555   2.540   4.138
10033SOL    HW130998   4.542   2.466   4.073
10033SOL    HW230999   4.510   2.518   4.224
10034SOL     OW31000   3.459   0.307   4.074
10034SOL    HW131001   3.467   0.244   3.997
10034SOL    HW231002   3.495   0.263   4.157
10035SOL     OW31003   0.131   4.707   1.974
10035SOL    HW131004   0.228   4.719   1.950
10035SOL    HW231005   0.114   4.751   2.063
10036SOL     OW31006   5.995   0.855   1.306
10036SOL    HW131007   5.997   0.817   1.398
10036SOL    HW231008   6.058   0.932   1.299
10037SOL     OW31009   6.206   1.583   0.316
10037SOL    HW131010   6.280   1.520   0.295
10037SOL    HW231011   6.130   1.568   0.251
10038SOL     OW31012   4.346   1.028   6.715
10038SOL    HW131013   4.306   1.118   6.695
10038SOL    HW231014   4.273   0.964   6.738
10039SOL     OW31015   3.998   0.083   5.267
10039SOL    HW131016   3.958   0.041   5.349
10039SOL    HW231017   3.951   0.049   5.186
10040SOL     OW31018   4.325   6.072   6.154
10040SOL    HW131019   4.266   6.013   6.098
10040SOL    HW231020   4.392   6.117   6.096
10041SOL     OW31021   4.485   5.750   6.886
10041SOL    HW131022   4.434   5.737   6.801
10041SOL    HW231023   4.425   5.789   6.955
10042SOL     OW31024   1.358   1.893   5.394
10042SOL    HW131025   1.412   1.817   5.357
10042SOL    HW231026   1.393   1.917   5.484
10043SOL     OW31027   0.343   2.334   4.426
10043SOL    HW131028   0.341   2.236   4.447
10043SOL    HW231029   0.252   2.363   4.394
10044SOL     OW31030   2.993   1.737   4.833
10044SOL    HW131031   2.971   1.645   4.865
10044SOL    HW231032   2.978   1.803   4.906
10045SOL     OW31033   5.090   7.015   3.625
10045SOL    HW131034   5.036   6.957   3.563
10045SOL    HW231035   5.170   0.024   3.576
10046SOL     OW31036   2.132   3.431   1.295
10046SOL    HW131037   2.130   3.437   1.196
10046SOL    HW231038   2.070   3.500   1.334
10047SOL     OW31039   6.037   3.514   5.124
10047SOL    HW131040   6.027   3.584   5.194
10047SOL    HW231041   6.134   3.494   5.110
10048SOL     OW31042   6.258   0.883   2.346
10048SOL    HW131043   6.357   0.897   2.356
10048SOL    HW231044   6.211   0.920   2.426
10049SOL     OW31045   0.202   6.878   6.913
10049SOL    HW131046   0.154   6.790   6.909
10049SOL    HW231047   0.215   6.905   7.008
10050SOL     OW31048   5.827   2.957   3.977
10050SOL    HW131049   5.885   2.887   4.018
10050SOL    HW231050   5.824   2.944   3.878
10051SOL     OW31051   5.389   2.409   4.987
10051SOL    HW131052   5.453   2.486   4.980
10051SOL    HW231053   5.326   2.412   4.909
10052SOL     OW31054   2.426   2.075   2.914
10052SOL    HW131055   2.441   2.112   3.006
10052SOL    HW231056   2.495   2.004   2.896
10053SOL     OW31057   3.424   5.871   2.510
10053SOL    HW131058   3.503   5.932   2.509
10053SOL    HW231059   3.346   5.916   2.467
10054SOL     OW31060   5.287   5.320   6.569
10054SOL    HW131061   5.352   5.246   6.551
10054SOL    HW231062   5.230   5.296   6.647
10055SOL     OW31063   6.045   2.401   4.799
10055SOL    HW131064   6.107   2.408   4.721
10055SOL    HW231065   5.967   2.463   4.787
10056SOL     OW31066   5.578   4.112   3.164
10056SOL    HW131067   5.513   4.178   3.200
10056SOL    HW231068   5.642   4.085   3.236
10057SOL     OW31069   4.169   1.598   4.813
10057SOL    HW131070   4.191   1.685   4.857
10057SOL    HW231071   4.145   1.614   4.717
10058SOL     OW31072   0.462   3.776   4.283
10058SOL    HW131073   0.468   3.696   4.223
10058SOL    HW231074   0.439   3.857   4.229
10059SOL     OW31075   5.548   0.357   1.464
10059SOL    HW131076   5.480   0.416   1.508
10059SOL    HW231077   5.639   0.398   1.473
10060SOL     OW31078   1.469   1.871   1.315
10060SOL    HW131079   1.522   1.846   1.397
10060SOL    HW231080   1.529   1.918   1.250
10061SOL     OW31081   4.480   1.653   3.814
10061SOL    HW131082   4.550   1.719   3.787
10061SOL    HW231083   4.448   1.674   3.906
10062SOL     OW31084   5.866   0.373   4.056
10062SOL    HW131085   5.771   0.358   4.086
10062SOL    HW231086   5.882   0.323   3.971
10063SOL     OW31087   2.025   0.259   3.799
10063SOL    HW131088   2.048   0.321   3.724
10063SOL    HW231089   2.080   0.281   3.879
10064SOL     OW31090   5.090   6.715   6.841
10064SOL    HW131091   5.004   6.667   6.826
10064SOL    HW231092   5.072   6.804   6.883
10065SOL     OW31093   2.162   0.370   1.904
10065SOL    HW131094   2.100   0.307   1.856
10065SOL    HW231095   2.202   0.434   1.839
10066SOL     OW31096   0.681   2.471   3.893
10066SOL    HW131097   0.756   2.413   3.922
10066SOL    HW231098   0.650   2.526   3.971
10067SOL     OW31099   6.674   4.291   5.101
10067SOL    HW131100   6.736   4.255   5.032
10067SOL    HW231101   6.726   4.339   5.171
10068SOL     OW31102   0.265   3.318   3.094
10068SOL    HW131103   0.325   3.319   3.175
10068SOL    HW231104   0.321   3.308   3.012
10069SOL     OW31105   2.287   5.108   2.499
10069SOL    HW131106   2.211   5.099   2.435
10069SOL    HW231107   2.252   5.105   2.593
10070SOL     OW31108   6.463   6.545   4.887
10070SOL    HW131109   6.488   6.495   4.804
10070SOL    HW231110   6.527   6.621   4.900
10071SOL     OW31111   6.143   5.919   4.658
10071SOL    HW131112   6.217   5.964   4.610
10071SOL    HW231113   6.137   5.823   4.630
10072SOL     OW31114   6.824   6.395   3.766
10072SOL    HW131115   6.847   6.299   3.783
10072SOL    HW231116   6.725   6.407   3.774
10073SOL     OW31117   6.228   4.494   5.304
10073SOL    HW131118   6.297   4.440   5.255
10073SOL    HW231119   6.146   4.438   5.317
10074SOL     OW31120   1.861   0.603   5.445
10074SOL    HW131121   1.923   0.680   5.460
10074SOL    HW231122   1.767   0.636   5.437
10075SOL     OW31123   1.967   2.498   3.047
10075SOL    HW131124   2.040   2.438   3.015
10075SOL    HW231125   1.914   2.531   2.969
10076SOL     OW31126   0.000   0.298   4.325
10076SOL    HW131127   0.028   0.249   4.242
10076SOL    HW231128   7.022   0.234   4.402
10077SOL     OW31129   4.086   2.686   6.146
10077SOL    HW131130   4.164   2.743   6.169
10077SOL    HW231131   4.020   2.688   6.221
10078SOL     OW31132   0.649   6.020   3.477
10078SOL    HW131133   0.590   5.944   3.503
10078SOL    HW231134   0.653   6.027   3.377
10079SOL     OW31135   6.166   4.141   3.607
10079SOL    HW131136   6.242   4.092   3.563
10079SOL    HW231137   6.141   4.095   3.692
10080SOL     OW31138   4.232   0.893   5.612
10080SOL    HW131139   4.303   0.825   5.595
10080SOL    HW231140   4.173   0.861   5.687
10081SOL     OW31141   6.864   0.326   1.237
10081SOL    HW131142   6.801   0.253   1.262
10081SOL    HW231143   6.886   0.380   1.319
10082SOL     OW31144   0.648   5.463   1.867
10082SOL    HW131145   0.701   5.407   1.931
10082SOL    HW231146   0.610   5.404   1.795
10083SOL     OW31147   4.040   0.960   3.577
10083SOL    HW131148   4.139   0.949   3.574
10083SOL    HW231149   3.999   0.877   3.615
10084SOL     OW31150   1.882   1.015   5.480
10084SOL    HW131151   1.855   1.111   5.486
10084SOL    HW231152   1.812   0.958   5.523
10085SOL     OW31153   2.555   5.990   0.996
10085SOL    HW131154   2.552   5.910   1.056
10085SOL    HW231155   2.465   6.035   0.996
10086SOL     OW31156   4.221   6.012   2.076
10086SOL    HW131157   4.239   5.913   2.074
10086SOL    HW231158   4.151   6.035   2.008
10087SOL     OW31159   6.811   6.788   4.072
10087SOL    HW131160   6.789   6.833   3.986
10087SOL    HW231161   6.822   6.690   4.056
10088SOL     OW31162   6.496   0.114   1.685
10088SOL    HW131163   6.458   0.177   1.618
10088SOL    HW231164   6.483   0.020   1.653
10089SOL     OW31165   2.969   1.813   2.721
10089SOL    HW131166   3.024   1.768   2.651
10089SOL    HW231167   2.905   1.876   2.677
10090SOL     OW31168   1.221   4.622   1.789
10090SOL    HW131169   1.264   4.698   1.838
10090SOL    HW231170   1.124   4.617   1.814
10091SOL     OW31171   0.534   3.999   6.532
10091SOL    HW131172   0.504   3.989   6.437
10091SOL    HW231173   0.455   4.022   6.589
10092SOL     OW31174   2.414   2.259   5.698
10092SOL    HW131175   2.503   2.214   5.687
10092SOL    HW231176   2.342   2.199   5.663
10093SOL     OW31177   6.152   3.268   4.809
10093SOL    HW131178   6.157   3.366   4.828
10093SOL    HW231179   6.095   3.252   4.729
10094SOL     OW31180   3.726   5.664   1.290
10094SOL    HW131181   3.777   5.705   1.215
10094SOL    HW231182   3.661   5.597   1.254
10095SOL     OW31183   5.868   2.216   5.476
10095SOL    HW131184   5.949   2.183   5.527
10095SOL    HW231185   5.808   2.265   5.538
10096SOL     OW31186   4.478   5.415   3.066
10096SOL    HW131187   4.386   5.394   3.034
10096SOL    HW231188   4.539   5.339   3.044
10097SOL     OW31189   0.891   1.119   0.129
10097SOL    HW131190   0.922   1.188   0.195
10097SOL    HW231191   0.858   1.164   0.046
10098SOL     OW31192   2.540   6.775   5.237
10098SOL    HW131193   2.503   6.856   5.192
10098SOL    HW231194   2.475   6.742   5.305
10099SOL     OW31195   0.454   5.077   1.254
10099SOL    HW131196   0.545   5.117   1.241
10099SOL    HW231197   0.436   5.010   1.182
10100SOL     OW31198   4.842   6.286   4.975
10100SOL    HW131199   4.932   6.330   4.978
10100SOL    HW231200   4.790   6.323   4.897
10101SOL     OW31201   6.088   3.867   2.050
10101SOL    HW131202   6.107   3.945   2.109
10101SOL    HW231203   5.989   3.850   2.049
10102SOL     OW31204   0.589   1.339   2.374
10102SOL    HW131205   0.648   1.417   2.392
10102SOL    HW231206   0.502   1.371   2.337
10103SOL     OW31207   2.589   0.507   5.817
10103SOL    HW131208   2.546   0.425   5.856
10103SOL    HW231209   2.565   0.514   5.720
10104SOL     OW31210   2.090   1.699   4.405
10104SOL    HW131211   2.039   1.699   4.491
10104SOL    HW231212   2.125   1.607   4.388
10105SOL     OW31213   1.769   0.921   6.792
10105SOL    HW131214   1.828   0.910   6.873
10105SOL    HW231215   1.746   0.831   6.756
10106SOL     OW31216   3.661   6.203   0.062
10106SOL    HW131217   3.672   6.268   0.137
10106SOL    HW231218   3.579   6.225   0.010
10107SOL     OW31219   6.082   1.414   5.600
10107SOL    HW131220   6.025   1.335   5.622
10107SOL    HW231221   6.109   1.460   5.684
10108SOL     OW31222   6.357   0.529   0.027
10108SOL    HW131223   6.395   0.525   0.119
10108SOL    HW231224   6.396   0.606   7.003
10109SOL     OW31225   5.779   0.993   0.640
10109SOL    HW131226   5.685   0.958   0.635
10109SOL    HW231227   5.835   0.950   0.570
10110SOL     OW31228   3.997   4.910   4.712
10110SOL    HW131229   4.033   4.952   4.796
10110SOL    HW231230   4.030   4.816   4.705
10111SOL     OW31231   5.734   3.929   3.616
10111SOL    HW131232   5.687   3.848   3.579
10111SOL    HW231233   5.775   3.906   3.705
10112SOL     OW31234   5.772   4.058   3.373
10112SOL    HW131235   5.857   4.109   3.388
10112SOL    HW231236   5.760   3.992   3.447
10113SOL     OW31237   4.048   0.180   6.921
10113SOL    HW131238   3.993   0.159   6.840
10113SOL    HW231239   4.135   0.221   6.893
10114SOL     OW31240   4.312   1.942   1.602
10114SOL    HW131241   4.266   1.993   1.675
10114SOL    HW231242   4.400   1.986   1.582
10115SOL     OW31243   3.563   0.363   5.104
10115SOL    HW131244   3.468   0.361   5.075
10115SOL    HW231245   3.585   0.453   5.141
10116SOL     OW31246   0.323   6.822   0.140
10116SOL    HW131247   0.418   6.840   0.113
10116SOL    HW231248   0.298   6.730   0.113
10117SOL     OW31249   0.067   6.324   6.381
10117SOL    HW131250   0.027   6.252   6.324
10117SOL    HW231251   0.068   6.410   6.329
10118SOL     OW31252   2.477   4.559   2.579
10118SOL    HW131253   2.493   4.536   2.675
10118SOL    HW231254   2.419   4.489   2.538
10119SOL     OW31255   0.190   5.958   4.918
10119SOL    HW131256   0.113   6.019   4.899
10119SOL    HW231257   0.270   5.987   4.864
10120SOL     OW31258   2.124   3.342   4.370
10120SOL    HW131259   2.141   3.357   4.467
10120SOL    HW231260   2.147   3.248   4.346
10121SOL     OW31261   5.932   3.345   0.141
10121SOL    HW131262   5.879   3.372   0.221
10121SOL    HW231263   6.029   3.345   0.165
10122SOL     OW31264   5.665   3.152   2.404
10122SOL    HW131265   5.705   3.066   2.371
10122SOL    HW231266   5.670   3.154   2.503
10123SOL     OW31267   5.174   5.743   0.612
10123SOL    HW131268   5.265   5.767   0.579
10123SOL    HW231269   5.178   5.656   0.661
10124SOL     OW31270   1.381   4.530   0.685
10124SOL    HW131271   1.470   4.493   0.712
10124SOL    HW231272   1.330   4.558   0.767
10125SOL     OW31273   1.555   1.315   2.121
10125SOL    HW131274   1.488   1.337   2.192
10125SOL    HW231275   1.531   1.228   2.077
10126SOL     OW31276   6.860   6.984   6.892
10126SOL    HW131277   6.794   6.989   6.967
10126SOL    HW231278   6.929   0.029   6.903
10127SOL     OW31279   3.026   4.140   6.251
10127SOL    HW131280   2.974   4.058   6.274
10127SOL    HW231281   3.075   4.125   6.165
10128SOL     OW31282   3.104   1.015   6.909
10128SOL    HW131283   3.155   0.934   6.939
10128SOL    HW231284   3.007   1.004   6.932
10129SOL     OW31285   6.198   1.408   2.529
10129SOL    HW131286   6.267   1.468   2.490
10129SOL    HW231287   6.239   1.351   2.601
10130SOL     OW31288   1.240   2.243   1.139
10130SOL    HW131289   1.283   2.158   1.110
10130SOL    HW231290   1.203   2.233   1.231
10131SOL     OW31291   1.448   6.502   4.788
10131SOL    HW131292   1.460   6.415   4.836
10131SOL    HW231293   1.490   6.575   4.842
10132SOL     OW31294   3.322   0.530   4.074
10132SOL    HW131295   3.231   0.504   4.107
10132SOL    HW231296   3.376   0.448   4.057
10133SOL     OW31297   4.020   6.487   0.219
10133SOL    HW131298   3.961   6.562   0.191
10133SOL    HW231299   3.988   6.402   0.177
10134SOL     OW31300   6.520   6.914   2.268
10134SOL    HW131301   6.533   6.926   2.366
10134SOL    HW231302   6.605   6.882   2.227
10135SOL     OW31303   4.925   3.250   3.404
10135SOL    HW131304   4.899   3.167   3.354
10135SOL    HW231305   4.961   3.318   3.341
10136SOL     OW31306   4.972   1.469   2.261
10136SOL    HW131307   5.050   1.438   2.315
10136SOL    HW231308   5.001   1.487   2.167
10137SOL     OW31309   0.227   3.569   4.360
10137SOL    HW131310   0.300   3.593   4.295
10137SOL    HW231311   0.142   3.553   4.310
10138SOL     OW31312   5.737   3.732   0.588
10138SOL    HW131313   5.708   3.707   0.495
10138SOL    HW231314   5.823   3.686   0.609
10139SOL     OW31315   2.955   3.249   3.260
10139SOL    HW131316   2.929   3.331   3.311
10139SOL    HW231317   2.980   3.274   3.166
10140SOL     OW31318   6.927   6.067   0.065
10140SOL    HW131319   6.974   6.137   0.012
10140SOL    HW231320   6.890   6.107   0.149
10141SOL     OW31321   4.119   1.065   6.053
10141SOL    HW131322   4.156   0.979   6.088
10141SOL    HW231323   4.052   1.047   5.981
10142SOL     OW31324   6.823   0.213   5.810
10142SOL    HW131325   6.824   0.146   5.885
10142SOL    HW231326   6.767   0.177   5.735
10143SOL     OW31327   5.297   1.267   0.548
10143SOL    HW131328   5.264   1.341   0.489
10143SOL    HW231329   5.325   1.304   0.636
10144SOL     OW31330   3.718   0.659   6.111
10144SOL    HW131331   3.715   0.587   6.181
10144SOL    HW231332   3.657   0.734   6.138
10145SOL     OW31333   3.138   5.541   3.651
10145SOL    HW131334   3.060   5.497   3.607
10145SOL    HW231335   3.139   5.518   3.748
10146SOL     OW31336   4.736   4.177   4.877
10146SOL    HW131337   4.679   4.184   4.796
10146SOL    HW231338   4.787   4.091   4.875
10147SOL     OW31339   5.287   4.002   6.205
10147SOL    HW131340   5.361   4.032   6.266
10147SOL    HW231341   5.208   3.975   6.260
10148SOL     OW31342   5.043   4.574   6.398
10148SOL    HW131343   5.011   4.541   6.309
10148SOL    HW231344   4.971   4.561   6.466
10149SOL     OW31345   5.820   3.655   1.830
10149SOL    HW131346   5.831   3.712   1.911
10149SOL    HW231347   5.724   3.656   1.802
10150SOL     OW31348   3.603   3.188   1.057
10150SOL    HW131349   3.575   3.238   1.139
10150SOL    HW231350   3.555   3.226   0.978
10151SOL     OW31351   0.618   5.823   0.230
10151SOL    HW131352   0.689   5.756   0.211
10151SOL    HW231353   0.599   5.877   0.148
10152SOL     OW31354   6.793   6.277   4.270
10152SOL    HW131355   6.710   6.258   4.321
10152SOL    HW231356   6.819   6.198   4.215
10153SOL     OW31357   4.646   5.915   3.159
10153SOL    HW131358   4.728   5.862   3.138
10153SOL    HW231359   4.673   6.008   3.186
10154SOL     OW31360   4.173   6.127   4.758
10154SOL    HW131361   4.169   6.196   4.830
10154SOL    HW231362   4.211   6.169   4.675
10155SOL     OW31363   3.922   2.368   6.296
10155SOL    HW131364   3.897   2.416   6.380
10155SOL    HW231365   4.002   2.310   6.314
10156SOL     OW31366   4.928   0.581   2.259
10156SOL    HW131367   4.915   0.500   2.201
10156SOL    HW231368   5.009   0.631   2.228
10157SOL     OW31369   0.249   1.823   0.371
10157SOL    HW131370   0.320   1.785   0.311
10157SOL    HW231371   0.182   1.872   0.316
10158SOL     OW31372   6.253   5.815   0.819
10158SOL    HW131373   6.171   5.819   0.761
10158SOL    HW231374   6.278   5.908   0.846
10159SOL     OW31375   2.713   2.744   0.830
10159SOL    HW131376   2.715   2.803   0.911
10159SOL    HW231377   2.650   2.783   0.762
10160SOL     OW31378   1.497   2.714   2.092
10160SOL    HW131379   1.472   2.727   1.996
10160SOL    HW231380   1.593   2.688   2.098
10161SOL     OW31381   4.330   4.125   0.612
10161SOL    HW131382   4.385   4.068   0.551
10161SOL    HW231383   4.377   4.133   0.700
10162SOL     OW31384   3.893   4.534   0.641
10162SOL    HW131385   3.837   4.481   0.578
10162SOL    HW231386   3.959   4.589   0.589
10163SOL     OW31387   6.833   3.889   0.261
10163SOL    HW131388   6.771   3.967   0.265
10163SOL    HW231389   6.780   3.804   0.257
10164SOL     OW31390   5.901   3.663   4.081
10164SOL    HW131391   5.994   3.649   4.047
10164SOL    HW231392   5.895   3.636   4.177
10165SOL     OW31393   6.770   1.239   3.662
10165SOL    HW131394   6.844   1.278   3.717
10165SOL    HW231395   6.801   1.227   3.568
10166SOL     OW31396   3.631   1.818   2.164
10166SOL    HW131397   3.708   1.848   2.220
10166SOL    HW231398   3.609   1.889   2.096
10167SOL     OW31399   1.159   4.708   7.025
10167SOL    HW131400   1.126   4.620   0.032
10167SOL    HW231401   1.187   4.698   6.929
10168SOL     OW31402   6.258   2.589   6.136
10168SOL    HW131403   6.289   2.673   6.090
10168SOL    HW231404   6.287   2.510   6.082
10169SOL     OW31405   0.453   3.818   3.600
10169SOL    HW131406   0.528   3.754   3.581
10169SOL    HW231407   0.449   3.835   3.699
10170SOL     OW31408   6.274   5.472   5.675
10170SOL    HW131409   6.201   5.457   5.742
10170SOL    HW231410   6.316   5.385   5.651
10171SOL     OW31411   0.365   2.228   5.119
10171SOL    HW131412   0.444   2.205   5.175
10171SOL    HW231413   0.378   2.319   5.078
10172SOL     OW31414   1.048   5.636   5.170
10172SOL    HW131415   0.995   5.576   5.110
10172SOL    HW231416   1.113   5.689   5.116
10173SOL     OW31417   2.369   2.472   0.501
10173SOL    HW131418   2.323   2.477   0.589
10173SOL    HW231419   2.400   2.378   0.484
10174SOL     OW31420   5.077   4.977   3.365
10174SOL    HW131421   5.000   4.920   3.338
10174SOL    HW231422   5.051   5.074   3.360
10175SOL     OW31423   5.405   2.559   3.027
10175SOL    HW131424   5.318   2.545   2.979
10175SOL    HW231425   5.388   2.609   3.112
10176SOL     OW31426   0.585   3.273   5.080
10176SOL    HW131427   0.648   3.342   5.116
10176SOL    HW231428   0.548   3.218   5.155
10177SOL     OW31429   1.957   1.101   1.285
10177SOL    HW131430   1.933   1.137   1.194
10177SOL    HW231431   1.873   1.074   1.332
10178SOL     OW31432   6.584   0.533   0.199
10178SOL    HW131433   6.634   0.618   0.220
10178SOL    HW231434   6.622   0.492   0.116
10179SOL     OW31435   0.282   2.411   0.066
10179SOL    HW131436   0.226   2.407   0.148
10179SOL    HW231437   0.247   2.482   0.005
10180SOL     OW31438   4.207   0.834   6.153
10180SOL    HW131439   4.248   0.745   6.133
10180SOL    HW231440   4.190   0.842   6.252
10181SOL     OW31441   6.479   3.196   1.488
10181SOL    HW131442   6.523   3.155   1.408
10181SOL    HW231443   6.422   3.273   1.458
10182SOL     OW31444   4.377   0.909   1.496
10182SOL    HW131445   4.279   0.888   1.493
10182SOL    HW231446   4.390   1.001   1.533
10183SOL     OW31447   6.714   2.731   6.191
10183SOL    HW131448   6.810   2.753   6.174
10183SOL    HW231449   6.659   2.814   6.184
10184SOL     OW31450   4.094   1.638   6.301
10184SOL    HW131451   4.194   1.635   6.297
10184SOL    HW231452   4.060   1.559   6.351
10185SOL     OW31453   5.947   6.162   3.271
10185SOL    HW131454   5.884   6.158   3.348
10185SOL    HW231455   5.933   6.247   3.221
10186SOL     OW31456   5.041   4.265   4.101
10186SOL    HW131457   4.987   4.195   4.054
10186SOL    HW231458   5.133   4.230   4.119
10187SOL     OW31459   1.470   3.831   6.533
10187SOL    HW131460   1.450   3.800   6.440
10187SOL    HW231461   1.494   3.752   6.589
10188SOL     OW31462   3.768   4.078   0.349
10188SOL    HW131463   3.738   4.051   0.257
10188SOL    HW231464   3.814   4.167   0.344
10189SOL     OW31465   0.196   0.770   0.078
10189SOL    HW131466   0.234   0.769   0.171
10189SOL    HW231467   0.253   0.827   0.019
10190SOL     OW31468   3.903   3.019   1.364
10190SOL    HW131469   3.873   2.925   1.354
10190SOL    HW231470   3.876   3.071   1.282
10191SOL     OW31471   4.662   5.738   6.586
10191SOL    HW131472   4.562   5.731   6.583
10191SOL    HW231473   4.692   5.817   6.533
10192SOL     OW31474   4.115   1.536   5.531
10192SOL    HW131475   4.081   1.611   5.475
10192SOL    HW231476   4.066   1.534   5.618
10193SOL     OW31477   3.815   3.016   2.009
10193SOL    HW131478   3.726   2.990   2.046
10193SOL    HW231479   3.887   2.973   2.062
10194SOL     OW31480   4.540   0.003   5.732
10194SOL    HW131481   4.595   0.050   5.663
10194SOL    HW231482   4.445   7.025   5.702
10195SOL     OW31483   6.843   6.135   0.678
10195SOL    HW131484   6.933   6.129   0.634
10195SOL    HW231485   6.852   6.184   0.764
10196SOL     OW31486   3.729   2.042   3.834
10196SOL    HW131487   3.692   1.982   3.764
10196SOL    HW231488   3.657   2.101   3.870
10197SOL     OW31489   5.676   1.803   4.672
10197SOL    HW131490   5.667   1.791   4.771
10197SOL    HW231491   5.764   1.766   4.643
10198SOL     OW31492   2.978   6.709   2.366
10198SOL    HW131493   3.059   6.746   2.410
10198SOL    HW231494   2.896   6.744   2.411
10199SOL     OW31495   1.271   2.791   0.833
10199SOL    HW131496   1.260   2.736   0.750
10199SOL    HW231497   1.315   2.737   0.904
10200SOL     OW31498   4.708   3.115   5.218
10200SOL    HW131499   4.620   3.097   5.261
10200SOL    HW231500   4.723   3.049   5.144
10201SOL     OW31501   1.560   5.551   0.177
10201SOL    HW131502   1.504   5.494   0.237
10201SOL    HW231503   1.651   5.561   0.216
10202SOL     OW31504   3.057   4.810   0.069
10202SOL    HW131505   3.044   4.907   0.088
10202SOL    HW231506   3.151   4.783   0.091
10203SOL     OW31507   6.869   3.233   1.955
10203SOL    HW131508   6.873   3.330   1.928
10203SOL    HW231509   6.846   3.227   2.052
10204SOL     OW31510   4.701   5.463   6.226
10204SOL    HW131511   4.747   5.433   6.310
10204SOL    HW231512   4.603   5.473   6.243
10205SOL     OW31513   2.376   1.139   2.336
10205SOL    HW131514   2.277   1.126   2.346
10205SOL    HW231515   2.416   1.161   2.425
10206SOL     OW31516   6.857   0.234   6.799
10206SOL    HW131517   6.955   0.215   6.807
10206SOL    HW231518   6.823   0.197   6.712
10207SOL     OW31519   1.108   1.727   0.022
10207SOL    HW131520   1.048   1.647   0.019
10207SOL    HW231521   1.132   1.755   6.956
10208SOL     OW31522   6.545   5.389   3.971
10208SOL    HW131523   6.507   5.374   3.879
10208SOL    HW231524   6.512   5.317   4.033
10209SOL     OW31525   0.113   6.639   6.854
10209SOL    HW131526   0.130   6.639   6.755
10209SOL    HW231527   0.059   6.559   6.878
10210SOL     OW31528   4.634   6.313   0.710
10210SOL    HW131529   4.707   6.278   0.651
10210SOL    HW231530   4.559   6.248   0.713
10211SOL     OW31531   4.711   6.326   4.720
10211SOL    HW131532   4.613   6.340   4.732
10211SOL    HW231533   4.733   6.229   4.731
10212SOL     OW31534   6.976   0.172   5.393
10212SOL    HW131535   6.923   0.094   5.427
10212SOL    HW231536   6.922   0.256   5.406
10213SOL     OW31537   5.146   3.249   1.867
10213SOL    HW131538   5.077   3.215   1.803
10213SOL    HW231539   5.141   3.197   1.952
10214SOL     OW31540   0.204   1.658   1.721
10214SOL    HW131541   0.260   1.741   1.714
10214SOL    HW231542   0.148   1.662   1.803
10215SOL     OW31543   3.808   3.042   3.845
10215SOL    HW131544   3.741   3.068   3.915
10215SOL    HW231545   3.761   3.009   3.764
10216SOL     OW31546   0.399   1.333   0.874
10216SOL    HW131547   0.320   1.310   0.818
10216SOL    HW231548   0.380   1.416   0.927
10217SOL     OW31549   2.051   2.100   3.794
10217SOL    HW131550   2.126   2.160   3.765
10217SOL    HW231551   1.986   2.152   3.849
10218SOL     OW31552   0.782   0.903   1.437
10218SOL    HW131553   0.852   0.833   1.434
10218SOL    HW231554   0.778   0.950   1.348
10219SOL     OW31555   0.055   2.085   2.789
10219SOL    HW131556   0.038   1.999   2.741
10219SOL    HW231557   0.150   2.088   2.820
10220SOL     OW31558   4.176   1.477   1.839
10220SOL    HW131559   4.137   1.390   1.810
10220SOL    HW231560   4.152   1.548   1.773
10221SOL     OW31561   1.758   3.824   4.814
10221SOL    HW131562   1.799   3.875   4.739
10221SOL    HW231563   1.825   3.814   4.888
10222SOL     OW31564   3.228   4.365   5.644
10222SOL    HW131565   3.246   4.275   5.604
10222SOL    HW231566   3.175   4.420   5.579
10223SOL     OW31567   2.769   5.278   0.448
10223SOL    HW131568   2.858   5.232   0.443
10223SOL    HW231569   2.723   5.270   0.359
10224SOL     OW31570   6.448   2.117   5.434
10224SOL    HW131571   6.473   2.126   5.337
10224SOL    HW231572   6.514   2.059   5.481
10225SOL     OW31573   1.767   6.021   5.847
10225SOL    HW131574   1.744   5.933   5.887
10225SOL    HW231575   1.867   6.033   5.847
10226SOL     OW31576   2.044   0.283   6.273
10226SOL    HW131577   2.045   0.184   6.266
10226SOL    HW231578   1.979   0.311   6.344
10227SOL     OW31579   4.994   4.363   0.101
10227SOL    HW131580   5.053   4.300   0.050
10227SOL    HW231581   5.050   4.424   0.156
10228SOL     OW31582   1.333   5.808   2.052
10228SOL    HW131583   1.343   5.907   2.037
10228SOL    HW231584   1.395   5.759   1.992
10229SOL     OW31585   1.983   2.128   4.212
10229SOL    HW131586   2.050   2.054   4.211
10229SOL    HW231587   1.891   2.090   4.222
10230SOL     OW31588   6.561   7.015   3.268
10230SOL    HW131589   6.629   7.013   3.342
10230SOL    HW231590   6.588   6.951   3.197
10231SOL     OW31591   6.360   4.935   5.323
10231SOL    HW131592   6.375   4.974   5.232
10231SOL    HW231593   6.344   5.009   5.389
10232SOL     OW31594   2.943   1.612   3.804
10232SOL    HW131595   2.921   1.580   3.896
10232SOL    HW231596   3.018   1.678   3.808
10233SOL     OW31597   4.321   4.072   5.627
10233SOL    HW131598   4.370   4.099   5.710
10233SOL    HW231599   4.362   3.988   5.590
10234SOL     OW31600   5.823   1.537   0.400
10234SOL    HW131601   5.882   1.560   0.322
10234SOL    HW231602   5.881   1.511   0.478
10235SOL     OW31603   3.226   1.972   1.043
10235SOL    HW131604   3.308   2.029   1.049
10235SOL    HW231605   3.248   1.880   1.076
10236SOL     OW31606   1.684   1.168   1.398
10236SOL    HW131607   1.591   1.182   1.363
10236SOL    HW231608   1.747   1.230   1.351
10237SOL     OW31609   0.136   3.873   6.396
10237SOL    HW131610   0.144   3.847   6.493
10237SOL    HW231611   0.042   3.859   6.366
10238SOL     OW31612   3.838   4.047   2.376
10238SOL    HW131613   3.794   4.107   2.444
10238SOL    HW231614   3.796   4.062   2.287
10239SOL     OW31615   1.926   3.751   5.820
10239SOL    HW131616   1.925   3.839   5.772
10239SOL    HW231617   2.009   3.701   5.796
10240SOL     OW31618   2.278   4.084   2.894
10240SOL    HW131619   2.186   4.123   2.884
10240SOL    HW231620   2.334   4.145   2.950
10241SOL     OW31621   6.997   6.225   3.517
10241SOL    HW131622   0.025   6.287   3.461
10241SOL    HW231623   6.940   6.168   3.459
10242SOL     OW31624   0.187   1.160   1.751
10242SOL    HW131625   0.160   1.106   1.671
10242SOL    HW231626   0.285   1.179   1.746
10243SOL     OW31627   2.412   4.965   2.269
10243SOL    HW131628   2.345   4.892   2.278
10243SOL    HW231629   2.429   5.006   2.359
10244SOL     OW31630   2.014   4.463   0.837
10244SOL    HW131631   1.948   4.539   0.838
10244SOL    HW231632   2.064   4.461   0.923
10245SOL     OW31633   3.731   4.803   0.485
10245SOL    HW131634   3.720   4.894   0.526
10245SOL    HW231635   3.826   4.790   0.457
10246SOL     OW31636   3.088   3.416   3.558
10246SOL    HW131637   3.149   3.339   3.580
10246SOL    HW231638   3.018   3.423   3.629
10247SOL     OW31639   0.049   3.755   6.031
10247SOL    HW131640   7.002   3.687   6.040
10247SOL    HW231641   0.089   3.772   6.121
10248SOL     OW31642   1.484   0.080   2.930
10248SOL    HW131643   1.544   0.002   2.945
10248SOL    HW231644   1.525   0.142   2.864
10249SOL     OW31645   2.365   6.654   6.592
10249SOL    HW131646   2.319   6.565   6.596
10249SOL    HW231647   2.297   6.727   6.598
10250SOL     OW31648   6.277   2.965   1.942
10250SOL    HW131649   6.297   3.026   2.019
10250SOL    HW231650   6.199   3.001   1.891
10251SOL     OW31651   2.365   1.427   4.399
10251SOL    HW131652   2.396   1.384   4.483
10251SOL    HW231653   2.316   1.360   4.343
10252SOL     OW31654   4.120   5.307   6.606
10252SOL    HW131655   4.118   5.238   6.533
10252SOL    HW231656   4.044   5.291   6.669
10253SOL     OW31657   3.195   6.950   0.465
10253SOL    HW131658   3.148   6.881   0.520
10253SOL    HW231659   3.177   0.014   0.503
10254SOL     OW31660   4.770   0.921   5.323
10254SOL    HW131661   4.751   0.985   5.249
10254SOL    HW231662   4.866   0.892   5.318
10255SOL     OW31663   2.047   6.308   0.609
10255SOL    HW131664   2.065   6.212   0.627
10255SOL    HW231665   2.060   6.361   0.693
10256SOL     OW31666   5.081   1.281   1.748
10256SOL    HW131667   5.065   1.197   1.696
10256SOL    HW231668   5.040   1.358   1.699
10257SOL     OW31669   1.981   4.964   4.454
10257SOL    HW131670   1.970   4.944   4.552
10257SOL    HW231671   2.061   5.023   4.441
10258SOL     OW31672   3.193   1.150   4.177
10258SOL    HW131673   3.277   1.168   4.227
10258SOL    HW231674   3.136   1.232   4.175
10259SOL     OW31675   0.549   5.046   3.495
10259SOL    HW131676   0.626   5.108   3.509
10259SOL    HW231677   0.475   5.095   3.448
10260SOL     OW31678   1.148   1.065   4.229
10260SOL    HW131679   1.064   1.021   4.259
10260SOL    HW231680   1.197   1.004   4.166
10261SOL     OW31681   6.938   5.122   2.993
10261SOL    HW131682   6.848   5.131   2.951
10261SOL    HW231683   6.929   5.122   3.092
10262SOL     OW31684   2.016   6.997   5.238
10262SOL    HW131685   2.064   6.941   5.171
10262SOL    HW231686   2.048   6.974   5.330
10263SOL     OW31687   5.368   0.656   6.880
10263SOL    HW131688   5.409   0.722   6.818
10263SOL    HW231689   5.417   0.569   6.873
10264SOL     OW31690   6.312   0.332   6.873
10264SOL    HW131691   6.310   0.412   6.933
10264SOL    HW231692   6.407   0.311   6.849
10265SOL     OW31693   2.124   2.904   1.358
10265SOL    HW131694   2.192   2.836   1.329
10265SOL    HW231695   2.140   2.927   1.454
10266SOL     OW31696   4.104   3.254   3.674
10266SOL    HW131697   4.061   3.343   3.667
10266SOL    HW231698   4.194   3.257   3.630
10267SOL     OW31699   5.577   2.566   6.578
10267SOL    HW131700   5.573   2.468   6.559
10267SOL    HW231701   5.484   2.603   6.586
10268SOL     OW31702   6.338   6.032   2.439
10268SOL    HW131703   6.261   5.972   2.460
10268SOL    HW231704   6.416   5.976   2.407
10269SOL     OW31705   0.460   3.233   6.936
10269SOL    HW131706   0.486   3.309   6.996
10269SOL    HW231707   0.536   3.168   6.929
10270SOL     OW31708   4.071   4.899   2.700
10270SOL    HW131709   4.114   4.843   2.629
10270SOL    HW231710   3.972   4.890   2.694
10271SOL     OW31711   3.260   2.541   5.608
10271SOL    HW131712   3.193   2.615   5.602
10271SOL    HW231713   3.334   2.558   5.544
10272SOL     OW31714   1.330   1.269   4.769
10272SOL    HW131715   1.317   1.307   4.677
10272SOL    HW231716   1.329   1.343   4.836
10273SOL     OW31717   3.039   5.991   2.736
10273SOL    HW131718   2.968   6.053   2.701
10273SOL    HW231719   3.116   5.989   2.671
10274SOL     OW31720   0.568   5.206   5.180
10274SOL    HW131721   0.648   5.146   5.187
10274SOL    HW231722   0.486   5.150   5.165
10275SOL     OW31723   0.393   6.516   1.632
10275SOL    HW131724   0.358   6.556   1.547
10275SOL    HW231725   0.346   6.558   1.710
10276SOL     OW31726   5.484   4.979   5.445
10276SOL    HW131727   5.447   5.071   5.459
10276SOL    HW231728   5.531   4.949   5.528
10277SOL     OW31729   1.325   5.346   3.557
10277SOL    HW131730   1.277   5.381   3.477
10277SOL    HW231731   1.374   5.262   3.532
10278SOL     OW31732   0.027   1.652   4.697
10278SOL    HW131733   6.958   1.659   4.726
10278SOL    HW231734   0.030   1.629   4.600
10279SOL     OW31735   2.717   5.505   4.016
10279SOL    HW131736   2.797   5.558   3.989
10279SOL    HW231737   2.634   5.559   3.999
10280SOL     OW31738   0.358   3.288   0.673
10280SOL    HW131739   0.367   3.368   0.614
10280SOL    HW231740   0.300   3.311   0.752
10281SOL     OW31741   5.928   1.800   2.218
10281SOL    HW131742   5.889   1.854   2.292
10281SOL    HW231743   6.002   1.743   2.253
10282SOL     OW31744   5.197   3.690   4.530
10282SOL    HW131745   5.235   3.721   4.442
10282SOL    HW231746   5.261   3.713   4.603
10283SOL     OW31747   1.202   2.984   0.538
10283SOL    HW131748   1.279   2.981   0.602
10283SOL    HW231749   1.116   2.977   0.588
10284SOL     OW31750   4.968   2.798   5.149
10284SOL    HW131751   5.067   2.805   5.144
10284SOL    HW231752   4.941   2.703   5.133
10285SOL     OW31753   5.800   0.060   2.456
10285SOL    HW131754   5.727   0.041   2.391
10285SOL    HW231755   5.861   0.130   2.419
10286SOL     OW31756   3.204   1.894   3.546
10286SOL    HW131757   3.298   1.905   3.513
10286SOL    HW231758   3.143   1.880   3.468
10287SOL     OW31759   1.873   0.034   1.333
10287SOL    HW131760   1.828   0.001   1.251
10287SOL    HW231761   1.887   0.133   1.326
10288SOL     OW31762   4.687   6.531   3.079
10288SOL    HW131763   4.667   6.622   3.115
10288SOL    HW231764   4.619   6.506   3.011
10289SOL     OW31765   2.020   6.724   0.606
10289SOL    HW131766   1.990   6.771   0.523
10289SOL    HW231767   1.942   6.708   0.666
10290SOL     OW31768   3.020   3.892   2.771
10290SOL    HW131769   3.028   3.986   2.738
10290SOL    HW231770   3.038   3.828   2.696
10291SOL     OW31771   4.203   1.166   3.155
10291SOL    HW131772   4.131   1.143   3.221
10291SOL    HW231773   4.201   1.100   3.080
10292SOL     OW31774   1.673   0.952   4.958
10292SOL    HW131775   1.628   1.033   4.920
10292SOL    HW231776   1.680   0.961   5.057
10293SOL     OW31777   2.335   4.351   2.966
10293SOL    HW131778   2.401   4.406   2.915
10293SOL    HW231779   2.243   4.385   2.947
10294SOL     OW31780   6.147   3.010   3.195
10294SOL    HW131781   6.075   2.975   3.135
10294SOL    HW231782   6.224   2.945   3.196
10295SOL     OW31783   6.306   4.510   5.991
10295SOL    HW131784   6.348   4.422   5.970
10295SOL    HW231785   6.289   4.517   6.089
10296SOL     OW31786   4.664   1.855   0.713
10296SOL    HW131787   4.619   1.817   0.794
10296SOL    HW231788   4.762   1.840   0.719
10297SOL     OW31789   1.989   6.919   6.455
10297SOL    HW131790   2.052   6.867   6.397
10297SOL    HW231791   1.900   6.927   6.410
10298SOL     OW31792   2.954   4.579   1.352
10298SOL    HW131793   2.932   4.662   1.403
10298SOL    HW231794   3.053   4.574   1.338
10299SOL     OW31795   5.371   4.915   3.298
10299SOL    HW131796   5.424   4.995   3.324
10299SOL    HW231797   5.339   4.926   3.204
10300SOL     OW31798   1.322   3.543   3.394
10300SOL    HW131799   1.282   3.485   3.464
10300SOL    HW231800   1.325   3.638   3.427
10301SOL     OW31801   5.079   2.826   4.654
10301SOL    HW131802   5.005   2.874   4.702
10301SOL    HW231803   5.045   2.792   4.567
10302SOL     OW31804   2.317   6.501   4.125
10302SOL    HW131805   2.220   6.479   4.121
10302SOL    HW231806   2.359   6.452   4.201
10303SOL     OW31807   1.952   6.281   2.721
10303SOL    HW131808   1.917   6.373   2.701
10303SOL    HW231809   1.882   6.229   2.771
10304SOL     OW31810   5.187   0.261   1.796
10304SOL    HW131811   5.193   0.267   1.895
10304SOL    HW231812   5.108   0.206   1.770
10305SOL     OW31813   0.969   4.475   6.510
10305SOL    HW131814   1.026   4.483   6.428
10305SOL    HW231815   1.010   4.408   6.573
10306SOL     OW31816   4.739   6.885   6.202
10306SOL    HW131817   4.684   6.805   6.178
10306SOL    HW231818   4.679   6.961   6.228
10307SOL     OW31819   2.813   2.244   5.813
10307SOL    HW131820   2.752   2.247   5.734
10307SOL    HW231821   2.762   2.211   5.893
10308SOL     OW31822   2.663   4.685   3.433
10308SOL    HW131823   2.571   4.670   3.397
10308SOL    HW231824   2.726   4.701   3.358
10309SOL     OW31825   6.657   1.838   5.192
10309SOL    HW131826   6.673   1.853   5.289
10309SOL    HW231827   6.711   1.759   5.161
10310SOL     OW31828   3.221   4.083   1.049
10310SOL    HW131829   3.275   4.053   1.128
10310SOL    HW231830   3.177   4.005   1.006
10311SOL     OW31831   7.017   6.278   0.421
10311SOL    HW131832   6.929   6.241   0.390
10311SOL    HW231833   7.004   6.372   0.453
10312SOL     OW31834   3.382   6.285   2.350
10312SOL    HW131835   3.301   6.344   2.349
10312SOL    HW231836   3.436   6.303   2.432
10313SOL     OW31837   4.984   6.493   1.705
10313SOL    HW131838   4.924   6.416   1.727
10313SOL    HW231839   5.076   6.475   1.739
10314SOL     OW31840   6.395   0.489   1.710
10314SOL    HW131841   6.333   0.487   1.788
10314SOL    HW231842   6.389   0.403   1.661
10315SOL     OW31843   5.147   6.418   5.197
10315SOL    HW131844   5.060   6.398   5.243
10315SOL    HW231845   5.156   6.357   5.118
10316SOL     OW31846   6.563   2.174   4.330
10316SOL    HW131847   6.569   2.081   4.294
10316SOL    HW231848   6.530   2.172   4.424
10317SOL     OW31849   4.031   5.336   4.648
10317SOL    HW131850   4.017   5.376   4.557
10317SOL    HW231851   4.109   5.381   4.692
10318SOL     OW31852   4.881   5.869   5.932
10318SOL    HW131853   4.903   5.913   6.019
10318SOL    HW231854   4.821   5.929   5.879
10319SOL     OW31855   1.466   2.196   5.411
10319SOL    HW131856   1.475   2.284   5.365
10319SOL    HW231857   1.540   2.136   5.383
10320SOL     OW31858   0.339   0.732   2.951
10320SOL    HW131859   0.343   0.739   3.050
10320SOL    HW231860   0.432   0.743   2.913
10321SOL     OW31861   3.777   1.111   2.344
10321SOL    HW131862   3.839   1.189   2.353
10321SOL    HW231863   3.830   1.027   2.334
10322SOL     OW31864   6.038   5.747   5.957
10322SOL    HW131865   6.063   5.838   5.925
10322SOL    HW231866   5.982   5.701   5.888
10323SOL     OW31867   6.175   3.183   5.733
10323SOL    HW131868   6.249   3.158   5.671
10323SOL    HW231869   6.096   3.124   5.717
10324SOL     OW31870   3.260   3.145   2.600
10324SOL    HW131871   3.335   3.090   2.637
10324SOL    HW231872   3.295   3.236   2.577
10325SOL     OW31873   0.374   3.877   2.620
10325SOL    HW131874   0.459   3.825   2.621
10325SOL    HW231875   0.392   3.971   2.591
10326SOL     OW31876   4.348   3.751   0.271
10326SOL    HW131877   4.414   3.757   0.346
10326SOL    HW231878   4.282   3.679   0.290
10327SOL     OW31879   2.673   2.250   1.553
10327SOL    HW131880   2.629   2.199   1.627
10327SOL    HW231881   2.675   2.347   1.577
10328SOL     OW31882   6.115   2.551   1.018
10328SOL    HW131883   6.043   2.483   1.030
10328SOL    HW231884   6.199   2.506   0.988
10329SOL     OW31885   3.449   0.135   3.877
10329SOL    HW131886   3.433   0.183   3.790
10329SOL    HW231887   3.410   0.044   3.872
10330SOL     OW31888   4.241   0.214   2.466
10330SOL    HW131889   4.255   0.310   2.442
10330SOL    HW231890   4.154   0.183   2.428
10331SOL     OW31891   6.788   1.664   4.777
10331SOL    HW131892   6.799   1.660   4.876
10331SOL    HW231893   6.709   1.720   4.754
10332SOL     OW31894   6.172   0.970   1.037
10332SOL    HW131895   6.120   1.041   1.084
10332SOL    HW231896   6.203   1.004   0.948
10333SOL     OW31897   6.241   4.258   4.684
10333SOL    HW131898   6.311   4.299   4.624
10333SOL    HW231899   6.151   4.293   4.659
10334SOL     OW31900   3.835   6.097   3.650
10334SOL    HW131901   3.824   5.998   3.662
10334SOL    HW231902   3.858   6.139   3.737
10335SOL     OW31903   3.007   4.373   6.398
10335SOL    HW131904   3.018   4.354   6.496
10335SOL    HW231905   3.029   4.291   6.346
10336SOL     OW31906   6.617   6.945   2.539
10336SOL    HW131907   6.583   0.012   2.534
10336SOL    HW231908   6.667   6.932   2.624
10337SOL     OW31909   0.303   0.023   5.743
10337SOL    HW131910   0.262   0.028   5.834
10337SOL    HW231911   0.234   0.049   5.675
10338SOL     OW31912   2.580   6.442   2.004
10338SOL    HW131913   2.606   6.491   1.921
10338SOL    HW231914   2.488   6.470   2.031
10339SOL     OW31915   3.221   5.657   0.434
10339SOL    HW131916   3.136   5.708   0.425
10339SOL    HW231917   3.249   5.656   0.530
10340SOL     OW31918   2.263   5.630   1.022
10340SOL    HW131919   2.187   5.588   0.972
10340SOL    HW231920   2.332   5.560   1.041
10341SOL     OW31921   1.817   3.522   1.896
10341SOL    HW131922   1.773   3.590   1.838
10341SOL    HW231923   1.888   3.475   1.844
10342SOL     OW31924   0.661   6.721   5.088
10342SOL    HW131925   0.746   6.754   5.049
10342SOL    HW231926   0.672   6.627   5.119
10343SOL     OW31927   2.988   5.574   0.172
10343SOL    HW131928   3.019   5.554   0.265
10343SOL    HW231929   3.014   5.666   0.147
10344SOL     OW31930   4.253   4.471   1.792
10344SOL    HW131931   4.298   4.389   1.827
10344SOL    HW231932   4.232   4.532   1.868
10345SOL     OW31933   1.855   1.342   6.698
10345SOL    HW131934   1.887   1.341   6.792
10345SOL    HW231935   1.881   1.428   6.655
10346SOL     OW31936   6.154   0.141   1.395
10346SOL    HW131937   6.156   0.066   1.461
10346SOL    HW231938   6.064   0.185   1.397
10347SOL     OW31939   5.012   2.330   2.270
10347SOL    HW131940   5.056   2.399   2.211
10347SOL    HW231941   5.039   2.239   2.240
10348SOL     OW31942   6.508   1.578   0.169
10348SOL    HW131943   6.450   1.497   0.166
10348SOL    HW231944   6.604   1.550   0.163
10349SOL     OW31945   6.889   1.457   1.539
10349SOL    HW131946   6.864   1.551   1.516
10349SOL    HW231947   6.936   1.455   1.627
10350SOL     OW31948   1.831   6.289   5.427
10350SOL    HW131949   1.890   6.309   5.505
10350SOL    HW231950   1.804   6.193   5.428
10351SOL     OW31951   4.975   4.955   6.209
10351SOL    HW131952   4.944   4.892   6.281
10351SOL    HW231953   4.951   5.048   6.234
10352SOL     OW31954   4.462   2.524   6.556
10352SOL    HW131955   4.392   2.475   6.608
10352SOL    HW231956   4.518   2.578   6.618
10353SOL     OW31957   6.890   2.642   5.653
10353SOL    HW131958   6.910   2.585   5.573
10353SOL    HW231959   6.796   2.674   5.649
10354SOL     OW31960   5.912   2.041   2.418
10354SOL    HW131961   5.854   2.000   2.488
10354SOL    HW231962   5.889   2.138   2.407
10355SOL     OW31963   2.278   0.729   2.152
10355SOL    HW131964   2.238   0.785   2.080
10355SOL    HW231965   2.206   0.695   2.212
10356SOL     OW31966   0.205   3.871   5.843
10356SOL    HW131967   0.140   3.823   5.903
10356SOL    HW231968   0.159   3.947   5.798
10357SOL     OW31969   3.121   2.805   6.699
10357SOL    HW131970   3.157   2.730   6.643
10357SOL    HW231971   3.191   2.875   6.710
10358SOL     OW31972   6.206   3.144   3.714
10358SOL    HW131973   6.215   3.122   3.617
10358SOL    HW231974   6.234   3.066   3.769
10359SOL     OW31975   6.869   1.653   1.785
10359SOL    HW131976   6.962   1.633   1.816
10359SOL    HW231977   6.831   1.727   1.840
10360SOL     OW31978   4.535   5.607   1.696
10360SOL    HW131979   4.472   5.530   1.704
10360SOL    HW231980   4.558   5.641   1.788
10361SOL     OW31981   2.512   0.797   2.845
10361SOL    HW131982   2.607   0.828   2.843
10361SOL    HW231983   2.457   0.857   2.787
10362SOL     OW31984   0.632   5.230   3.894
10362SOL    HW131985   0.687   5.162   3.846
10362SOL    HW231986   0.610   5.305   3.832
10363SOL     OW31987   4.581   2.639   0.936
10363SOL    HW131988   4.493   2.658   0.979
10363SOL    HW231989   4.566   2.602   0.844
10364SOL     OW31990   3.633   3.759   2.277
10364SOL    HW131991   3.619   3.746   2.179
10364SOL    HW231992   3.602   3.851   2.304
10365SOL     OW31993   5.568   4.266   5.473
10365SOL    HW131994   5.583   4.246   5.570
10365SOL    HW231995   5.471   4.259   5.452
10366SOL     OW31996   4.115   0.111   4.068
10366SOL    HW131997   4.168   0.027   4.078
10366SOL    HW231998   4.139   0.154   3.980
10367SOL     OW31999   6.683   1.542   2.272
10367SOL    HW132000   6.742   1.618   2.300
10367SOL    HW232001   6.604   1.577   2.223
10368SOL     OW32002   2.351   0.835   2.403
10368SOL    HW132003   2.317   0.802   2.315
10368SOL    HW232004   2.449   0.853   2.396
10369SOL     OW32005   3.543   1.088   5.591
10369SOL    HW132006   3.619   1.027   5.568
10369SOL    HW232007   3.529   1.088   5.690
10370SOL     OW32008   5.404   1.037   5.387
10370SOL    HW132009   5.489   1.081   5.415
10370SOL    HW232010   5.332   1.057   5.453
10371SOL     OW32011   2.118   5.761   4.242
10371SOL    HW132012   2.073   5.832   4.187
10371SOL    HW232013   2.049   5.701   4.281
10372SOL     OW32014   1.747   0.764   0.710
10372SOL    HW132015   1.770   0.849   0.757
10372SOL    HW232016   1.831   0.712   0.692
10373SOL     OW32017   1.524   6.560   5.260
10373SOL    HW132018   1.441   6.522   5.220
10373SOL    HW232019   1.547   6.510   5.344
10374SOL     OW32020   3.227   1.203   3.424
10374SOL    HW132021   3.203   1.260   3.503
10374SOL    HW232022   3.317   1.163   3.438
10375SOL     OW32023   2.645   1.654   6.490
10375SOL    HW132024   2.743   1.635   6.492
10375SOL    HW232025   2.622   1.699   6.403
10376SOL     OW32026   0.952   5.639   3.693
10376SOL    HW132027   0.998   5.570   3.749
10376SOL    HW232028   0.856   5.616   3.683
10377SOL     OW32029   6.433   0.655   3.940
10377SOL    HW132030   6.454   0.753   3.944
10377SOL    HW232031   6.517   0.604   3.924
10378SOL     OW32032   5.967   0.127   5.116
10378SOL    HW132033   5.924   0.076   5.041
10378SOL    HW232034   5.912   0.208   5.136
10379SOL     OW32035   3.222   6.804   4.280
10379SOL    HW132036   3.158   6.731   4.304
10379SOL    HW232037   3.315   6.779   4.309
10380SOL     OW32038   0.552   2.184   4.646
10380SOL    HW132039   0.515   2.095   4.671
10380SOL    HW232040   0.537   2.201   4.549
10381SOL     OW32041   4.380   4.532   0.634
10381SOL    HW132042   4.445   4.511   0.707
10381SOL    HW232043   4.398   4.624   0.600
10382SOL     OW32044   2.340   4.986   0.868
10382SOL    HW132045   2.396   4.930   0.807
10382SOL    HW232046   2.253   4.941   0.885
10383SOL     OW32047   0.318   3.867   0.722
10383SOL    HW132048   0.263   3.912   0.792
10383SOL    HW232049   0.265   3.860   0.637
10384SOL     OW32050   6.679   0.468   1.492
10384SOL    HW132051   6.655   0.537   1.560
10384SOL    HW232052   6.763   0.496   1.445
10385SOL     OW32053   3.688   6.814   5.792
10385SOL    HW132054   3.652   6.766   5.872
10385SOL    HW232055   3.659   6.766   5.709
10386SOL     OW32056   6.233   1.819   5.328
10386SOL    HW132057   6.198   1.900   5.376
10386SOL    HW232058   6.222   1.739   5.387
10387SOL     OW32059   4.719   1.764   2.311
10387SOL    HW132060   4.794   1.829   2.324
10387SOL    HW232061   4.704   1.713   2.396
10388SOL     OW32062   2.233   5.770   2.277
10388SOL    HW132063   2.306   5.829   2.241
10388SOL    HW232064   2.157   5.769   2.213
10389SOL     OW32065   6.720   6.573   1.365
10389SOL    HW132066   6.705   6.669   1.342
10389SOL    HW232067   6.706   6.559   1.463
10390SOL     OW32068   1.856   2.311   1.298
10390SOL    HW132069   1.775   2.352   1.341
10390SOL    HW232070   1.876   2.359   1.213
10391SOL     OW32071   0.209   5.500   3.929
10391SOL    HW132072   0.242   5.566   3.861
10391SOL    HW232073   0.286   5.466   3.983
10392SOL     OW32074   6.810   3.918   6.171
10392SOL    HW132075   6.713   3.941   6.175
10392SOL    HW232076   6.833   3.856   6.247
10393SOL     OW32077   2.395   2.591   2.301
10393SOL    HW132078   2.312   2.536   2.310
10393SOL    HW232079   2.472   2.541   2.342
10394SOL     OW32080   2.437   6.157   4.637
10394SOL    HW132081   2.391   6.085   4.690
10394SOL    HW232082   2.531   6.129   4.618
10395SOL     OW32083   6.915   0.818   3.534
10395SOL    HW132084   6.941   0.914   3.534
10395SOL    HW232085   6.875   0.794   3.622
10396SOL     OW32086   2.577   0.496   3.682
10396SOL    HW132087   2.614   0.403   3.677
10396SOL    HW232088   2.521   0.504   3.764
10397SOL     OW32089   2.963   2.128   4.044
10397SOL    HW132090   2.897   2.202   4.056
10397SOL    HW232091   2.935   2.070   3.967
10398SOL     OW32092   5.027   2.049   0.494
10398SOL    HW132093   4.938   2.034   0.450
10398SOL    HW232094   5.056   2.143   0.478
10399SOL     OW32095   4.273   1.852   4.911
10399SOL    HW132096   4.370   1.869   4.925
10399SOL    HW232097   4.237   1.918   4.845
10400SOL     OW32098   4.137   5.571   0.823
10400SOL    HW132099   4.157   5.669   0.814
10400SOL    HW232100   4.100   5.554   0.915
10401SOL     OW32101   0.275   0.516   2.566
10401SOL    HW132102   0.337   0.482   2.637
10401SOL    HW232103   0.287   0.614   2.556
10402SOL     OW32104   0.211   2.261   5.907
10402SOL    HW132105   0.247   2.196   5.840
10402SOL    HW232106   0.117   2.285   5.883
10403SOL     OW32107   4.466   1.136   3.063
10403SOL    HW132108   4.411   1.209   3.104
10403SOL    HW232109   4.459   1.054   3.119
10404SOL     OW32110   6.960   0.027   4.440
10404SOL    HW132111   0.012   7.005   4.402
10404SOL    HW232112   6.876   7.003   4.421
10405SOL     OW32113   1.441   5.572   5.053
10405SOL    HW132114   1.413   5.668   5.045
10405SOL    HW232115   1.387   5.516   4.991
10406SOL     OW32116   2.295   3.211   5.485
10406SOL    HW132117   2.353   3.129   5.489
10406SOL    HW232118   2.333   3.282   5.543
10407SOL     OW32119   2.291   0.665   6.619
10407SOL    HW132120   2.223   0.733   6.645
10407SOL    HW232121   2.350   0.702   6.547
10408SOL     OW32122   3.775   6.575   1.997
10408SOL    HW132123   3.772   6.482   2.035
10408SOL    HW232124   3.865   6.590   1.956
10409SOL     OW32125   1.046   3.975   0.543
10409SOL    HW132126   0.988   3.910   0.494
10409SOL    HW232127   1.132   3.987   0.495
10410SOL     OW32128   5.465   2.303   1.320
10410SOL    HW132129   5.421   2.259   1.241
10410SOL    HW232130   5.541   2.360   1.288
10411SOL     OW32131   3.958   6.013   4.495
10411SOL    HW132132   4.010   5.931   4.470
10411SOL    HW232133   3.906   5.995   4.578
10412SOL     OW32134   6.705   1.035   0.606
10412SOL    HW132135   6.790   0.998   0.643
10412SOL    HW232136   6.629   0.973   0.629
10413SOL     OW32137   6.852   1.737   1.490
10413SOL    HW132138   6.860   1.744   1.590
10413SOL    HW232139   6.935   1.772   1.448
10414SOL     OW32140   4.006   6.036   5.978
10414SOL    HW132141   3.993   6.005   5.884
10414SOL    HW232142   4.012   6.136   5.979
10415SOL     OW32143   2.264   4.124   3.764
10415SOL    HW132144   2.310   4.212   3.774
10415SOL    HW232145   2.219   4.099   3.849
10416SOL     OW32146   6.220   0.489   4.958
10416SOL    HW132147   6.294   0.434   4.997
10416SOL    HW232148   6.161   0.430   4.904
10417SOL     OW32149   4.571   5.359   4.313
10417SOL    HW132150   4.578   5.440   4.255
10417SOL    HW232151   4.548   5.279   4.257
10418SOL     OW32152   5.996   4.025   5.877
10418SOL    HW132153   6.023   4.028   5.974
10418SOL    HW232154   5.982   4.119   5.844
10419SOL     OW32155   2.865   0.039   5.293
10419SOL    HW132156   2.788   0.045   5.230
10419SOL    HW232157   2.923   0.120   5.283
10420SOL     OW32158   6.782   3.825   3.960
10420SOL    HW132159   6.778   3.738   3.910
10420SOL    HW232160   6.877   3.846   3.981
10421SOL     OW32161   1.574   3.281   5.020
10421SOL    HW132162   1.488   3.332   5.021
10421SOL    HW232163   1.641   3.330   4.963
10422SOL     OW32164   0.088   3.593   5.131
10422SOL    HW132165   0.012   3.531   5.112
10422SOL    HW232166   0.174   3.548   5.107
10423SOL     OW32167   4.854   4.659   5.130
10423SOL    HW132168   4.822   4.570   5.098
10423SOL    HW232169   4.953   4.666   5.116
10424SOL     OW32170   4.244   2.990   0.510
10424SOL    HW132171   4.256   3.056   0.584
10424SOL    HW232172   4.205   3.036   0.431
10425SOL     OW32173   0.833   5.585   2.704
10425SOL    HW132174   0.928   5.617   2.699
10425SOL    HW232175   0.831   5.490   2.735
10426SOL     OW32176   5.249   4.184   6.000
10426SOL    HW132177   5.264   4.114   6.071
10426SOL    HW232178   5.168   4.161   5.947
10427SOL     OW32179   5.184   0.390   0.131
10427SOL    HW132180   5.114   0.406   0.061
10427SOL    HW232181   5.140   0.361   0.216
10428SOL     OW32182   2.816   1.825   4.419
10428SOL    HW132183   2.880   1.870   4.357
10428SOL    HW232184   2.733   1.801   4.368
10429SOL     OW32185   0.970   4.115   2.872
10429SOL    HW132186   0.905   4.191   2.864
10429SOL    HW232187   1.037   4.120   2.798
10430SOL     OW32188   3.377   6.781   4.681
10430SOL    HW132189   3.334   6.824   4.601
10430SOL    HW232190   3.344   6.687   4.689
10431SOL     OW32191   2.772   0.127   4.473
10431SOL    HW132192   2.693   0.154   4.419
10431SOL    HW232193   2.742   0.074   4.553
10432SOL     OW32194   6.915   1.702   5.113
10432SOL    HW132195   6.908   1.607   5.141
10432SOL    HW232196   6.988   1.712   5.045
10433SOL     OW32197   0.130   6.606   2.587
10433SOL    HW132198   0.062   6.580   2.656
10433SOL    HW232199   0.180   6.687   2.618
10434SOL     OW32200   3.910   6.308   4.826
10434SOL    HW132201   3.813   6.289   4.809
10434SOL    HW232202   3.921   6.340   4.920
10435SOL     OW32203   2.052   2.057   6.400
10435SOL    HW132204   2.012   2.085   6.487
10435SOL    HW232205   2.151   2.070   6.403
10436SOL     OW32206   6.349   3.938   4.584
10436SOL    HW132207   6.269   3.972   4.634
10436SOL    HW232208   6.336   3.954   4.486
10437SOL     OW32209   6.324   4.966   5.041
10437SOL    HW132210   6.241   4.918   5.066
10437SOL    HW232211   6.301   5.047   4.987
10438SOL     OW32212   0.614   6.183   6.358
10438SOL    HW132213   0.515   6.169   6.350
10438SOL    HW232214   0.632   6.275   6.392
10439SOL     OW32215   5.384   1.232   4.915
10439SOL    HW132216   5.360   1.320   4.955
10439SOL    HW232217   5.456   1.244   4.847
10440SOL     OW32218   0.230   6.977   0.368
10440SOL    HW132219   0.321   6.941   0.386
10440SOL    HW232220   0.202   6.954   0.275
10441SOL     OW32221   2.705   1.822   1.501
10441SOL    HW132222   2.680   1.733   1.462
10441SOL    HW232223   2.805   1.830   1.503
10442SOL     OW32224   4.271   6.970   5.085
10442SOL    HW132225   4.341   6.931   5.025
10442SOL    HW232226   4.196   7.005   5.028
10443SOL     OW32227   5.931   2.687   2.855
10443SOL    HW132228   5.998   2.642   2.795
10443SOL    HW232229   5.907   2.776   2.817
10444SOL     OW32230   4.180   5.748   2.052
10444SOL    HW132231   4.235   5.665   2.043
10444SOL    HW232232   4.088   5.724   2.082
10445SOL     OW32233   0.593   3.496   3.106
10445SOL    HW132234   0.655   3.574   3.118
10445SOL    HW232235   0.644   3.411   3.116
10446SOL     OW32236   1.961   3.635   6.284
10446SOL    HW132237   1.881   3.678   6.325
10446SOL    HW232238   2.011   3.702   6.229
10447SOL     OW32239   0.012   0.752   2.866
10447SOL    HW132240   7.015   0.725   2.773
10447SOL    HW232241   0.104   0.791   2.867
10448SOL     OW32242   3.502   0.591   1.859
10448SOL    HW132243   3.585   0.557   1.902
10448SOL    HW232244   3.422   0.556   1.908
10449SOL     OW32245   1.994   5.364   6.412
10449SOL    HW132246   1.976   5.309   6.493
10449SOL    HW232247   1.993   5.306   6.330
10450SOL     OW32248   0.151   1.480   6.820
10450SOL    HW132249   0.164   1.567   6.773
10450SOL    HW232250   0.236   1.428   6.818
10451SOL     OW32251   2.694   6.754   2.994
10451SOL    HW132252   2.660   6.706   3.075
10451SOL    HW232253   2.740   6.839   3.023
10452SOL     OW32254   6.138   3.285   3.172
10452SOL    HW132255   6.096   3.194   3.177
10452SOL    HW232256   6.125   3.332   3.260
10453SOL     OW32257   5.269   6.280   1.601
10453SOL    HW132258   5.226   6.193   1.625
10453SOL    HW232259   5.363   6.264   1.571
10454SOL     OW32260   5.477   2.216   0.502
10454SOL    HW132261   5.436   2.186   0.589
10454SOL    HW232262   5.477   2.140   0.438
10455SOL     OW32263   0.057   6.506   3.718
10455SOL    HW132264   0.094   6.484   3.628
10455SOL    HW232265   7.009   6.443   3.741
10456SOL     OW32266   1.257   5.296   1.084
10456SOL    HW132267   1.166   5.276   1.122
10456SOL    HW232268   1.254   5.385   1.038
10457SOL     OW32269   4.529   3.184   0.544
10457SOL    HW132270   4.488   3.213   0.631
10457SOL    HW232271   4.576   3.097   0.557
10458SOL     OW32272   6.701   0.264   6.326
10458SOL    HW132273   6.785   0.230   6.369
10458SOL    HW232274   6.629   0.196   6.334
10459SOL     OW32275   4.511   5.674   1.418
10459SOL    HW132276   4.588   5.735   1.400
10459SOL    HW232277   4.497   5.666   1.516
10460SOL     OW32278   2.181   4.122   1.869
10460SOL    HW132279   2.130   4.196   1.825
10460SOL    HW232280   2.134   4.035   1.853
10461SOL     OW32281   6.161   4.769   5.145
10461SOL    HW132282   6.192   4.691   5.200
10461SOL    HW232283   6.095   4.823   5.198
10462SOL     OW32284   5.819   2.343   2.823
10462SOL    HW132285   5.757   2.290   2.766
10462SOL    HW232286   5.841   2.430   2.777
10463SOL     OW32287   3.908   2.468   6.049
10463SOL    HW132288   3.906   2.433   6.143
10463SOL    HW232289   3.983   2.534   6.040
10464SOL     OW32290   5.983   6.277   2.242
10464SOL    HW132291   6.041   6.286   2.324
10464SOL    HW232292   6.011   6.345   2.174
10465SOL     OW32293   5.686   5.675   1.163
10465SOL    HW132294   5.670   5.736   1.085
10465SOL    HW232295   5.624   5.699   1.237
10466SOL     OW32296   4.702   4.493   5.288
10466SOL    HW132297   4.768   4.428   5.251
10466SOL    HW232298   4.724   4.585   5.255
10467SOL     OW32299   1.955   1.901   0.452
10467SOL    HW132300   2.028   1.902   0.520
10467SOL    HW232301   1.877   1.848   0.487
10468SOL     OW32302   3.454   4.936   3.510
10468SOL    HW132303   3.549   4.920   3.483
10468SOL    HW232304   3.449   4.949   3.609
10469SOL     OW32305   4.017   4.470   5.789
10469SOL    HW132306   4.102   4.523   5.788
10469SOL    HW232307   4.025   4.397   5.856
10470SOL     OW32308   1.961   1.938   3.582
10470SOL    HW132309   1.996   1.983   3.500
10470SOL    HW232310   1.968   2.000   3.660
10471SOL     OW32311   2.397   0.160   0.637
10471SOL    HW132312   2.344   0.125   0.560
10471SOL    HW232313   2.373   0.256   0.653
10472SOL     OW32314   3.003   5.818   0.493
10472SOL    HW132315   2.980   5.828   0.590
10472SOL    HW232316   2.934   5.864   0.437
10473SOL     OW32317   6.296   7.004   6.066
10473SOL    HW132318   6.292   0.075   6.045
10473SOL    HW232319   6.387   6.981   6.100
10474SOL     OW32320   4.215   0.967   4.454
10474SOL    HW132321   4.266   0.991   4.371
10474SOL    HW232322   4.185   1.050   4.501
10475SOL     OW32323   4.005   6.676   1.643
10475SOL    HW132324   3.968   6.742   1.579
10475SOL    HW232325   4.014   6.587   1.598
10476SOL     OW32326   5.976   6.456   6.000
10476SOL    HW132327   5.925   6.459   6.086
10476SOL    HW232328   5.912   6.461   5.923
10477SOL     OW32329   6.688   1.316   4.698
10477SOL    HW132330   6.735   1.378   4.636
10477SOL    HW232331   6.629   1.369   4.760
10478SOL     OW32332   6.371   0.072   0.416
10478SOL    HW132333   6.363   7.018   0.476
10478SOL    HW232334   6.284   0.122   0.415
10479SOL     OW32335   6.908   1.675   2.551
10479SOL    HW132336   6.923   1.766   2.589
10479SOL    HW232337   6.903   1.608   2.626
10480SOL     OW32338   0.893   0.983   2.244
10480SOL    HW132339   0.938   0.915   2.303
10480SOL    HW232340   0.888   1.070   2.292
10481SOL     OW32341   1.949   6.298   3.852
10481SOL    HW132342   2.011   6.343   3.787
10481SOL    HW232343   1.988   6.302   3.943
10482SOL     OW32344   6.324   5.061   4.278
10482SOL    HW132345   6.333   5.067   4.377
10482SOL    HW232346   6.282   4.973   4.253
10483SOL     OW32347   5.961   5.225   0.744
10483SOL    HW132348   5.958   5.238   0.844
10483SOL    HW232349   6.036   5.164   0.720
10484SOL     OW32350   5.594   1.901   1.676
10484SOL    HW132351   5.517   1.955   1.708
10484SOL    HW232352   5.604   1.820   1.735
10485SOL     OW32353   3.371   4.306   0.617
10485SOL    HW132354   3.387   4.253   0.700
10485SOL    HW232355   3.444   4.374   0.606
10486SOL     OW32356   0.105   0.429   0.906
10486SOL    HW132357   0.011   0.426   0.939
10486SOL    HW232358   0.108   0.402   0.810
10487SOL     OW32359   4.992   0.662   1.419
10487SOL    HW132360   4.944   0.616   1.344
10487SOL    HW232361   4.933   0.664   1.500
10488SOL     OW32362   3.437   1.177   5.863
10488SOL    HW132363   3.357   1.126   5.832
10488SOL    HW232364   3.413   1.274   5.869
10489SOL     OW32365   0.886   6.821   5.301
10489SOL    HW132366   0.983   6.823   5.323
10489SOL    HW232367   0.871   6.764   5.220
10490SOL     OW32368   5.770   1.816   0.728
10490SOL    HW132369   5.748   1.842   0.634
10490SOL    HW232370   5.803   1.896   0.778
10491SOL     OW32371   1.883   2.528   0.136
10491SOL    HW132372   1.806   2.479   0.178
10491SOL    HW232373   1.946   2.462   0.096
10492SOL     OW32374   5.783   4.552   5.769
10492SOL    HW132375   5.882   4.551   5.787
10492SOL    HW232376   5.739   4.483   5.826
10493SOL     OW32377   3.163   0.736   2.100
10493SOL    HW132378   3.200   0.813   2.047
10493SOL    HW232379   3.082   0.766   2.150
10494SOL     OW32380   5.553   3.870   5.853
10494SOL    HW132381   5.521   3.775   5.858
10494SOL    HW232382   5.615   3.888   5.930
10495SOL     OW32383   1.889   6.742   0.102
10495SOL    HW132384   1.918   6.658   0.055
10495SOL    HW232385   1.967   6.804   0.110
10496SOL     OW32386   0.322   3.726   6.211
10496SOL    HW132387   0.256   3.655   6.235
10496SOL    HW232388   0.305   3.807   6.268
10497SOL     OW32389   1.764   0.269   2.086
10497SOL    HW132390   1.847   0.276   2.030
10497SOL    HW232391   1.733   0.174   2.086
10498SOL     OW32392   3.358   5.369   1.053
10498SOL    HW132393   3.361   5.324   0.964
10498SOL    HW232394   3.326   5.304   1.122
10499SOL     OW32395   3.539   6.981   2.587
10499SOL    HW132396   3.560   0.042   2.544
10499SOL    HW232397   3.441   6.976   2.607
10500SOL     OW32398   6.404   1.654   6.552
10500SOL    HW132399   6.380   1.579   6.491
10500SOL    HW232400   6.497   1.685   6.532
10501SOL     OW32401   2.172   5.781   2.541
10501SOL    HW132402   2.196   5.765   2.445
10501SOL    HW232403   2.119   5.703   2.575
10502SOL     OW32404   2.308   0.479   1.053
10502SOL    HW132405   2.316   0.497   1.151
10502SOL    HW232406   2.325   0.382   1.036
10503SOL     OW32407   4.403   2.796   0.531
10503SOL    HW132408   4.353   2.882   0.520
10503SOL    HW232409   4.351   2.722   0.487
10504SOL     OW32410   1.688   1.876   6.036
10504SOL    HW132411   1.589   1.872   6.043
10504SOL    HW232412   1.730   1.827   6.112
10505SOL     OW32413   5.380   5.376   0.523
10505SOL    HW132414   5.363   5.336   0.613
10505SOL    HW232415   5.410   5.305   0.459
10506SOL     OW32416   0.396   4.760   0.370
10506SOL    HW132417   0.453   4.681   0.349
10506SOL    HW232418   0.453   4.841   0.380
10507SOL     OW32419   2.022   0.567   0.108
10507SOL    HW132420   2.094   0.500   0.123
10507SOL    HW232421   1.943   0.522   0.066
10508SOL     OW32422   6.025   6.701   4.762
10508SOL    HW132423   6.027   6.612   4.718
10508SOL    HW232424   5.986   6.692   4.854
10509SOL     OW32425   0.811   5.405   4.018
10509SOL    HW132426   0.764   5.322   3.988
10509SOL    HW232427   0.806   5.412   4.118
10510SOL     OW32428   4.467   6.226   6.014
10510SOL    HW132429   4.410   6.307   5.998
10510SOL    HW232430   4.552   6.253   6.058
10511SOL     OW32431   3.873   0.874   2.157
10511SOL    HW132432   3.841   0.897   2.065
10511SOL    HW232433   3.808   0.812   2.200
10512SOL     OW32434   4.227   0.352   6.112
10512SOL    HW132435   4.128   0.335   6.105
10512SOL    HW232436   4.272   0.323   6.027
10513SOL     OW32437   6.307   2.799   4.840
10513SOL    HW132438   6.219   2.773   4.879
10513SOL    HW232439   6.379   2.743   4.881
10514SOL     OW32440   0.337   4.153   0.532
10514SOL    HW132441   0.291   4.070   0.500
10514SOL    HW232442   0.316   4.167   0.629
10515SOL     OW32443   1.047   2.963   2.881
10515SOL    HW132444   1.055   3.062   2.892
10515SOL    HW232445   1.033   2.942   2.784
10516SOL     OW32446   4.080   1.060   0.588
10516SOL    HW132447   4.053   0.964   0.586
10516SOL    HW232448   4.143   1.076   0.664
10517SOL     OW32449   0.926   2.457   2.585
10517SOL    HW132450   0.855   2.518   2.550
10517SOL    HW232451   1.001   2.512   2.624
10518SOL     OW32452   0.996   5.478   6.700
10518SOL    HW132453   0.954   5.438   6.782
10518SOL    HW232454   0.946   5.561   6.674
10519SOL     OW32455   2.177   3.069   6.895
10519SOL    HW132456   2.184   3.149   6.835
10519SOL    HW232457   2.082   3.042   6.904
10520SOL     OW32458   0.837   2.625   6.648
10520SOL    HW132459   0.831   2.525   6.648
10520SOL    HW232460   0.825   2.658   6.554
10521SOL     OW32461   6.296   6.701   2.329
10521SOL    HW132462   6.355   6.750   2.265
10521SOL    HW232463   6.307   6.603   2.314
10522SOL     OW32464   0.269   0.366   5.726
10522SOL    HW132465   0.297   0.311   5.647
10522SOL    HW232466   0.201   0.316   5.779
10523SOL     OW32467   0.215   4.907   3.650
10523SOL    HW132468   0.179   4.835   3.590
10523SOL    HW232469   0.287   4.957   3.602
10524SOL     OW32470   1.536   0.511   4.961
10524SOL    HW132471   1.441   0.533   4.940
10524SOL    HW232472   1.596   0.576   4.915
10525SOL     OW32473   3.532   6.638   6.667
10525SOL    HW132474   3.561   6.679   6.753
10525SOL    HW232475   3.609   6.589   6.625
10526SOL     OW32476   1.274   6.620   4.104
10526SOL    HW132477   1.276   6.658   4.197
10526SOL    HW232478   1.179   6.610   4.075
10527SOL     OW32479   0.014   2.005   4.945
10527SOL    HW132480   0.080   2.075   4.918
10527SOL    HW232481   6.951   2.028   4.906
10528SOL     OW32482   1.737   3.489   6.231
10528SOL    HW132483   1.730   3.537   6.318
10528SOL    HW232484   1.830   3.498   6.195
10529SOL     OW32485   2.752   5.819   4.056
10529SOL    HW132486   2.831   5.828   3.994
10529SOL    HW232487   2.672   5.861   4.014
10530SOL     OW32488   2.348   0.352   6.369
10530SOL    HW132489   2.273   0.319   6.310
10530SOL    HW232490   2.386   0.275   6.419
10531SOL     OW32491   1.645   2.837   4.024
10531SOL    HW132492   1.679   2.793   4.107
10531SOL    HW232493   1.597   2.922   4.049
10532SOL     OW32494   0.949   5.504   5.550
10532SOL    HW132495   1.033   5.530   5.502
10532SOL    HW232496   0.881   5.475   5.483
10533SOL     OW32497   2.730   1.324   5.198
10533SOL    HW132498   2.704   1.398   5.259
10533SOL    HW232499   2.830   1.317   5.194
10534SOL     OW32500   6.805   5.975   1.324
10534SOL    HW132501   6.824   6.065   1.284
10534SOL    HW232502   6.800   5.984   1.423
10535SOL     OW32503   0.739   2.070   1.248
10535SOL    HW132504   0.812   2.002   1.247
10535SOL    HW232505   0.708   2.085   1.342
10536SOL     OW32506   3.870   0.454   3.134
10536SOL    HW132507   3.797   0.384   3.133
10536SOL    HW232508   3.941   0.429   3.068
10537SOL     OW32509   3.747   5.575   3.992
10537SOL    HW132510   3.647   5.579   3.987
10537SOL    HW232511   3.774   5.518   4.070
10538SOL     OW32512   5.136   1.641   0.587
10538SOL    HW132513   5.235   1.642   0.604
10538SOL    HW232514   5.103   1.546   0.587
10539SOL     OW32515   1.294   4.123   0.455
10539SOL    HW132516   1.304   4.135   0.356
10539SOL    HW232517   1.381   4.143   0.500
10540SOL     OW32518   1.773   2.433   4.927
10540SOL    HW132519   1.715   2.453   4.848
10540SOL    HW232520   1.749   2.495   5.002
10541SOL     OW32521   3.384   4.066   2.263
10541SOL    HW132522   3.422   4.094   2.351
10541SOL    HW232523   3.315   3.995   2.277
10542SOL     OW32524   0.015   0.559   5.438
10542SOL    HW132525   0.105   0.516   5.424
10542SOL    HW232526   0.014   0.604   5.527
10543SOL     OW32527   0.606   1.101   5.316
10543SOL    HW132528   0.651   1.104   5.405
10543SOL    HW232529   0.598   1.005   5.286
10544SOL     OW32530   2.269   6.716   2.279
10544SOL    HW132531   2.283   6.641   2.215
10544SOL    HW232532   2.192   6.695   2.339
10545SOL     OW32533   6.143   1.050   2.171
10545SOL    HW132534   6.188   0.987   2.234
10545SOL    HW232535   6.135   1.140   2.213
10546SOL     OW32536   2.090   0.941   0.117
10546SOL    HW132537   2.058   0.874   0.050
10546SOL    HW232538   2.186   0.962   0.099
10547SOL     OW32539   5.643   2.249   2.568
10547SOL    HW132540   5.721   2.279   2.513
10547SOL    HW232541   5.566   2.311   2.552
10548SOL     OW32542   5.368   4.659   4.781
10548SOL    HW132543   5.407   4.611   4.860
10548SOL    HW232544   5.298   4.601   4.739
10549SOL     OW32545   0.070   6.714   1.819
10549SOL    HW132546   0.007   6.734   1.894
10549SOL    HW232547   0.116   6.798   1.791
10550SOL     OW32548   4.009   5.825   3.870
10550SOL    HW132549   3.942   5.764   3.827
10550SOL    HW232550   4.093   5.774   3.890
10551SOL     OW32551   1.286   2.668   5.777
10551SOL    HW132552   1.362   2.693   5.838
10551SOL    HW232553   1.260   2.748   5.722
10552SOL     OW32554   3.290   1.404   6.805
10552SOL    HW132555   3.271   1.372   6.712
10552SOL    HW232556   3.282   1.503   6.808
10553SOL     OW32557   0.727   4.667   1.571
10553SOL    HW132558   0.794   4.729   1.529
10553SOL    HW232559   0.763   4.574   1.571
10554SOL     OW32560   5.740   4.820   0.316
10554SOL    HW132561   5.730   4.743   0.379
10554SOL    HW232562   5.649   4.854   0.290
10555SOL     OW32563   2.019   3.393   0.253
10555SOL    HW132564   2.003   3.305   0.209
10555SOL    HW232565   1.946   3.412   0.319
10556SOL     OW32566   2.146   1.701   5.585
10556SOL    HW132567   2.195   1.716   5.671
10556SOL    HW232568   2.203   1.730   5.509
10557SOL     OW32569   2.322   2.479   3.137
10557SOL    HW132570   2.307   2.578   3.135
10557SOL    HW232571   2.263   2.434   3.070
10558SOL     OW32572   3.579   1.598   3.921
10558SOL    HW132573   3.647   1.599   3.848
10558SOL    HW232574   3.544   1.504   3.933
10559SOL     OW32575   5.490   6.925   0.715
10559SOL    HW132576   5.419   6.925   0.786
10559SOL    HW232577   5.520   7.018   0.697
10560SOL     OW32578   3.537   6.170   2.991
10560SOL    HW132579   3.445   6.200   3.013
10560SOL    HW232580   3.603   6.217   3.050
10561SOL     OW32581   2.980   4.403   0.330
10561SOL    HW132582   3.072   4.366   0.346
10561SOL    HW232583   2.913   4.346   0.377
10562SOL     OW32584   4.639   5.326   0.276
10562SOL    HW132585   4.555   5.375   0.300
10562SOL    HW232586   4.713   5.391   0.261
10563SOL     OW32587   0.957   1.469   3.653
10563SOL    HW132588   0.906   1.519   3.723
10563SOL    HW232589   0.926   1.373   3.653
10564SOL     OW32590   5.744   6.621   1.343
10564SOL    HW132591   5.787   6.560   1.409
10564SOL    HW232592   5.802   6.629   1.262
10565SOL     OW32593   0.293   0.645   6.305
10565SOL    HW132594   0.204   0.689   6.315
10565SOL    HW232595   0.331   0.669   6.215
10566SOL     OW32596   3.757   2.282   0.277
10566SOL    HW132597   3.739   2.373   0.239
10566SOL    HW232598   3.813   2.229   0.213
10567SOL     OW32599   3.293   1.983   4.510
10567SOL    HW132600   3.283   2.039   4.427
10567SOL    HW232601   3.211   1.993   4.566
10568SOL     OW32602   6.380   2.687   1.604
10568SOL    HW132603   6.383   2.652   1.510
10568SOL    HW232604   6.317   2.764   1.609
10569SOL     OW32605   5.769   2.054   1.882
10569SOL    HW132606   5.844   1.997   1.917
10569SOL    HW232607   5.741   2.022   1.792
10570SOL     OW32608   1.657   4.991   3.126
10570SOL    HW132609   1.566   4.973   3.089
10570SOL    HW232610   1.713   4.909   3.119
10571SOL     OW32611   6.908   4.587   5.887
10571SOL    HW132612   6.957   4.664   5.845
10571SOL    HW232613   6.839   4.553   5.824
10572SOL     OW32614   7.010   4.049   3.607
10572SOL    HW132615   0.026   3.993   3.536
10572SOL    HW232616   6.965   4.128   3.565
10573SOL     OW32617   4.428   6.826   4.876
10573SOL    HW132618   4.497   6.799   4.808
10573SOL    HW232619   4.339   6.792   4.848
10574SOL     OW32620   1.535   0.883   3.759
10574SOL    HW132621   1.523   0.982   3.773
10574SOL    HW232622   1.576   0.843   3.841
10575SOL     OW32623   6.332   1.433   2.989
10575SOL    HW132624   6.297   1.339   2.982
10575SOL    HW232625   6.347   1.469   2.897
10576SOL     OW32626   6.831   6.224   5.170
10576SOL    HW132627   6.879   6.169   5.100
10576SOL    HW232628   6.779   6.163   5.230
10577SOL     OW32629   1.639   3.324   0.335
10577SOL    HW132630   1.559   3.293   0.387
10577SOL    HW232631   1.610   3.355   0.245
10578SOL     OW32632   5.692   1.102   3.123
10578SOL    HW132633   5.667   1.193   3.093
10578SOL    HW232634   5.716   1.046   3.043
10579SOL     OW32635   3.775   1.945   1.407
10579SOL    HW132636   3.713   1.868   1.427
10579SOL    HW232637   3.826   1.969   1.490
10580SOL     OW32638   6.561   0.246   6.771
10580SOL    HW132639   6.641   0.240   6.830
10580SOL    HW232640   6.522   0.155   6.757
10581SOL     OW32641   0.088   6.766   3.670
10581SOL    HW132642   7.019   6.782   3.646
10581SOL    HW232643   0.099   6.671   3.700
10582SOL     OW32644   5.668   4.936   6.638
10582SOL    HW132645   5.652   4.844   6.674
10582SOL    HW232646   5.764   4.945   6.613
10583SOL     OW32647   3.872   1.446   4.973
10583SOL    HW132648   3.920   1.399   4.899
10583SOL    HW232649   3.861   1.543   4.948
10584SOL     OW32650   6.396   6.444   1.265
10584SOL    HW132651   6.395   6.463   1.363
10584SOL    HW232652   6.304   6.415   1.236
10585SOL     OW32653   2.255   2.544   6.009
10585SOL    HW132654   2.210   2.528   5.921
10585SOL    HW232655   2.280   2.640   6.016
10586SOL     OW32656   6.609   5.037   5.092
10586SOL    HW132657   6.510   5.022   5.098
10586SOL    HW232658   6.626   5.129   5.057
10587SOL     OW32659   6.238   4.297   0.455
10587SOL    HW132660   6.249   4.387   0.411
10587SOL    HW232661   6.181   4.307   0.537
10588SOL     OW32662   0.354   2.750   3.767
10588SOL    HW132663   0.446   2.785   3.751
10588SOL    HW232664   0.327   2.767   3.861
10589SOL     OW32665   5.985   1.369   4.419
10589SOL    HW132666   5.989   1.410   4.328
10589SOL    HW232667   5.954   1.274   4.412
10590SOL     OW32668   0.775   0.436   1.893
10590SOL    HW132669   0.717   0.444   1.812
10590SOL    HW232670   0.811   0.343   1.899
10591SOL     OW32671   0.911   1.721   6.674
10591SOL    HW132672   1.011   1.719   6.676
10591SOL    HW232673   0.881   1.774   6.595
10592SOL     OW32674   5.858   3.800   1.502
10592SOL    HW132675   5.866   3.738   1.424
10592SOL    HW232676   5.930   3.781   1.568
10593SOL     OW32677   2.542   4.927   0.409
10593SOL    HW132678   2.496   4.904   0.324
10593SOL    HW232679   2.638   4.898   0.405
10594SOL     OW32680   4.655   0.117   2.285
10594SOL    HW132681   4.681   0.123   2.382
10594SOL    HW232682   4.562   0.082   2.277
10595SOL     OW32683   3.674   6.532   6.008
10595SOL    HW132684   3.580   6.546   6.042
10595SOL    HW232685   3.724   6.475   6.073
10596SOL     OW32686   4.488   0.107   6.681
10596SOL    HW132687   4.486   0.204   6.704
10596SOL    HW232688   4.453   0.054   6.758
10597SOL     OW32689   3.416   1.084   5.347
10597SOL    HW132690   3.453   1.082   5.439
10597SOL    HW232691   3.454   1.162   5.297
10598SOL     OW32692   2.770   2.496   0.439
10598SOL    HW132693   2.857   2.493   0.389
10598SOL    HW232694   2.701   2.543   0.384
10599SOL     OW32695   5.434   2.831   5.946
10599SOL    HW132696   5.456   2.815   6.042
10599SOL    HW232697   5.466   2.922   5.919
10600SOL     OW32698   2.051   2.232   0.797
10600SOL    HW132699   2.094   2.157   0.746
10600SOL    HW232700   2.034   2.202   0.891
10601SOL     OW32701   1.407   4.645   5.542
10601SOL    HW132702   1.399   4.735   5.499
10601SOL    HW232703   1.479   4.593   5.496
10602SOL     OW32704   3.684   1.780   2.519
10602SOL    HW132705   3.724   1.708   2.464
10602SOL    HW232706   3.686   1.866   2.468
10603SOL     OW32707   3.222   5.777   3.225
10603SOL    HW132708   3.222   5.855   3.163
10603SOL    HW232709   3.179   5.802   3.311
10604SOL     OW32710   6.063   4.809   5.585
10604SOL    HW132711   6.128   4.882   5.609
10604SOL    HW232712   6.108   4.721   5.597
10605SOL     OW32713   1.769   5.830   0.355
10605SOL    HW132714   1.742   5.760   0.422
10605SOL    HW232715   1.720   5.814   0.270
10606SOL     OW32716   6.940   0.868   2.586
10606SOL    HW132717   6.928   0.906   2.495
10606SOL    HW232718   6.960   0.770   2.580
10607SOL     OW32719   4.208   4.914   5.773
10607SOL    HW132720   4.169   4.894   5.684
10607SOL    HW232721   4.302   4.946   5.763
10608SOL     OW32722   5.062   2.263   5.479
10608SOL    HW132723   5.075   2.183   5.420
10608SOL    HW232724   5.034   2.233   5.570
10609SOL     OW32725   3.201   6.645   0.598
10609SOL    HW132726   3.135   6.704   0.645
10609SOL    HW232727   3.163   6.553   0.588
10610SOL     OW32728   1.695   2.624   5.884
10610SOL    HW132729   1.745   2.550   5.929
10610SOL    HW232730   1.624   2.585   5.825
10611SOL     OW32731   4.069   3.769   5.978
10611SOL    HW132732   4.096   3.855   5.936
10611SOL    HW232733   4.064   3.698   5.907
10612SOL     OW32734   2.828   0.920   5.388
10612SOL    HW132735   2.867   0.939   5.298
10612SOL    HW232736   2.892   0.948   5.459
10613SOL     OW32737   5.996   0.021   4.786
10613SOL    HW132738   5.974   0.033   4.689
10613SOL    HW232739   6.015   6.951   4.804
10614SOL     OW32740   6.763   2.266   3.843
10614SOL    HW132741   6.774   2.278   3.744
10614SOL    HW232742   6.786   2.172   3.868
10615SOL     OW32743   3.067   6.485   6.094
10615SOL    HW132744   3.123   6.415   6.139
10615SOL    HW232745   2.991   6.510   6.153
10616SOL     OW32746   2.744   6.199   0.973
10616SOL    HW132747   2.686   6.280   0.970
10616SOL    HW232748   2.687   6.117   0.981
10617SOL     OW32749   2.204   2.388   1.204
10617SOL    HW132750   2.220   2.349   1.295
10617SOL    HW232751   2.289   2.383   1.152
10618SOL     OW32752   0.177   3.522   6.303
10618SOL    HW132753   0.103   3.472   6.348
10618SOL    HW232754   0.240   3.458   6.259
10619SOL     OW32755   7.008   4.224   1.970
10619SOL    HW132756   7.010   4.160   2.047
10619SOL    HW232757   0.073   4.231   1.930
10620SOL     OW32758   1.362   5.387   5.267
10620SOL    HW132759   1.431   5.314   5.262
10620SOL    HW232760   1.396   5.468   5.219
10621SOL     OW32761   1.160   6.240   2.109
10621SOL    HW132762   1.214   6.202   2.184
10621SOL    HW232763   1.069   6.262   2.142
10622SOL     OW32764   5.039   1.560   1.273
10622SOL    HW132765   5.022   1.495   1.347
10622SOL    HW232766   4.956   1.613   1.255
10623SOL     OW32767   0.053   4.744   5.259
10623SOL    HW132768   6.986   4.709   5.256
10623SOL    HW232769   0.058   4.820   5.323
10624SOL     OW32770   0.570   2.746   4.528
10624SOL    HW132771   0.577   2.646   4.532
10624SOL    HW232772   0.475   2.773   4.546
10625SOL     OW32773   0.381   4.374   6.896
10625SOL    HW132774   0.427   4.360   6.984
10625SOL    HW232775   0.383   4.289   6.844
10626SOL     OW32776   2.724   3.328   0.947
10626SOL    HW132777   2.793   3.282   0.891
10626SOL    HW232778   2.653   3.262   0.973
10627SOL     OW32779   5.170   6.877   0.332
10627SOL    HW132780   5.200   6.859   0.239
10627SOL    HW232781   5.195   6.800   0.391
10628SOL     OW32782   4.594   5.766   0.270
10628SOL    HW132783   4.499   5.792   0.251
10628SOL    HW232784   4.637   5.735   0.185
10629SOL     OW32785   2.605   4.917   5.033
10629SOL    HW132786   2.666   4.839   5.034
10629SOL    HW232787   2.611   4.964   4.945
10630SOL     OW32788   6.947   1.380   3.859
10630SOL    HW132789   0.008   1.420   3.887
10630SOL    HW232790   6.884   1.381   3.937
10631SOL     OW32791   2.982   4.828   4.505
10631SOL    HW132792   2.952   4.895   4.438
10631SOL    HW232793   2.989   4.738   4.462
10632SOL     OW32794   6.366   1.895   4.087
10632SOL    HW132795   6.298   1.968   4.083
10632SOL    HW232796   6.332   1.819   4.142
10633SOL     OW32797   2.723   3.348   1.566
10633SOL    HW132798   2.810   3.397   1.562
10633SOL    HW232799   2.709   3.313   1.658
10634SOL     OW32800   3.061   5.834   0.794
10634SOL    HW132801   3.107   5.917   0.828
10634SOL    HW232802   3.013   5.789   0.870
10635SOL     OW32803   3.640   1.499   1.068
10635SOL    HW132804   3.710   1.434   1.038
10635SOL    HW232805   3.596   1.540   0.988
10636SOL     OW32806   0.801   1.744   1.689
10636SOL    HW132807   0.720   1.801   1.674
10636SOL    HW232808   0.776   1.648   1.682
10637SOL     OW32809   2.610   4.458   5.695
10637SOL    HW132810   2.545   4.406   5.750
10637SOL    HW232811   2.698   4.460   5.742
10638SOL     OW32812   0.119   5.250   2.887
10638SOL    HW132813   0.199   5.194   2.865
10638SOL    HW232814   0.059   5.200   2.949
10639SOL     OW32815   1.151   3.332   2.895
10639SOL    HW132816   1.225   3.271   2.866
10639SOL    HW232817   1.190   3.418   2.928
10640SOL     OW32818   3.398   0.223   5.521
10640SOL    HW132819   3.408   0.151   5.590
10640SOL    HW232820   3.302   0.249   5.513
10641SOL     OW32821   3.535   1.626   0.838
10641SOL    HW132822   3.562   1.613   0.743
10641SOL    HW232823   3.462   1.562   0.862
10642SOL     OW32824   6.996   2.977   1.836
10642SOL    HW132825   6.977   3.071   1.862
10642SOL    HW232826   6.914   2.937   1.793
10643SOL     OW32827   2.237   5.166   5.127
10643SOL    HW132828   2.302   5.093   5.149
10643SOL    HW232829   2.153   5.154   5.180
10644SOL     OW32830   5.137   2.782   3.424
10644SOL    HW132831   5.136   2.882   3.423
10644SOL    HW232832   5.043   2.747   3.426
10645SOL     OW32833   1.067   2.002   5.086
10645SOL    HW132834   1.116   2.042   5.164
10645SOL    HW232835   1.115   2.026   5.002
10646SOL     OW32836   6.792   0.657   6.826
10646SOL    HW132837   6.785   0.566   6.865
10646SOL    HW232838   6.875   0.701   6.859
10647SOL     OW32839   3.196   5.209   6.160
10647SOL    HW132840   3.158   5.271   6.229
10647SOL    HW232841   3.134   5.131   6.147
10648SOL     OW32842   5.289   4.433   6.040
10648SOL    HW132843   5.279   4.334   6.028
10648SOL    HW232844   5.234   4.481   5.972
10649SOL     OW32845   0.266   3.842   3.260
10649SOL    HW132846   0.269   3.748   3.225
10649SOL    HW232847   0.192   3.850   3.328
10650SOL     OW32848   1.140   5.903   3.547
10650SOL    HW132849   1.044   5.880   3.530
10650SOL    HW232850   1.148   5.952   3.634
10651SOL     OW32851   4.341   6.649   6.333
10651SOL    HW132852   4.431   6.683   6.305
10651SOL    HW232853   4.272   6.720   6.319
10652SOL     OW32854   3.653   6.777   6.366
10652SOL    HW132855   3.744   6.784   6.325
10652SOL    HW232856   3.654   6.709   6.439
10653SOL     OW32857   5.255   3.980   4.014
10653SOL    HW132858   5.167   3.969   3.970
10653SOL    HW232859   5.280   4.076   4.018
10654SOL     OW32860   4.614   1.438   0.451
10654SOL    HW132861   4.701   1.391   0.467
10654SOL    HW232862   4.597   1.504   0.524
10655SOL     OW32863   2.676   5.673   0.753
10655SOL    HW132864   2.753   5.628   0.799
10655SOL    HW232865   2.680   5.772   0.770
10656SOL     OW32866   7.012   2.189   1.601
10656SOL    HW132867   0.023   2.120   1.539
10656SOL    HW232868   0.036   2.275   1.588
10657SOL     OW32869   6.334   0.267   6.229
10657SOL    HW132870   6.375   0.228   6.147
10657SOL    HW232871   6.369   0.219   6.310
10658SOL     OW32872   6.403   4.352   5.151
10658SOL    HW132873   6.497   4.329   5.178
10658SOL    HW232874   6.401   4.380   5.055
10659SOL     OW32875   7.018   6.336   0.959
10659SOL    HW132876   6.935   6.285   0.979
10659SOL    HW232877   0.071   6.284   0.991
10660SOL     OW32878   5.531   3.977   0.134
10660SOL    HW132879   5.501   4.073   0.131
10660SOL    HW232880   5.453   3.918   0.115
10661SOL     OW32881   6.888   6.559   2.715
10661SOL    HW132882   6.863   6.465   2.738
10661SOL    HW232883   6.852   6.621   2.784
10662SOL     OW32884   5.341   0.781   2.951
10662SOL    HW132885   5.276   0.842   2.996
10662SOL    HW232886   5.291   0.706   2.907
10663SOL     OW32887   0.395   0.875   1.600
10663SOL    HW132888   0.455   0.948   1.566
10663SOL    HW232889   0.441   0.787   1.590
10664SOL     OW32890   1.032   4.787   4.617
10664SOL    HW132891   1.117   4.797   4.565
10664SOL    HW232892   0.972   4.722   4.571
10665SOL     OW32893   0.955   0.992   0.902
10665SOL    HW132894   1.020   0.993   0.826
10665SOL    HW232895   0.867   1.028   0.872
10666SOL     OW32896   2.754   4.264   0.465
10666SOL    HW132897   2.762   4.260   0.564
10666SOL    HW232898   2.741   4.171   0.429
10667SOL     OW32899   4.247   3.156   5.296
10667SOL    HW132900   4.269   3.243   5.341
10667SOL    HW232901   4.192   3.175   5.215
10668SOL     OW32902   1.672   1.205   5.239
10668SOL    HW132903   1.735   1.134   5.208
10668SOL    HW232904   1.714   1.256   5.315
10669SOL     OW32905   5.911   6.521   0.534
10669SOL    HW132906   5.920   6.621   0.541
10669SOL    HW232907   5.818   6.497   0.507
10670SOL     OW32908   5.149   3.980   4.909
10670SOL    HW132909   5.154   3.914   4.984
10670SOL    HW232910   5.226   3.966   4.847
10671SOL     OW32911   2.553   1.810   2.917
10671SOL    HW132912   2.497   1.737   2.956
10671SOL    HW232913   2.535   1.818   2.819
10672SOL     OW32914   6.664   2.666   0.623
10672SOL    HW132915   6.709   2.685   0.711
10672SOL    HW232916   6.572   2.705   0.624
10673SOL     OW32917   0.890   1.510   6.868
10673SOL    HW132918   0.888   1.571   6.789
10673SOL    HW232919   0.955   1.436   6.851
10674SOL     OW32920   2.815   4.702   0.887
10674SOL    HW132921   2.824   4.653   0.800
10674SOL    HW232922   2.822   4.637   0.963
10675SOL     OW32923   1.759   7.023   6.193
10675SOL    HW132924   1.775   6.956   6.121
10675SOL    HW232925   1.708   0.075   6.156
10676SOL     OW32926   6.036   6.693   5.759
10676SOL    HW132927   5.952   6.728   5.718
10676SOL    HW232928   6.049   6.598   5.734
10677SOL     OW32929   0.611   1.018   2.234
10677SOL    HW132930   0.630   0.938   2.177
10677SOL    HW232931   0.693   1.074   2.242
10678SOL     OW32932   3.776   5.667   2.568
10678SOL    HW132933   3.804   5.756   2.605
10678SOL    HW232934   3.776   5.599   2.642
10679SOL     OW32935   5.524   4.821   6.348
10679SOL    HW132936   5.459   4.847   6.420
10679SOL    HW232937   5.483   4.838   6.258
10680SOL     OW32938   2.613   1.377   3.592
10680SOL    HW132939   2.568   1.465   3.577
10680SOL    HW232940   2.708   1.382   3.561
10681SOL     OW32941   0.126   3.828   6.648
10681SOL    HW132942   0.120   3.910   6.705
10681SOL    HW232943   0.054   3.764   6.675
10682SOL     OW32944   1.717   1.814   3.508
10682SOL    HW132945   1.714   1.724   3.551
10682SOL    HW232946   1.779   1.874   3.560
10683SOL     OW32947   3.456   2.074   3.895
10683SOL    HW132948   3.370   2.120   3.872
10683SOL    HW232949   3.437   1.978   3.919
10684SOL     OW32950   4.792   3.705   1.327
10684SOL    HW132951   4.828   3.613   1.315
10684SOL    HW232952   4.718   3.721   1.261
10685SOL     OW32953   7.026   4.876   2.859
10685SOL    HW132954   0.019   4.920   2.771
10685SOL    HW232955   7.004   4.947   2.927
10686SOL     OW32956   2.638   4.729   6.386
10686SOL    HW132957   2.723   4.686   6.356
10686SOL    HW232958   2.656   4.783   6.468
10687SOL     OW32959   7.019   5.401   1.822
10687SOL    HW132960   6.984   5.393   1.728
10687SOL    HW232961   7.000   5.317   1.872
10688SOL     OW32962   0.148   4.564   2.770
10688SOL    HW132963   0.177   4.658   2.787
10688SOL    HW232964   0.214   4.519   2.710
10689SOL     OW32965   0.491   6.824   4.335
10689SOL    HW132966   0.424   6.898   4.335
10689SOL    HW232967   0.582   6.861   4.353
10690SOL     OW32968   6.718   5.411   3.546
10690SOL    HW132969   6.651   5.405   3.472
10690SOL    HW232970   6.725   5.323   3.592
10691SOL     OW32971   0.488   1.138   2.774
10691SOL    HW132972   0.573   1.115   2.726
10691SOL    HW232973   0.422   1.063   2.762
10692SOL     OW32974   3.799   4.890   2.571
10692SOL    HW132975   3.761   4.895   2.664
10692SOL    HW232976   3.725   4.895   2.504
10693SOL     OW32977   1.909   0.296   1.288
10693SOL    HW132978   1.912   0.289   1.188
10693SOL    HW232979   1.958   0.379   1.316
10694SOL     OW32980   4.708   6.242   1.151
10694SOL    HW132981   4.633   6.186   1.117
10694SOL    HW232982   4.792   6.189   1.152
10695SOL     OW32983   5.294   2.093   2.809
10695SOL    HW132984   5.321   2.173   2.756
10695SOL    HW232985   5.283   2.014   2.747
10696SOL     OW32986   6.770   4.309   2.906
10696SOL    HW132987   6.815   4.225   2.936
10696SOL    HW232988   6.837   4.369   2.863
10697SOL     OW32989   6.989   6.521   4.946
10697SOL    HW132990   0.046   6.525   5.002
10697SOL    HW232991   6.910   6.508   5.005
10698SOL     OW32992   3.869   6.225   3.877
10698SOL    HW132993   3.883   6.143   3.934
10698SOL    HW232994   3.938   6.293   3.900
10699SOL     OW32995   4.117   2.237   2.483
10699SOL    HW132996   4.099   2.218   2.579
10699SOL    HW232997   4.034   2.221   2.430
10700SOL     OW32998   1.318   0.088   0.446
10700SOL    HW132999   1.225   0.124   0.459
10700SOL    HW233000   1.328   0.003   0.498
10701SOL     OW33001   3.438   5.982   7.002
10701SOL    HW133002   3.421   5.947   0.068
10701SOL    HW233003   3.404   5.917   6.935
10702SOL     OW33004   6.722   2.713   2.910
10702SOL    HW133005   6.720   2.644   2.983
10702SOL    HW233006   6.815   2.723   2.876
10703SOL     OW33007   3.814   3.216   4.111
10703SOL    HW133008   3.799   3.313   4.130
10703SOL    HW233009   3.906   3.203   4.074
10704SOL     OW33010   5.677   5.579   1.504
10704SOL    HW133011   5.614   5.655   1.486
10704SOL    HW233012   5.752   5.611   1.562
10705SOL     OW33013   6.890   4.134   1.671
10705SOL    HW133014   6.843   4.172   1.750
10705SOL    HW233015   6.928   4.209   1.616
10706SOL     OW33016   4.765   6.725   1.876
10706SOL    HW133017   4.688   6.749   1.817
10706SOL    HW233018   4.841   6.694   1.819
10707SOL     OW33019   0.609   6.698   4.769
10707SOL    HW133020   0.707   6.692   4.749
10707SOL    HW233021   0.593   6.679   4.866
10708SOL     OW33022   4.599   0.798   2.677
10708SOL    HW133023   4.539   0.782   2.755
10708SOL    HW233024   4.683   0.745   2.688
10709SOL     OW33025   6.634   1.138   5.028
10709SOL    HW133026   6.590   1.049   5.023
10709SOL    HW233027   6.724   1.134   4.986
10710SOL     OW33028   0.530   6.198   4.584
10710SOL    HW133029   0.621   6.238   4.575
10710SOL    HW233030   0.466   6.248   4.525
10711SOL     OW33031   1.766   6.523   3.970
10711SOL    HW133032   1.747   6.601   4.029
10711SOL    HW233033   1.744   6.547   3.875
10712SOL     OW33034   3.413   0.792   2.169
10712SOL    HW133035   3.339   0.731   2.140
10712SOL    HW233036   3.376   0.866   2.224
10713SOL     OW33037   1.672   3.764   2.008
10713SOL    HW133038   1.617   3.768   1.924
10713SOL    HW233039   1.636   3.693   2.068
10714SOL     OW33040   6.499   3.026   5.144
10714SOL    HW133041   6.410   3.016   5.101
10714SOL    HW233042   6.566   2.970   5.096
10715SOL     OW33043   3.710   0.664   3.163
10715SOL    HW133044   3.782   0.595   3.150
10715SOL    HW233045   3.621   0.618   3.163
10716SOL     OW33046   7.011   2.921   3.529
10716SOL    HW133047   6.939   2.852   3.522
10716SOL    HW233048   0.005   2.956   3.437
10717SOL     OW33049   0.889   2.299   0.474
10717SOL    HW133050   0.916   2.314   0.379
10717SOL    HW233051   0.798   2.336   0.489
10718SOL     OW33052   6.440   4.226   0.123
10718SOL    HW133053   6.357   4.170   0.122
10718SOL    HW233054   6.515   4.174   0.165
10719SOL     OW33055   4.547   5.869   1.141
10719SOL    HW133056   4.449   5.873   1.164
10719SOL    HW233057   4.601   5.862   1.225
10720SOL     OW33058   0.641   3.730   6.589
10720SOL    HW133059   0.614   3.825   6.570
10720SOL    HW233060   0.729   3.730   6.637
10721SOL     OW33061   6.089   2.674   4.957
10721SOL    HW133062   5.999   2.664   4.915
10721SOL    HW233063   6.124   2.584   4.984
10722SOL     OW33064   6.876   2.988   0.280
10722SOL    HW133065   6.855   2.937   0.364
10722SOL    HW233066   6.916   2.926   0.213
10723SOL     OW33067   6.186   4.067   6.896
10723SOL    HW133068   6.116   4.055   6.966
10723SOL    HW233069   6.165   4.007   6.818
10724SOL     OW33070   3.051   0.063   6.500
10724SOL    HW133071   2.981   0.026   6.439
10724SOL    HW233072   3.139   0.018   6.480
10725SOL     OW33073   6.846   5.157   3.976
10725SOL    HW133074   6.924   5.218   3.964
10725SOL    HW233075   6.845   5.120   4.069
10726SOL     OW33076   5.726   6.493   5.339
10726SOL    HW133077   5.640   6.537   5.365
10726SOL    HW233078   5.802   6.553   5.363
10727SOL     OW33079   1.829   4.649   4.805
10727SOL    HW133080   1.911   4.627   4.858
10727SOL    HW233081   1.757   4.585   4.828
10728SOL     OW33082   6.069   6.796   2.426
10728SOL    HW133083   6.151   6.762   2.381
10728SOL    HW233084   6.020   6.857   2.364
10729SOL     OW33085   6.301   1.250   2.703
10729SOL    HW133086   6.375   1.216   2.646
10729SOL    HW233087   6.290   1.192   2.783
10730SOL     OW33088   2.565   6.806   1.310
10730SOL    HW133089   2.636   6.831   1.376
10730SOL    HW233090   2.544   6.885   1.253
10731SOL     OW33091   2.193   5.689   6.935
10731SOL    HW133092   2.135   5.616   6.973
10731SOL    HW233093   2.210   5.671   6.838
10732SOL     OW33094   5.651   6.767   2.910
10732SOL    HW133095   5.649   6.780   2.811
10732SOL    HW233096   5.625   6.673   2.932
10733SOL     OW33097   5.813   2.649   0.224
10733SOL    HW133098   5.846   2.709   0.151
10733SOL    HW233099   5.890   2.596   0.260
10734SOL     OW33100   1.454   0.571   6.772
10734SOL    HW133101   1.447   0.514   6.690
10734SOL    HW233102   1.399   0.532   6.846
10735SOL     OW33103   1.582   4.519   2.265
10735SOL    HW133104   1.534   4.452   2.320
10735SOL    HW233105   1.583   4.489   2.170
10736SOL     OW33106   0.580   1.165   3.873
10736SOL    HW133107   0.533   1.081   3.847
10736SOL    HW233108   0.619   1.155   3.964
10737SOL     OW33109   0.865   2.711   0.627
10737SOL    HW133110   0.895   2.805   0.646
10737SOL    HW233111   0.887   2.687   0.533
10738SOL     OW33112   2.453   0.304   1.965
10738SOL    HW133113   2.367   0.273   1.925
10738SOL    HW233114   2.505   0.355   1.896
10739SOL     OW33115   6.830   1.177   3.046
10739SOL    HW133116   6.922   1.209   3.025
10739SOL    HW233117   6.764   1.228   2.991
10740SOL     OW33118   1.220   5.474   5.892
10740SOL    HW133119   1.317   5.493   5.875
10740SOL    HW233120   1.182   5.423   5.815
10741SOL     OW33121   1.059   0.978   3.762
10741SOL    HW133122   1.083   1.058   3.706
10741SOL    HW233123   1.141   0.945   3.808
10742SOL     OW33124   6.015   6.976   2.248
10742SOL    HW133125   5.965   0.035   2.232
10742SOL    HW233126   6.046   6.939   2.160
10743SOL     OW33127   2.433   2.711   3.447
10743SOL    HW133128   2.471   2.631   3.492
10743SOL    HW233129   2.484   2.729   3.362
10744SOL     OW33130   3.209   1.568   2.675
10744SOL    HW133131   3.206   1.485   2.618
10744SOL    HW233132   3.268   1.636   2.631
10745SOL     OW33133   1.581   4.675   6.502
10745SOL    HW133134   1.593   4.773   6.485
10745SOL    HW233135   1.503   4.661   6.562
10746SOL     OW33136   2.109   5.390   1.141
10746SOL    HW133137   2.013   5.370   1.162
10746SOL    HW233138   2.138   5.333   1.063
10747SOL     OW33139   5.191   1.442   3.695
10747SOL    HW133140   5.198   1.542   3.694
10747SOL    HW233141   5.139   1.413   3.776
10748SOL     OW33142   5.958   6.038   0.885
10748SOL    HW133143   5.916   5.982   0.813
10748SOL    HW233144   6.014   6.109   0.844
10749SOL     OW33145   0.244   5.020   3.108
10749SOL    HW133146   0.270   5.033   3.012
10749SOL    HW233147   0.169   4.953   3.113
10750SOL     OW33148   4.524   4.507   4.529
10750SOL    HW133149   4.527   4.536   4.625
10750SOL    HW233150   4.456   4.561   4.480
10751SOL     OW33151   0.983   3.205   5.333
10751SOL    HW133152   0.971   3.181   5.237
10751SOL    HW233153   1.002   3.123   5.387
10752SOL     OW33154   5.863   3.721   6.739
10752SOL    HW133155   5.850   3.657   6.814
10752SOL    HW233156   5.833   3.680   6.653
10753SOL     OW33157   6.262   0.064   3.543
10753SOL    HW133158   6.317   0.014   3.609
10753SOL    HW233159   6.235   0.152   3.583
10754SOL     OW33160   2.159   2.160   2.339
10754SOL    HW133161   2.160   2.258   2.320
10754SOL    HW233162   2.072   2.135   2.381
10755SOL     OW33163   0.136   1.603   0.833
10755SOL    HW133164   0.202   1.552   0.777
10755SOL    HW233165   0.054   1.548   0.847
10756SOL     OW33166   6.425   3.429   0.531
10756SOL    HW133167   6.428   3.381   0.443
10756SOL    HW233168   6.517   3.458   0.556
10757SOL     OW33169   0.037   3.860   0.112
10757SOL    HW133170   0.042   3.765   0.141
10757SOL    HW233171   6.971   3.895   0.129
10758SOL     OW33172   0.881   5.848   5.230
10758SOL    HW133173   0.931   5.930   5.258
10758SOL    HW233174   0.945   5.771   5.221
10759SOL     OW33175   1.709   2.988   0.271
10759SOL    HW133176   1.739   2.897   0.241
10759SOL    HW233177   1.665   3.034   0.194
10760SOL     OW33178   6.942   7.011   1.036
10760SOL    HW133179   7.004   7.022   1.115
10760SOL    HW233180   6.867   6.949   1.061
10761SOL     OW33181   0.945   2.370   6.458
10761SOL    HW133182   0.845   2.362   6.455
10761SOL    HW233183   0.974   2.442   6.395
10762SOL     OW33184   4.781   1.246   4.673
10762SOL    HW133185   4.801   1.158   4.632
10762SOL    HW233186   4.683   1.266   4.664
10763SOL     OW33187   4.399   6.609   1.085
10763SOL    HW133188   4.443   6.665   1.155
10763SOL    HW233189   4.405   6.656   0.997
10764SOL     OW33190   5.142   1.993   6.114
10764SOL    HW133191   5.232   2.035   6.115
10764SOL    HW233192   5.072   2.065   6.113
10765SOL     OW33193   5.757   1.974   1.197
10765SOL    HW133194   5.722   2.058   1.155
10765SOL    HW233195   5.791   1.994   1.289
10766SOL     OW33196   2.618   3.859   0.148
10766SOL    HW133197   2.582   3.840   0.057
10766SOL    HW233198   2.560   3.926   0.194
10767SOL     OW33199   1.229   0.292   0.795
10767SOL    HW133200   1.314   0.345   0.797
10767SOL    HW233201   1.170   0.325   0.721
10768SOL     OW33202   5.412   5.660   0.512
10768SOL    HW133203   5.383   5.567   0.536
10768SOL    HW233204   5.469   5.657   0.430
10769SOL     OW33205   2.627   5.239   5.124
10769SOL    HW133206   2.660   5.145   5.122
10769SOL    HW233207   2.685   5.296   5.064
10770SOL     OW33208   5.366   0.581   4.752
10770SOL    HW133209   5.348   0.674   4.722
10770SOL    HW233210   5.316   0.564   4.837
10771SOL     OW33211   4.417   0.120   5.261
10771SOL    HW133212   4.360   0.059   5.205
10771SOL    HW233213   4.411   0.213   5.226
10772SOL     OW33214   6.411   0.012   3.929
10772SOL    HW133215   6.466   0.087   3.892
10772SOL    HW233216   6.316   0.041   3.937
10773SOL     OW33217   0.008   4.901   6.876
10773SOL    HW133218   0.072   4.966   6.915
10773SOL    HW233219   6.954   4.893   6.935
10774SOL     OW33220   1.394   2.309   0.056
10774SOL    HW133221   1.348   2.224   0.083
10774SOL    HW233222   1.481   2.317   0.105
10775SOL     OW33223   2.258   4.604   0.593
10775SOL    HW133224   2.306   4.516   0.595
10775SOL    HW233225   2.318   4.675   0.629
10776SOL     OW33226   0.929   6.497   1.207
10776SOL    HW133227   0.918   6.401   1.180
10776SOL    HW233228   0.854   6.523   1.268
10777SOL     OW33229   4.363   0.439   3.244
10777SOL    HW133230   4.354   0.437   3.144
10777SOL    HW233231   4.451   0.401   3.271
10778SOL     OW33232   6.172   6.553   4.353
10778SOL    HW133233   6.204   6.555   4.258
10778SOL    HW233234   6.234   6.496   4.407
10779SOL     OW33235   0.459   4.419   2.931
10779SOL    HW133236   0.426   4.444   3.022
10779SOL    HW233237   0.416   4.334   2.902
10780SOL     OW33238   1.025   6.534   2.858
10780SOL    HW133239   1.070   6.613   2.900
10780SOL    HW233240   1.005   6.466   2.928
10781SOL     OW33241   4.388   1.687   4.060
10781SOL    HW133242   4.293   1.678   4.091
10781SOL    HW233243   4.446   1.714   4.137
10782SOL     OW33244   6.289   2.464   3.536
10782SOL    HW133245   6.214   2.478   3.601
10782SOL    HW233246   6.322   2.370   3.543
10783SOL     OW33247   1.905   3.053   2.504
10783SOL    HW133248   1.993   3.006   2.499
10783SOL    HW233249   1.896   3.097   2.593
10784SOL     OW33250   2.236   0.081   1.604
10784SOL    HW133251   2.141   0.050   1.599
10784SOL    HW233252   2.263   0.090   1.700
10785SOL     OW33253   1.887   4.699   1.644
10785SOL    HW133254   1.986   4.681   1.639
10785SOL    HW233255   1.870   4.793   1.614
10786SOL     OW33256   5.224   2.967   1.452
10786SOL    HW133257   5.183   2.887   1.409
10786SOL    HW233258   5.318   2.947   1.477
10787SOL     OW33259   3.473   1.416   4.818
10787SOL    HW133260   3.522   1.408   4.905
10787SOL    HW233261   3.429   1.329   4.796
10788SOL     OW33262   2.116   3.954   6.752
10788SOL    HW133263   2.163   3.945   6.839
10788SOL    HW233264   2.184   3.952   6.678
10789SOL     OW33265   5.520   1.154   0.469
10789SOL    HW133266   5.432   1.198   0.486
10789SOL    HW233267   5.517   1.060   0.502
10790SOL     OW33268   0.515   0.784   5.463
10790SOL    HW133269   0.438   0.849   5.465
10790SOL    HW233270   0.523   0.745   5.372
10791SOL     OW33271   0.924   1.848   1.220
10791SOL    HW133272   1.010   1.865   1.173
10791SOL    HW233273   0.867   1.785   1.167
10792SOL     OW33274   3.068   3.168   1.715
10792SOL    HW133275   3.128   3.151   1.794
10792SOL    HW233276   3.012   3.087   1.698
10793SOL     OW33277   5.731   2.495   4.357
10793SOL    HW133278   5.657   2.436   4.390
10793SOL    HW233279   5.706   2.533   4.268
10794SOL     OW33280   3.425   3.729   2.090
10794SOL    HW133281   3.411   3.741   1.992
10794SOL    HW233282   3.418   3.631   2.112
10795SOL     OW33283   6.243   4.270   3.323
10795SOL    HW133284   6.299   4.198   3.281
10795SOL    HW233285   6.192   4.232   3.400
10796SOL     OW33286   3.235   6.953   6.800
10796SOL    HW133287   3.156   6.892   6.791
10796SOL    HW233288   3.234   7.021   6.726
10797SOL     OW33289   4.217   2.953   1.066
10797SOL    HW133290   4.236   2.894   1.144
10797SOL    HW233291   4.247   2.909   0.981
10798SOL     OW33292   1.972   6.934   0.820
10798SOL    HW133293   1.968   0.007   0.817
10798SOL    HW233294   2.027   6.905   0.898
10799SOL     OW33295   3.667   1.740   1.587
10799SOL    HW133296   3.625   1.801   1.654
10799SOL    HW233297   3.732   1.680   1.634
10800SOL     OW33298   1.986   6.453   0.031
10800SOL    HW133299   2.069   6.398   0.032
10800SOL    HW233300   1.956   6.469   0.125
10801SOL     OW33301   0.825   0.155   4.623
10801SOL    HW133302   0.876   0.147   4.537
10801SOL    HW233303   0.861   0.089   4.689
10802SOL     OW33304   2.202   3.190   4.886
10802SOL    HW133305   2.254   3.105   4.897
10802SOL    HW233306   2.259   3.268   4.913
10803SOL     OW33307   4.900   4.606   4.705
10803SOL    HW133308   4.982   4.554   4.727
10803SOL    HW233309   4.904   4.635   4.609
10804SOL     OW33310   0.223   4.451   1.221
10804SOL    HW133311   0.281   4.504   1.160
10804SOL    HW233312   0.142   4.504   1.245
10805SOL     OW33313   3.355   0.279   6.404
10805SOL    HW133314   3.440   0.322   6.433
10805SOL    HW233315   3.279   0.318   6.456
10806SOL     OW33316   6.077   4.203   0.180
10806SOL    HW133317   5.999   4.167   0.128
10806SOL    HW233318   6.152   4.137   0.179
10807SOL     OW33319   3.185   6.849   3.574
10807SOL    HW133320   3.212   6.828   3.480
10807SOL    HW233321   3.267   6.861   3.631
10808SOL     OW33322   0.224   3.900   0.451
10808SOL    HW133323   0.241   3.953   0.368
10808SOL    HW233324   0.158   3.827   0.431
10809SOL     OW33325   2.570   0.274   4.360
10809SOL    HW133326   2.497   0.222   4.316
10809SOL    HW233327   2.592   0.355   4.305
10810SOL     OW33328   1.208   1.194   6.076
10810SOL    HW133329   1.187   1.292   6.081
10810SOL    HW233330   1.249   1.164   6.162
10811SOL     OW33331   3.876   5.015   5.037
10811SOL    HW133332   3.780   5.003   5.060
10811SOL    HW233333   3.883   5.067   4.951
10812SOL     OW33334   0.289   3.182   2.063
10812SOL    HW133335   0.217   3.213   2.000
10812SOL    HW233336   0.278   3.084   2.081
10813SOL     OW33337   2.258   6.030   6.659
10813SOL    HW133338   2.270   6.056   6.755
10813SOL    HW233339   2.171   5.983   6.648
10814SOL     OW33340   1.266   0.514   5.415
10814SOL    HW133341   1.192   0.519   5.348
10814SOL    HW233342   1.228   0.493   5.505
10815SOL     OW33343   4.967   5.249   3.368
10815SOL    HW133344   5.040   5.309   3.400
10815SOL    HW233345   4.881   5.275   3.410
10816SOL     OW33346   1.631   1.512   2.441
10816SOL    HW133347   1.548   1.457   2.440
10816SOL    HW233348   1.609   1.606   2.412
10817SOL     OW33349   5.629   6.505   2.985
10817SOL    HW133350   5.723   6.471   2.979
10817SOL    HW233351   5.571   6.433   3.024
10818SOL     OW33352   5.384   2.880   5.461
10818SOL    HW133353   5.360   2.930   5.378
10818SOL    HW233354   5.453   2.932   5.512
10819SOL     OW33355   0.856   4.207   6.790
10819SOL    HW133356   0.817   4.275   6.852
10819SOL    HW233357   0.941   4.242   6.750
10820SOL     OW33358   0.030   0.127   4.124
10820SOL    HW133359   0.040   0.029   4.144
10820SOL    HW233360   6.960   0.149   4.112
10821SOL     OW33361   5.405   6.295   2.346
10821SOL    HW133362   5.484   6.304   2.286
10821SOL    HW233363   5.427   6.335   2.435
10822SOL     OW33364   1.110   2.048   2.846
10822SOL    HW133365   1.133   2.037   2.943
10822SOL    HW233366   1.019   2.010   2.829
10823SOL     OW33367   1.828   5.303   1.167
10823SOL    HW133368   1.790   5.255   1.246
10823SOL    HW233369   1.840   5.238   1.092
10824SOL     OW33370   4.794   0.107   3.960
10824SOL    HW133371   4.771   0.204   3.961
10824SOL    HW233372   4.710   0.053   3.971
10825SOL     OW33373   2.886   0.571   0.754
10825SOL    HW133374   2.814   0.537   0.692
10825SOL    HW233375   2.962   0.607   0.699
10826SOL     OW33376   0.055   3.846   3.436
10826SOL    HW133377   7.021   3.889   3.370
10826SOL    HW233378   0.008   3.768   3.479
10827SOL     OW33379   6.263   4.035   4.345
10827SOL    HW133380   6.218   4.110   4.393
10827SOL    HW233381   6.198   3.992   4.282
10828SOL     OW33382   1.117   5.661   2.734
10828SOL    HW133383   1.146   5.567   2.752
10828SOL    HW233384   1.192   5.712   2.692
10829SOL     OW33385   3.197   3.478   0.560
10829SOL    HW133386   3.286   3.432   0.566
10829SOL    HW233387   3.201   3.552   0.494
10830SOL     OW33388   5.136   2.088   3.023
10830SOL    HW133389   5.202   2.100   2.948
10830SOL    HW233390   5.185   2.081   3.110
10831SOL     OW33391   5.210   6.446   1.809
10831SOL    HW133392   5.282   6.514   1.810
10831SOL    HW233393   5.226   6.382   1.733
10832SOL     OW33394   0.330   2.705   0.773
10832SOL    HW133395   0.381   2.781   0.814
10832SOL    HW233396   0.232   2.721   0.784
10833SOL     OW33397   1.491   0.618   4.216
10833SOL    HW133398   1.493   0.588   4.311
10833SOL    HW233399   1.397   0.618   4.183
10834SOL     OW33400   1.201   2.169   6.232
10834SOL    HW133401   1.268   2.196   6.300
10834SOL    HW233402   1.233   2.087   6.184
10835SOL     OW33403   5.344   1.833   0.927
10835SOL    HW133404   5.377   1.795   0.841
10835SOL    HW233405   5.416   1.827   0.996
10836SOL     OW33406   0.004   1.399   5.548
10836SOL    HW133407   6.965   1.336   5.506
10836SOL    HW233408   6.988   1.488   5.563
10837SOL     OW33409   0.548   4.976   0.374
10837SOL    HW133410   0.519   5.072   0.374
10837SOL    HW233411   0.607   4.959   0.295
10838SOL     OW33412   5.449   0.013   4.130
10838SOL    HW133413   5.431   0.071   4.209
10838SOL    HW233414   5.392   0.041   4.053
10839SOL     OW33415   2.922   3.133   0.817
10839SOL    HW133416   2.920   3.094   0.724
10839SOL    HW233417   2.872   3.072   0.879
10840SOL     OW33418   3.979   6.084   1.876
10840SOL    HW133419   3.968   6.078   1.776
10840SOL    HW233420   3.908   6.030   1.921
10841SOL     OW33421   3.638   5.967   6.809
10841SOL    HW133422   3.558   5.970   6.868
10841SOL    HW233423   3.610   5.952   6.715
10842SOL     OW33424   6.579   3.917   1.040
10842SOL    HW133425   6.527   3.886   1.120
10842SOL    HW233426   6.609   4.012   1.054
10843SOL     OW33427   0.305   1.842   2.262
10843SOL    HW133428   0.311   1.861   2.360
10843SOL    HW233429   0.375   1.896   2.214
10844SOL     OW33430   0.543   6.558   4.416
10844SOL    HW133431   0.459   6.514   4.447
10844SOL    HW233432   0.522   6.649   4.381
10845SOL     OW33433   1.896   0.895   0.971
10845SOL    HW133434   1.862   0.989   0.979
10845SOL    HW233435   1.920   0.876   0.876
10846SOL     OW33436   4.613   2.948   0.627
10846SOL    HW133437   4.683   2.884   0.657
10846SOL    HW233438   4.537   2.898   0.586
10847SOL     OW33439   2.840   2.184   6.606
10847SOL    HW133440   2.882   2.125   6.674
10847SOL    HW233441   2.903   2.258   6.582
10848SOL     OW33442   3.178   2.410   6.413
10848SOL    HW133443   3.276   2.432   6.417
10848SOL    HW233444   3.165   2.332   6.352
10849SOL     OW33445   3.347   5.052   3.280
10849SOL    HW133446   3.286   4.985   3.238
10849SOL    HW233447   3.395   5.009   3.357
10850SOL     OW33448   4.670   6.378   6.670
10850SOL    HW133449   4.581   6.374   6.716
10850SOL    HW233450   4.686   6.293   6.620
10851SOL     OW33451   2.809   2.809   6.737
10851SOL    HW133452   2.906   2.784   6.736
10851SOL    HW233453   2.766   2.774   6.653
10852SOL     OW33454   0.651   6.991   6.102
10852SOL    HW133455   0.669   6.971   6.006
10852SOL    HW233456   0.573   0.027   6.109
10853SOL     OW33457   3.588   1.775   5.114
10853SOL    HW133458   3.543   1.858   5.147
10853SOL    HW233459   3.678   1.798   5.078
10854SOL     OW33460   6.612   7.007   6.104
10854SOL    HW133461   6.614   6.969   6.011
10854SOL    HW233462   6.585   0.077   6.099
10855SOL     OW33463   2.690   6.278   2.459
10855SOL    HW133464   2.717   6.273   2.363
10855SOL    HW233465   2.591   6.267   2.466
10856SOL     OW33466   5.822   1.219   1.471
10856SOL    HW133467   5.813   1.138   1.528
10856SOL    HW233468   5.800   1.196   1.376
10857SOL     OW33469   5.474   3.408   3.542
10857SOL    HW133470   5.476   3.346   3.620
10857SOL    HW233471   5.481   3.356   3.457
10858SOL     OW33472   1.291   2.717   6.720
10858SOL    HW133473   1.199   2.755   6.720
10858SOL    HW233474   1.303   2.658   6.640
10859SOL     OW33475   2.430   4.353   3.758
10859SOL    HW133476   2.433   4.332   3.661
10859SOL    HW233477   2.477   4.440   3.775
10860SOL     OW33478   6.817   1.262   6.001
10860SOL    HW133479   6.731   1.226   6.038
10860SOL    HW233480   6.807   1.360   5.983
10861SOL     OW33481   3.601   2.765   1.850
10861SOL    HW133482   3.645   2.680   1.823
10861SOL    HW233483   3.637   2.840   1.795
10862SOL     OW33484   2.902   1.519   6.518
10862SOL    HW133485   2.881   1.475   6.605
10862SOL    HW233486   3.002   1.520   6.505
10863SOL     OW33487   3.374   1.105   2.719
10863SOL    HW133488   3.420   1.107   2.630
10863SOL    HW233489   3.431   1.150   2.787
10864SOL     OW33490   2.680   5.061   1.276
10864SOL    HW133491   2.706   5.000   1.201
10864SOL    HW233492   2.722   5.150   1.263
10865SOL     OW33493   6.357   2.247   3.683
10865SOL    HW133494   6.415   2.175   3.644
10865SOL    HW233495   6.262   2.231   3.657
10866SOL     OW33496   6.129   3.614   0.996
10866SOL    HW133497   6.100   3.522   0.970
10866SOL    HW233498   6.124   3.674   0.917
10867SOL     OW33499   2.970   3.671   0.372
10867SOL    HW133500   2.933   3.661   0.280
10867SOL    HW233501   2.895   3.670   0.438
10868SOL     OW33502   1.403   1.799   2.979
10868SOL    HW133503   1.366   1.713   3.013
10868SOL    HW233504   1.360   1.875   3.027
10869NA      NA33505   0.545   2.466   6.097
10870NA      NA33506   4.499   4.428   5.197
10871NA      NA33507   2.297   4.392   2.208
10872NA      NA33508   5.044   4.669   3.438
10873NA      NA33509   4.145   2.254   5.180
10874NA      NA33510   3.542   4.319   1.514
10875NA      NA33511   1.259   4.515   0.485
10876NA      NA33512   4.246   4.420   1.564
10877NA      NA33513   4.980   4.634   0.879
10878NA      NA33514   2.999   0.362   5.416
10879NA      NA33515   5.801   5.484   1.088
10880NA      NA33516   1.401   0.756   5.814
10881NA      NA33517   5.092   4.957   2.078
10882NA      NA33518   3.725   3.010   0.974
   7.02638   7.02638   7.02638
