Generated by trjconv : CNT in water t= 434.00000
33518
    1C        C    1   2.846   2.774   4.748
    1C        C    2   2.902   2.723   4.867
    1C        C    3   2.851   2.780   4.985
    1C        C    4   2.845   2.773   4.263
    1C        C    5   2.901   2.729   4.385
    1C        C    6   2.847   2.776   4.507
    1C        C    7   3.016   2.645   4.626
    1C        C    8   2.898   2.722   4.627
    1C        C    9   3.078   2.607   4.747
    1C        C   10   3.013   2.637   4.869
    1C        C   11   3.182   2.493   4.974
    1C        C   12   3.062   2.566   4.980
    1C        C   13   2.851   2.771   3.772
    1C        C   14   2.901   2.724   3.895
    1C        C   15   2.849   2.774   4.017
    1C        C   16   3.021   2.654   4.139
    1C        C   17   2.902   2.731   4.141
    1C        C   18   3.083   2.621   4.261
    1C        C   19   3.022   2.656   4.384
    1C        C   20   3.210   2.555   4.504
    1C        C   21   3.081   2.614   4.504
    1C        C   22   3.277   2.533   4.626
    1C        C   23   3.207   2.548   4.748
    1C        C   24   3.415   2.483   4.866
    1C        C   25   3.273   2.500   4.864
    1C        C   26   3.496   2.478   4.980
    1C        C   27   2.849   2.768   3.282
    1C        C   28   2.904   2.723   3.404
    1C        C   29   2.854   2.771   3.527
    1C        C   30   3.023   2.645   3.651
    1C        C   31   2.907   2.726   3.650
    1C        C   32   3.082   2.608   3.774
    1C        C   33   3.017   2.643   3.895
    1C        C   34   3.210   2.558   4.016
    1C        C   35   3.081   2.614   4.017
    1C        C   36   3.280   2.541   4.138
    1C        C   37   3.214   2.568   4.260
    1C        C   38   3.418   2.511   4.381
    1C        C   39   3.279   2.539   4.382
    1C        C   40   3.487   2.501   4.504
    1C        C   41   3.415   2.504   4.625
    1C        C   42   3.631   2.479   4.743
    1C        C   43   3.489   2.484   4.744
    1C        C   44   3.709   2.486   4.861
    1C        C   45   3.635   2.480   4.979
    1C        C   46   2.839   2.754   2.794
    1C        C   47   2.898   2.714   2.916
    1C        C   48   2.845   2.765   3.037
    1C        C   49   3.018   2.643   3.161
    1C        C   50   2.899   2.719   3.159
    1C        C   51   3.082   2.612   3.284
    1C        C   52   3.019   2.641   3.407
    1C        C   53   3.214   2.554   3.529
    1C        C   54   3.082   2.606   3.528
    1C        C   55   3.280   2.530   3.651
    1C        C   56   3.212   2.553   3.773
    1C        C   57   3.418   2.506   3.897
    1C        C   58   3.279   2.533   3.895
    1C        C   59   3.490   2.497   4.018
    1C        C   60   3.417   2.505   4.139
    1C        C   61   3.630   2.492   4.259
    1C        C   62   3.489   2.499   4.260
    1C        C   63   3.703   2.504   4.380
    1C        C   64   3.628   2.502   4.500
    1C        C   65   3.836   2.538   4.620
    1C        C   66   3.699   2.504   4.622
    1C        C   67   3.904   2.564   4.741
    1C        C   68   3.844   2.527   4.863
    1C        C   69   4.052   2.593   4.979
    1C        C   70   3.925   2.533   4.978
    1C        C   71   2.827   2.736   2.308
    1C        C   72   2.884   2.692   2.429
    1C        C   73   2.834   2.744   2.551
    1C        C   74   3.008   2.624   2.673
    1C        C   75   2.890   2.701   2.673
    1C        C   76   3.075   2.598   2.794
    1C        C   77   3.016   2.637   2.917
    1C        C   78   3.208   2.549   3.040
    1C        C   79   3.078   2.604   3.040
    1C        C   80   3.277   2.529   3.162
    1C        C   81   3.210   2.553   3.285
    1C        C   82   3.418   2.505   3.405
    1C        C   83   3.279   2.530   3.406
    1C        C   84   3.488   2.497   3.528
    1C        C   85   3.420   2.506   3.651
    1C        C   86   3.629   2.501   3.770
    1C        C   87   3.488   2.500   3.775
    1C        C   88   3.700   2.510   3.892
    1C        C   89   3.632   2.501   4.015
    1C        C   90   3.838   2.539   4.139
    1C        C   91   3.702   2.503   4.138
    1C        C   92   3.902   2.578   4.259
    1C        C   93   3.836   2.551   4.381
    1C        C   94   4.030   2.638   4.502
    1C        C   95   3.908   2.567   4.501
    1C        C   96   4.094   2.671   4.623
    1C        C   97   4.032   2.626   4.741
    1C        C   98   4.188   2.770   4.863
    1C        C   99   4.102   2.656   4.861
    1C        C  100   4.219   2.842   4.979
    1C        C  101   2.820   2.726   2.071
    1C        C  102   2.994   2.593   2.188
    1C        C  103   2.878   2.677   2.189
    1C        C  104   3.064   2.572   2.310
    1C        C  105   3.004   2.617   2.430
    1C        C  106   3.203   2.541   2.553
    1C        C  107   3.070   2.589   2.551
    1C        C  108   3.272   2.520   2.674
    1C        C  109   3.205   2.541   2.796
    1C        C  110   3.413   2.497   2.914
    1C        C  111   3.275   2.524   2.918
    1C        C  112   3.486   2.495   3.035
    1C        C  113   3.415   2.503   3.157
    1C        C  114   3.625   2.495   3.281
    1C        C  115   3.484   2.494   3.280
    1C        C  116   3.697   2.505   3.403
    1C        C  117   3.629   2.501   3.527
    1C        C  118   3.838   2.540   3.646
    1C        C  119   3.700   2.508   3.648
    1C        C  120   3.903   2.565   3.770
    1C        C  121   3.837   2.544   3.893
    1C        C  122   4.025   2.637   4.013
    1C        C  123   3.903   2.566   4.016
    1C        C  124   4.087   2.674   4.135
    1C        C  125   4.032   2.634   4.259
    1C        C  126   4.198   2.768   4.378
    1C        C  127   4.091   2.675   4.380
    1C        C  128   4.242   2.823   4.500
    1C        C  129   4.198   2.768   4.622
    1C        C  130   4.327   2.938   4.740
    1C        C  131   4.246   2.821   4.743
    1C        C  132   4.352   3.008   4.860
    1C        C  133   4.286   2.964   4.976
    1C        C  134   3.174   2.465   2.082
    1C        C  135   3.041   2.509   2.082
    1C        C  136   3.261   2.478   2.192
    1C        C  137   3.196   2.519   2.310
    1C        C  138   3.406   2.484   2.428
    1C        C  139   3.266   2.504   2.432
    1C        C  140   3.482   2.483   2.547
    1C        C  141   3.411   2.493   2.669
    1C        C  142   3.622   2.490   2.791
    1C        C  143   3.481   2.484   2.791
    1C        C  144   3.694   2.498   2.913
    1C        C  145   3.627   2.489   3.037
    1C        C  146   3.833   2.538   3.157
    1C        C  147   3.697   2.498   3.159
    1C        C  148   3.900   2.566   3.278
    1C        C  149   3.834   2.539   3.400
    1C        C  150   4.026   2.628   3.525
    1C        C  151   3.901   2.562   3.522
    1C        C  152   4.085   2.671   3.647
    1C        C  153   4.025   2.635   3.770
    1C        C  154   4.191   2.769   3.889
    1C        C  155   4.083   2.679   3.891
    1C        C  156   4.244   2.814   4.012
    1C        C  157   4.196   2.764   4.135
    1C        C  158   4.339   2.924   4.253
    1C        C  159   4.251   2.814   4.255
    1C        C  160   4.373   2.989   4.374
    1C        C  161   4.328   2.935   4.497
    1C        C  162   4.440   3.117   4.613
    1C        C  163   4.368   2.996   4.618
    1C        C  164   4.467   3.184   4.735
    1C        C  165   4.430   3.126   4.858
    1C        C  166   4.508   3.322   4.973
    1C        C  167   4.475   3.187   4.975
    1C        C  168   3.478   2.437   2.074
    1C        C  169   3.400   2.457   2.189
    1C        C  170   3.618   2.469   2.306
    1C        C  171   3.476   2.461   2.308
    1C        C  172   3.694   2.487   2.424
    1C        C  173   3.623   2.484   2.547
    1C        C  174   3.829   2.533   2.667
    1C        C  175   3.692   2.499   2.669
    1C        C  176   3.896   2.559   2.789
    1C        C  177   3.828   2.543   2.912
    1C        C  178   4.025   2.621   3.031
    1C        C  179   3.898   2.560   3.034
    1C        C  180   4.085   2.665   3.152
    1C        C  181   4.027   2.629   3.276
    1C        C  182   4.191   2.754   3.398
    1C        C  183   4.083   2.663   3.401
    1C        C  184   4.243   2.807   3.519
    1C        C  185   4.192   2.762   3.643
    1C        C  186   4.333   2.922   3.764
    1C        C  187   4.239   2.817   3.765
    1C        C  188   4.373   2.980   3.886
    1C        C  189   4.331   2.925   4.010
    1C        C  190   4.447   3.106   4.129
    1C        C  191   4.379   2.982   4.130
    1C        C  192   4.471   3.174   4.251
    1C        C  193   4.441   3.113   4.374
    1C        C  194   4.507   3.321   4.492
    1C        C  195   4.468   3.185   4.493
    1C        C  196   4.524   3.390   4.614
    1C        C  197   4.508   3.320   4.735
    1C        C  198   4.554   3.535   4.856
    1C        C  199   4.532   3.393   4.855
    1C        C  200   4.582   3.618   4.969
    1C        C  201   3.618   2.424   2.073
    1C        C  202   3.830   2.511   2.183
    1C        C  203   3.694   2.467   2.186
    1C        C  204   3.901   2.540   2.303
    1C        C  205   3.831   2.519   2.424
    1C        C  206   4.018   2.626   2.543
    1C        C  207   3.896   2.556   2.544
    1C        C  208   4.080   2.661   2.666
    1C        C  209   4.024   2.619   2.789
    1C        C  210   4.196   2.746   2.911
    1C        C  211   4.088   2.655   2.909
    1C        C  212   4.250   2.796   3.032
    1C        C  213   4.197   2.750   3.155
    1C        C  214   4.332   2.914   3.275
    1C        C  215   4.247   2.801   3.277
    1C        C  216   4.371   2.977   3.395
    1C        C  217   4.330   2.918   3.517
    1C        C  218   4.437   3.102   3.641
    1C        C  219   4.370   2.977   3.639
    1C        C  220   4.468   3.169   3.761
    1C        C  221   4.442   3.103   3.884
    1C        C  222   4.505   3.306   4.002
    1C        C  223   4.473   3.168   4.005
    1C        C  224   4.514   3.378   4.124
    1C        C  225   4.505   3.311   4.248
    1C        C  226   4.525   3.527   4.368
    1C        C  227   4.521   3.386   4.367
    1C        C  228   4.526   3.599   4.489
    1C        C  229   4.533   3.531   4.613
    1C        C  230   4.511   3.744   4.728
    1C        C  231   4.539   3.604   4.733
    1C        C  232   4.501   3.820   4.847
    1C        C  233   4.544   3.753   4.962
    1C        C  234   4.017   2.614   2.064
    1C        C  235   3.896   2.545   2.064
    1C        C  236   4.086   2.650   2.180
    1C        C  237   4.026   2.608   2.301
    1C        C  238   4.199   2.735   2.421
    1C        C  239   4.086   2.649   2.421
    1C        C  240   4.249   2.787   2.543
    1C        C  241   4.194   2.743   2.666
    1C        C  242   4.332   2.905   2.785
    1C        C  243   4.242   2.796   2.788
    1C        C  244   4.378   2.959   2.907
    1C        C  245   4.337   2.908   3.032
    1C        C  246   4.435   3.098   3.151
    1C        C  247   4.370   2.973   3.152
    1C        C  248   4.463   3.165   3.272
    1C        C  249   4.435   3.103   3.396
    1C        C  250   4.494   3.306   3.515
    1C        C  251   4.461   3.168   3.518
    1C        C  252   4.506   3.376   3.637
    1C        C  253   4.499   3.307   3.760
    1C        C  254   4.526   3.519   3.879
    1C        C  255   4.515   3.378   3.881
    1C        C  256   4.522   3.588   4.002
    1C        C  257   4.519   3.519   4.125
    1C        C  258   4.493   3.733   4.243
    1C        C  259   4.522   3.595   4.244
    1C        C  260   4.477   3.805   4.363
    1C        C  261   4.498   3.737   4.485
    1C        C  262   4.425   3.938   4.604
    1C        C  263   4.483   3.809   4.606
    1C        C  264   4.398   4.006   4.725
    1C        C  265   4.435   3.944   4.847
    1C        C  266   4.326   4.136   4.958
    1C        C  267   4.397   4.016   4.961
    1C        C  268   4.262   2.777   2.060
    1C        C  269   4.200   2.733   2.178
    1C        C  270   4.350   2.887   2.300
    1C        C  271   4.254   2.782   2.299
    1C        C  272   4.382   2.954   2.419
    1C        C  273   4.334   2.899   2.540
    1C        C  274   4.444   3.083   2.662
    1C        C  275   4.370   2.962   2.662
    1C        C  276   4.467   3.151   2.784
    1C        C  277   4.441   3.086   2.906
    1C        C  278   4.499   3.293   3.024
    1C        C  279   4.469   3.155   3.026
    1C        C  280   4.507   3.369   3.144
    1C        C  281   4.497   3.302   3.268
    1C        C  282   4.520   3.512   3.389
    1C        C  283   4.504   3.372   3.391
    1C        C  284   4.520   3.584   3.511
    1C        C  285   4.517   3.517   3.635
    1C        C  286   4.492   3.728   3.754
    1C        C  287   4.520   3.590   3.757
    1C        C  288   4.477   3.796   3.877
    1C        C  289   4.497   3.727   4.000
    1C        C  290   4.430   3.933   4.119
    1C        C  291   4.474   3.799   4.119
    1C        C  292   4.397   3.999   4.240
    1C        C  293   4.429   3.938   4.363
    1C        C  294   4.330   4.130   4.481
    1C        C  295   4.394   4.003   4.483
    1C        C  296   4.287   4.187   4.603
    1C        C  297   4.326   4.129   4.725
    1C        C  298   4.200   4.316   4.840
    1C        C  299   4.282   4.199   4.841
    1C        C  300   4.163   4.403   4.948
    1C        C  301   4.354   2.882   2.063
    1C        C  302   4.472   3.067   2.175
    1C        C  303   4.401   2.943   2.180
    1C        C  304   4.480   3.142   2.296
    1C        C  305   4.449   3.079   2.418
    1C        C  306   4.503   3.284   2.537
    1C        C  307   4.477   3.146   2.539
    1C        C  308   4.518   3.355   2.659
    1C        C  309   4.504   3.287   2.782
    1C        C  310   4.525   3.502   2.899
    1C        C  311   4.516   3.361   2.901
    1C        C  312   4.523   3.576   3.019
    1C        C  313   4.525   3.509   3.143
    1C        C  314   4.491   3.719   3.263
    1C        C  315   4.518   3.580   3.265
    1C        C  316   4.478   3.788   3.385
    1C        C  317   4.494   3.723   3.510
    1C        C  318   4.433   3.928   3.629
    1C        C  319   4.476   3.794   3.630
    1C        C  320   4.394   3.988   3.751
    1C        C  321   4.421   3.926   3.875
    1C        C  322   4.316   4.110   3.992
    1C        C  323   4.397   3.994   3.996
    1C        C  324   4.279   4.170   4.115
    1C        C  325   4.323   4.119   4.239
    1C        C  326   4.182   4.280   4.356
    1C        C  327   4.286   4.185   4.359
    1C        C  328   4.134   4.334   4.477
    1C        C  329   4.194   4.294   4.599
    1C        C  330   4.024   4.433   4.712
    1C        C  331   4.143   4.355   4.715
    1C        C  332   3.968   4.489   4.829
    1C        C  333   4.047   4.481   4.945
    1C        C  334   4.547   3.267   2.061
    1C        C  335   4.536   3.128   2.062
    1C        C  336   4.535   3.350   2.173
    1C        C  337   4.511   3.280   2.294
    1C        C  338   4.522   3.494   2.411
    1C        C  339   4.516   3.353   2.415
    1C        C  340   4.515   3.568   2.531
    1C        C  341   4.518   3.496   2.653
    1C        C  342   4.489   3.707   2.774
    1C        C  343   4.511   3.567   2.775
    1C        C  344   4.478   3.780   2.894
    1C        C  345   4.495   3.715   3.018
    1C        C  346   4.431   3.919   3.139
    1C        C  347   4.473   3.784   3.139
    1C        C  348   4.398   3.982   3.261
    1C        C  349   4.429   3.921   3.384
    1C        C  350   4.323   4.107   3.504
    1C        C  351   4.400   3.989   3.505
    1C        C  352   4.278   4.165   3.625
    1C        C  353   4.320   4.108   3.747
    1C        C  354   4.176   4.266   3.867
    1C        C  355   4.274   4.164   3.868
    1C        C  356   4.121   4.312   3.989
    1C        C  357   4.178   4.268   4.111
    1C        C  358   4.008   4.397   4.232
    1C        C  359   4.123   4.316   4.232
    1C        C  360   3.949   4.442   4.352
    1C        C  361   4.018   4.413   4.473
    1C        C  362   3.826   4.514   4.590
    1C        C  363   3.955   4.457   4.592
    1C        C  364   3.761   4.545   4.712
    1C        C  365   3.839   4.546   4.830
    1C        C  366   3.627   4.595   4.947
    1C        C  367   3.764   4.573   4.946
    1C        C  368   4.515   3.566   2.053
    1C        C  369   4.524   3.491   2.170
    1C        C  370   4.506   3.707   2.287
    1C        C  371   4.522   3.567   2.289
    1C        C  372   4.485   3.778   2.407
    1C        C  373   4.495   3.708   2.530
    1C        C  374   4.424   3.908   2.650
    1C        C  375   4.474   3.776   2.651
    1C        C  376   4.398   3.976   2.771
    1C        C  377   4.434   3.914   2.893
    1C        C  378   4.326   4.098   3.013
    1C        C  379   4.403   3.980   3.014
    1C        C  380   4.278   4.154   3.134
    1C        C  381   4.319   4.099   3.258
    1C        C  382   4.176   4.255   3.381
    1C        C  383   4.277   4.157   3.380
    1C        C  384   4.120   4.306   3.501
    1C        C  385   4.177   4.264   3.623
    1C        C  386   4.007   4.392   3.745
    1C        C  387   4.122   4.310   3.745
    1C        C  388   3.942   4.426   3.866
    1C        C  389   4.006   4.394   3.988
    1C        C  390   3.816   4.486   4.108
    1C        C  391   3.948   4.436   4.110
    1C        C  392   3.749   4.516   4.229
    1C        C  393   3.822   4.503   4.349
    1C        C  394   3.617   4.565   4.473
    1C        C  395   3.754   4.532   4.470
    1C        C  396   3.544   4.573   4.594
    1C        C  397   3.621   4.564   4.712
    1C        C  398   3.410   4.557   4.837
    1C        C  399   3.549   4.580   4.832
    1C        C  400   3.341   4.522   4.954
    1C        C  401   4.509   3.705   2.050
    1C        C  402   4.454   3.916   2.167
    1C        C  403   4.493   3.780   2.167
    1C        C  404   4.412   3.977   2.288
    1C        C  405   4.440   3.912   2.410
    1C        C  406   4.326   4.097   2.527
    1C        C  407   4.401   3.977   2.529
    1C        C  408   4.279   4.150   2.649
    1C        C  409   4.321   4.095   2.771
    1C        C  410   4.173   4.249   2.891
    1C        C  411   4.273   4.149   2.892
    1C        C  412   4.120   4.297   3.013
    1C        C  413   4.176   4.252   3.134
    1C        C  414   3.999   4.366   3.255
    1C        C  415   4.121   4.295   3.257
    1C        C  416   3.937   4.402   3.377
    1C        C  417   3.996   4.373   3.502
    1C        C  418   3.810   4.475   3.619
    1C        C  419   3.939   4.416   3.624
    1C        C  420   3.744   4.498   3.741
    1C        C  421   3.811   4.478   3.864
    1C        C  422   3.608   4.533   3.987
    1C        C  423   3.746   4.503   3.986
    1C        C  424   3.538   4.546   4.109
    1C        C  425   3.610   4.539   4.231
    1C        C  426   3.401   4.556   4.356
    1C        C  427   3.542   4.558   4.353
    1C        C  428   3.329   4.554   4.478
    1C        C  429   3.403   4.567   4.597
    1C        C  430   3.194   4.524   4.719
    1C        C  431   3.333   4.554   4.719
    1C        C  432   3.126   4.502   4.842
    1C        C  433   3.203   4.506   4.960
    1C        C  434   4.381   4.122   2.054
    1C        C  435   4.446   3.998   2.054
    1C        C  436   4.306   4.167   2.167
    1C        C  437   4.337   4.098   2.287
    1C        C  438   4.183   4.252   2.404
    1C        C  439   4.284   4.154   2.405
    1C        C  440   4.126   4.299   2.525
    1C        C  441   4.180   4.251   2.646
    1C        C  442   4.005   4.374   2.766
    1C        C  443   4.124   4.297   2.767
    1C        C  444   3.943   4.410   2.887
    1C        C  445   4.003   4.376   3.011
    1C        C  446   3.813   4.470   3.130
    1C        C  447   3.939   4.406   3.133
    1C        C  448   3.745   4.493   3.252
    1C        C  449   3.811   4.465   3.374
    1C        C  450   3.608   4.530   3.495
    1C        C  451   3.745   4.495   3.495
    1C        C  452   3.538   4.544   3.617
    1C        C  453   3.607   4.531   3.740
    1C        C  454   3.398   4.553   3.863
    1C        C  455   3.539   4.544   3.863
    1C        C  456   3.329   4.546   3.986
    1C        C  457   3.397   4.546   4.110
    1C        C  458   3.192   4.509   4.237
    1C        C  459   3.331   4.538   4.234
    1C        C  460   3.121   4.493   4.358
    1C        C  461   3.192   4.521   4.477
    1C        C  462   2.997   4.439   4.605
    1C        C  463   3.123   4.501   4.599
    1C        C  464   2.932   4.406   4.726
    1C        C  465   2.994   4.447   4.847
    1C        C  466   2.800   4.340   4.965
    1C        C  467   2.910   4.428   4.961
    1C        C  468   4.122   4.288   2.046
    1C        C  469   4.189   4.250   2.163
    1C        C  470   4.007   4.373   2.280
    1C        C  471   4.125   4.294   2.282
    1C        C  472   3.941   4.405   2.401
    1C        C  473   4.005   4.373   2.522
    1C        C  474   3.811   4.460   2.642
    1C        C  475   3.942   4.408   2.644
    1C        C  476   3.744   4.486   2.764
    1C        C  477   3.814   4.467   2.886
    1C        C  478   3.607   4.515   3.008
    1C        C  479   3.746   4.491   3.008
    1C        C  480   3.535   4.526   3.129
    1C        C  481   3.606   4.520   3.251
    1C        C  482   3.395   4.534   3.377
    1C        C  483   3.536   4.532   3.373
    1C        C  484   3.323   4.536   3.499
    1C        C  485   3.397   4.544   3.619
    1C        C  486   3.189   4.510   3.744
    1C        C  487   3.327   4.542   3.742
    1C        C  488   3.126   4.485   3.868
    1C        C  489   3.194   4.505   3.991
    1C        C  490   3.001   4.422   4.117
    1C        C  491   3.128   4.484   4.114
    1C        C  492   2.941   4.387   4.240
    1C        C  493   2.995   4.429   4.363
    1C        C  494   2.824   4.308   4.483
    1C        C  495   2.933   4.398   4.486
    1C        C  496   2.773   4.261   4.606
    1C        C  497   2.824   4.313   4.726
    1C        C  498   2.673   4.166   4.844
    1C        C  499   2.760   4.277   4.847
    1C        C  500   2.596   4.121   4.952
    1C        C  501   4.000   4.353   2.042
    1C        C  502   3.815   4.465   2.156
    1C        C  503   3.943   4.405   2.159
    1C        C  504   3.744   4.482   2.276
    1C        C  505   3.809   4.456   2.399
    1C        C  506   3.604   4.508   2.520
    1C        C  507   3.743   4.483   2.520
    1C        C  508   3.532   4.520   2.641
    1C        C  509   3.606   4.516   2.762
    1C        C  510   3.396   4.520   2.886
    1C        C  511   3.537   4.522   2.885
    1C        C  512   3.325   4.519   3.008
    1C        C  513   3.394   4.530   3.131
    1C        C  514   3.187   4.498   3.256
    1C        C  515   3.325   4.528   3.254
    1C        C  516   3.119   4.475   3.378
    1C        C  517   3.185   4.506   3.499
    1C        C  518   2.996   4.420   3.628
    1C        C  519   3.121   4.485   3.623
    1C        C  520   2.940   4.378   3.751
    1C        C  521   3.005   4.413   3.871
    1C        C  522   2.843   4.281   3.996
    1C        C  523   2.945   4.380   3.994
    1C        C  524   2.791   4.236   4.119
    1C        C  525   2.833   4.295   4.240
    1C        C  526   2.698   4.133   4.365
    1C        C  527   2.782   4.247   4.363
    1C        C  528   2.659   4.076   4.488
    1C        C  529   2.691   4.145   4.607
    1C        C  530   2.595   3.957   4.733
    1C        C  531   2.645   4.090   4.728
    1C        C  532   2.546   3.904   4.856
    1C        C  533   2.525   4.001   4.959
    1C        C  534   3.615   4.553   2.039
    1C        C  535   3.748   4.511   2.041
    1C        C  536   3.535   4.539   2.157
    1C        C  537   3.606   4.517   2.278
    1C        C  538   3.391   4.514   2.399
    1C        C  539   3.532   4.517   2.399
    1C        C  540   3.321   4.511   2.522
    1C        C  541   3.391   4.517   2.645
    1C        C  542   3.181   4.491   2.769
    1C        C  543   3.320   4.516   2.767
    1C        C  544   3.118   4.462   2.892
    1C        C  545   3.188   4.486   3.012
    1C        C  546   2.991   4.411   3.137
    1C        C  547   3.119   4.472   3.135
    1C        C  548   2.934   4.373   3.260
    1C        C  549   2.993   4.411   3.383
    1C        C  550   2.829   4.285   3.509
    1C        C  551   2.935   4.378   3.507
    1C        C  552   2.780   4.234   3.632
    1C        C  553   2.835   4.283   3.752
    1C        C  554   2.704   4.119   3.874
    1C        C  555   2.788   4.233   3.875
    1C        C  556   2.670   4.060   3.998
    1C        C  557   2.705   4.124   4.120
    1C        C  558   2.608   3.939   4.247
    1C        C  559   2.666   4.068   4.244
    1C        C  560   2.579   3.876   4.369
    1C        C  561   2.602   3.946   4.490
    1C        C  562   2.540   3.748   4.616
    1C        C  563   2.573   3.886   4.614
    1C        C  564   2.522   3.683   4.740
    1C        C  565   2.523   3.763   4.858
    1C        C  566   2.535   3.549   4.976
    1C        C  567   2.529   3.688   4.976
    1C        C  568   3.322   4.484   2.042
    1C        C  569   3.394   4.520   2.157
    1C        C  570   3.181   4.481   2.282
    1C        C  571   3.319   4.513   2.278
    1C        C  572   3.112   4.459   2.404
    1C        C  573   3.182   4.488   2.523
    1C        C  574   2.988   4.407   2.649
    1C        C  575   3.114   4.472   2.646
    1C        C  576   2.929   4.367   2.771
    1C        C  577   2.991   4.400   2.893
    1C        C  578   2.825   4.274   3.018
    1C        C  579   2.931   4.367   3.017
    1C        C  580   2.779   4.223   3.142
    1C        C  581   2.831   4.276   3.263
    1C        C  582   2.701   4.115   3.384
    1C        C  583   2.786   4.227   3.387
    1C        C  584   2.666   4.053   3.507
    1C        C  585   2.699   4.118   3.628
    1C        C  586   2.607   3.931   3.757
    1C        C  587   2.665   4.060   3.752
    1C        C  588   2.576   3.871   3.881
    1C        C  589   2.604   3.936   4.003
    1C        C  590   2.542   3.734   4.129
    1C        C  591   2.586   3.869   4.126
    1C        C  592   2.525   3.669   4.253
    1C        C  593   2.536   3.741   4.374
    1C        C  594   2.505   3.535   4.497
    1C        C  595   2.517   3.675   4.497
    1C        C  596   2.519   3.466   4.620
    1C        C  597   2.518   3.541   4.739
    1C        C  598   2.535   3.329   4.862
    1C        C  599   2.528   3.469   4.860
    1C        C  600   2.536   3.254   4.981
    1C        C  601   3.191   4.439   2.045
    1C        C  602   2.982   4.392   2.163
    1C        C  603   3.114   4.446   2.162
    1C        C  604   2.922   4.360   2.287
    1C        C  605   2.987   4.394   2.408
    1C        C  606   2.815   4.275   2.529
    1C        C  607   2.925   4.363   2.531
    1C        C  608   2.769   4.225   2.653
    1C        C  609   2.820   4.276   2.774
    1C        C  610   2.692   4.108   2.896
    1C        C  611   2.772   4.225   2.897
    1C        C  612   2.656   4.051   3.021
    1C        C  613   2.695   4.111   3.143
    1C        C  614   2.594   3.926   3.265
    1C        C  615   2.655   4.053   3.266
    1C        C  616   2.570   3.864   3.390
    1C        C  617   2.606   3.925   3.511
    1C        C  618   2.538   3.728   3.639
    1C        C  619   2.580   3.863   3.636
    1C        C  620   2.521   3.663   3.763
    1C        C  621   2.536   3.735   3.884
    1C        C  622   2.510   3.526   4.010
    1C        C  623   2.523   3.667   4.006
    1C        C  624   2.508   3.454   4.131
    1C        C  625   2.513   3.528   4.252
    1C        C  626   2.542   3.324   4.379
    1C        C  627   2.509   3.462   4.376
    1C        C  628   2.559   3.255   4.500
    1C        C  629   2.541   3.326   4.621
    1C        C  630   2.596   3.120   4.746
    1C        C  631   2.552   3.255   4.743
    1C        C  632   2.616   3.050   4.868
    1C        C  633   2.561   3.116   4.982
    1C        C  634   2.782   4.302   2.051
    1C        C  635   2.894   4.386   2.049
    1C        C  636   2.747   4.232   2.167
    1C        C  637   2.803   4.281   2.287
    1C        C  638   2.680   4.108   2.409
    1C        C  639   2.762   4.223   2.409
    1C        C  640   2.647   4.049   2.532
    1C        C  641   2.688   4.109   2.653
    1C        C  642   2.592   3.920   2.777
    1C        C  643   2.656   4.046   2.775
    1C        C  644   2.563   3.857   2.900
    1C        C  645   2.592   3.925   3.020
    1C        C  646   2.529   3.724   3.149
    1C        C  647   2.573   3.858   3.143
    1C        C  648   2.518   3.656   3.273
    1C        C  649   2.536   3.727   3.394
    1C        C  650   2.508   3.518   3.518
    1C        C  651   2.523   3.658   3.517
    1C        C  652   2.516   3.450   3.642
    1C        C  653   2.515   3.522   3.764
    1C        C  654   2.535   3.315   3.889
    1C        C  655   2.513   3.455   3.888
    1C        C  656   2.550   3.247   4.012
    1C        C  657   2.532   3.315   4.135
    1C        C  658   2.600   3.117   4.260
    1C        C  659   2.553   3.250   4.259
    1C        C  660   2.637   3.057   4.383
    1C        C  661   2.602   3.120   4.504
    1C        C  662   2.709   2.937   4.627
    1C        C  663   2.630   3.054   4.626
    1C        C  664   2.751   2.879   4.749
    1C        C  665   2.700   2.935   4.870
    1C        C  666   2.745   2.871   4.986
    1C        C  667   2.681   4.022   2.054
    1C        C  668   2.689   4.103   2.168
    1C        C  669   2.592   3.912   2.290
    1C        C  670   2.646   4.043   2.288
    1C        C  671   2.566   3.848   2.413
    1C        C  672   2.588   3.920   2.533
    1C        C  673   2.522   3.719   2.660
    1C        C  674   2.565   3.853   2.655
    1C        C  675   2.507   3.649   2.782
    1C        C  676   2.526   3.721   2.903
    1C        C  677   2.509   3.513   3.031
    1C        C  678   2.523   3.653   3.027
    1C        C  679   2.509   3.442   3.153
    1C        C  680   2.508   3.515   3.274
    1C        C  681   2.528   3.306   3.398
    1C        C  682   2.507   3.445   3.396
    1C        C  683   2.548   3.241   3.522
    1C        C  684   2.529   3.310   3.644
    1C        C  685   2.600   3.113   3.769
    1C        C  686   2.546   3.243   3.768
    1C        C  687   2.635   3.052   3.892
    1C        C  688   2.601   3.115   4.013
    1C        C  689   2.709   2.937   4.138
    1C        C  690   2.631   3.055   4.137
    1C        C  691   2.750   2.878   4.259
    1C        C  692   2.712   2.937   4.382
    1C        C  693   2.753   2.882   4.505
    1C        C  694   2.627   3.893   2.055
    1C        C  695   2.529   3.703   2.175
    1C        C  696   2.573   3.837   2.171
    1C        C  697   2.511   3.637   2.298
    1C        C  698   2.525   3.713   2.417
    1C        C  699   2.498   3.505   2.544
    1C        C  700   2.507   3.646   2.540
    1C        C  701   2.505   3.435   2.666
    1C        C  702   2.501   3.508   2.787
    1C        C  703   2.523   3.300   2.912
    1C        C  704   2.502   3.440   2.911
    1C        C  705   2.537   3.228   3.033
    1C        C  706   2.525   3.301   3.153
    1C        C  707   2.600   3.105   3.280
    1C        C  708   2.546   3.236   3.277
    1C        C  709   2.636   3.047   3.404
    1C        C  710   2.604   3.111   3.526
    1C        C  711   2.713   2.930   3.650
    1C        C  712   2.632   3.047   3.649
    1C        C  713   2.756   2.875   3.773
    1C        C  714   2.714   2.934   3.894
    1C        C  715   2.753   2.877   4.017
    1C        C  716   2.445   3.502   2.066
    1C        C  717   2.491   3.634   2.058
    1C        C  718   2.463   3.422   2.183
    1C        C  719   2.486   3.497   2.301
    1C        C  720   2.515   3.290   2.424
    1C        C  721   2.491   3.430   2.425
    1C        C  722   2.540   3.224   2.546
    1C        C  723   2.524   3.295   2.667
    1C        C  724   2.597   3.100   2.790
    1C        C  725   2.543   3.230   2.791
    1C        C  726   2.625   3.037   2.913
    1C        C  727   2.592   3.098   3.036
    1C        C  728   2.705   2.920   3.160
    1C        C  729   2.627   3.038   3.159
    1C        C  730   2.755   2.874   3.284
    1C        C  731   2.715   2.931   3.407
    1C        C  732   2.757   2.873   3.529
    1C        C  733   2.493   3.199   2.070
    1C        C  734   2.491   3.281   2.183
    1C        C  735   2.584   3.086   2.303
    1C        C  736   2.526   3.216   2.305
    1C        C  737   2.618   3.025   2.426
    1C        C  738   2.587   3.091   2.547
    1C        C  739   2.698   2.911   2.669
    1C        C  740   2.622   3.030   2.670
    1C        C  741   2.743   2.858   2.792
    1C        C  742   2.701   2.918   2.913
    1C        C  743   2.747   2.867   3.036
    1C        C  744   2.553   3.073   2.071
    1C        C  745   2.690   2.899   2.186
    1C        C  746   2.614   3.018   2.184
    1C        C  747   2.733   2.843   2.309
    1C        C  748   2.688   2.902   2.428
    1C        C  749   2.741   2.850   2.549
    1C        C  750   2.737   2.837   2.070
    1C        C  751   3.665   2.331   1.968
    1C        O  752   3.720   2.224   2.007
    1C        O  753   3.609   2.339   1.840
    1C        C  754   4.639   3.055   1.984
    1C        O  755   4.612   3.032   1.863
    1C        O  756   4.770   3.105   1.992
    1C        C  757   4.443   4.214   1.956
    1C        O  758   4.541   4.290   1.977
    1C        O  759   4.415   4.204   1.819
    1C        C  760   3.597   4.663   1.942
    1C        O  761   3.619   4.783   1.972
    1C        O  762   3.610   4.659   1.802
    1C        C  763   2.892   4.502   1.957
    1C        O  764   2.945   4.490   1.844
    1C        O  765   2.796   4.603   1.974
    1C        C  766   2.327   3.471   1.983
    1C        O  767   2.328   3.425   1.865
    1C        O  768   2.195   3.463   2.028
    1C        C  769   4.697   3.607   5.061
    1C        O  770   4.699   3.519   5.151
    1C        O  771   4.820   3.630   4.997
    1C        C  772   4.261   4.458   5.045
    1C        O  773   4.259   4.420   5.165
    1C        O  774   4.392   4.492   5.008
    1C        C  775   4.148   2.531   5.073
    1C        O  776   4.173   2.411   5.044
    1C        O  777   4.134   2.551   5.211
    1C        C  778   2.883   4.538   5.056
    1C        O  779   2.907   4.658   5.026
    1C        O  780   2.903   4.515   5.193
    1C        C  781   2.467   3.044   5.072
    1C        O  782   2.347   3.026   5.041
    1C        O  783   2.476   3.062   5.209
    1C        C  784   2.403   3.998   5.043
    1C        O  785   2.289   4.000   4.988
    1C        O  786   2.416   3.952   5.174
    1C        C  787   2.950   2.408   2.023
    1C        O  788   2.848   2.429   1.951
    1C        O  789   2.937   2.280   2.074
    1C        C  790   3.200   2.398   5.086
    1C        O  791   3.171   2.276   5.078
    1C        O  792   3.257   2.438   5.208
    1C        H  793   4.260   3.036   5.051
    1C        H  794   4.231   2.787   5.070
    1C        H  795   4.499   3.126   5.060
    1C        H  796   4.482   3.381   5.059
    1C        H  797   4.530   3.806   5.054
    1C        H  798   4.441   3.993   5.056
    1C        H  799   4.344   4.195   5.045
    1C        H  800   4.034   4.555   5.021
    1C        H  801   3.805   4.557   5.043
    1C        H  802   3.588   4.646   5.033
    1C        H  803   3.391   4.514   5.048
    1C        H  804   3.154   4.546   5.046
    1C        H  805   3.890   2.490   5.069
    1C        H  806   3.677   2.438   5.068
    1C        H  807   2.996   2.553   5.064
    1C        H  808   3.451   2.488   5.077
    1C        H  809   2.913   2.779   5.072
    1C        H  810   2.689   2.869   5.077
    1C        H  811   2.519   3.302   5.075
    1C        H  812   2.503   3.501   5.066
    1C        H  813   2.473   3.732   5.056
    1C        H  814   2.567   4.199   5.020
    1C        H  815   2.753   4.322   5.059
    1C        H  816   2.692   2.859   1.975
    1C        H  817   2.823   2.664   1.984
    1C        H  818   3.198   2.403   1.998
    1C        H  819   3.425   2.441   1.982
    1C        H  820   3.835   2.568   1.979
    1C        H  821   4.076   2.597   1.976
    1C        H  822   4.251   2.722   1.969
    1C        H  823   4.369   2.932   1.970
    1C        H  824   4.561   3.306   1.962
    1C        H  825   4.495   3.515   1.961
    1C        H  826   4.499   3.754   1.956
    1C        H  827   3.812   4.562   1.972
    1C        H  828   3.956   4.375   1.946
    1C        H  829   4.146   4.231   1.958
    1C        H  830   4.520   3.978   1.979
    1C        H  831   2.681   3.827   1.990
    1C        H  832   2.695   4.065   1.956
    1C        H  833   2.722   4.297   1.963
    1C        H  834   3.367   4.505   1.947
    1C        H  835   3.151   4.410   1.950
    1C        H  836   2.504   3.009   2.001
    1C        H  837   2.405   3.200   2.009
    1C        H  838   2.500   3.684   1.964
    2V3OU   H29  839   2.800   3.549   5.102
    2V3OU   C27  840   2.778   3.502   5.201
    2V3OU   H27  841   2.719   3.574   5.263
    2V3OU   H28  842   2.728   3.403   5.184
    2V3OU   O11  843   2.905   3.479   5.262
    2V3OU   C15  844   2.922   3.402   5.375
    2V3OU   C13  845   3.050   3.379   5.430
    2V3OU   C14  846   3.072   3.271   5.517
    2V3OU   C16  847   2.967   3.192   5.563
    2V3OU    H6  848   2.991   3.100   5.619
    2V3OU   C12  849   3.212   3.231   5.545
    2V3OU    O2  850   3.236   3.125   5.607
    2V3OU   C10  851   3.325   3.310   5.494
    2V3OU    C8  852   3.458   3.274   5.515
    2V3OU   O10  853   3.488   3.148   5.557
    2V3OU   H26  854   3.404   3.118   5.594
    2V3OU    C6  855   3.564   3.351   5.459
    2V3OU    C5  856   3.536   3.468   5.390
    2V3OU    C4  857   3.703   3.296   5.455
    2V3OU    H4  858   3.726   3.223   5.538
    2V3OU    H5  859   3.709   3.234   5.361
    2V3OU    C2  860   3.818   3.397   5.456
    2V3OU    O6  861   3.807   3.479   5.573
    2V3OU   H21  862   3.769   3.560   5.537
    2V3OU    C3  863   3.784   3.500   5.347
    2V3OU    H2  864   3.864   3.579   5.343
    2V3OU    H3  865   3.788   3.447   5.249
    2V3OU   C25  866   3.951   3.323   5.446
    2V3OU    O7  867   3.996   3.288   5.337
    2V3OU   C26  868   4.030   3.290   5.572
    2V3OU   H22  869   4.063   3.387   5.618
    2V3OU   H23  870   4.120   3.229   5.546
    2V3OU    O8  871   3.963   3.210   5.667
    2V3OU   H24  872   3.917   3.272   5.725
    2V3OU    C1  873   3.646   3.563   5.353
    2V3OU    H1  874   3.628   3.617   5.256
    2V3OU    O3  875   3.662   3.663   5.455
    2V3OU   C19  876   3.617   3.794   5.422
    2V3OU    H9  877   3.517   3.805   5.370
    2V3OU    O4  878   3.716   3.841   5.334
    2V3OU   C20  879   3.843   3.873   5.392
    2V3OU   H10  880   3.898   3.774   5.401
    2V3OU   C24  881   3.610   3.857   5.561
    2V3OU   H16  882   3.546   3.795   5.629
    2V3OU   H17  883   3.567   3.959   5.550
    2V3OU   C23  884   3.751   3.876   5.618
    2V3OU   H15  885   3.790   3.772   5.644
    2V3OU    N1  886   3.743   3.954   5.740
    2V3OU   H19  887   3.817   3.931   5.803
    2V3OU   H20  888   3.651   3.935   5.773
    2V3OU   C21  889   3.854   3.947   5.526
    2V3OU   H11  890   3.956   3.927   5.570
    2V3OU    O5  891   3.831   4.087   5.530
    2V3OU   H18  892   3.784   4.091   5.615
    2V3OU   C22  893   3.912   3.948   5.279
    2V3OU   H12  894   3.863   4.048   5.263
    2V3OU   H13  895   3.909   3.887   5.185
    2V3OU   H14  896   4.017   3.970   5.311
    2V3OU   C11  897   3.161   3.469   5.395
    2V3OU    O1  898   3.139   3.588   5.363
    2V3OU    C9  899   3.300   3.424   5.413
    2V3OU    C7  900   3.401   3.503   5.358
    2V3OU    O9  901   3.384   3.611   5.274
    2V3OU   H25  902   3.290   3.633   5.281
    2V3OU   C17  903   2.820   3.323   5.432
    2V3OU    H7  904   2.718   3.352   5.409
    2V3OU   C18  905   2.838   3.217   5.520
    2V3OU    H8  906   2.752   3.151   5.539
    3SOL     OW  907   3.796   3.966   4.065
    3SOL    HW1  908   3.837   4.007   4.146
    3SOL    HW2  909   3.698   3.990   4.061
    4SOL     OW  910   6.591   0.287   0.607
    4SOL    HW1  911   6.600   0.195   0.645
    4SOL    HW2  912   6.494   0.315   0.609
    5SOL     OW  913   4.518   1.749   1.386
    5SOL    HW1  914   4.616   1.757   1.402
    5SOL    HW2  915   4.488   1.822   1.325
    6SOL     OW  916   5.336   0.407   2.819
    6SOL    HW1  917   5.318   0.429   2.915
    6SOL    HW2  918   5.353   0.309   2.810
    7SOL     OW  919   2.334   4.385   3.732
    7SOL    HW1  920   2.254   4.380   3.674
    7SOL    HW2  921   2.306   4.391   3.828
    8SOL     OW  922   1.986   3.386   5.632
    8SOL    HW1  923   1.916   3.324   5.667
    8SOL    HW2  924   2.052   3.334   5.578
    9SOL     OW  925   6.343   0.852   6.775
    9SOL    HW1  926   6.352   0.785   6.701
    9SOL    HW2  927   6.256   0.840   6.821
   10SOL     OW  928   4.510   4.883   2.911
   10SOL    HW1  929   4.587   4.860   2.852
   10SOL    HW2  930   4.439   4.813   2.902
   11SOL     OW  931   2.420   0.890   1.005
   11SOL    HW1  932   2.504   0.861   0.960
   11SOL    HW2  933   2.432   0.885   1.104
   12SOL     OW  934   3.195   5.258   3.419
   12SOL    HW1  935   3.289   5.260   3.386
   12SOL    HW2  936   3.157   5.351   3.416
   13SOL     OW  937   5.195   5.983   1.412
   13SOL    HW1  938   5.132   5.952   1.483
   13SOL    HW2  939   5.275   6.027   1.454
   14SOL     OW  940   4.252   5.293   5.154
   14SOL    HW1  941   4.193   5.253   5.225
   14SOL    HW2  942   4.339   5.244   5.151
   15SOL     OW  943   6.635   5.809   6.131
   15SOL    HW1  944   6.733   5.819   6.150
   15SOL    HW2  945   6.596   5.743   6.196
   16SOL     OW  946   1.270   3.741   5.098
   16SOL    HW1  947   1.303   3.716   5.007
   16SOL    HW2  948   1.305   3.831   5.122
   17SOL     OW  949   5.994   1.549   5.371
   17SOL    HW1  950   6.033   1.513   5.287
   17SOL    HW2  951   6.065   1.559   5.440
   18SOL     OW  952   3.096   0.938   5.766
   18SOL    HW1  953   3.063   0.866   5.826
   18SOL    HW2  954   3.196   0.936   5.764
   19SOL     OW  955   1.773   0.933   3.106
   19SOL    HW1  956   1.785   0.910   3.203
   19SOL    HW2  957   1.823   1.017   3.086
   20SOL     OW  958   6.241   1.863   5.655
   20SOL    HW1  959   6.169   1.894   5.593
   20SOL    HW2  960   6.237   1.915   5.740
   21SOL     OW  961   3.015   5.032   2.848
   21SOL    HW1  962   3.036   4.954   2.789
   21SOL    HW2  963   2.917   5.054   2.840
   22SOL     OW  964   1.759   6.199   5.823
   22SOL    HW1  965   1.694   6.159   5.759
   22SOL    HW2  966   1.732   6.293   5.845
   23SOL     OW  967   5.407   4.512   1.737
   23SOL    HW1  968   5.427   4.468   1.824
   23SOL    HW2  969   5.325   4.569   1.747
   24SOL     OW  970   4.508   0.658   1.481
   24SOL    HW1  971   4.414   0.689   1.487
   24SOL    HW2  972   4.569   0.726   1.522
   25SOL     OW  973   2.304   0.867   4.359
   25SOL    HW1  974   2.379   0.815   4.401
   25SOL    HW2  975   2.306   0.854   4.260
   26SOL     OW  976   1.043   2.903   6.619
   26SOL    HW1  977   1.042   2.912   6.520
   26SOL    HW2  978   1.063   2.808   6.643
   27SOL     OW  979   6.679   0.872   1.085
   27SOL    HW1  980   6.668   0.903   0.990
   27SOL    HW2  981   6.755   0.807   1.090
   28SOL     OW  982   2.682   0.859   4.791
   28SOL    HW1  983   2.761   0.908   4.753
   28SOL    HW2  984   2.705   0.824   4.882
   29SOL     OW  985   0.426   0.313   1.126
   29SOL    HW1  986   0.447   0.401   1.083
   29SOL    HW2  987   0.478   0.304   1.211
   30SOL     OW  988   4.149   0.456   4.966
   30SOL    HW1  989   4.231   0.406   4.994
   30SOL    HW2  990   4.175   0.529   4.903
   31SOL     OW  991   1.223   3.365   5.269
   31SOL    HW1  992   1.206   3.446   5.326
   31SOL    HW2  993   1.137   3.320   5.247
   32SOL     OW  994   2.515   0.788   1.228
   32SOL    HW1  995   2.482   0.824   1.315
   32SOL    HW2  996   2.599   0.836   1.202
   33SOL     OW  997   0.656   5.269   5.596
   33SOL    HW1  998   0.669   5.258   5.497
   33SOL    HW2  999   0.692   5.357   5.625
   34SOL     OW 1000   2.430   5.439   5.365
   34SOL    HW1 1001   2.370   5.513   5.396
   34SOL    HW2 1002   2.496   5.475   5.299
   35SOL     OW 1003   2.926   3.404   0.533
   35SOL    HW1 1004   2.852   3.361   0.483
   35SOL    HW2 1005   3.012   3.358   0.512
   36SOL     OW 1006   4.237   0.631   4.781
   36SOL    HW1 1007   4.282   0.562   4.725
   36SOL    HW2 1008   4.289   0.717   4.777
   37SOL     OW 1009   2.697   0.796   3.883
   37SOL    HW1 1010   2.775   0.747   3.922
   37SOL    HW2 1011   2.730   0.868   3.822
   38SOL     OW 1012   0.034   4.558   2.807
   38SOL    HW1 1013   6.986   4.604   2.858
   38SOL    HW2 1014   0.072   4.621   2.739
   39SOL     OW 1015   6.712   5.432   6.066
   39SOL    HW1 1016   6.757   5.519   6.088
   39SOL    HW2 1017   6.690   5.384   6.151
   40SOL     OW 1018   3.994   0.612   6.276
   40SOL    HW1 1019   4.055   0.567   6.342
   40SOL    HW2 1020   3.981   0.707   6.304
   41SOL     OW 1021   5.965   4.549   1.368
   41SOL    HW1 1022   5.983   4.476   1.302
   41SOL    HW2 1023   5.959   4.637   1.320
   42SOL     OW 1024   2.222   5.581   6.167
   42SOL    HW1 1025   2.189   5.509   6.229
   42SOL    HW2 1026   2.309   5.553   6.127
   43SOL     OW 1027   4.723   6.717   4.570
   43SOL    HW1 1028   4.693   6.724   4.475
   43SOL    HW2 1029   4.691   6.797   4.621
   44SOL     OW 1030   6.739   1.609   6.139
   44SOL    HW1 1031   6.819   1.655   6.176
   44SOL    HW2 1032   6.684   1.674   6.087
   45SOL     OW 1033   3.425   5.084   0.019
   45SOL    HW1 1034   3.386   5.057   6.955
   45SOL    HW2 1035   3.519   5.053   0.025
   46SOL     OW 1036   0.228   2.683   4.229
   46SOL    HW1 1037   0.151   2.734   4.189
   46SOL    HW2 1038   0.290   2.655   4.156
   47SOL     OW 1039   5.892   2.742   1.568
   47SOL    HW1 1040   5.800   2.720   1.535
   47SOL    HW2 1041   5.942   2.792   1.498
   48SOL     OW 1042   6.464   3.506   0.716
   48SOL    HW1 1043   6.411   3.456   0.647
   48SOL    HW2 1044   6.437   3.473   0.807
   49SOL     OW 1045   4.094   3.056   0.379
   49SOL    HW1 1046   4.021   3.117   0.347
   49SOL    HW2 1047   4.182   3.103   0.372
   50SOL     OW 1048   6.420   3.183   6.786
   50SOL    HW1 1049   6.322   3.202   6.790
   50SOL    HW2 1050   6.452   3.154   6.877
   51SOL     OW 1051   2.775   6.111   2.722
   51SOL    HW1 1052   2.811   6.105   2.815
   51SOL    HW2 1053   2.830   6.053   2.662
   52SOL     OW 1054   5.605   2.704   1.433
   52SOL    HW1 1055   5.585   2.607   1.423
   52SOL    HW2 1056   5.555   2.740   1.511
   53SOL     OW 1057   3.856   0.427   2.379
   53SOL    HW1 1058   3.769   0.453   2.338
   53SOL    HW2 1059   3.855   0.329   2.400
   54SOL     OW 1060   5.510   6.664   0.040
   54SOL    HW1 1061   5.566   6.587   0.070
   54SOL    HW2 1062   5.558   6.714   6.992
   55SOL     OW 1063   0.904   3.360   6.171
   55SOL    HW1 1064   0.851   3.437   6.135
   55SOL    HW2 1065   1.000   3.370   6.144
   56SOL     OW 1066   0.687   2.684   6.890
   56SOL    HW1 1067   0.761   2.638   6.939
   56SOL    HW2 1068   0.614   2.707   6.954
   57SOL     OW 1069   4.552   0.300   0.061
   57SOL    HW1 1070   4.492   0.369   0.101
   57SOL    HW2 1071   4.507   0.258   7.007
   58SOL     OW 1072   1.017   0.561   6.081
   58SOL    HW1 1073   0.924   0.596   6.090
   58SOL    HW2 1074   1.021   0.466   6.111
   59SOL     OW 1075   5.050   3.351   5.566
   59SOL    HW1 1076   5.043   3.262   5.612
   59SOL    HW2 1077   5.093   3.338   5.477
   60SOL     OW 1078   5.543   0.669   2.724
   60SOL    HW1 1079   5.532   0.576   2.690
   60SOL    HW2 1080   5.460   0.722   2.704
   61SOL     OW 1081   6.837   6.488   4.984
   61SOL    HW1 1082   6.895   6.567   5.004
   61SOL    HW2 1083   6.892   6.405   4.986
   62SOL     OW 1084   6.684   2.095   2.356
   62SOL    HW1 1085   6.687   2.191   2.327
   62SOL    HW2 1086   6.740   2.039   2.295
   63SOL     OW 1087   4.562   5.917   4.919
   63SOL    HW1 1088   4.603   5.943   5.007
   63SOL    HW2 1089   4.464   5.904   4.932
   64SOL     OW 1090   0.055   4.573   6.933
   64SOL    HW1 1091   0.100   4.483   6.937
   64SOL    HW2 1092   0.118   4.640   6.896
   65SOL     OW 1093   1.040   0.211   5.218
   65SOL    HW1 1094   1.052   0.279   5.290
   65SOL    HW2 1095   1.073   0.122   5.249
   66SOL     OW 1096   4.385   0.752   2.263
   66SOL    HW1 1097   4.392   0.753   2.363
   66SOL    HW2 1098   4.465   0.797   2.223
   67SOL     OW 1099   1.123   2.441   1.187
   67SOL    HW1 1100   1.187   2.397   1.124
   67SOL    HW2 1101   1.088   2.525   1.145
   68SOL     OW 1102   0.119   1.530   5.582
   68SOL    HW1 1103   0.119   1.549   5.483
   68SOL    HW2 1104   0.126   1.615   5.633
   69SOL     OW 1105   1.020   5.684   6.197
   69SOL    HW1 1106   1.034   5.714   6.291
   69SOL    HW2 1107   1.096   5.715   6.140
   70SOL     OW 1108   4.967   3.549   4.097
   70SOL    HW1 1109   5.067   3.552   4.088
   70SOL    HW2 1110   4.931   3.642   4.109
   71SOL     OW 1111   4.549   1.607   4.271
   71SOL    HW1 1112   4.506   1.678   4.215
   71SOL    HW2 1113   4.480   1.568   4.333
   72SOL     OW 1114   0.489   0.772   3.806
   72SOL    HW1 1115   0.467   0.805   3.714
   72SOL    HW2 1116   0.482   0.848   3.871
   73SOL     OW 1117   2.827   0.647   1.184
   73SOL    HW1 1118   2.876   0.724   1.224
   73SOL    HW2 1119   2.733   0.675   1.165
   74SOL     OW 1120   2.038   2.606   0.724
   74SOL    HW1 1121   1.978   2.526   0.732
   74SOL    HW2 1122   2.126   2.587   0.766
   75SOL     OW 1123   3.998   2.786   0.459
   75SOL    HW1 1124   3.921   2.759   0.402
   75SOL    HW2 1125   4.016   2.884   0.445
   76SOL     OW 1126   3.386   4.650   5.370
   76SOL    HW1 1127   3.292   4.642   5.338
   76SOL    HW2 1128   3.436   4.713   5.311
   77SOL     OW 1129   1.389   4.387   4.727
   77SOL    HW1 1130   1.445   4.453   4.676
   77SOL    HW2 1131   1.332   4.335   4.664
   78SOL     OW 1132   4.958   1.978   0.895
   78SOL    HW1 1133   4.859   1.960   0.896
   78SOL    HW2 1134   4.980   2.047   0.964
   79SOL     OW 1135   1.861   4.949   2.822
   79SOL    HW1 1136   1.813   4.902   2.897
   79SOL    HW2 1137   1.796   5.006   2.772
   80SOL     OW 1138   4.697   1.937   4.357
   80SOL    HW1 1139   4.612   1.899   4.393
   80SOL    HW2 1140   4.694   2.037   4.361
   81SOL     OW 1141   3.692   5.419   1.446
   81SOL    HW1 1142   3.765   5.359   1.412
   81SOL    HW2 1143   3.605   5.393   1.405
   82SOL     OW 1144   1.958   5.705   1.487
   82SOL    HW1 1145   2.053   5.723   1.461
   82SOL    HW2 1146   1.952   5.615   1.530
   83SOL     OW 1147   5.053   1.393   4.657
   83SOL    HW1 1148   5.011   1.449   4.585
   83SOL    HW2 1149   5.151   1.412   4.662
   84SOL     OW 1150   5.763   2.420   2.406
   84SOL    HW1 1151   5.706   2.339   2.389
   84SOL    HW2 1152   5.707   2.492   2.446
   85SOL     OW 1153   2.252   0.526   3.843
   85SOL    HW1 1154   2.265   0.451   3.908
   85SOL    HW2 1155   2.339   0.572   3.826
   86SOL     OW 1156   5.112   0.410   6.600
   86SOL    HW1 1157   5.087   0.496   6.555
   86SOL    HW2 1158   5.196   0.423   6.652
   87SOL     OW 1159   2.900   4.331   0.181
   87SOL    HW1 1160   2.882   4.344   0.279
   87SOL    HW2 1161   2.882   4.416   0.132
   88SOL     OW 1162   3.324   3.876   0.020
   88SOL    HW1 1163   3.329   3.929   0.104
   88SOL    HW2 1164   3.414   3.872   7.002
   89SOL     OW 1165   3.184   3.757   3.192
   89SOL    HW1 1166   3.143   3.754   3.283
   89SOL    HW2 1167   3.112   3.761   3.123
   90SOL     OW 1168   4.742   4.223   3.421
   90SOL    HW1 1169   4.819   4.287   3.423
   90SOL    HW2 1170   4.729   4.191   3.327
   91SOL     OW 1171   4.545   4.926   5.786
   91SOL    HW1 1172   4.613   4.857   5.761
   91SOL    HW2 1173   4.574   5.015   5.750
   92SOL     OW 1174   5.706   3.698   6.732
   92SOL    HW1 1175   5.702   3.798   6.735
   92SOL    HW2 1176   5.633   3.663   6.672
   93SOL     OW 1177   2.949   3.602   2.075
   93SOL    HW1 1178   2.907   3.627   1.988
   93SOL    HW2 1179   2.908   3.518   2.110
   94SOL     OW 1180   3.227   2.126   5.399
   94SOL    HW1 1181   3.136   2.087   5.387
   94SOL    HW2 1182   3.274   2.130   5.311
   95SOL     OW 1183   0.630   0.299   4.434
   95SOL    HW1 1184   0.665   0.350   4.512
   95SOL    HW2 1185   0.648   0.350   4.350
   96SOL     OW 1186   5.481   5.311   0.457
   96SOL    HW1 1187   5.388   5.349   0.448
   96SOL    HW2 1188   5.475   5.213   0.478
   97SOL     OW 1189   2.838   5.044   5.753
   97SOL    HW1 1190   2.821   5.017   5.658
   97SOL    HW2 1191   2.805   5.137   5.768
   98SOL     OW 1192   1.419   2.552   3.341
   98SOL    HW1 1193   1.470   2.466   3.339
   98SOL    HW2 1194   1.325   2.536   3.308
   99SOL     OW 1195   4.038   3.219   5.021
   99SOL    HW1 1196   4.122   3.260   4.986
   99SOL    HW2 1197   3.998   3.278   5.091
  100SOL     OW 1198   0.183   1.026   4.174
  100SOL    HW1 1199   0.203   0.993   4.082
  100SOL    HW2 1200   0.198   1.125   4.178
  101SOL     OW 1201   6.831   4.219   2.453
  101SOL    HW1 1202   6.800   4.224   2.548
  101SOL    HW2 1203   6.875   4.130   2.437
  102SOL     OW 1204   2.941   0.490   0.369
  102SOL    HW1 1205   2.887   0.575   0.363
  102SOL    HW2 1206   3.030   0.504   0.326
  103SOL     OW 1207   2.354   0.866   2.036
  103SOL    HW1 1208   2.300   0.938   2.081
  103SOL    HW2 1209   2.430   0.839   2.096
  104SOL     OW 1210   0.813   4.636   1.552
  104SOL    HW1 1211   0.773   4.631   1.643
  104SOL    HW2 1212   0.745   4.608   1.484
  105SOL     OW 1213   5.718   0.918   5.603
  105SOL    HW1 1214   5.732   0.988   5.533
  105SOL    HW2 1215   5.708   0.829   5.560
  106SOL     OW 1216   5.766   4.800   2.175
  106SOL    HW1 1217   5.735   4.883   2.221
  106SOL    HW2 1218   5.797   4.733   2.242
  107SOL     OW 1219   5.555   0.505   1.149
  107SOL    HW1 1220   5.489   0.452   1.203
  107SOL    HW2 1221   5.537   0.493   1.052
  108SOL     OW 1222   2.012   1.037   5.453
  108SOL    HW1 1223   2.004   1.009   5.548
  108SOL    HW2 1224   1.947   0.985   5.397
  109SOL     OW 1225   1.707   1.012   3.997
  109SOL    HW1 1226   1.785   0.992   3.937
  109SOL    HW2 1227   1.681   0.929   4.047
  110SOL     OW 1228   2.986   4.100   5.513
  110SOL    HW1 1229   3.049   4.031   5.477
  110SOL    HW2 1230   3.039   4.181   5.542
  111SOL     OW 1231   6.709   1.377   1.610
  111SOL    HW1 1232   6.801   1.381   1.572
  111SOL    HW2 1233   6.641   1.383   1.537
  112SOL     OW 1234   4.681   0.017   6.716
  112SOL    HW1 1235   4.768   7.022   6.763
  112SOL    HW2 1236   4.635   6.955   6.695
  113SOL     OW 1237   7.011   5.894   1.582
  113SOL    HW1 1238   6.924   5.873   1.535
  113SOL    HW2 1239   6.993   5.913   1.678
  114SOL     OW 1240   0.358   3.479   3.656
  114SOL    HW1 1241   0.262   3.448   3.658
  114SOL    HW2 1242   0.379   3.515   3.565
  115SOL     OW 1243   5.535   0.724   3.974
  115SOL    HW1 1244   5.485   0.782   3.909
  115SOL    HW2 1245   5.603   0.779   4.022
  116SOL     OW 1246   0.737   4.486   6.967
  116SOL    HW1 1247   0.813   4.501   6.904
  116SOL    HW2 1248   0.736   4.390   6.995
  117SOL     OW 1249   2.467   1.904   6.979
  117SOL    HW1 1250   2.560   1.869   6.990
  117SOL    HW2 1251   2.434   1.882   6.887
  118SOL     OW 1252   1.250   1.786   4.308
  118SOL    HW1 1253   1.214   1.832   4.227
  118SOL    HW2 1254   1.319   1.844   4.351
  119SOL     OW 1255   6.636   6.179   6.551
  119SOL    HW1 1256   6.600   6.102   6.498
  119SOL    HW2 1257   6.596   6.264   6.518
  120SOL     OW 1258   4.822   2.179   4.777
  120SOL    HW1 1259   4.734   2.150   4.742
  120SOL    HW2 1260   4.820   2.179   4.877
  121SOL     OW 1261   1.520   4.513   6.641
  121SOL    HW1 1262   1.607   4.492   6.686
  121SOL    HW2 1263   1.444   4.495   6.705
  122SOL     OW 1264   0.631   3.751   6.762
  122SOL    HW1 1265   0.686   3.753   6.846
  122SOL    HW2 1266   0.654   3.669   6.710
  123SOL     OW 1267   0.989   1.325   1.687
  123SOL    HW1 1268   0.951   1.233   1.696
  123SOL    HW2 1269   1.052   1.328   1.608
  124SOL     OW 1270   2.361   2.882   0.500
  124SOL    HW1 1271   2.346   2.805   0.439
  124SOL    HW2 1272   2.426   2.855   0.572
  125SOL     OW 1273   3.837   3.758   0.330
  125SOL    HW1 1274   3.867   3.665   0.352
  125SOL    HW2 1275   3.798   3.759   0.238
  126SOL     OW 1276   4.165   3.653   4.615
  126SOL    HW1 1277   4.112   3.572   4.638
  126SOL    HW2 1278   4.224   3.677   4.692
  127SOL     OW 1279   0.633   6.013   6.065
  127SOL    HW1 1280   0.595   6.073   6.135
  127SOL    HW2 1281   0.560   5.988   6.001
  128SOL     OW 1282   4.854   3.322   0.680
  128SOL    HW1 1283   4.800   3.370   0.749
  128SOL    HW2 1284   4.807   3.329   0.591
  129SOL     OW 1285   1.277   5.460   1.181
  129SOL    HW1 1286   1.237   5.369   1.168
  129SOL    HW2 1287   1.222   5.511   1.247
  130SOL     OW 1288   5.307   2.554   5.079
  130SOL    HW1 1289   5.292   2.612   5.159
  130SOL    HW2 1290   5.399   2.571   5.042
  131SOL     OW 1291   6.912   2.105   3.631
  131SOL    HW1 1292   6.905   2.009   3.657
  131SOL    HW2 1293   6.992   2.146   3.674
  132SOL     OW 1294   4.179   3.360   2.222
  132SOL    HW1 1295   4.200   3.263   2.209
  132SOL    HW2 1296   4.186   3.408   2.135
  133SOL     OW 1297   5.522   6.491   5.965
  133SOL    HW1 1298   5.442   6.491   5.904
  133SOL    HW2 1299   5.543   6.397   5.991
  134SOL     OW 1300   4.764   0.768   1.842
  134SOL    HW1 1301   4.786   0.850   1.790
  134SOL    HW2 1302   4.818   0.766   1.926
  135SOL     OW 1303   4.969   3.386   3.480
  135SOL    HW1 1304   4.901   3.351   3.415
  135SOL    HW2 1305   4.938   3.367   3.573
  136SOL     OW 1306   3.348   0.105   5.941
  136SOL    HW1 1307   3.380   0.102   5.846
  136SOL    HW2 1308   3.410   0.161   5.995
  137SOL     OW 1309   2.911   2.610   5.607
  137SOL    HW1 1310   2.967   2.639   5.529
  137SOL    HW2 1311   2.876   2.518   5.591
  138SOL     OW 1312   0.985   5.857   5.906
  138SOL    HW1 1313   1.002   5.798   5.827
  138SOL    HW2 1314   1.034   5.820   5.985
  139SOL     OW 1315   2.076   6.072   6.990
  139SOL    HW1 1316   2.173   6.060   7.011
  139SOL    HW2 1317   2.021   6.033   0.040
  140SOL     OW 1318   2.612   0.124   1.775
  140SOL    HW1 1319   2.710   0.115   1.792
  140SOL    HW2 1320   2.595   0.210   1.726
  141SOL     OW 1321   6.435   3.515   0.342
  141SOL    HW1 1322   6.374   3.480   0.413
  141SOL    HW2 1323   6.381   3.551   0.266
  142SOL     OW 1324   1.663   4.286   2.538
  142SOL    HW1 1325   1.745   4.342   2.550
  142SOL    HW2 1326   1.601   4.302   2.615
  143SOL     OW 1327   4.849   6.549   2.253
  143SOL    HW1 1328   4.839   6.520   2.348
  143SOL    HW2 1329   4.944   6.576   2.237
  144SOL     OW 1330   3.497   4.954   3.613
  144SOL    HW1 1331   3.596   4.941   3.615
  144SOL    HW2 1332   3.475   5.045   3.649
  145SOL     OW 1333   6.886   5.011   3.151
  145SOL    HW1 1334   6.801   4.975   3.191
  145SOL    HW2 1335   6.946   4.936   3.126
  146SOL     OW 1336   5.874   1.641   6.622
  146SOL    HW1 1337   5.898   1.572   6.554
  146SOL    HW2 1338   5.794   1.609   6.674
  147SOL     OW 1339   4.989   1.107   5.574
  147SOL    HW1 1340   5.066   1.118   5.512
  147SOL    HW2 1341   4.928   1.037   5.539
  148SOL     OW 1342   0.919   5.248   0.610
  148SOL    HW1 1343   0.995   5.254   0.545
  148SOL    HW2 1344   0.949   5.281   0.700
  149SOL     OW 1345   2.080   2.806   5.587
  149SOL    HW1 1346   2.088   2.818   5.686
  149SOL    HW2 1347   2.109   2.890   5.541
  150SOL     OW 1348   4.136   1.913   4.868
  150SOL    HW1 1349   4.196   1.977   4.916
  150SOL    HW2 1350   4.185   1.827   4.853
  151SOL     OW 1351   3.944   2.508   0.754
  151SOL    HW1 1352   3.900   2.430   0.799
  151SOL    HW2 1353   3.898   2.527   0.668
  152SOL     OW 1354   1.266   2.027   0.197
  152SOL    HW1 1355   1.279   1.942   0.248
  152SOL    HW2 1356   1.353   2.054   0.157
  153SOL     OW 1357   3.200   1.142   3.552
  153SOL    HW1 1358   3.275   1.203   3.527
  153SOL    HW2 1359   3.214   1.053   3.510
  154SOL     OW 1360   5.950   1.583   1.559
  154SOL    HW1 1361   5.915   1.514   1.495
  154SOL    HW2 1362   6.045   1.562   1.582
  155SOL     OW 1363   1.673   6.820   2.411
  155SOL    HW1 1364   1.585   6.818   2.364
  155SOL    HW2 1365   1.747   6.807   2.345
  156SOL     OW 1366   4.984   2.001   0.589
  156SOL    HW1 1367   4.938   2.022   0.676
  156SOL    HW2 1368   4.917   2.003   0.515
  157SOL     OW 1369   4.723   5.078   6.795
  157SOL    HW1 1370   4.738   4.979   6.787
  157SOL    HW2 1371   4.720   5.118   6.704
  158SOL     OW 1372   0.232   2.933   2.813
  158SOL    HW1 1373   0.221   3.005   2.881
  158SOL    HW2 1374   0.292   2.964   2.740
  159SOL     OW 1375   5.899   5.540   0.437
  159SOL    HW1 1376   5.802   5.527   0.456
  159SOL    HW2 1377   5.919   5.511   0.343
  160SOL     OW 1378   6.518   6.804   1.218
  160SOL    HW1 1379   6.592   6.740   1.242
  160SOL    HW2 1380   6.544   6.857   1.138
  161SOL     OW 1381   0.215   6.711   0.135
  161SOL    HW1 1382   0.194   6.753   0.047
  161SOL    HW2 1383   0.303   6.746   0.168
  162SOL     OW 1384   4.119   0.208   0.100
  162SOL    HW1 1385   4.052   0.273   0.064
  162SOL    HW2 1386   4.194   0.198   0.035
  163SOL     OW 1387   6.857   3.861   3.149
  163SOL    HW1 1388   6.832   3.766   3.131
  163SOL    HW2 1389   6.948   3.880   3.112
  164SOL     OW 1390   2.093   2.369   3.411
  164SOL    HW1 1391   2.181   2.338   3.446
  164SOL    HW2 1392   2.021   2.305   3.440
  165SOL     OW 1393   0.552   6.269   3.385
  165SOL    HW1 1394   0.507   6.335   3.325
  165SOL    HW2 1395   0.596   6.317   3.461
  166SOL     OW 1396   0.228   3.344   3.146
  166SOL    HW1 1397   0.172   3.425   3.164
  166SOL    HW2 1398   0.321   3.371   3.122
  167SOL     OW 1399   4.741   2.034   0.122
  167SOL    HW1 1400   4.757   1.967   0.049
  167SOL    HW2 1401   4.644   2.034   0.146
  168SOL     OW 1402   5.179   4.322   2.007
  168SOL    HW1 1403   5.220   4.238   1.971
  168SOL    HW2 1404   5.222   4.401   1.964
  169SOL     OW 1405   6.076   1.961   1.444
  169SOL    HW1 1406   6.144   2.034   1.431
  169SOL    HW2 1407   5.988   1.992   1.408
  170SOL     OW 1408   0.791   5.305   3.093
  170SOL    HW1 1409   0.835   5.332   3.179
  170SOL    HW2 1410   0.737   5.382   3.059
  171SOL     OW 1411   3.131   4.327   0.550
  171SOL    HW1 1412   3.129   4.415   0.503
  171SOL    HW2 1413   3.038   4.302   0.576
  172SOL     OW 1414   6.675   1.903   0.272
  172SOL    HW1 1415   6.714   1.811   0.274
  172SOL    HW2 1416   6.589   1.901   0.220
  173SOL     OW 1417   6.954   1.853   4.850
  173SOL    HW1 1418   6.931   1.917   4.923
  173SOL    HW2 1419   6.947   1.759   4.884
  174SOL     OW 1420   5.971   5.462   5.557
  174SOL    HW1 1421   5.934   5.551   5.583
  174SOL    HW2 1422   5.996   5.463   5.460
  175SOL     OW 1423   0.690   0.203   1.246
  175SOL    HW1 1424   0.701   0.298   1.220
  175SOL    HW2 1425   0.758   0.147   1.199
  176SOL     OW 1426   5.457   4.642   2.250
  176SOL    HW1 1427   5.489   4.706   2.180
  176SOL    HW2 1428   5.376   4.593   2.216
  177SOL     OW 1429   5.847   2.488   4.379
  177SOL    HW1 1430   5.780   2.562   4.391
  177SOL    HW2 1431   5.800   2.400   4.382
  178SOL     OW 1432   1.918   6.372   5.150
  178SOL    HW1 1433   1.922   6.285   5.199
  178SOL    HW2 1434   2.011   6.407   5.137
  179SOL     OW 1435   3.663   4.637   1.351
  179SOL    HW1 1436   3.623   4.687   1.274
  179SOL    HW2 1437   3.754   4.604   1.326
  180SOL     OW 1438   4.013   1.586   0.380
  180SOL    HW1 1439   3.969   1.665   0.337
  180SOL    HW2 1440   3.969   1.502   0.349
  181SOL     OW 1441   3.179   2.386   5.472
  181SOL    HW1 1442   3.203   2.415   5.380
  181SOL    HW2 1443   3.184   2.287   5.479
  182SOL     OW 1444   4.748   2.478   7.021
  182SOL    HW1 1445   4.776   2.573   0.008
  182SOL    HW2 1446   4.705   2.467   6.931
  183SOL     OW 1447   3.476   1.460   3.705
  183SOL    HW1 1448   3.506   1.537   3.648
  183SOL    HW2 1449   3.387   1.481   3.745
  184SOL     OW 1450   5.705   6.131   3.708
  184SOL    HW1 1451   5.782   6.101   3.765
  184SOL    HW2 1452   5.665   6.052   3.661
  185SOL     OW 1453   6.507   1.382   4.288
  185SOL    HW1 1454   6.525   1.295   4.335
  185SOL    HW2 1455   6.443   1.367   4.213
  186SOL     OW 1456   4.320   5.889   4.088
  186SOL    HW1 1457   4.309   5.988   4.092
  186SOL    HW2 1458   4.343   5.861   3.995
  187SOL     OW 1459   4.818   6.424   1.736
  187SOL    HW1 1460   4.738   6.480   1.757
  187SOL    HW2 1461   4.899   6.482   1.728
  188SOL     OW 1462   1.757   3.536   3.186
  188SOL    HW1 1463   1.730   3.447   3.223
  188SOL    HW2 1464   1.855   3.534   3.164
  189SOL     OW 1465   6.211   5.255   6.160
  189SOL    HW1 1466   6.154   5.322   6.208
  189SOL    HW2 1467   6.158   5.212   6.087
  190SOL     OW 1468   6.137   0.333   0.207
  190SOL    HW1 1469   6.125   0.333   0.307
  190SOL    HW2 1470   6.104   0.246   0.170
  191SOL     OW 1471   6.879   1.137   5.859
  191SOL    HW1 1472   6.790   1.182   5.855
  191SOL    HW2 1473   6.950   1.202   5.831
  192SOL     OW 1474   0.623   5.548   0.738
  192SOL    HW1 1475   0.619   5.529   0.836
  192SOL    HW2 1476   0.550   5.611   0.713
  193SOL     OW 1477   2.444   6.241   6.321
  193SOL    HW1 1478   2.427   6.167   6.387
  193SOL    HW2 1479   2.363   6.255   6.265
  194SOL     OW 1480   3.919   6.733   2.145
  194SOL    HW1 1481   3.846   6.723   2.078
  194SOL    HW2 1482   3.958   6.826   2.138
  195SOL     OW 1483   3.627   0.760   1.739
  195SOL    HW1 1484   3.603   0.714   1.653
  195SOL    HW2 1485   3.606   0.699   1.816
  196SOL     OW 1486   2.069   1.488   0.879
  196SOL    HW1 1487   2.105   1.490   0.786
  196SOL    HW2 1488   2.016   1.404   0.893
  197SOL     OW 1489   2.292   6.187   0.692
  197SOL    HW1 1490   2.211   6.222   0.643
  197SOL    HW2 1491   2.364   6.166   0.625
  198SOL     OW 1492   4.160   0.071   6.705
  198SOL    HW1 1493   4.225   0.129   6.656
  198SOL    HW2 1494   4.109   0.015   6.640
  199SOL     OW 1495   6.886   6.535   3.200
  199SOL    HW1 1496   6.798   6.509   3.240
  199SOL    HW2 1497   6.959   6.478   3.237
  200SOL     OW 1498   0.400   3.513   3.923
  200SOL    HW1 1499   0.461   3.439   3.954
  200SOL    HW2 1500   0.391   3.509   3.824
  201SOL     OW 1501   3.584   1.185   6.633
  201SOL    HW1 1502   3.496   1.194   6.680
  201SOL    HW2 1503   3.572   1.131   6.549
  202SOL     OW 1504   3.358   0.208   2.746
  202SOL    HW1 1505   3.278   0.225   2.688
  202SOL    HW2 1506   3.329   0.203   2.842
  203SOL     OW 1507   5.571   3.438   6.519
  203SOL    HW1 1508   5.513   3.369   6.477
  203SOL    HW2 1509   5.599   3.505   6.449
  204SOL     OW 1510   2.257   6.581   1.063
  204SOL    HW1 1511   2.232   6.649   0.994
  204SOL    HW2 1512   2.255   6.490   1.022
  205SOL     OW 1513   6.160   1.595   0.662
  205SOL    HW1 1514   6.221   1.652   0.716
  205SOL    HW2 1515   6.078   1.648   0.637
  206SOL     OW 1516   1.029   4.565   2.110
  206SOL    HW1 1517   1.047   4.512   2.027
  206SOL    HW2 1518   1.010   4.660   2.084
  207SOL     OW 1519   4.456   0.632   5.842
  207SOL    HW1 1520   4.493   0.599   5.755
  207SOL    HW2 1521   4.523   0.694   5.884
  208SOL     OW 1522   4.356   5.420   6.122
  208SOL    HW1 1523   4.266   5.389   6.150
  208SOL    HW2 1524   4.353   5.450   6.027
  209SOL     OW 1525   6.469   5.342   5.619
  209SOL    HW1 1526   6.547   5.279   5.610
  209SOL    HW2 1527   6.476   5.392   5.705
  210SOL     OW 1528   3.926   3.035   1.096
  210SOL    HW1 1529   3.976   3.055   1.012
  210SOL    HW2 1530   3.946   2.941   1.124
  211SOL     OW 1531   1.874   1.304   0.921
  211SOL    HW1 1532   1.784   1.331   0.887
  211SOL    HW2 1533   1.889   1.207   0.901
  212SOL     OW 1534   0.359   4.831   3.924
  212SOL    HW1 1535   0.273   4.781   3.939
  212SOL    HW2 1536   0.393   4.866   4.011
  213SOL     OW 1537   5.042   2.224   6.898
  213SOL    HW1 1538   4.945   2.226   6.873
  213SOL    HW2 1539   5.051   2.228   6.998
  214SOL     OW 1540   1.156   0.406   2.894
  214SOL    HW1 1541   1.101   0.382   2.814
  214SOL    HW2 1542   1.167   0.325   2.952
  215SOL     OW 1543   3.657   3.444   2.897
  215SOL    HW1 1544   3.676   3.348   2.876
  215SOL    HW2 1545   3.559   3.460   2.894
  216SOL     OW 1546   0.938   6.868   5.974
  216SOL    HW1 1547   0.865   6.923   5.935
  216SOL    HW2 1548   1.013   6.862   5.908
  217SOL     OW 1549   0.665   2.800   2.813
  217SOL    HW1 1550   0.692   2.737   2.885
  217SOL    HW2 1551   0.595   2.863   2.848
  218SOL     OW 1552   1.313   3.978   5.196
  218SOL    HW1 1553   1.270   4.066   5.175
  218SOL    HW2 1554   1.409   3.981   5.169
  219SOL     OW 1555   4.703   5.430   0.072
  219SOL    HW1 1556   4.792   5.439   0.027
  219SOL    HW2 1557   4.672   5.520   0.103
  220SOL     OW 1558   2.684   5.314   0.290
  220SOL    HW1 1559   2.631   5.245   0.241
  220SOL    HW2 1560   2.645   5.404   0.273
  221SOL     OW 1561   5.657   1.910   4.605
  221SOL    HW1 1562   5.558   1.899   4.603
  221SOL    HW2 1563   5.694   1.895   4.513
  222SOL     OW 1564   0.593   6.066   5.420
  222SOL    HW1 1565   0.646   6.016   5.487
  222SOL    HW2 1566   0.524   6.122   5.467
  223SOL     OW 1567   6.898   3.939   2.049
  223SOL    HW1 1568   6.911   4.038   2.048
  223SOL    HW2 1569   6.973   3.896   2.100
  224SOL     OW 1570   2.864   2.180   1.734
  224SOL    HW1 1571   2.859   2.243   1.812
  224SOL    HW2 1572   2.941   2.206   1.676
  225SOL     OW 1573   6.126   0.786   6.939
  225SOL    HW1 1574   6.182   0.706   6.960
  225SOL    HW2 1575   6.072   0.811   7.020
  226SOL     OW 1576   6.857   5.979   1.023
  226SOL    HW1 1577   6.759   5.981   1.041
  226SOL    HW2 1578   6.906   6.015   1.103
  227SOL     OW 1579   1.417   3.575   3.796
  227SOL    HW1 1580   1.322   3.557   3.770
  227SOL    HW2 1581   1.439   3.671   3.776
  228SOL     OW 1582   4.493   6.870   3.849
  228SOL    HW1 1583   4.485   6.796   3.783
  228SOL    HW2 1584   4.524   6.953   3.803
  229SOL     OW 1585   6.024   5.785   2.194
  229SOL    HW1 1586   6.008   5.724   2.272
  229SOL    HW2 1587   6.072   5.735   2.122
  230SOL     OW 1588   2.355   4.469   4.764
  230SOL    HW1 1589   2.321   4.390   4.816
  230SOL    HW2 1590   2.398   4.533   4.826
  231SOL     OW 1591   0.985   2.658   5.973
  231SOL    HW1 1592   0.891   2.676   5.943
  231SOL    HW2 1593   0.993   2.677   6.071
  232SOL     OW 1594   2.295   4.699   6.512
  232SOL    HW1 1595   2.313   4.647   6.595
  232SOL    HW2 1596   2.199   4.728   6.510
  233SOL     OW 1597   2.277   0.942   5.723
  233SOL    HW1 1598   2.318   1.017   5.775
  233SOL    HW2 1599   2.291   0.856   5.771
  234SOL     OW 1600   2.995   5.643   6.534
  234SOL    HW1 1601   2.956   5.670   6.446
  234SOL    HW2 1602   2.926   5.654   6.606
  235SOL     OW 1603   2.947   3.290   4.543
  235SOL    HW1 1604   2.917   3.382   4.518
  235SOL    HW2 1605   2.983   3.243   4.463
  236SOL     OW 1606   6.600   2.311   5.416
  236SOL    HW1 1607   6.544   2.286   5.495
  236SOL    HW2 1608   6.682   2.253   5.413
  237SOL     OW 1609   0.505   0.009   1.345
  237SOL    HW1 1610   0.444   6.980   1.287
  237SOL    HW2 1611   0.558   0.072   1.288
  238SOL     OW 1612   5.871   2.776   2.863
  238SOL    HW1 1613   5.813   2.785   2.782
  238SOL    HW2 1614   5.821   2.729   2.935
  239SOL     OW 1615   6.804   5.781   7.011
  239SOL    HW1 1616   6.903   5.766   7.008
  239SOL    HW2 1617   6.776   5.833   6.930
  240SOL     OW 1618   0.228   4.121   5.891
  240SOL    HW1 1619   0.319   4.085   5.912
  240SOL    HW2 1620   0.210   4.110   5.793
  241SOL     OW 1621   0.518   0.960   3.066
  241SOL    HW1 1622   0.570   0.990   3.146
  241SOL    HW2 1623   0.575   0.901   3.009
  242SOL     OW 1624   1.696   3.833   4.391
  242SOL    HW1 1625   1.774   3.812   4.332
  242SOL    HW2 1626   1.619   3.863   4.335
  243SOL     OW 1627   5.929   6.723   5.540
  243SOL    HW1 1628   5.833   6.708   5.518
  243SOL    HW2 1629   5.962   6.650   5.599
  244SOL     OW 1630   6.269   2.016   5.910
  244SOL    HW1 1631   6.227   1.937   5.955
  244SOL    HW2 1632   6.208   2.094   5.915
  245SOL     OW 1633   5.594   2.270   4.174
  245SOL    HW1 1634   5.670   2.209   4.153
  245SOL    HW2 1635   5.590   2.286   4.273
  246SOL     OW 1636   5.026   3.242   2.947
  246SOL    HW1 1637   5.082   3.304   2.892
  246SOL    HW2 1638   4.980   3.293   3.019
  247SOL     OW 1639   2.494   1.365   3.431
  247SOL    HW1 1640   2.420   1.321   3.381
  247SOL    HW2 1641   2.483   1.349   3.529
  248SOL     OW 1642   5.993   1.328   3.221
  248SOL    HW1 1643   5.954   1.377   3.299
  248SOL    HW2 1644   6.086   1.300   3.242
  249SOL     OW 1645   3.328   6.890   3.866
  249SOL    HW1 1646   3.323   6.807   3.810
  249SOL    HW2 1647   3.414   6.938   3.848
  250SOL     OW 1648   5.354   2.937   6.013
  250SOL    HW1 1649   5.298   2.881   6.073
  250SOL    HW2 1650   5.295   2.993   5.955
  251SOL     OW 1651   4.262   2.264   0.171
  251SOL    HW1 1652   4.323   2.343   0.165
  251SOL    HW2 1653   4.312   2.186   0.209
  252SOL     OW 1654   0.142   0.843   5.715
  252SOL    HW1 1655   0.128   0.809   5.808
  252SOL    HW2 1656   0.160   0.941   5.717
  253SOL     OW 1657   2.859   3.385   6.918
  253SOL    HW1 1658   2.943   3.405   6.868
  253SOL    HW2 1659   2.868   3.419   7.012
  254SOL     OW 1660   5.764   3.006   4.995
  254SOL    HW1 1661   5.728   2.941   5.062
  254SOL    HW2 1662   5.716   2.995   4.908
  255SOL     OW 1663   2.839   1.801   3.391
  255SOL    HW1 1664   2.777   1.723   3.394
  255SOL    HW2 1665   2.840   1.847   3.481
  256SOL     OW 1666   5.666   5.137   7.022
  256SOL    HW1 1667   5.711   5.168   0.081
  256SOL    HW2 1668   5.587   5.195   7.003
  257SOL     OW 1669   2.981   6.572   6.113
  257SOL    HW1 1670   2.982   6.476   6.140
  257SOL    HW2 1671   2.904   6.589   6.052
  258SOL     OW 1672   5.478   4.296   4.670
  258SOL    HW1 1673   5.418   4.218   4.653
  258SOL    HW2 1674   5.573   4.265   4.675
  259SOL     OW 1675   1.462   2.184   2.283
  259SOL    HW1 1676   1.443   2.249   2.356
  259SOL    HW2 1677   1.560   2.184   2.263
  260SOL     OW 1678   5.414   0.477   5.789
  260SOL    HW1 1679   5.481   0.465   5.716
  260SOL    HW2 1680   5.451   0.439   5.874
  261SOL     OW 1681   0.789   3.726   2.151
  261SOL    HW1 1682   0.808   3.741   2.054
  261SOL    HW2 1683   0.745   3.637   2.163
  262SOL     OW 1684   0.998   4.872   2.131
  262SOL    HW1 1685   1.038   4.839   2.217
  262SOL    HW2 1686   1.042   4.957   2.105
  263SOL     OW 1687   0.956   2.078   4.280
  263SOL    HW1 1688   0.975   2.176   4.291
  263SOL    HW2 1689   0.929   2.040   4.368
  264SOL     OW 1690   2.552   4.609   6.120
  264SOL    HW1 1691   2.486   4.658   6.177
  264SOL    HW2 1692   2.506   4.537   6.068
  265SOL     OW 1693   5.480   3.705   4.814
  265SOL    HW1 1694   5.471   3.620   4.763
  265SOL    HW2 1695   5.396   3.722   4.866
  266SOL     OW 1696   4.267   1.624   0.366
  266SOL    HW1 1697   4.310   1.558   0.427
  266SOL    HW2 1698   4.171   1.599   0.352
  267SOL     OW 1699   1.098   2.292   5.925
  267SOL    HW1 1700   1.031   2.218   5.932
  267SOL    HW2 1701   1.110   2.318   5.829
  268SOL     OW 1702   4.116   4.850   4.749
  268SOL    HW1 1703   4.208   4.810   4.747
  268SOL    HW2 1704   4.095   4.881   4.841
  269SOL     OW 1705   0.530   1.655   5.907
  269SOL    HW1 1706   0.530   1.671   6.006
  269SOL    HW2 1707   0.612   1.604   5.881
  270SOL     OW 1708   5.285   1.216   3.474
  270SOL    HW1 1709   5.352   1.259   3.534
  270SOL    HW2 1710   5.238   1.287   3.421
  271SOL     OW 1711   1.425   0.999   0.233
  271SOL    HW1 1712   1.445   0.955   0.321
  271SOL    HW2 1713   1.377   0.935   0.173
  272SOL     OW 1714   3.432   5.625   3.464
  272SOL    HW1 1715   3.432   5.692   3.538
  272SOL    HW2 1716   3.503   5.650   3.398
  273SOL     OW 1717   2.459   6.252   5.280
  273SOL    HW1 1718   2.535   6.310   5.307
  273SOL    HW2 1719   2.380   6.270   5.340
  274SOL     OW 1720   6.370   2.041   1.368
  274SOL    HW1 1721   6.365   2.111   1.298
  274SOL    HW2 1722   6.373   1.950   1.325
  275SOL     OW 1723   6.416   5.911   5.133
  275SOL    HW1 1724   6.468   5.961   5.063
  275SOL    HW2 1725   6.463   5.824   5.153
  276SOL     OW 1726   6.455   6.135   3.695
  276SOL    HW1 1727   6.510   6.077   3.756
  276SOL    HW2 1728   6.388   6.078   3.647
  277SOL     OW 1729   4.619   1.293   5.606
  277SOL    HW1 1730   4.624   1.375   5.549
  277SOL    HW2 1731   4.678   1.305   5.686
  278SOL     OW 1732   5.896   3.069   2.690
  278SOL    HW1 1733   5.916   3.057   2.787
  278SOL    HW2 1734   5.798   3.085   2.677
  279SOL     OW 1735   6.705   2.791   4.420
  279SOL    HW1 1736   6.727   2.784   4.323
  279SOL    HW2 1737   6.696   2.699   4.459
  280SOL     OW 1738   3.132   1.102   3.813
  280SOL    HW1 1739   3.174   1.133   3.727
  280SOL    HW2 1740   3.136   1.002   3.818
  281SOL     OW 1741   4.995   6.066   3.899
  281SOL    HW1 1742   4.972   6.068   3.997
  281SOL    HW2 1743   5.061   5.993   3.883
  282SOL     OW 1744   3.868   1.742   0.161
  282SOL    HW1 1745   3.792   1.678   0.152
  282SOL    HW2 1746   3.832   1.836   0.164
  283SOL     OW 1747   6.303   1.851   5.118
  283SOL    HW1 1748   6.242   1.781   5.082
  283SOL    HW2 1749   6.368   1.809   5.181
  284SOL     OW 1750   5.642   5.782   3.805
  284SOL    HW1 1751   5.662   5.790   3.903
  284SOL    HW2 1752   5.635   5.685   3.780
  285SOL     OW 1753   4.387   0.365   5.875
  285SOL    HW1 1754   4.393   0.465   5.870
  285SOL    HW2 1755   4.292   0.338   5.890
  286SOL     OW 1756   2.978   5.172   4.936
  286SOL    HW1 1757   2.885   5.166   4.971
  286SOL    HW2 1758   3.016   5.080   4.928
  287SOL     OW 1759   2.726   6.864   5.793
  287SOL    HW1 1760   2.648   6.900   5.741
  287SOL    HW2 1761   2.803   6.927   5.785
  288SOL     OW 1762   3.671   1.108   0.934
  288SOL    HW1 1763   3.573   1.096   0.922
  288SOL    HW2 1764   3.720   1.066   0.858
  289SOL     OW 1765   6.413   6.380   4.164
  289SOL    HW1 1766   6.352   6.458   4.148
  289SOL    HW2 1767   6.499   6.413   4.202
  290SOL     OW 1768   3.454   0.783   5.227
  290SOL    HW1 1769   3.535   0.840   5.235
  290SOL    HW2 1770   3.416   0.791   5.135
  291SOL     OW 1771   4.181   6.920   4.977
  291SOL    HW1 1772   4.220   6.910   4.886
  291SOL    HW2 1773   4.151   7.015   4.990
  292SOL     OW 1774   4.629   7.004   3.601
  292SOL    HW1 1775   4.670   6.927   3.552
  292SOL    HW2 1776   4.697   0.051   3.614
  293SOL     OW 1777   6.023   6.702   2.462
  293SOL    HW1 1778   6.064   6.784   2.500
  293SOL    HW2 1779   5.929   6.693   2.495
  294SOL     OW 1780   6.474   0.465   5.550
  294SOL    HW1 1781   6.455   0.430   5.458
  294SOL    HW2 1782   6.423   0.550   5.564
  295SOL     OW 1783   1.347   1.569   5.032
  295SOL    HW1 1784   1.343   1.526   5.123
  295SOL    HW2 1785   1.441   1.600   5.015
  296SOL     OW 1786   0.006   2.464   1.195
  296SOL    HW1 1787   0.075   2.494   1.261
  296SOL    HW2 1788   6.940   2.494   1.225
  297SOL     OW 1789   5.607   3.432   3.837
  297SOL    HW1 1790   5.644   3.525   3.844
  297SOL    HW2 1791   5.613   3.401   3.743
  298SOL     OW 1792   3.472   0.919   6.750
  298SOL    HW1 1793   3.561   0.940   6.790
  298SOL    HW2 1794   3.461   0.972   6.665
  299SOL     OW 1795   2.077   1.118   5.971
  299SOL    HW1 1796   2.033   1.118   5.881
  299SOL    HW2 1797   2.176   1.123   5.960
  300SOL     OW 1798   4.128   0.090   2.834
  300SOL    HW1 1799   4.161   0.180   2.860
  300SOL    HW2 1800   4.162   0.066   2.744
  301SOL     OW 1801   6.447   5.581   0.750
  301SOL    HW1 1802   6.430   5.484   0.735
  301SOL    HW2 1803   6.362   5.632   0.735
  302SOL     OW 1804   6.145   5.811   1.046
  302SOL    HW1 1805   6.144   5.714   1.023
  302SOL    HW2 1806   6.238   5.847   1.038
  303SOL     OW 1807   5.683   5.656   2.067
  303SOL    HW1 1808   5.612   5.725   2.081
  303SOL    HW2 1809   5.769   5.688   2.107
  304SOL     OW 1810   2.670   6.433   5.297
  304SOL    HW1 1811   2.636   6.526   5.281
  304SOL    HW2 1812   2.766   6.427   5.272
  305SOL     OW 1813   1.144   2.818   2.266
  305SOL    HW1 1814   1.044   2.817   2.258
  305SOL    HW2 1815   1.184   2.762   2.194
  306SOL     OW 1816   6.497   0.212   2.662
  306SOL    HW1 1817   6.515   0.175   2.570
  306SOL    HW2 1818   6.537   0.304   2.669
  307SOL     OW 1819   3.432   3.023   3.192
  307SOL    HW1 1820   3.373   2.972   3.255
  307SOL    HW2 1821   3.481   2.959   3.134
  308SOL     OW 1822   5.829   1.753   3.825
  308SOL    HW1 1823   5.769   1.771   3.903
  308SOL    HW2 1824   5.799   1.806   3.746
  309SOL     OW 1825   0.980   6.368   5.988
  309SOL    HW1 1826   0.988   6.428   5.909
  309SOL    HW2 1827   1.025   6.280   5.968
  310SOL     OW 1828   5.281   6.379   4.973
  310SOL    HW1 1829   5.336   6.314   4.920
  310SOL    HW2 1830   5.233   6.441   4.910
  311SOL     OW 1831   2.413   5.394   2.953
  311SOL    HW1 1832   2.428   5.434   3.044
  311SOL    HW2 1833   2.445   5.458   2.883
  312SOL     OW 1834   4.771   2.146   2.911
  312SOL    HW1 1835   4.749   2.090   2.991
  312SOL    HW2 1836   4.688   2.159   2.856
  313SOL     OW 1837   4.068   3.256   3.232
  313SOL    HW1 1838   4.137   3.315   3.275
  313SOL    HW2 1839   3.977   3.294   3.250
  314SOL     OW 1840   2.162   6.366   5.908
  314SOL    HW1 1841   2.185   6.360   6.006
  314SOL    HW2 1842   2.183   6.458   5.875
  315SOL     OW 1843   6.223   1.526   3.390
  315SOL    HW1 1844   6.228   1.435   3.349
  315SOL    HW2 1845   6.295   1.584   3.352
  316SOL     OW 1846   3.619   1.180   5.201
  316SOL    HW1 1847   3.641   1.196   5.105
  316SOL    HW2 1848   3.674   1.241   5.258
  317SOL     OW 1849   1.176   1.263   1.506
  317SOL    HW1 1850   1.218   1.176   1.531
  317SOL    HW2 1851   1.247   1.331   1.486
  318SOL     OW 1852   0.351   0.492   5.412
  318SOL    HW1 1853   0.304   0.580   5.421
  318SOL    HW2 1854   0.361   0.450   5.502
  319SOL     OW 1855   1.666   2.387   2.812
  319SOL    HW1 1856   1.593   2.323   2.835
  319SOL    HW2 1857   1.629   2.459   2.754
  320SOL     OW 1858   5.873   2.567   6.447
  320SOL    HW1 1859   5.885   2.641   6.381
  320SOL    HW2 1860   5.776   2.558   6.469
  321SOL     OW 1861   4.378   3.251   1.023
  321SOL    HW1 1862   4.365   3.157   1.054
  321SOL    HW2 1863   4.455   3.292   1.072
  322SOL     OW 1864   3.537   3.431   6.120
  322SOL    HW1 1865   3.453   3.467   6.159
  322SOL    HW2 1866   3.546   3.334   6.144
  323SOL     OW 1867   0.176   3.053   3.448
  323SOL    HW1 1868   0.124   3.056   3.363
  323SOL    HW2 1869   0.115   3.027   3.523
  324SOL     OW 1870   0.565   6.893   3.915
  324SOL    HW1 1871   0.660   6.900   3.882
  324SOL    HW2 1872   0.533   6.984   3.940
  325SOL     OW 1873   0.645   3.905   2.440
  325SOL    HW1 1874   0.683   3.989   2.402
  325SOL    HW2 1875   0.677   3.893   2.534
  326SOL     OW 1876   0.482   6.256   6.571
  326SOL    HW1 1877   0.507   6.183   6.508
  326SOL    HW2 1878   0.563   6.307   6.598
  327SOL     OW 1879   4.241   5.026   3.470
  327SOL    HW1 1880   4.251   4.992   3.563
  327SOL    HW2 1881   4.168   4.975   3.423
  328SOL     OW 1882   2.146   4.046   2.363
  328SOL    HW1 1883   2.188   4.069   2.275
  328SOL    HW2 1884   2.195   4.092   2.436
  329SOL     OW 1885   3.439   4.135   2.282
  329SOL    HW1 1886   3.397   4.224   2.266
  329SOL    HW2 1887   3.409   4.099   2.370
  330SOL     OW 1888   3.474   5.029   0.476
  330SOL    HW1 1889   3.498   4.968   0.552
  330SOL    HW2 1890   3.449   4.974   0.396
  331SOL     OW 1891   5.427   5.353   6.433
  331SOL    HW1 1892   5.387   5.337   6.342
  331SOL    HW2 1893   5.358   5.394   6.493
  332SOL     OW 1894   5.239   2.408   2.754
  332SOL    HW1 1895   5.142   2.388   2.763
  332SOL    HW2 1896   5.272   2.374   2.666
  333SOL     OW 1897   3.446   1.347   6.233
  333SOL    HW1 1898   3.400   1.261   6.255
  333SOL    HW2 1899   3.388   1.402   6.173
  334SOL     OW 1900   3.898   3.436   3.321
  334SOL    HW1 1901   3.824   3.381   3.359
  334SOL    HW2 1902   3.860   3.514   3.272
  335SOL     OW 1903   3.180   0.472   5.841
  335SOL    HW1 1904   3.173   0.392   5.901
  335SOL    HW2 1905   3.200   0.442   5.748
  336SOL     OW 1906   3.092   1.629   3.094
  336SOL    HW1 1907   3.186   1.646   3.064
  336SOL    HW2 1908   3.049   1.562   3.033
  337SOL     OW 1909   2.132   0.184   5.829
  337SOL    HW1 1910   2.049   0.228   5.795
  337SOL    HW2 1911   2.190   0.160   5.751
  338SOL     OW 1912   4.798   2.119   1.593
  338SOL    HW1 1913   4.737   2.176   1.648
  338SOL    HW2 1914   4.819   2.166   1.507
  339SOL     OW 1915   3.737   4.913   5.114
  339SOL    HW1 1916   3.754   5.006   5.146
  339SOL    HW2 1917   3.694   4.916   5.024
  340SOL     OW 1918   4.593   2.188   3.499
  340SOL    HW1 1919   4.661   2.256   3.528
  340SOL    HW2 1920   4.598   2.176   3.400
  341SOL     OW 1921   5.275   0.025   4.029
  341SOL    HW1 1922   5.219   6.999   4.094
  341SOL    HW2 1923   5.365   0.042   4.069
  342SOL     OW 1924   5.021   2.450   1.508
  342SOL    HW1 1925   5.074   2.470   1.591
  342SOL    HW2 1926   4.958   2.525   1.490
  343SOL     OW 1927   0.782   5.815   3.033
  343SOL    HW1 1928   0.788   5.773   3.124
  343SOL    HW2 1929   0.740   5.906   3.041
  344SOL     OW 1930   1.730   1.436   1.835
  344SOL    HW1 1931   1.644   1.428   1.887
  344SOL    HW2 1932   1.807   1.428   1.898
  345SOL     OW 1933   6.105   3.209   3.995
  345SOL    HW1 1934   6.183   3.252   4.041
  345SOL    HW2 1935   6.059   3.148   4.059
  346SOL     OW 1936   1.455   6.915   3.150
  346SOL    HW1 1937   1.538   6.944   3.196
  346SOL    HW2 1938   1.439   6.971   3.068
  347SOL     OW 1939   2.691   5.268   0.553
  347SOL    HW1 1940   2.706   5.292   0.457
  347SOL    HW2 1941   2.593   5.271   0.573
  348SOL     OW 1942   5.071   5.765   2.290
  348SOL    HW1 1943   5.107   5.847   2.244
  348SOL    HW2 1944   5.058   5.693   2.222
  349SOL     OW 1945   6.437   4.345   1.464
  349SOL    HW1 1946   6.377   4.278   1.421
  349SOL    HW2 1947   6.506   4.299   1.519
  350SOL     OW 1948   2.994   3.153   0.210
  350SOL    HW1 1949   3.064   3.225   0.205
  350SOL    HW2 1950   3.032   3.073   0.255
  351SOL     OW 1951   3.191   4.518   1.644
  351SOL    HW1 1952   3.252   4.443   1.670
  351SOL    HW2 1953   3.115   4.522   1.709
  352SOL     OW 1954   3.996   6.656   2.925
  352SOL    HW1 1955   3.906   6.700   2.922
  352SOL    HW2 1956   3.988   6.562   2.892
  353SOL     OW 1957   2.295   6.242   6.774
  353SOL    HW1 1958   2.259   6.335   6.779
  353SOL    HW2 1959   2.316   6.210   6.866
  354SOL     OW 1960   6.774   2.196   0.375
  354SOL    HW1 1961   6.749   2.278   0.324
  354SOL    HW2 1962   6.709   2.123   0.355
  355SOL     OW 1963   2.127   2.413   2.649
  355SOL    HW1 1964   2.038   2.449   2.679
  355SOL    HW2 1965   2.134   2.423   2.549
  356SOL     OW 1966   1.021   0.058   6.226
  356SOL    HW1 1967   0.973   7.001   6.256
  356SOL    HW2 1968   1.087   0.085   6.296
  357SOL     OW 1969   5.451   6.554   4.262
  357SOL    HW1 1970   5.405   6.488   4.322
  357SOL    HW2 1971   5.523   6.600   4.313
  358SOL     OW 1972   5.002   6.011   0.534
  358SOL    HW1 1973   5.093   6.014   0.493
  358SOL    HW2 1974   4.983   5.919   0.568
  359SOL     OW 1975   3.101   2.083   2.045
  359SOL    HW1 1976   3.197   2.107   2.033
  359SOL    HW2 1977   3.048   2.166   2.065
  360SOL     OW 1978   1.460   4.529   4.254
  360SOL    HW1 1979   1.441   4.544   4.157
  360SOL    HW2 1980   1.546   4.574   4.278
  361SOL     OW 1981   6.643   6.287   3.534
  361SOL    HW1 1982   6.681   6.236   3.457
  361SOL    HW2 1983   6.589   6.226   3.592
  362SOL     OW 1984   3.810   4.206   1.066
  362SOL    HW1 1985   3.874   4.209   1.142
  362SOL    HW2 1986   3.752   4.287   1.067
  363SOL     OW 1987   5.927   5.309   2.819
  363SOL    HW1 1988   5.980   5.394   2.813
  363SOL    HW2 1989   5.864   5.304   2.742
  364SOL     OW 1990   0.148   5.193   6.807
  364SOL    HW1 1991   0.115   5.191   6.713
  364SOL    HW2 1992   0.248   5.189   6.807
  365SOL     OW 1993   3.516   1.772   2.385
  365SOL    HW1 1994   3.529   1.690   2.440
  365SOL    HW2 1995   3.440   1.826   2.422
  366SOL     OW 1996   5.866   2.640   0.758
  366SOL    HW1 1997   5.804   2.583   0.704
  366SOL    HW2 1998   5.955   2.644   0.714
  367SOL     OW 1999   4.471   1.894   5.688
  367SOL    HW1 2000   4.502   1.981   5.726
  367SOL    HW2 2001   4.396   1.858   5.743
  368SOL     OW 2002   6.526   1.971   5.822
  368SOL    HW1 2003   6.550   1.875   5.837
  368SOL    HW2 2004   6.429   1.985   5.842
  369SOL     OW 2005   5.560   3.521   2.578
  369SOL    HW1 2006   5.587   3.616   2.565
  369SOL    HW2 2007   5.617   3.462   2.520
  370SOL     OW 2008   2.209   2.990   4.203
  370SOL    HW1 2009   2.235   2.955   4.293
  370SOL    HW2 2010   2.211   3.090   4.206
  371SOL     OW 2011   1.881   3.974   6.776
  371SOL    HW1 2012   1.888   3.995   6.678
  371SOL    HW2 2013   1.963   4.007   6.822
  372SOL     OW 2014   2.854   6.744   5.520
  372SOL    HW1 2015   2.914   6.824   5.513
  372SOL    HW2 2016   2.798   6.752   5.603
  373SOL     OW 2017   6.195   6.491   4.691
  373SOL    HW1 2018   6.095   6.491   4.689
  373SOL    HW2 2019   6.227   6.456   4.779
  374SOL     OW 2020   2.618   1.739   2.599
  374SOL    HW1 2021   2.673   1.767   2.520
  374SOL    HW2 2022   2.525   1.718   2.570
  375SOL     OW 2023   1.295   4.539   5.251
  375SOL    HW1 2024   1.203   4.499   5.248
  375SOL    HW2 2025   1.310   4.582   5.340
  376SOL     OW 2026   2.698   0.852   4.157
  376SOL    HW1 2027   2.712   0.867   4.059
  376SOL    HW2 2028   2.609   0.809   4.171
  377SOL     OW 2029   1.648   2.493   6.850
  377SOL    HW1 2030   1.549   2.480   6.847
  377SOL    HW2 2031   1.683   2.504   6.757
  378SOL     OW 2032   3.096   1.946   1.492
  378SOL    HW1 2033   3.144   1.912   1.411
  378SOL    HW2 2034   3.157   1.942   1.571
  379SOL     OW 2035   5.936   2.352   6.290
  379SOL    HW1 2036   5.863   2.287   6.313
  379SOL    HW2 2037   5.924   2.436   6.342
  380SOL     OW 2038   3.833   1.607   1.383
  380SOL    HW1 2039   3.798   1.690   1.339
  380SOL    HW2 2040   3.772   1.581   1.458
  381SOL     OW 2041   1.626   4.725   3.446
  381SOL    HW1 2042   1.681   4.655   3.400
  381SOL    HW2 2043   1.546   4.746   3.390
  382SOL     OW 2044   6.122   0.433   0.469
  382SOL    HW1 2045   6.116   0.512   0.409
  382SOL    HW2 2046   6.055   0.442   0.543
  383SOL     OW 2047   4.029   2.686   1.462
  383SOL    HW1 2048   3.948   2.634   1.434
  383SOL    HW2 2049   4.000   2.778   1.491
  384SOL     OW 2050   6.490   3.989   4.673
  384SOL    HW1 2051   6.466   3.999   4.769
  384SOL    HW2 2052   6.531   4.074   4.639
  385SOL     OW 2053   4.686   4.805   6.820
  385SOL    HW1 2054   4.708   4.719   6.865
  385SOL    HW2 2055   4.686   4.791   6.721
  386SOL     OW 2056   4.186   0.428   4.321
  386SOL    HW1 2057   4.152   0.339   4.353
  386SOL    HW2 2058   4.116   0.498   4.333
  387SOL     OW 2059   2.141   5.488   3.537
  387SOL    HW1 2060   2.149   5.583   3.567
  387SOL    HW2 2061   2.082   5.482   3.457
  388SOL     OW 2062   2.195   2.524   6.582
  388SOL    HW1 2063   2.295   2.528   6.584
  388SOL    HW2 2064   2.161   2.501   6.673
  389SOL     OW 2065   2.905   3.543   3.500
  389SOL    HW1 2066   2.889   3.624   3.445
  389SOL    HW2 2067   3.000   3.513   3.488
  390SOL     OW 2068   2.288   1.830   4.243
  390SOL    HW1 2069   2.336   1.855   4.159
  390SOL    HW2 2070   2.354   1.817   4.316
  391SOL     OW 2071   0.985   2.644   6.709
  391SOL    HW1 2072   1.039   2.564   6.682
  391SOL    HW2 2073   0.888   2.624   6.700
  392SOL     OW 2074   2.842   5.275   1.778
  392SOL    HW1 2075   2.753   5.262   1.734
  392SOL    HW2 2076   2.866   5.372   1.777
  393SOL     OW 2077   6.123   4.640   5.307
  393SOL    HW1 2078   6.222   4.631   5.314
  393SOL    HW2 2079   6.093   4.718   5.363
  394SOL     OW 2080   6.847   6.770   0.042
  394SOL    HW1 2081   6.780   6.839   0.017
  394SOL    HW2 2082   6.806   6.679   0.033
  395SOL     OW 2083   5.384   3.966   2.510
  395SOL    HW1 2084   5.305   3.933   2.459
  395SOL    HW2 2085   5.466   3.962   2.452
  396SOL     OW 2086   3.319   3.972   3.509
  396SOL    HW1 2087   3.387   4.043   3.528
  396SOL    HW2 2088   3.363   3.882   3.515
  397SOL     OW 2089   4.369   2.216   5.563
  397SOL    HW1 2090   4.466   2.199   5.542
  397SOL    HW2 2091   4.314   2.200   5.481
  398SOL     OW 2092   1.015   5.256   2.426
  398SOL    HW1 2093   1.005   5.291   2.332
  398SOL    HW2 2094   1.105   5.213   2.436
  399SOL     OW 2095   4.652   5.674   1.268
  399SOL    HW1 2096   4.732   5.727   1.241
  399SOL    HW2 2097   4.663   5.642   1.363
  400SOL     OW 2098   0.388   6.649   5.381
  400SOL    HW1 2099   0.394   6.598   5.295
  400SOL    HW2 2100   0.377   6.746   5.361
  401SOL     OW 2101   4.653   1.287   6.296
  401SOL    HW1 2102   4.631   1.195   6.264
  401SOL    HW2 2103   4.587   1.352   6.258
  402SOL     OW 2104   6.322   6.003   2.801
  402SOL    HW1 2105   6.404   6.009   2.745
  402SOL    HW2 2106   6.316   6.083   2.861
  403SOL     OW 2107   4.636   2.330   5.920
  403SOL    HW1 2108   4.550   2.337   5.971
  403SOL    HW2 2109   4.661   2.234   5.908
  404SOL     OW 2110   1.294   6.867   4.142
  404SOL    HW1 2111   1.290   6.944   4.078
  404SOL    HW2 2112   1.386   6.828   4.141
  405SOL     OW 2113   1.612   2.628   0.803
  405SOL    HW1 2114   1.565   2.543   0.827
  405SOL    HW2 2115   1.663   2.661   0.883
  406SOL     OW 2116   1.182   2.473   4.408
  406SOL    HW1 2117   1.213   2.432   4.494
  406SOL    HW2 2118   1.114   2.413   4.365
  407SOL     OW 2119   3.077   0.051   4.614
  407SOL    HW1 2120   3.021   7.013   4.669
  407SOL    HW2 2121   3.173   0.041   4.641
  408SOL     OW 2122   1.626   0.172   3.650
  408SOL    HW1 2123   1.682   0.186   3.568
  408SOL    HW2 2124   1.665   0.224   3.726
  409SOL     OW 2125   6.591   3.081   2.892
  409SOL    HW1 2126   6.690   3.069   2.878
  409SOL    HW2 2127   6.548   2.991   2.904
  410SOL     OW 2128   1.990   0.311   6.898
  410SOL    HW1 2129   2.067   0.374   6.888
  410SOL    HW2 2130   1.969   0.298   6.995
  411SOL     OW 2131   5.554   4.926   6.430
  411SOL    HW1 2132   5.508   4.932   6.519
  411SOL    HW2 2133   5.648   4.957   6.440
  412SOL     OW 2134   3.565   6.350   2.642
  412SOL    HW1 2135   3.541   6.255   2.661
  412SOL    HW2 2136   3.488   6.409   2.664
  413SOL     OW 2137   3.355   5.313   0.213
  413SOL    HW1 2138   3.311   5.373   0.146
  413SOL    HW2 2139   3.286   5.253   0.254
  414SOL     OW 2140   4.465   4.884   1.279
  414SOL    HW1 2141   4.542   4.821   1.284
  414SOL    HW2 2142   4.498   4.977   1.265
  415SOL     OW 2143   1.506   5.987   0.922
  415SOL    HW1 2144   1.480   5.994   1.018
  415SOL    HW2 2145   1.598   5.949   0.916
  416SOL     OW 2146   4.049   5.664   4.829
  416SOL    HW1 2147   3.992   5.619   4.760
  416SOL    HW2 2148   4.089   5.596   4.890
  417SOL     OW 2149   3.210   6.322   1.873
  417SOL    HW1 2150   3.276   6.398   1.871
  417SOL    HW2 2151   3.165   6.320   1.963
  418SOL     OW 2152   4.909   6.358   0.459
  418SOL    HW1 2153   4.838   6.428   0.462
  418SOL    HW2 2154   4.890   6.287   0.527
  419SOL     OW 2155   0.133   0.831   0.863
  419SOL    HW1 2156   0.123   0.735   0.890
  419SOL    HW2 2157   0.169   0.835   0.770
  420SOL     OW 2158   5.855   3.946   1.155
  420SOL    HW1 2159   5.775   4.005   1.143
  420SOL    HW2 2160   5.828   3.861   1.202
  421SOL     OW 2161   1.518   5.057   6.115
  421SOL    HW1 2162   1.574   5.104   6.183
  421SOL    HW2 2163   1.469   4.981   6.159
  422SOL     OW 2164   5.697   4.951   0.334
  422SOL    HW1 2165   5.669   4.891   0.259
  422SOL    HW2 2166   5.638   4.936   0.413
  423SOL     OW 2167   5.983   2.881   0.042
  423SOL    HW1 2168   5.892   2.909   0.011
  423SOL    HW2 2169   5.981   2.863   0.140
  424SOL     OW 2170   2.716   3.823   7.009
  424SOL    HW1 2171   2.688   3.919   7.005
  424SOL    HW2 2172   2.814   3.818   0.003
  425SOL     OW 2173   5.075   1.786   1.185
  425SOL    HW1 2174   5.107   1.861   1.244
  425SOL    HW2 2175   4.976   1.792   1.174
  426SOL     OW 2176   4.949   2.701   5.572
  426SOL    HW1 2177   4.898   2.737   5.650
  426SOL    HW2 2178   4.957   2.602   5.580
  427SOL     OW 2179   5.477   4.412   1.967
  427SOL    HW1 2180   5.552   4.465   2.004
  427SOL    HW2 2181   5.454   4.338   2.030
  428SOL     OW 2182   3.981   0.440   5.365
  428SOL    HW1 2183   4.010   0.452   5.270
  428SOL    HW2 2184   3.934   0.523   5.396
  429SOL     OW 2185   1.860   5.058   0.515
  429SOL    HW1 2186   1.911   5.142   0.536
  429SOL    HW2 2187   1.762   5.079   0.511
  430SOL     OW 2188   1.561   6.873   4.428
  430SOL    HW1 2189   1.470   6.892   4.464
  430SOL    HW2 2190   1.611   6.959   4.415
  431SOL     OW 2191   3.265   0.938   6.956
  431SOL    HW1 2192   3.345   0.929   6.897
  431SOL    HW2 2193   3.268   1.026   7.003
  432SOL     OW 2194   0.086   2.098   0.096
  432SOL    HW1 2195   0.006   2.141   0.053
  432SOL    HW2 2196   0.157   2.166   0.110
  433SOL     OW 2197   3.122   0.020   4.175
  433SOL    HW1 2198   3.209   7.017   4.217
  433SOL    HW2 2199   3.109   0.119   4.186
  434SOL     OW 2200   5.647   4.551   1.200
  434SOL    HW1 2201   5.655   4.650   1.202
  434SOL    HW2 2202   5.568   4.523   1.255
  435SOL     OW 2203   3.406   3.323   5.847
  435SOL    HW1 2204   3.373   3.229   5.853
  435SOL    HW2 2205   3.463   3.344   5.926
  436SOL     OW 2206   1.536   6.993   0.927
  436SOL    HW1 2207   1.604   0.003   0.861
  436SOL    HW2 2208   1.582   6.937   0.995
  437SOL     OW 2209   6.622   7.014   6.354
  437SOL    HW1 2210   6.609   7.018   6.254
  437SOL    HW2 2211   6.632   6.919   6.382
  438SOL     OW 2212   1.772   2.907   2.158
  438SOL    HW1 2213   1.727   2.829   2.114
  438SOL    HW2 2214   1.764   2.899   2.257
  439SOL     OW 2215   6.378   4.767   3.036
  439SOL    HW1 2216   6.410   4.680   2.999
  439SOL    HW2 2217   6.411   4.777   3.130
  440SOL     OW 2218   0.808   2.133   4.621
  440SOL    HW1 2219   0.802   2.089   4.711
  440SOL    HW2 2220   0.896   2.109   4.579
  441SOL     OW 2221   1.395   1.861   3.317
  441SOL    HW1 2222   1.424   1.934   3.255
  441SOL    HW2 2223   1.375   1.899   3.407
  442SOL     OW 2224   0.489   4.183   0.086
  442SOL    HW1 2225   0.458   4.116   0.020
  442SOL    HW2 2226   0.588   4.196   0.076
  443SOL     OW 2227   1.068   4.416   4.925
  443SOL    HW1 2228   1.093   4.495   4.869
  443SOL    HW2 2229   1.038   4.341   4.866
  444SOL     OW 2230   4.564   2.601   5.840
  444SOL    HW1 2231   4.552   2.569   5.746
  444SOL    HW2 2232   4.487   2.572   5.896
  445SOL     OW 2233   1.912   5.600   2.633
  445SOL    HW1 2234   1.997   5.635   2.673
  445SOL    HW2 2235   1.853   5.676   2.608
  446SOL     OW 2236   3.963   4.897   3.783
  446SOL    HW1 2237   4.031   4.970   3.775
  446SOL    HW2 2238   3.978   4.847   3.868
  447SOL     OW 2239   0.237   4.052   6.790
  447SOL    HW1 2240   0.242   3.997   6.706
  447SOL    HW2 2241   0.328   4.087   6.813
  448SOL     OW 2242   3.809   0.633   5.057
  448SOL    HW1 2243   3.805   0.611   4.960
  448SOL    HW2 2244   3.734   0.694   5.081
  449SOL     OW 2245   5.248   1.250   5.069
  449SOL    HW1 2246   5.173   1.286   5.124
  449SOL    HW2 2247   5.218   1.165   5.025
  450SOL     OW 2248   0.190   5.863   3.706
  450SOL    HW1 2249   0.188   5.804   3.625
  450SOL    HW2 2250   0.195   5.959   3.678
  451SOL     OW 2251   0.818   2.326   2.246
  451SOL    HW1 2252   0.911   2.303   2.214
  451SOL    HW2 2253   0.767   2.242   2.264
  452SOL     OW 2254   6.707   5.487   6.882
  452SOL    HW1 2255   6.619   5.440   6.895
  452SOL    HW2 2256   6.698   5.583   6.908
  453SOL     OW 2257   2.902   0.819   6.514
  453SOL    HW1 2258   2.986   0.862   6.482
  453SOL    HW2 2259   2.825   0.849   6.457
  454SOL     OW 2260   0.022   6.026   5.878
  454SOL    HW1 2261   0.111   6.073   5.874
  454SOL    HW2 2262   0.008   5.976   5.792
  455SOL     OW 2263   6.282   0.134   4.565
  455SOL    HW1 2264   6.206   0.156   4.503
  455SOL    HW2 2265   6.357   0.200   4.550
  456SOL     OW 2266   4.260   5.719   5.568
  456SOL    HW1 2267   4.333   5.787   5.569
  456SOL    HW2 2268   4.174   5.762   5.596
  457SOL     OW 2269   2.079   4.315   3.186
  457SOL    HW1 2270   2.005   4.326   3.120
  457SOL    HW2 2271   2.079   4.393   3.249
  458SOL     OW 2272   5.566   5.358   5.247
  458SOL    HW1 2273   5.560   5.360   5.147
  458SOL    HW2 2274   5.619   5.437   5.278
  459SOL     OW 2275   1.083   0.104   3.601
  459SOL    HW1 2276   1.167   0.154   3.580
  459SOL    HW2 2277   1.021   0.109   3.523
  460SOL     OW 2278   0.226   1.295   2.119
  460SOL    HW1 2279   0.144   1.313   2.173
  460SOL    HW2 2280   0.299   1.357   2.147
  461SOL     OW 2281   4.525   6.737   4.900
  461SOL    HW1 2282   4.476   6.776   4.978
  461SOL    HW2 2283   4.494   6.643   4.884
  462SOL     OW 2284   4.377   2.437   5.995
  462SOL    HW1 2285   4.386   2.458   6.092
  462SOL    HW2 2286   4.300   2.488   5.957
  463SOL     OW 2287   6.371   5.386   2.956
  463SOL    HW1 2288   6.336   5.301   2.995
  463SOL    HW2 2289   6.469   5.379   2.942
  464SOL     OW 2290   2.847   1.642   6.629
  464SOL    HW1 2291   2.779   1.702   6.586
  464SOL    HW2 2292   2.881   1.576   6.562
  465SOL     OW 2293   0.667   1.848   4.426
  465SOL    HW1 2294   0.666   1.948   4.427
  465SOL    HW2 2295   0.678   1.815   4.332
  466SOL     OW 2296   0.053   6.207   3.804
  466SOL    HW1 2297   0.022   6.158   3.885
  466SOL    HW2 2298   0.151   6.225   3.812
  467SOL     OW 2299   1.187   0.184   6.381
  467SOL    HW1 2300   1.215   0.144   6.468
  467SOL    HW2 2301   1.253   0.254   6.354
  468SOL     OW 2302   3.427   5.833   0.373
  468SOL    HW1 2303   3.522   5.852   0.396
  468SOL    HW2 2304   3.385   5.780   0.447
  469SOL     OW 2305   3.000   4.854   0.218
  469SOL    HW1 2306   3.055   4.771   0.210
  469SOL    HW2 2307   2.988   4.876   0.315
  470SOL     OW 2308   3.470   0.333   2.193
  470SOL    HW1 2309   3.553   0.333   2.137
  470SOL    HW2 2310   3.393   0.362   2.137
  471SOL     OW 2311   1.387   2.646   4.348
  471SOL    HW1 2312   1.355   2.721   4.405
  471SOL    HW2 2313   1.321   2.571   4.350
  472SOL     OW 2314   4.726   3.538   6.375
  472SOL    HW1 2315   4.768   3.627   6.393
  472SOL    HW2 2316   4.736   3.515   6.279
  473SOL     OW 2317   0.498   2.893   1.278
  473SOL    HW1 2318   0.423   2.957   1.258
  473SOL    HW2 2319   0.547   2.872   1.194
  474SOL     OW 2320   4.442   5.205   3.648
  474SOL    HW1 2321   4.433   5.220   3.746
  474SOL    HW2 2322   4.479   5.288   3.605
  475SOL     OW 2323   6.581   0.526   6.835
  475SOL    HW1 2324   6.600   0.481   6.922
  475SOL    HW2 2325   6.592   0.625   6.845
  476SOL     OW 2326   0.172   4.354   2.204
  476SOL    HW1 2327   0.208   4.382   2.114
  476SOL    HW2 2328   0.237   4.292   2.247
  477SOL     OW 2329   2.535   4.940   4.902
  477SOL    HW1 2330   2.593   4.894   4.969
  477SOL    HW2 2331   2.494   5.021   4.944
  478SOL     OW 2332   3.113   6.230   2.125
  478SOL    HW1 2333   3.101   6.140   2.165
  478SOL    HW2 2334   3.097   6.301   2.194
  479SOL     OW 2335   4.301   1.869   0.253
  479SOL    HW1 2336   4.284   1.784   0.302
  479SOL    HW2 2337   4.259   1.864   0.162
  480SOL     OW 2338   1.267   6.660   0.502
  480SOL    HW1 2339   1.271   6.568   0.461
  480SOL    HW2 2340   1.311   6.725   0.440
  481SOL     OW 2341   2.155   0.374   0.916
  481SOL    HW1 2342   2.197   0.333   0.836
  481SOL    HW2 2343   2.223   0.379   0.990
  482SOL     OW 2344   4.936   4.748   2.381
  482SOL    HW1 2345   4.884   4.834   2.385
  482SOL    HW2 2346   4.944   4.719   2.286
  483SOL     OW 2347   5.531   2.404   1.514
  483SOL    HW1 2348   5.571   2.404   1.606
  483SOL    HW2 2349   5.436   2.373   1.519
  484SOL     OW 2350   1.004   2.708   4.880
  484SOL    HW1 2351   1.057   2.694   4.964
  484SOL    HW2 2352   1.055   2.672   4.802
  485SOL     OW 2353   4.212   5.486   2.084
  485SOL    HW1 2354   4.159   5.401   2.086
  485SOL    HW2 2355   4.254   5.501   2.173
  486SOL     OW 2356   0.875   2.040   0.837
  486SOL    HW1 2357   0.818   2.080   0.909
  486SOL    HW2 2358   0.863   1.940   0.838
  487SOL     OW 2359   1.142   1.731   6.948
  487SOL    HW1 2360   1.145   1.634   6.923
  487SOL    HW2 2361   1.235   1.768   6.950
  488SOL     OW 2362   1.273   0.413   1.405
  488SOL    HW1 2363   1.226   0.348   1.346
  488SOL    HW2 2364   1.276   0.503   1.360
  489SOL     OW 2365   3.684   5.827   6.958
  489SOL    HW1 2366   3.591   5.856   6.979
  489SOL    HW2 2367   3.684   5.770   6.876
  490SOL     OW 2368   6.480   5.966   4.318
  490SOL    HW1 2369   6.500   6.048   4.373
  490SOL    HW2 2370   6.561   5.941   4.265
  491SOL     OW 2371   6.865   2.635   3.520
  491SOL    HW1 2372   6.870   2.571   3.597
  491SOL    HW2 2373   6.853   2.585   3.435
  492SOL     OW 2374   3.109   0.240   4.933
  492SOL    HW1 2375   3.179   0.292   4.884
  492SOL    HW2 2376   3.020   0.283   4.919
  493SOL     OW 2377   5.509   5.432   6.011
  493SOL    HW1 2378   5.485   5.353   5.954
  493SOL    HW2 2379   5.425   5.481   6.037
  494SOL     OW 2380   0.633   6.345   0.082
  494SOL    HW1 2381   0.587   6.395   0.155
  494SOL    HW2 2382   0.704   6.286   0.122
  495SOL     OW 2383   5.274   5.732   2.993
  495SOL    HW1 2384   5.288   5.725   2.894
  495SOL    HW2 2385   5.241   5.645   3.028
  496SOL     OW 2386   5.537   2.650   2.802
  496SOL    HW1 2387   5.519   2.738   2.845
  496SOL    HW2 2388   5.467   2.632   2.733
  497SOL     OW 2389   3.374   1.428   5.356
  497SOL    HW1 2390   3.377   1.484   5.439
  497SOL    HW2 2391   3.283   1.387   5.347
  498SOL     OW 2392   1.313   4.113   1.660
  498SOL    HW1 2393   1.400   4.150   1.627
  498SOL    HW2 2394   1.239   4.143   1.600
  499SOL     OW 2395   3.151   0.840   3.847
  499SOL    HW1 2396   3.219   0.767   3.838
  499SOL    HW2 2397   3.060   0.800   3.850
  500SOL     OW 2398   1.092   4.091   3.537
  500SOL    HW1 2399   1.020   4.042   3.487
  500SOL    HW2 2400   1.161   4.122   3.472
  501SOL     OW 2401   3.183   0.680   0.957
  501SOL    HW1 2402   3.220   0.752   1.015
  501SOL    HW2 2403   3.198   0.703   0.861
  502SOL     OW 2404   5.954   4.341   6.353
  502SOL    HW1 2405   5.914   4.409   6.415
  502SOL    HW2 2406   5.929   4.249   6.384
  503SOL     OW 2407   5.865   4.720   5.799
  503SOL    HW1 2408   5.907   4.703   5.888
  503SOL    HW2 2409   5.855   4.818   5.784
  504SOL     OW 2410   2.717   6.454   3.617
  504SOL    HW1 2411   2.797   6.415   3.662
  504SOL    HW2 2412   2.746   6.524   3.552
  505SOL     OW 2413   3.849   0.347   5.741
  505SOL    HW1 2414   3.842   0.353   5.642
  505SOL    HW2 2415   3.792   0.273   5.775
  506SOL     OW 2416   1.758   5.434   4.535
  506SOL    HW1 2417   1.833   5.437   4.600
  506SOL    HW2 2418   1.703   5.517   4.542
  507SOL     OW 2419   3.389   0.575   4.183
  507SOL    HW1 2420   3.320   0.626   4.234
  507SOL    HW2 2421   3.407   0.623   4.096
  508SOL     OW 2422   6.398   3.609   2.613
  508SOL    HW1 2423   6.348   3.526   2.637
  508SOL    HW2 2424   6.416   3.609   2.514
  509SOL     OW 2425   3.338   1.601   1.664
  509SOL    HW1 2426   3.304   1.531   1.727
  509SOL    HW2 2427   3.387   1.671   1.716
  510SOL     OW 2428   6.766   4.575   5.881
  510SOL    HW1 2429   6.840   4.519   5.844
  510SOL    HW2 2430   6.755   4.554   5.979
  511SOL     OW 2431   0.063   6.561   6.977
  511SOL    HW1 2432   0.068   6.623   6.899
  511SOL    HW2 2433   0.112   6.600   0.030
  512SOL     OW 2434   0.081   3.311   0.470
  512SOL    HW1 2435   0.043   3.339   0.382
  512SOL    HW2 2436   0.166   3.361   0.488
  513SOL     OW 2437   5.718   6.402   3.066
  513SOL    HW1 2438   5.694   6.431   2.974
  513SOL    HW2 2439   5.811   6.433   3.087
  514SOL     OW 2440   6.590   2.234   4.216
  514SOL    HW1 2441   6.655   2.290   4.165
  514SOL    HW2 2442   6.624   2.220   4.309
  515SOL     OW 2443   2.176   6.795   6.216
  515SOL    HW1 2444   2.216   6.886   6.201
  515SOL    HW2 2445   2.106   6.777   6.146
  516SOL     OW 2446   2.830   4.459   1.606
  516SOL    HW1 2447   2.866   4.467   1.699
  516SOL    HW2 2448   2.845   4.545   1.557
  517SOL     OW 2449   5.116   6.215   2.387
  517SOL    HW1 2450   5.193   6.192   2.327
  517SOL    HW2 2451   5.130   6.306   2.426
  518SOL     OW 2452   3.133   1.858   1.820
  518SOL    HW1 2453   3.131   1.935   1.884
  518SOL    HW2 2454   3.041   1.819   1.813
  519SOL     OW 2455   6.844   0.468   4.892
  519SOL    HW1 2456   6.884   0.560   4.895
  519SOL    HW2 2457   6.781   0.462   4.814
  520SOL     OW 2458   5.464   4.643   6.512
  520SOL    HW1 2459   5.481   4.628   6.415
  520SOL    HW2 2460   5.547   4.681   6.554
  521SOL     OW 2461   6.370   2.215   6.536
  521SOL    HW1 2462   6.382   2.250   6.629
  521SOL    HW2 2463   6.354   2.116   6.540
  522SOL     OW 2464   3.817   2.977   5.560
  522SOL    HW1 2465   3.822   2.891   5.611
  522SOL    HW2 2466   3.894   3.035   5.586
  523SOL     OW 2467   6.759   5.385   3.834
  523SOL    HW1 2468   6.737   5.423   3.924
  523SOL    HW2 2469   6.855   5.405   3.812
  524SOL     OW 2470   2.603   1.150   6.726
  524SOL    HW1 2471   2.614   1.248   6.713
  524SOL    HW2 2472   2.685   1.113   6.771
  525SOL     OW 2473   2.575   3.474   6.311
  525SOL    HW1 2474   2.647   3.454   6.245
  525SOL    HW2 2475   2.510   3.538   6.272
  526SOL     OW 2476   2.522   6.564   4.984
  526SOL    HW1 2477   2.487   6.584   4.893
  526SOL    HW2 2478   2.574   6.479   4.982
  527SOL     OW 2479   6.183   2.910   6.048
  527SOL    HW1 2480   6.227   2.898   6.137
  527SOL    HW2 2481   6.252   2.932   5.979
  528SOL     OW 2482   1.449   1.132   4.006
  528SOL    HW1 2483   1.545   1.115   3.983
  528SOL    HW2 2484   1.407   1.187   3.933
  529SOL     OW 2485   0.735   5.202   4.640
  529SOL    HW1 2486   0.681   5.124   4.672
  529SOL    HW2 2487   0.832   5.181   4.649
  530SOL     OW 2488   2.677   2.938   5.373
  530SOL    HW1 2489   2.618   2.872   5.420
  530SOL    HW2 2490   2.623   2.986   5.303
  531SOL     OW 2491   0.381   1.010   1.741
  531SOL    HW1 2492   0.344   1.095   1.779
  531SOL    HW2 2493   0.306   0.945   1.726
  532SOL     OW 2494   1.146   2.612   5.744
  532SOL    HW1 2495   1.238   2.590   5.775
  532SOL    HW2 2496   1.085   2.623   5.823
  533SOL     OW 2497   4.836   5.650   4.341
  533SOL    HW1 2498   4.913   5.713   4.335
  533SOL    HW2 2499   4.781   5.671   4.422
  534SOL     OW 2500   5.044   5.328   3.303
  534SOL    HW1 2501   5.117   5.329   3.371
  534SOL    HW2 2502   5.039   5.237   3.261
  535SOL     OW 2503   0.970   4.514   4.417
  535SOL    HW1 2504   1.014   4.425   4.425
  535SOL    HW2 2505   1.038   4.586   4.427
  536SOL     OW 2506   0.282   5.158   1.849
  536SOL    HW1 2507   0.317   5.136   1.940
  536SOL    HW2 2508   0.356   5.150   1.782
  537SOL     OW 2509   2.234   6.529   3.831
  537SOL    HW1 2510   2.297   6.460   3.794
  537SOL    HW2 2511   2.175   6.563   3.757
  538SOL     OW 2512   1.436   5.923   3.526
  538SOL    HW1 2513   1.439   5.914   3.626
  538SOL    HW2 2514   1.521   5.887   3.487
  539SOL     OW 2515   7.019   5.959   0.527
  539SOL    HW1 2516   0.044   5.953   0.440
  539SOL    HW2 2517   6.958   5.881   0.536
  540SOL     OW 2518   0.463   1.817   2.354
  540SOL    HW1 2519   0.519   1.825   2.437
  540SOL    HW2 2520   0.479   1.896   2.295
  541SOL     OW 2521   2.940   6.627   4.617
  541SOL    HW1 2522   2.880   6.594   4.544
  541SOL    HW2 2523   2.971   6.550   4.672
  542SOL     OW 2524   6.528   6.771   6.871
  542SOL    HW1 2525   6.543   6.700   6.940
  542SOL    HW2 2526   6.581   6.852   6.895
  543SOL     OW 2527   0.429   5.088   5.769
  543SOL    HW1 2528   0.506   5.149   5.750
  543SOL    HW2 2529   0.349   5.118   5.716
  544SOL     OW 2530   0.944   4.339   1.322
  544SOL    HW1 2531   0.861   4.384   1.356
  544SOL    HW2 2532   0.925   4.299   1.232
  545SOL     OW 2533   3.354   1.683   3.561
  545SOL    HW1 2534   3.257   1.707   3.552
  545SOL    HW2 2535   3.408   1.767   3.565
  546SOL     OW 2536   1.831   3.451   1.729
  546SOL    HW1 2537   1.748   3.463   1.674
  546SOL    HW2 2538   1.815   3.383   1.801
  547SOL     OW 2539   2.398   1.465   6.885
  547SOL    HW1 2540   2.479   1.522   6.873
  547SOL    HW2 2541   2.395   1.397   6.811
  548SOL     OW 2542   3.615   2.900   2.752
  548SOL    HW1 2543   3.546   2.899   2.679
  548SOL    HW2 2544   3.706   2.910   2.711
  549SOL     OW 2545   4.182   3.403   1.689
  549SOL    HW1 2546   4.263   3.461   1.678
  549SOL    HW2 2547   4.143   3.382   1.599
  550SOL     OW 2548   6.920   3.356   2.918
  550SOL    HW1 2549   6.875   3.267   2.909
  550SOL    HW2 2550   7.015   3.348   2.888
  551SOL     OW 2551   6.890   1.959   0.920
  551SOL    HW1 2552   6.833   1.974   0.839
  551SOL    HW2 2553   6.837   1.910   0.989
  552SOL     OW 2554   3.873   5.899   0.217
  552SOL    HW1 2555   3.867   5.826   0.148
  552SOL    HW2 2556   3.968   5.925   0.231
  553SOL     OW 2557   1.763   6.997   3.023
  553SOL    HW1 2558   1.749   0.066   3.057
  553SOL    HW2 2559   1.747   6.995   2.924
  554SOL     OW 2560   5.044   6.814   6.572
  554SOL    HW1 2561   4.955   6.845   6.540
  554SOL    HW2 2562   5.097   6.780   6.494
  555SOL     OW 2563   2.415   5.475   3.853
  555SOL    HW1 2564   2.458   5.461   3.763
  555SOL    HW2 2565   2.321   5.442   3.851
  556SOL     OW 2566   6.028   2.120   4.213
  556SOL    HW1 2567   6.037   2.093   4.309
  556SOL    HW2 2568   6.024   2.219   4.206
  557SOL     OW 2569   0.067   6.140   6.776
  557SOL    HW1 2570   0.091   6.060   6.721
  557SOL    HW2 2571   0.149   6.178   6.819
  558SOL     OW 2572   4.119   3.705   5.137
  558SOL    HW1 2573   4.086   3.643   5.066
  558SOL    HW2 2574   4.161   3.652   5.211
  559SOL     OW 2575   6.898   6.272   6.619
  559SOL    HW1 2576   6.803   6.241   6.622
  559SOL    HW2 2577   6.957   6.203   6.661
  560SOL     OW 2578   3.563   6.653   0.658
  560SOL    HW1 2579   3.485   6.703   0.697
  560SOL    HW2 2580   3.555   6.556   0.681
  561SOL     OW 2581   5.688   0.102   6.919
  561SOL    HW1 2582   5.624   0.161   6.968
  561SOL    HW2 2583   5.651   0.010   6.914
  562SOL     OW 2584   4.565   1.027   6.233
  562SOL    HW1 2585   4.470   1.029   6.266
  562SOL    HW2 2586   4.571   0.967   6.153
  563SOL     OW 2587   2.717   6.681   3.456
  563SOL    HW1 2588   2.817   6.677   3.459
  563SOL    HW2 2589   2.689   6.730   3.374
  564SOL     OW 2590   2.379   2.343   6.056
  564SOL    HW1 2591   2.455   2.392   6.098
  564SOL    HW2 2592   2.292   2.379   6.092
  565SOL     OW 2593   4.415   3.103   5.995
  565SOL    HW1 2594   4.425   3.042   5.917
  565SOL    HW2 2595   4.465   3.066   6.073
  566SOL     OW 2596   4.461   4.676   3.507
  566SOL    HW1 2597   4.520   4.755   3.529
  566SOL    HW2 2598   4.366   4.698   3.529
  567SOL     OW 2599   3.238   3.242   4.044
  567SOL    HW1 2600   3.193   3.174   3.987
  567SOL    HW2 2601   3.251   3.326   3.992
  568SOL     OW 2602   3.588   2.316   0.458
  568SOL    HW1 2603   3.659   2.354   0.398
  568SOL    HW2 2604   3.630   2.290   0.545
  569SOL     OW 2605   1.399   2.895   0.409
  569SOL    HW1 2606   1.461   2.868   0.483
  569SOL    HW2 2607   1.416   2.990   0.385
  570SOL     OW 2608   1.422   6.437   0.332
  570SOL    HW1 2609   1.437   6.487   0.247
  570SOL    HW2 2610   1.406   6.341   0.311
  571SOL     OW 2611   3.358   5.829   2.387
  571SOL    HW1 2612   3.280   5.774   2.419
  571SOL    HW2 2613   3.337   5.926   2.399
  572SOL     OW 2614   2.126   4.423   5.826
  572SOL    HW1 2615   2.132   4.341   5.883
  572SOL    HW2 2616   2.078   4.495   5.877
  573SOL     OW 2617   3.661   1.442   5.749
  573SOL    HW1 2618   3.737   1.506   5.756
  573SOL    HW2 2619   3.578   1.484   5.787
  574SOL     OW 2620   2.322   2.069   4.375
  574SOL    HW1 2621   2.247   2.121   4.416
  574SOL    HW2 2622   2.292   1.976   4.355
  575SOL     OW 2623   6.312   3.364   0.525
  575SOL    HW1 2624   6.220   3.349   0.562
  575SOL    HW2 2625   6.344   3.281   0.479
  576SOL     OW 2626   1.293   2.379   1.920
  576SOL    HW1 2627   1.228   2.450   1.896
  576SOL    HW2 2628   1.386   2.410   1.900
  577SOL     OW 2629   2.365   1.810   3.985
  577SOL    HW1 2630   2.272   1.772   3.981
  577SOL    HW2 2631   2.425   1.756   3.927
  578SOL     OW 2632   0.393   3.094   3.593
  578SOL    HW1 2633   0.308   3.085   3.541
  578SOL    HW2 2634   0.458   3.150   3.541
  579SOL     OW 2635   4.324   2.255   1.191
  579SOL    HW1 2636   4.325   2.195   1.271
  579SOL    HW2 2637   4.392   2.328   1.204
  580SOL     OW 2638   0.978   4.773   6.061
  580SOL    HW1 2639   0.992   4.794   6.157
  580SOL    HW2 2640   0.931   4.685   6.052
  581SOL     OW 2641   3.739   3.233   3.437
  581SOL    HW1 2642   3.702   3.241   3.529
  581SOL    HW2 2643   3.664   3.227   3.371
  582SOL     OW 2644   5.611   4.114   2.310
  582SOL    HW1 2645   5.645   4.191   2.365
  582SOL    HW2 2646   5.675   4.096   2.236
  583SOL     OW 2647   2.933   4.577   6.799
  583SOL    HW1 2648   3.005   4.540   6.857
  583SOL    HW2 2649   2.972   4.634   6.728
  584SOL     OW 2650   0.081   4.671   5.448
  584SOL    HW1 2651   0.152   4.702   5.511
  584SOL    HW2 2652   0.053   4.747   5.390
  585SOL     OW 2653   0.482   2.500   5.976
  585SOL    HW1 2654   0.571   2.541   5.955
  585SOL    HW2 2655   0.411   2.569   5.969
  586SOL     OW 2656   2.574   6.986   0.381
  586SOL    HW1 2657   2.673   6.977   0.372
  586SOL    HW2 2658   2.547   6.971   0.476
  587SOL     OW 2659   1.258   2.402   5.328
  587SOL    HW1 2660   1.323   2.347   5.275
  587SOL    HW2 2661   1.215   2.345   5.397
  588SOL     OW 2662   3.707   0.019   1.735
  588SOL    HW1 2663   3.624   0.063   1.701
  588SOL    HW2 2664   3.702   0.011   1.835
  589SOL     OW 2665   3.748   5.082   1.880
  589SOL    HW1 2666   3.832   5.134   1.864
  589SOL    HW2 2667   3.674   5.144   1.905
  590SOL     OW 2668   0.105   2.852   2.179
  590SOL    HW1 2669   0.134   2.948   2.174
  590SOL    HW2 2670   0.088   2.827   2.274
  591SOL     OW 2671   4.179   6.917   3.777
  591SOL    HW1 2672   4.198   7.009   3.742
  591SOL    HW2 2673   4.263   6.863   3.777
  592SOL     OW 2674   5.039   1.066   0.350
  592SOL    HW1 2675   5.061   1.092   0.444
  592SOL    HW2 2676   4.993   1.142   0.304
  593SOL     OW 2677   4.211   2.288   4.033
  593SOL    HW1 2678   4.114   2.289   4.011
  593SOL    HW2 2679   4.253   2.374   4.005
  594SOL     OW 2680   4.181   3.677   6.962
  594SOL    HW1 2681   4.093   3.649   6.923
  594SOL    HW2 2682   4.170   3.761   7.014
  595SOL     OW 2683   3.926   6.904   4.385
  595SOL    HW1 2684   3.902   6.882   4.480
  595SOL    HW2 2685   3.989   6.835   4.350
  596SOL     OW 2686   0.736   4.231   2.361
  596SOL    HW1 2687   0.753   4.171   2.283
  596SOL    HW2 2688   0.786   4.316   2.349
  597SOL     OW 2689   3.548   0.152   0.112
  597SOL    HW1 2690   3.635   0.104   0.124
  597SOL    HW2 2691   3.554   0.212   0.032
  598SOL     OW 2692   4.231   4.655   0.188
  598SOL    HW1 2693   4.140   4.697   0.184
  598SOL    HW2 2694   4.299   4.726   0.203
  599SOL     OW 2695   0.073   0.319   2.890
  599SOL    HW1 2696   0.135   0.384   2.934
  599SOL    HW2 2697   0.037   0.256   2.958
  600SOL     OW 2698   0.948   6.600   0.774
  600SOL    HW1 2699   0.961   6.527   0.841
  600SOL    HW2 2700   0.851   6.613   0.757
  601SOL     OW 2701   2.643   5.849   3.411
  601SOL    HW1 2702   2.707   5.846   3.335
  601SOL    HW2 2703   2.677   5.911   3.481
  602SOL     OW 2704   1.279   6.989   0.839
  602SOL    HW1 2705   1.247   6.906   0.792
  602SOL    HW2 2706   1.370   6.973   0.877
  603SOL     OW 2707   3.885   1.866   3.597
  603SOL    HW1 2708   3.799   1.842   3.553
  603SOL    HW2 2709   3.958   1.807   3.563
  604SOL     OW 2710   1.281   3.410   6.819
  604SOL    HW1 2711   1.217   3.338   6.846
  604SOL    HW2 2712   1.351   3.371   6.759
  605SOL     OW 2713   0.024   5.724   3.501
  605SOL    HW1 2714   6.968   5.783   3.515
  605SOL    HW2 2715   0.063   5.743   3.411
  606SOL     OW 2716   4.328   0.254   5.055
  606SOL    HW1 2717   4.391   0.233   4.980
  606SOL    HW2 2718   4.377   0.250   5.142
  607SOL     OW 2719   5.096   1.034   3.787
  607SOL    HW1 2720   5.176   1.082   3.824
  607SOL    HW2 2721   5.106   1.024   3.688
  608SOL     OW 2722   2.941   0.440   0.647
  608SOL    HW1 2723   2.860   0.487   0.613
  608SOL    HW2 2724   2.971   0.372   0.580
  609SOL     OW 2725   3.500   2.990   4.189
  609SOL    HW1 2726   3.505   2.990   4.289
  609SOL    HW2 2727   3.583   3.031   4.152
  610SOL     OW 2728   4.996   2.398   3.939
  610SOL    HW1 2729   5.090   2.426   3.921
  610SOL    HW2 2730   4.996   2.302   3.969
  611SOL     OW 2731   0.309   0.571   0.006
  611SOL    HW1 2732   0.381   0.640   0.002
  611SOL    HW2 2733   0.259   0.571   6.943
  612SOL     OW 2734   3.688   5.008   6.063
  612SOL    HW1 2735   3.726   5.023   5.972
  612SOL    HW2 2736   3.592   4.982   6.055
  613SOL     OW 2737   4.116   1.375   5.626
  613SOL    HW1 2738   4.194   1.336   5.674
  613SOL    HW2 2739   4.125   1.474   5.622
  614SOL     OW 2740   6.222   4.703   0.861
  614SOL    HW1 2741   6.153   4.672   0.927
  614SOL    HW2 2742   6.286   4.765   0.907
  615SOL     OW 2743   0.349   7.019   0.231
  615SOL    HW1 2744   0.259   0.019   0.197
  615SOL    HW2 2745   0.349   7.020   0.331
  616SOL     OW 2746   5.734   2.088   4.786
  616SOL    HW1 2747   5.712   2.043   4.700
  616SOL    HW2 2748   5.651   2.102   4.840
  617SOL     OW 2749   0.470   4.826   5.761
  617SOL    HW1 2750   0.468   4.926   5.763
  617SOL    HW2 2751   0.438   4.794   5.672
  618SOL     OW 2752   5.993   3.382   1.159
  618SOL    HW1 2753   6.049   3.423   1.231
  618SOL    HW2 2754   5.939   3.307   1.198
  619SOL     OW 2755   3.225   0.417   0.514
  619SOL    HW1 2756   3.292   0.392   0.583
  619SOL    HW2 2757   3.197   0.512   0.527
  620SOL     OW 2758   5.508   3.488   2.006
  620SOL    HW1 2759   5.463   3.511   1.919
  620SOL    HW2 2760   5.604   3.516   2.002
  621SOL     OW 2761   2.713   6.983   6.133
  621SOL    HW1 2762   2.709   0.001   6.042
  621SOL    HW2 2763   2.651   0.008   6.195
  622SOL     OW 2764   1.019   2.173   5.331
  622SOL    HW1 2765   1.112   2.143   5.349
  622SOL    HW2 2766   1.020   2.269   5.302
  623SOL     OW 2767   6.178   6.744   4.267
  623SOL    HW1 2768   6.218   6.725   4.357
  623SOL    HW2 2769   6.181   6.842   4.249
  624SOL     OW 2770   6.285   1.504   6.691
  624SOL    HW1 2771   6.306   1.406   6.692
  624SOL    HW2 2772   6.246   1.531   6.779
  625SOL     OW 2773   2.417   1.370   0.334
  625SOL    HW1 2774   2.502   1.391   0.285
  625SOL    HW2 2775   2.427   1.393   0.430
  626SOL     OW 2776   1.433   5.596   3.837
  626SOL    HW1 2777   1.481   5.682   3.821
  626SOL    HW2 2778   1.337   5.605   3.810
  627SOL     OW 2779   6.170   6.987   6.909
  627SOL    HW1 2780   6.237   6.934   6.857
  627SOL    HW2 2781   6.169   0.057   6.877
  628SOL     OW 2782   5.112   4.418   5.572
  628SOL    HW1 2783   5.130   4.497   5.514
  628SOL    HW2 2784   5.174   4.344   5.548
  629SOL     OW 2785   7.018   0.777   0.209
  629SOL    HW1 2786   0.074   0.730   0.245
  629SOL    HW2 2787   0.020   0.834   0.131
  630SOL     OW 2788   0.004   1.460   1.573
  630SOL    HW1 2789   0.102   1.450   1.588
  630SOL    HW2 2790   7.002   1.408   1.492
  631SOL     OW 2791   2.529   2.571   4.948
  631SOL    HW1 2792   2.598   2.623   4.998
  631SOL    HW2 2793   2.505   2.489   5.001
  632SOL     OW 2794   4.697   3.170   0.490
  632SOL    HW1 2795   4.663   3.096   0.549
  632SOL    HW2 2796   4.796   3.160   0.479
  633SOL     OW 2797   1.560   5.228   1.373
  633SOL    HW1 2798   1.584   5.262   1.463
  633SOL    HW2 2799   1.572   5.300   1.305
  634SOL     OW 2800   3.025   3.470   3.913
  634SOL    HW1 2801   3.120   3.451   3.889
  634SOL    HW2 2802   2.965   3.439   3.838
  635SOL     OW 2803   5.404   1.199   6.494
  635SOL    HW1 2804   5.336   1.168   6.429
  635SOL    HW2 2805   5.379   1.289   6.530
  636SOL     OW 2806   2.897   0.246   6.360
  636SOL    HW1 2807   2.993   0.252   6.334
  636SOL    HW2 2808   2.878   0.309   6.436
  637SOL     OW 2809   6.431   1.090   1.726
  637SOL    HW1 2810   6.349   1.059   1.773
  637SOL    HW2 2811   6.459   1.021   1.658
  638SOL     OW 2812   6.019   3.411   3.856
  638SOL    HW1 2813   5.958   3.378   3.784
  638SOL    HW2 2814   6.052   3.333   3.910
  639SOL     OW 2815   5.211   4.605   3.105
  639SOL    HW1 2816   5.203   4.580   3.201
  639SOL    HW2 2817   5.296   4.567   3.067
  640SOL     OW 2818   0.082   2.830   2.442
  640SOL    HW1 2819   0.084   2.785   2.532
  640SOL    HW2 2820   0.139   2.912   2.445
  641SOL     OW 2821   1.896   4.833   5.414
  641SOL    HW1 2822   1.901   4.883   5.328
  641SOL    HW2 2823   1.801   4.832   5.447
  642SOL     OW 2824   1.053   3.802   4.436
  642SOL    HW1 2825   0.974   3.854   4.468
  642SOL    HW2 2826   1.035   3.704   4.447
  643SOL     OW 2827   4.805   6.185   6.507
  643SOL    HW1 2828   4.772   6.202   6.599
  643SOL    HW2 2829   4.751   6.238   6.442
  644SOL     OW 2830   0.320   6.980   4.706
  644SOL    HW1 2831   0.360   6.895   4.738
  644SOL    HW2 2832   0.331   0.026   4.777
  645SOL     OW 2833   3.546   4.888   3.142
  645SOL    HW1 2834   3.523   4.891   3.045
  645SOL    HW2 2835   3.462   4.875   3.196
  646SOL     OW 2836   3.698   0.918   5.271
  646SOL    HW1 2837   3.664   1.004   5.236
  646SOL    HW2 2838   3.798   0.923   5.280
  647SOL     OW 2839   5.058   2.258   4.692
  647SOL    HW1 2840   5.107   2.267   4.779
  647SOL    HW2 2841   4.966   2.223   4.709
  648SOL     OW 2842   6.111   1.520   2.665
  648SOL    HW1 2843   6.108   1.600   2.725
  648SOL    HW2 2844   6.111   1.550   2.570
  649SOL     OW 2845   2.218   5.151   0.293
  649SOL    HW1 2846   2.164   5.207   0.231
  649SOL    HW2 2847   2.209   5.186   0.386
  650SOL     OW 2848   6.588   5.687   0.535
  650SOL    HW1 2849   6.537   5.681   0.449
  650SOL    HW2 2850   6.537   5.638   0.606
  651SOL     OW 2851   1.383   0.346   5.568
  651SOL    HW1 2852   1.395   0.278   5.496
  651SOL    HW2 2853   1.391   0.438   5.529
  652SOL     OW 2854   4.212   0.620   2.089
  652SOL    HW1 2855   4.155   0.682   2.036
  652SOL    HW2 2856   4.281   0.672   2.139
  653SOL     OW 2857   6.915   6.708   0.845
  653SOL    HW1 2858   6.905   6.724   0.747
  653SOL    HW2 2859   6.908   6.795   0.894
  654SOL     OW 2860   6.816   6.514   5.939
  654SOL    HW1 2861   6.810   6.541   5.843
  654SOL    HW2 2862   6.861   6.426   5.946
  655SOL     OW 2863   0.282   5.116   2.140
  655SOL    HW1 2864   0.216   5.042   2.150
  655SOL    HW2 2865   0.367   5.092   2.187
  656SOL     OW 2866   3.265   6.840   0.780
  656SOL    HW1 2867   3.177   6.840   0.828
  656SOL    HW2 2868   3.278   6.752   0.734
  657SOL     OW 2869   3.442   3.142   1.927
  657SOL    HW1 2870   3.464   3.044   1.932
  657SOL    HW2 2871   3.491   3.182   1.849
  658SOL     OW 2872   2.405   4.426   4.176
  658SOL    HW1 2873   2.407   4.331   4.206
  658SOL    HW2 2874   2.371   4.484   4.249
  659SOL     OW 2875   3.622   6.323   5.959
  659SOL    HW1 2876   3.637   6.317   6.057
  659SOL    HW2 2877   3.706   6.300   5.910
  660SOL     OW 2878   5.053   4.519   2.492
  660SOL    HW1 2879   5.019   4.488   2.581
  660SOL    HW2 2880   5.007   4.605   2.467
  661SOL     OW 2881   5.056   4.528   4.416
  661SOL    HW1 2882   5.123   4.548   4.487
  661SOL    HW2 2883   5.083   4.573   4.331
  662SOL     OW 2884   4.865   2.860   0.305
  662SOL    HW1 2885   4.943   2.858   0.243
  662SOL    HW2 2886   4.872   2.940   0.365
  663SOL     OW 2887   6.815   4.177   0.048
  663SOL    HW1 2888   6.766   4.122   7.005
  663SOL    HW2 2889   6.912   4.178   0.026
  664SOL     OW 2890   1.560   6.405   6.230
  664SOL    HW1 2891   1.486   6.362   6.179
  664SOL    HW2 2892   1.564   6.367   6.322
  665SOL     OW 2893   3.948   5.278   1.318
  665SOL    HW1 2894   3.956   5.289   1.219
  665SOL    HW2 2895   3.909   5.188   1.339
  666SOL     OW 2896   4.008   1.474   0.022
  666SOL    HW1 2897   3.960   1.387   0.022
  666SOL    HW2 2898   4.086   1.468   0.085
  667SOL     OW 2899   0.492   2.830   3.698
  667SOL    HW1 2900   0.569   2.858   3.756
  667SOL    HW2 2901   0.458   2.910   3.648
  668SOL     OW 2902   4.542   6.843   0.185
  668SOL    HW1 2903   4.484   6.765   0.209
  668SOL    HW2 2904   4.628   6.837   0.236
  669SOL     OW 2905   0.579   6.572   3.525
  669SOL    HW1 2906   0.557   6.525   3.611
  669SOL    HW2 2907   0.523   6.655   3.518
  670SOL     OW 2908   3.402   3.512   2.895
  670SOL    HW1 2909   3.363   3.516   2.987
  670SOL    HW2 2910   3.331   3.533   2.827
  671SOL     OW 2911   1.719   6.461   5.919
  671SOL    HW1 2912   1.637   6.416   5.956
  671SOL    HW2 2913   1.759   6.520   5.988
  672SOL     OW 2914   1.465   3.338   4.523
  672SOL    HW1 2915   1.513   3.260   4.484
  672SOL    HW2 2916   1.374   3.310   4.553
  673SOL     OW 2917   5.061   0.497   0.108
  673SOL    HW1 2918   4.994   0.423   0.098
  673SOL    HW2 2919   5.061   0.529   0.203
  674SOL     OW 2920   0.642   2.459   3.456
  674SOL    HW1 2921   0.653   2.519   3.535
  674SOL    HW2 2922   0.623   2.366   3.488
  675SOL     OW 2923   0.675   2.644   4.846
  675SOL    HW1 2924   0.661   2.619   4.942
  675SOL    HW2 2925   0.768   2.677   4.833
  676SOL     OW 2926   2.546   5.024   4.613
  676SOL    HW1 2927   2.537   4.930   4.581
  676SOL    HW2 2928   2.575   5.024   4.709
  677SOL     OW 2929   6.323   0.414   0.925
  677SOL    HW1 2930   6.254   0.371   0.983
  677SOL    HW2 2931   6.414   0.385   0.956
  678SOL     OW 2932   2.770   0.562   5.794
  678SOL    HW1 2933   2.809   0.548   5.702
  678SOL    HW2 2934   2.671   0.550   5.791
  679SOL     OW 2935   3.735   0.986   3.243
  679SOL    HW1 2936   3.712   0.889   3.245
  679SOL    HW2 2937   3.700   1.030   3.325
  680SOL     OW 2938   5.131   3.902   5.756
  680SOL    HW1 2939   5.047   3.956   5.748
  680SOL    HW2 2940   5.117   3.827   5.820
  681SOL     OW 2941   6.963   6.570   1.083
  681SOL    HW1 2942   6.890   6.504   1.097
  681SOL    HW2 2943   6.958   6.607   0.990
  682SOL     OW 2944   1.869   6.504   0.046
  682SOL    HW1 2945   1.937   6.433   0.027
  682SOL    HW2 2946   1.914   6.594   0.044
  683SOL     OW 2947   3.717   1.352   6.168
  683SOL    HW1 2948   3.618   1.361   6.179
  683SOL    HW2 2949   3.763   1.417   6.229
  684SOL     OW 2950   0.584   6.678   5.941
  684SOL    HW1 2951   0.594   6.752   6.008
  684SOL    HW2 2952   0.611   6.592   5.983
  685SOL     OW 2953   4.615   0.128   6.429
  685SOL    HW1 2954   4.701   0.121   6.379
  685SOL    HW2 2955   4.629   0.102   6.524
  686SOL     OW 2956   5.403   2.839   3.348
  686SOL    HW1 2957   5.372   2.934   3.349
  686SOL    HW2 2958   5.329   2.778   3.374
  687SOL     OW 2959   6.661   3.102   6.502
  687SOL    HW1 2960   6.662   3.132   6.406
  687SOL    HW2 2961   6.566   3.099   6.535
  688SOL     OW 2962   1.857   3.721   6.783
  688SOL    HW1 2963   1.876   3.817   6.761
  688SOL    HW2 2964   1.766   3.697   6.751
  689SOL     OW 2965   0.234   3.910   6.553
  689SOL    HW1 2966   0.312   3.941   6.500
  689SOL    HW2 2967   0.156   3.895   6.492
  690SOL     OW 2968   1.470   2.126   3.699
  690SOL    HW1 2969   1.547   2.190   3.695
  690SOL    HW2 2970   1.492   2.051   3.761
  691SOL     OW 2971   1.162   2.566   6.424
  691SOL    HW1 2972   1.186   2.566   6.521
  691SOL    HW2 2973   1.171   2.473   6.388
  692SOL     OW 2974   2.420   6.882   3.044
  692SOL    HW1 2975   2.379   6.973   3.057
  692SOL    HW2 2976   2.391   6.845   2.956
  693SOL     OW 2977   6.580   2.489   2.506
  693SOL    HW1 2978   6.631   2.573   2.525
  693SOL    HW2 2979   6.483   2.511   2.497
  694SOL     OW 2980   3.018   5.525   1.025
  694SOL    HW1 2981   2.969   5.551   1.109
  694SOL    HW2 2982   2.992   5.588   0.951
  695SOL     OW 2983   5.109   5.643   5.163
  695SOL    HW1 2984   5.202   5.679   5.171
  695SOL    HW2 2985   5.111   5.543   5.172
  696SOL     OW 2986   3.426   5.138   2.356
  696SOL    HW1 2987   3.480   5.099   2.282
  696SOL    HW2 2988   3.338   5.089   2.363
  697SOL     OW 2989   0.945   3.196   4.706
  697SOL    HW1 2990   0.972   3.176   4.800
  697SOL    HW2 2991   0.896   3.283   4.703
  698SOL     OW 2992   4.240   0.785   3.441
  698SOL    HW1 2993   4.267   0.755   3.349
  698SOL    HW2 2994   4.145   0.815   3.440
  699SOL     OW 2995   1.483   4.513   0.909
  699SOL    HW1 2996   1.513   4.430   0.863
  699SOL    HW2 2997   1.388   4.533   0.885
  700SOL     OW 2998   2.634   2.499   4.326
  700SOL    HW1 2999   2.586   2.562   4.388
  700SOL    HW2 3000   2.577   2.480   4.247
  701SOL     OW 3001   0.448   4.896   6.861
  701SOL    HW1 3002   0.488   4.806   6.844
  701SOL    HW2 3003   0.487   4.934   6.945
  702SOL     OW 3004   5.075   6.775   5.146
  702SOL    HW1 3005   5.162   6.732   5.168
  702SOL    HW2 3006   5.081   6.819   5.056
  703SOL     OW 3007   4.012   3.407   6.374
  703SOL    HW1 3008   4.004   3.490   6.428
  703SOL    HW2 3009   3.965   3.419   6.287
  704SOL     OW 3010   1.680   0.707   6.642
  704SOL    HW1 3011   1.635   0.797   6.641
  704SOL    HW2 3012   1.769   0.714   6.686
  705SOL     OW 3013   5.252   0.741   3.409
  705SOL    HW1 3014   5.346   0.736   3.443
  705SOL    HW2 3015   5.251   0.789   3.321
  706SOL     OW 3016   3.592   2.106   4.039
  706SOL    HW1 3017   3.557   2.013   4.053
  706SOL    HW2 3018   3.681   2.115   4.085
  707SOL     OW 3019   4.789   0.724   1.112
  707SOL    HW1 3020   4.759   0.629   1.104
  707SOL    HW2 3021   4.725   0.783   1.063
  708SOL     OW 3022   4.489   0.279   1.084
  708SOL    HW1 3023   4.436   0.195   1.076
  708SOL    HW2 3024   4.536   0.281   1.172
  709SOL     OW 3025   0.900   4.942   0.553
  709SOL    HW1 3026   0.804   4.963   0.535
  709SOL    HW2 3027   0.945   5.023   0.590
  710SOL     OW 3028   3.358   4.044   2.531
  710SOL    HW1 3029   3.302   3.970   2.569
  710SOL    HW2 3030   3.423   4.075   2.600
  711SOL     OW 3031   6.665   2.109   5.057
  711SOL    HW1 3032   6.746   2.051   5.051
  711SOL    HW2 3033   6.690   2.198   5.096
  712SOL     OW 3034   1.193   3.608   1.288
  712SOL    HW1 3035   1.250   3.606   1.206
  712SOL    HW2 3036   1.129   3.685   1.283
  713SOL     OW 3037   3.545   3.478   2.360
  713SOL    HW1 3038   3.490   3.429   2.292
  713SOL    HW2 3039   3.584   3.413   2.424
  714SOL     OW 3040   5.646   4.455   4.981
  714SOL    HW1 3041   5.676   4.549   4.968
  714SOL    HW2 3042   5.726   4.397   5.000
  715SOL     OW 3043   4.021   5.723   6.332
  715SOL    HW1 3044   4.056   5.671   6.254
  715SOL    HW2 3045   4.097   5.750   6.391
  716SOL     OW 3046   0.469   5.400   1.457
  716SOL    HW1 3047   0.561   5.433   1.432
  716SOL    HW2 3048   0.411   5.401   1.375
  717SOL     OW 3049   6.083   3.927   6.594
  717SOL    HW1 3050   6.159   3.939   6.530
  717SOL    HW2 3051   6.116   3.881   6.676
  718SOL     OW 3052   3.558   2.887   5.663
  718SOL    HW1 3053   3.594   2.964   5.612
  718SOL    HW2 3054   3.591   2.890   5.757
  719SOL     OW 3055   6.831   2.737   1.453
  719SOL    HW1 3056   6.742   2.783   1.461
  719SOL    HW2 3057   6.902   2.805   1.435
  720SOL     OW 3058   2.279   2.034   5.442
  720SOL    HW1 3059   2.366   2.071   5.409
  720SOL    HW2 3060   2.209   2.046   5.372
  721SOL     OW 3061   1.665   0.413   5.402
  721SOL    HW1 3062   1.576   0.457   5.409
  721SOL    HW2 3063   1.709   0.439   5.316
  722SOL     OW 3064   4.252   6.662   5.008
  722SOL    HW1 3065   4.230   6.759   5.010
  722SOL    HW2 3066   4.240   6.627   4.915
  723SOL     OW 3067   2.130   2.728   2.363
  723SOL    HW1 3068   2.192   2.763   2.434
  723SOL    HW2 3069   2.183   2.676   2.296
  724SOL     OW 3070   0.924   1.716   5.102
  724SOL    HW1 3071   0.928   1.761   5.013
  724SOL    HW2 3072   0.892   1.781   5.171
  725SOL     OW 3073   2.870   5.280   2.121
  725SOL    HW1 3074   2.964   5.283   2.154
  725SOL    HW2 3075   2.863   5.216   2.044
  726SOL     OW 3076   3.286   5.527   6.544
  726SOL    HW1 3077   3.343   5.536   6.462
  726SOL    HW2 3078   3.190   5.544   6.519
  727SOL     OW 3079   3.567   5.750   4.581
  727SOL    HW1 3080   3.617   5.748   4.494
  727SOL    HW2 3081   3.479   5.796   4.567
  728SOL     OW 3082   0.220   3.998   5.642
  728SOL    HW1 3083   0.251   3.903   5.638
  728SOL    HW2 3084   0.215   4.035   5.550
  729SOL     OW 3085   2.053   1.355   0.478
  729SOL    HW1 3086   2.004   1.274   0.510
  729SOL    HW2 3087   2.099   1.336   0.392
  730SOL     OW 3088   6.198   0.128   3.752
  730SOL    HW1 3089   6.179   0.046   3.806
  730SOL    HW2 3090   6.284   0.114   3.702
  731SOL     OW 3091   5.285   3.123   4.883
  731SOL    HW1 3092   5.219   3.109   4.809
  731SOL    HW2 3093   5.266   3.060   4.958
  732SOL     OW 3094   0.761   2.561   1.199
  732SOL    HW1 3095   0.793   2.634   1.258
  732SOL    HW2 3096   0.677   2.588   1.153
  733SOL     OW 3097   5.323   4.477   3.882
  733SOL    HW1 3098   5.385   4.439   3.813
  733SOL    HW2 3099   5.229   4.452   3.860
  734SOL     OW 3100   0.209   4.215   1.715
  734SOL    HW1 3101   0.176   4.309   1.723
  734SOL    HW2 3102   0.214   4.190   1.618
  735SOL     OW 3103   1.662   3.498   0.404
  735SOL    HW1 3104   1.571   3.485   0.363
  735SOL    HW2 3105   1.732   3.493   0.333
  736SOL     OW 3106   6.137   6.890   2.919
  736SOL    HW1 3107   6.107   6.815   2.860
  736SOL    HW2 3108   6.223   6.928   2.884
  737SOL     OW 3109   4.720   3.677   1.530
  737SOL    HW1 3110   4.708   3.775   1.513
  737SOL    HW2 3111   4.676   3.625   1.456
  738SOL     OW 3112   0.214   4.445   4.314
  738SOL    HW1 3113   0.205   4.378   4.388
  738SOL    HW2 3114   0.139   4.511   4.319
  739SOL     OW 3115   4.783   6.824   5.863
  739SOL    HW1 3116   4.752   6.735   5.830
  739SOL    HW2 3117   4.766   6.893   5.792
  740SOL     OW 3118   5.453   0.430   0.871
  740SOL    HW1 3119   5.386   0.372   0.917
  740SOL    HW2 3120   5.409   0.515   0.842
  741SOL     OW 3121   0.877   6.189   3.370
  741SOL    HW1 3122   0.819   6.114   3.402
  741SOL    HW2 3123   0.858   6.272   3.423
  742SOL     OW 3124   1.823   6.386   3.325
  742SOL    HW1 3125   1.824   6.287   3.311
  742SOL    HW2 3126   1.915   6.418   3.346
  743SOL     OW 3127   1.045   4.502   4.128
  743SOL    HW1 3128   1.038   4.457   4.217
  743SOL    HW2 3129   1.088   4.591   4.139
  744SOL     OW 3130   6.851   6.151   6.940
  744SOL    HW1 3131   6.917   6.167   6.867
  744SOL    HW2 3132   6.835   6.053   6.951
  745SOL     OW 3133   1.024   5.214   3.769
  745SOL    HW1 3134   1.055   5.166   3.851
  745SOL    HW2 3135   1.086   5.290   3.749
  746SOL     OW 3136   0.593   6.569   5.123
  746SOL    HW1 3137   0.612   6.667   5.117
  746SOL    HW2 3138   0.679   6.518   5.122
  747SOL     OW 3139   4.430   4.691   3.805
  747SOL    HW1 3140   4.527   4.713   3.797
  747SOL    HW2 3141   4.404   4.627   3.732
  748SOL     OW 3142   4.878   4.572   0.911
  748SOL    HW1 3143   4.867   4.531   0.821
  748SOL    HW2 3144   4.791   4.571   0.959
  749SOL     OW 3145   0.030   2.740   5.037
  749SOL    HW1 3146   6.996   2.672   5.080
  749SOL    HW2 3147   7.002   2.792   4.969
  750SOL     OW 3148   3.065   2.757   0.697
  750SOL    HW1 3149   2.997   2.828   0.678
  750SOL    HW2 3150   3.157   2.796   0.689
  751SOL     OW 3151   4.242   1.363   0.819
  751SOL    HW1 3152   4.237   1.277   0.769
  751SOL    HW2 3153   4.233   1.345   0.917
  752SOL     OW 3154   4.442   2.518   1.830
  752SOL    HW1 3155   4.466   2.615   1.828
  752SOL    HW2 3156   4.405   2.491   1.742
  753SOL     OW 3157   1.875   3.596   4.941
  753SOL    HW1 3158   1.845   3.512   4.987
  753SOL    HW2 3159   1.956   3.632   4.987
  754SOL     OW 3160   5.056   4.048   0.014
  754SOL    HW1 3161   5.054   4.013   6.945
  754SOL    HW2 3162   5.064   4.148   0.013
  755SOL     OW 3163   0.511   5.848   6.613
  755SOL    HW1 3164   0.465   5.764   6.643
  755SOL    HW2 3165   0.564   5.886   6.689
  756SOL     OW 3166   5.040   0.933   2.413
  756SOL    HW1 3167   4.962   0.946   2.352
  756SOL    HW2 3168   5.093   0.854   2.382
  757SOL     OW 3169   0.540   6.564   4.038
  757SOL    HW1 3170   0.525   6.552   4.136
  757SOL    HW2 3171   0.545   6.662   4.017
  758SOL     OW 3172   3.505   2.186   1.041
  758SOL    HW1 3173   3.429   2.238   1.080
  758SOL    HW2 3174   3.485   2.164   0.945
  759SOL     OW 3175   0.828   1.265   0.197
  759SOL    HW1 3176   0.917   1.294   0.232
  759SOL    HW2 3177   0.809   1.313   0.111
  760SOL     OW 3178   4.864   1.526   6.638
  760SOL    HW1 3179   4.787   1.469   6.609
  760SOL    HW2 3180   4.833   1.620   6.649
  761SOL     OW 3181   6.050   3.448   0.320
  761SOL    HW1 3182   6.018   3.489   0.235
  761SOL    HW2 3183   6.133   3.394   0.302
  762SOL     OW 3184   2.067   6.254   3.836
  762SOL    HW1 3185   2.082   6.334   3.894
  762SOL    HW2 3186   2.154   6.225   3.795
  763SOL     OW 3187   4.116   5.869   6.928
  763SOL    HW1 3188   4.043   5.929   6.898
  763SOL    HW2 3189   4.078   5.781   6.956
  764SOL     OW 3190   3.101   1.081   3.048
  764SOL    HW1 3191   3.044   1.079   2.965
  764SOL    HW2 3192   3.086   1.167   3.096
  765SOL     OW 3193   0.870   6.260   1.417
  765SOL    HW1 3194   0.831   6.326   1.481
  765SOL    HW2 3195   0.807   6.183   1.406
  766SOL     OW 3196   6.933   0.608   6.639
  766SOL    HW1 3197   6.937   0.652   6.549
  766SOL    HW2 3198   6.859   0.540   6.640
  767SOL     OW 3199   0.472   6.573   2.020
  767SOL    HW1 3200   0.465   6.586   2.119
  767SOL    HW2 3201   0.460   6.661   1.974
  768SOL     OW 3202   1.972   0.211   2.617
  768SOL    HW1 3203   2.023   0.143   2.669
  768SOL    HW2 3204   1.972   0.298   2.666
  769SOL     OW 3205   3.415   0.576   4.762
  769SOL    HW1 3206   3.328   0.528   4.770
  769SOL    HW2 3207   3.457   0.554   4.674
  770SOL     OW 3208   2.965   5.614   3.425
  770SOL    HW1 3209   3.007   5.584   3.340
  770SOL    HW2 3210   2.866   5.614   3.416
  771SOL     OW 3211   2.079   5.436   2.422
  771SOL    HW1 3212   2.112   5.343   2.402
  771SOL    HW2 3213   2.017   5.433   2.500
  772SOL     OW 3214   6.923   4.052   0.327
  772SOL    HW1 3215   6.849   4.005   0.376
  772SOL    HW2 3216   6.924   4.023   0.232
  773SOL     OW 3217   6.726   2.948   3.175
  773SOL    HW1 3218   6.720   2.853   3.144
  773SOL    HW2 3219   6.791   2.998   3.118
  774SOL     OW 3220   1.677   2.096   1.958
  774SOL    HW1 3221   1.596   2.047   1.926
  774SOL    HW2 3222   1.702   2.063   2.049
  775SOL     OW 3223   1.130   1.958   4.114
  775SOL    HW1 3224   1.058   1.988   4.177
  775SOL    HW2 3225   1.088   1.913   4.035
  776SOL     OW 3226   1.404   6.716   5.844
  776SOL    HW1 3227   1.417   6.771   5.926
  776SOL    HW2 3228   1.308   6.719   5.816
  777SOL     OW 3229   3.701   1.279   1.332
  777SOL    HW1 3230   3.799   1.282   1.353
  777SOL    HW2 3231   3.685   1.316   1.241
  778SOL     OW 3232   3.939   0.864   3.382
  778SOL    HW1 3233   3.951   0.772   3.344
  778SOL    HW2 3234   3.892   0.922   3.315
  779SOL     OW 3235   0.291   1.654   2.198
  779SOL    HW1 3236   0.345   1.695   2.271
  779SOL    HW2 3237   0.352   1.618   2.128
  780SOL     OW 3238   6.079   2.737   4.333
  780SOL    HW1 3239   6.171   2.699   4.324
  780SOL    HW2 3240   6.012   2.663   4.325
  781SOL     OW 3241   6.108   1.381   6.132
  781SOL    HW1 3242   6.019   1.420   6.155
  781SOL    HW2 3243   6.138   1.417   6.044
  782SOL     OW 3244   0.769   3.694   1.139
  782SOL    HW1 3245   0.738   3.761   1.072
  782SOL    HW2 3246   0.844   3.641   1.101
  783SOL     OW 3247   2.993   5.572   6.947
  783SOL    HW1 3248   2.993   5.672   6.948
  783SOL    HW2 3249   3.066   5.539   7.007
  784SOL     OW 3250   4.247   0.354   5.447
  784SOL    HW1 3251   4.151   0.364   5.421
  784SOL    HW2 3252   4.278   0.437   5.492
  785SOL     OW 3253   6.109   1.603   2.409
  785SOL    HW1 3254   6.206   1.610   2.431
  785SOL    HW2 3255   6.099   1.566   2.316
  786SOL     OW 3256   0.223   0.638   0.318
  786SOL    HW1 3257   0.283   0.619   0.241
  786SOL    HW2 3258   0.277   0.651   0.401
  787SOL     OW 3259   2.607   1.291   5.830
  787SOL    HW1 3260   2.638   1.273   5.736
  787SOL    HW2 3261   2.615   1.389   5.848
  788SOL     OW 3262   2.059   3.509   4.373
  788SOL    HW1 3263   1.967   3.501   4.412
  788SOL    HW2 3264   2.058   3.575   4.299
  789SOL     OW 3265   6.130   4.150   1.993
  789SOL    HW1 3266   6.172   4.106   2.073
  789SOL    HW2 3267   6.200   4.202   1.943
  790SOL     OW 3268   2.400   1.506   4.233
  790SOL    HW1 3269   2.346   1.590   4.238
  790SOL    HW2 3270   2.339   1.427   4.228
  791SOL     OW 3271   4.187   0.601   3.904
  791SOL    HW1 3272   4.243   0.643   3.833
  791SOL    HW2 3273   4.246   0.560   3.973
  792SOL     OW 3274   6.229   0.123   2.147
  792SOL    HW1 3275   6.174   0.051   2.104
  792SOL    HW2 3276   6.324   0.091   2.156
  793SOL     OW 3277   5.145   6.302   1.683
  793SOL    HW1 3278   5.214   6.234   1.660
  793SOL    HW2 3279   5.062   6.256   1.714
  794SOL     OW 3280   2.817   4.945   5.516
  794SOL    HW1 3281   2.864   4.860   5.539
  794SOL    HW2 3282   2.833   4.967   5.420
  795SOL     OW 3283   3.772   4.962   5.787
  795SOL    HW1 3284   3.696   5.019   5.755
  795SOL    HW2 3285   3.777   4.879   5.731
  796SOL     OW 3286   0.232   2.080   5.429
  796SOL    HW1 3287   0.321   2.116   5.458
  796SOL    HW2 3288   0.199   2.015   5.497
  797SOL     OW 3289   4.989   2.575   2.528
  797SOL    HW1 3290   4.922   2.631   2.479
  797SOL    HW2 3291   5.063   2.549   2.467
  798SOL     OW 3292   4.622   0.657   0.589
  798SOL    HW1 3293   4.656   0.585   0.650
  798SOL    HW2 3294   4.677   0.740   0.604
  799SOL     OW 3295   6.361   2.244   3.404
  799SOL    HW1 3296   6.431   2.175   3.420
  799SOL    HW2 3297   6.327   2.236   3.310
  800SOL     OW 3298   5.697   0.661   2.042
  800SOL    HW1 3299   5.599   0.652   2.026
  800SOL    HW2 3300   5.747   0.605   1.977
  801SOL     OW 3301   1.163   2.514   3.267
  801SOL    HW1 3302   1.099   2.455   3.316
  801SOL    HW2 3303   1.112   2.580   3.212
  802SOL     OW 3304   4.924   1.299   0.241
  802SOL    HW1 3305   4.831   1.263   0.241
  802SOL    HW2 3306   4.921   1.399   0.245
  803SOL     OW 3307   5.862   5.966   4.710
  803SOL    HW1 3308   5.895   5.966   4.616
  803SOL    HW2 3309   5.936   5.995   4.771
  804SOL     OW 3310   6.799   6.825   0.313
  804SOL    HW1 3311   6.737   6.755   0.350
  804SOL    HW2 3312   6.830   6.797   0.222
  805SOL     OW 3313   4.381   2.984   5.737
  805SOL    HW1 3314   4.322   2.904   5.744
  805SOL    HW2 3315   4.452   2.968   5.668
  806SOL     OW 3316   4.183   1.242   6.042
  806SOL    HW1 3317   4.091   1.250   6.005
  806SOL    HW2 3318   4.233   1.328   6.027
  807SOL     OW 3319   1.096   0.976   3.715
  807SOL    HW1 3320   1.022   0.940   3.657
  807SOL    HW2 3321   1.141   1.052   3.669
  808SOL     OW 3322   5.005   3.358   5.977
  808SOL    HW1 3323   4.942   3.388   5.906
  808SOL    HW2 3324   4.953   3.335   6.060
  809SOL     OW 3325   1.125   4.952   0.949
  809SOL    HW1 3326   1.143   4.941   1.047
  809SOL    HW2 3327   1.159   4.872   0.899
  810SOL     OW 3328   4.301   3.451   1.365
  810SOL    HW1 3329   4.206   3.437   1.390
  810SOL    HW2 3330   4.352   3.366   1.376
  811SOL     OW 3331   4.945   5.702   3.388
  811SOL    HW1 3332   5.012   5.706   3.314
  811SOL    HW2 3333   4.992   5.681   3.474
  812SOL     OW 3334   6.978   0.356   1.514
  812SOL    HW1 3335   0.039   0.305   1.525
  812SOL    HW2 3336   6.951   0.356   1.418
  813SOL     OW 3337   4.404   6.170   3.486
  813SOL    HW1 3338   4.459   6.192   3.405
  813SOL    HW2 3339   4.322   6.228   3.487
  814SOL     OW 3340   5.341   6.759   2.767
  814SOL    HW1 3341   5.421   6.780   2.823
  814SOL    HW2 3342   5.265   6.731   2.827
  815SOL     OW 3343   6.279   2.205   1.802
  815SOL    HW1 3344   6.202   2.142   1.819
  815SOL    HW2 3345   6.251   2.298   1.826
  816SOL     OW 3346   6.594   6.212   0.075
  816SOL    HW1 3347   6.506   6.178   0.043
  816SOL    HW2 3348   6.667   6.155   0.037
  817SOL     OW 3349   1.977   4.326   2.647
  817SOL    HW1 3350   1.938   4.348   2.558
  817SOL    HW2 3351   1.986   4.227   2.656
  818SOL     OW 3352   6.281   2.506   0.334
  818SOL    HW1 3353   6.303   2.448   0.413
  818SOL    HW2 3354   6.200   2.471   0.288
  819SOL     OW 3355   6.171   2.496   4.530
  819SOL    HW1 3356   6.241   2.546   4.478
  819SOL    HW2 3357   6.163   2.403   4.493
  820SOL     OW 3358   1.452   3.003   4.870
  820SOL    HW1 3359   1.379   3.063   4.837
  820SOL    HW2 3360   1.415   2.938   4.936
  821SOL     OW 3361   1.850   4.719   0.616
  821SOL    HW1 3362   1.834   4.773   0.699
  821SOL    HW2 3363   1.928   4.757   0.567
  822SOL     OW 3364   0.782   4.493   4.923
  822SOL    HW1 3365   0.795   4.536   4.834
  822SOL    HW2 3366   0.831   4.406   4.926
  823SOL     OW 3367   4.963   4.387   6.259
  823SOL    HW1 3368   4.971   4.332   6.175
  823SOL    HW2 3369   5.051   4.386   6.307
  824SOL     OW 3370   4.801   1.677   5.112
  824SOL    HW1 3371   4.782   1.746   5.042
  824SOL    HW2 3372   4.767   1.709   5.200
  825SOL     OW 3373   2.134   3.270   2.367
  825SOL    HW1 3374   2.145   3.300   2.461
  825SOL    HW2 3375   2.174   3.339   2.306
  826SOL     OW 3376   6.037   3.389   0.579
  826SOL    HW1 3377   6.024   3.409   0.482
  826SOL    HW2 3378   5.976   3.316   0.607
  827SOL     OW 3379   3.466   5.493   6.332
  827SOL    HW1 3380   3.505   5.416   6.382
  827SOL    HW2 3381   3.496   5.489   6.236
  828SOL     OW 3382   6.314   0.661   5.329
  828SOL    HW1 3383   6.379   0.589   5.302
  828SOL    HW2 3384   6.232   0.619   5.367
  829SOL     OW 3385   3.190   3.068   3.821
  829SOL    HW1 3386   3.233   2.998   3.878
  829SOL    HW2 3387   3.235   3.070   3.732
  830SOL     OW 3388   5.151   4.926   5.734
  830SOL    HW1 3389   5.248   4.946   5.717
  830SOL    HW2 3390   5.141   4.830   5.758
  831SOL     OW 3391   6.662   6.802   4.306
  831SOL    HW1 3392   6.618   6.885   4.272
  831SOL    HW2 3393   6.756   6.822   4.332
  832SOL     OW 3394   2.652   1.241   0.068
  832SOL    HW1 3395   2.672   1.336   0.092
  832SOL    HW2 3396   2.634   1.189   0.151
  833SOL     OW 3397   6.212   6.517   6.559
  833SOL    HW1 3398   6.143   6.572   6.606
  833SOL    HW2 3399   6.171   6.475   6.478
  834SOL     OW 3400   3.231   3.663   3.450
  834SOL    HW1 3401   3.324   3.695   3.469
  834SOL    HW2 3402   3.176   3.672   3.533
  835SOL     OW 3403   3.909   6.921   3.796
  835SOL    HW1 3404   4.007   6.905   3.809
  835SOL    HW2 3405   3.864   6.929   3.885
  836SOL     OW 3406   3.567   6.407   6.756
  836SOL    HW1 3407   3.583   6.391   6.853
  836SOL    HW2 3408   3.568   6.506   6.738
  837SOL     OW 3409   5.403   0.476   0.157
  837SOL    HW1 3410   5.350   0.524   0.086
  837SOL    HW2 3411   5.340   0.442   0.227
  838SOL     OW 3412   1.438   6.613   5.103
  838SOL    HW1 3413   1.372   6.594   5.031
  838SOL    HW2 3414   1.526   6.571   5.080
  839SOL     OW 3415   2.909   1.211   3.663
  839SOL    HW1 3416   2.955   1.199   3.751
  839SOL    HW2 3417   2.977   1.227   3.591
  840SOL     OW 3418   1.111   1.233   0.002
  840SOL    HW1 3419   1.119   1.173   0.081
  840SOL    HW2 3420   1.047   1.194   6.961
  841SOL     OW 3421   6.149   3.751   6.785
  841SOL    HW1 3422   6.103   3.663   6.775
  841SOL    HW2 3423   6.239   3.747   6.741
  842SOL     OW 3424   4.024   5.336   3.122
  842SOL    HW1 3425   4.048   5.306   3.214
  842SOL    HW2 3426   4.104   5.380   3.079
  843SOL     OW 3427   5.773   2.259   1.156
  843SOL    HW1 3428   5.702   2.317   1.196
  843SOL    HW2 3429   5.818   2.308   1.081
  844SOL     OW 3430   5.180   6.279   0.673
  844SOL    HW1 3431   5.114   6.295   0.600
  844SOL    HW2 3432   5.153   6.331   0.754
  845SOL     OW 3433   6.007   3.467   5.012
  845SOL    HW1 3434   6.002   3.367   5.013
  845SOL    HW2 3435   5.944   3.503   4.943
  846SOL     OW 3436   5.862   1.394   0.252
  846SOL    HW1 3437   5.773   1.417   0.290
  846SOL    HW2 3438   5.851   1.325   0.180
  847SOL     OW 3439   6.061   3.292   0.892
  847SOL    HW1 3440   6.040   3.324   0.985
  847SOL    HW2 3441   5.991   3.324   0.828
  848SOL     OW 3442   6.619   0.271   6.129
  848SOL    HW1 3443   6.713   0.238   6.130
  848SOL    HW2 3444   6.611   0.348   6.066
  849SOL     OW 3445   0.319   6.058   5.023
  849SOL    HW1 3446   0.364   6.147   5.018
  849SOL    HW2 3447   0.262   6.054   5.105
  850SOL     OW 3448   4.750   0.893   3.396
  850SOL    HW1 3449   4.727   0.930   3.306
  850SOL    HW2 3450   4.801   0.961   3.448
  851SOL     OW 3451   0.426   1.238   0.007
  851SOL    HW1 3452   0.449   1.179   0.084
  851SOL    HW2 3453   0.351   1.299   0.032
  852SOL     OW 3454   2.461   2.640   6.644
  852SOL    HW1 3455   2.559   2.636   6.623
  852SOL    HW2 3456   2.433   2.735   6.655
  853SOL     OW 3457   1.067   2.718   2.008
  853SOL    HW1 3458   0.986   2.756   2.054
  853SOL    HW2 3459   1.079   2.623   2.035
  854SOL     OW 3460   5.448   6.463   2.694
  854SOL    HW1 3461   5.390   6.382   2.703
  854SOL    HW2 3462   5.395   6.545   2.715
  855SOL     OW 3463   5.427   0.496   1.752
  855SOL    HW1 3464   5.461   0.547   1.674
  855SOL    HW2 3465   5.497   0.431   1.784
  856SOL     OW 3466   1.794   0.207   5.566
  856SOL    HW1 3467   1.740   0.261   5.503
  856SOL    HW2 3468   1.737   0.136   5.607
  857SOL     OW 3469   6.066   3.657   0.838
  857SOL    HW1 3470   5.972   3.639   0.867
  857SOL    HW2 3471   6.127   3.651   0.917
  858SOL     OW 3472   3.075   4.919   1.403
  858SOL    HW1 3473   3.050   5.008   1.365
  858SOL    HW2 3474   3.121   4.932   1.491
  859SOL     OW 3475   6.299   4.789   6.857
  859SOL    HW1 3476   6.210   4.830   6.836
  859SOL    HW2 3477   6.290   4.728   6.935
  860SOL     OW 3478   3.411   4.710   0.127
  860SOL    HW1 3479   3.468   4.656   0.189
  860SOL    HW2 3480   3.455   4.717   0.038
  861SOL     OW 3481   3.056   6.392   4.760
  861SOL    HW1 3482   3.119   6.440   4.821
  861SOL    HW2 3483   3.106   6.325   4.706
  862SOL     OW 3484   6.054   4.409   4.928
  862SOL    HW1 3485   6.144   4.397   4.971
  862SOL    HW2 3486   6.060   4.480   4.858
  863SOL     OW 3487   0.542   0.914   0.804
  863SOL    HW1 3488   0.453   0.929   0.761
  863SOL    HW2 3489   0.562   0.990   0.866
  864SOL     OW 3490   5.093   4.285   3.129
  864SOL    HW1 3491   5.128   4.357   3.070
  864SOL    HW2 3492   5.037   4.222   3.075
  865SOL     OW 3493   1.401   0.204   3.785
  865SOL    HW1 3494   1.494   0.197   3.749
  865SOL    HW2 3495   1.380   0.300   3.806
  866SOL     OW 3496   2.744   1.655   2.004
  866SOL    HW1 3497   2.724   1.730   2.067
  866SOL    HW2 3498   2.843   1.642   1.997
  867SOL     OW 3499   3.011   2.913   6.827
  867SOL    HW1 3500   2.911   2.917   6.815
  867SOL    HW2 3501   3.042   2.998   6.870
  868SOL     OW 3502   5.829   0.164   3.046
  868SOL    HW1 3503   5.748   0.220   3.063
  868SOL    HW2 3504   5.865   0.184   2.954
  869SOL     OW 3505   6.419   5.846   2.321
  869SOL    HW1 3506   6.379   5.931   2.288
  869SOL    HW2 3507   6.482   5.865   2.397
  870SOL     OW 3508   0.223   2.551   1.358
  870SOL    HW1 3509   0.245   2.480   1.426
  870SOL    HW2 3510   0.243   2.641   1.397
  871SOL     OW 3511   6.885   2.545   2.103
  871SOL    HW1 3512   6.860   2.594   2.019
  871SOL    HW2 3513   6.895   2.610   2.178
  872SOL     OW 3514   6.350   2.968   4.891
  872SOL    HW1 3515   6.323   3.064   4.902
  872SOL    HW2 3516   6.325   2.936   4.799
  873SOL     OW 3517   4.129   6.687   3.274
  873SOL    HW1 3518   4.121   6.776   3.228
  873SOL    HW2 3519   4.114   6.700   3.372
  874SOL     OW 3520   1.441   4.676   4.924
  874SOL    HW1 3521   1.464   4.585   4.957
  874SOL    HW2 3522   1.424   4.673   4.826
  875SOL     OW 3523   5.412   4.469   0.626
  875SOL    HW1 3524   5.386   4.409   0.550
  875SOL    HW2 3525   5.407   4.418   0.712
  876SOL     OW 3526   6.677   3.687   2.598
  876SOL    HW1 3527   6.588   3.660   2.635
  876SOL    HW2 3528   6.665   3.760   2.531
  877SOL     OW 3529   5.038   5.315   6.824
  877SOL    HW1 3530   5.121   5.365   6.797
  877SOL    HW2 3531   4.993   5.363   6.899
  878SOL     OW 3532   3.166   5.139   0.317
  878SOL    HW1 3533   3.205   5.048   0.330
  878SOL    HW2 3534   3.067   5.131   0.306
  879SOL     OW 3535   4.857   2.185   2.479
  879SOL    HW1 3536   4.865   2.102   2.533
  879SOL    HW2 3537   4.817   2.163   2.390
  880SOL     OW 3538   3.721   4.798   0.202
  880SOL    HW1 3539   3.787   4.827   0.271
  880SOL    HW2 3540   3.681   4.878   0.158
  881SOL     OW 3541   4.360   4.984   4.399
  881SOL    HW1 3542   4.390   4.896   4.361
  881SOL    HW2 3543   4.264   4.979   4.424
  882SOL     OW 3544   1.003   0.683   4.387
  882SOL    HW1 3545   1.071   0.742   4.430
  882SOL    HW2 3546   0.925   0.739   4.356
  883SOL     OW 3547   3.408   5.103   6.683
  883SOL    HW1 3548   3.480   5.168   6.660
  883SOL    HW2 3549   3.319   5.146   6.670
  884SOL     OW 3550   6.100   3.566   1.973
  884SOL    HW1 3551   6.091   3.660   1.941
  884SOL    HW2 3552   6.102   3.565   2.073
  885SOL     OW 3553   6.011   6.363   0.130
  885SOL    HW1 3554   5.941   6.316   0.182
  885SOL    HW2 3555   6.025   6.455   0.166
  886SOL     OW 3556   3.869   0.967   0.193
  886SOL    HW1 3557   3.899   0.879   0.231
  886SOL    HW2 3558   3.891   1.040   0.258
  887SOL     OW 3559   3.895   0.251   6.138
  887SOL    HW1 3560   3.984   0.290   6.117
  887SOL    HW2 3561   3.828   0.325   6.148
  888SOL     OW 3562   6.880   6.373   3.645
  888SOL    HW1 3563   6.943   6.296   3.656
  888SOL    HW2 3564   6.797   6.341   3.599
  889SOL     OW 3565   0.166   6.333   5.304
  889SOL    HW1 3566   0.109   6.385   5.367
  889SOL    HW2 3567   0.225   6.395   5.253
  890SOL     OW 3568   2.781   4.757   2.194
  890SOL    HW1 3569   2.683   4.747   2.208
  890SOL    HW2 3570   2.808   4.706   2.112
  891SOL     OW 3571   5.638   2.653   1.118
  891SOL    HW1 3572   5.606   2.582   1.180
  891SOL    HW2 3573   5.647   2.739   1.167
  892SOL     OW 3574   2.635   3.713   1.076
  892SOL    HW1 3575   2.679   3.650   1.012
  892SOL    HW2 3576   2.705   3.768   1.121
  893SOL     OW 3577   1.459   0.646   0.646
  893SOL    HW1 3578   1.558   0.660   0.655
  893SOL    HW2 3579   1.422   0.619   0.735
  894SOL     OW 3580   1.341   5.734   4.448
  894SOL    HW1 3581   1.302   5.642   4.447
  894SOL    HW2 3582   1.305   5.784   4.528
  895SOL     OW 3583   2.367   0.104   4.338
  895SOL    HW1 3584   2.327   0.015   4.315
  895SOL    HW2 3585   2.318   0.175   4.286
  896SOL     OW 3586   5.770   6.244   3.443
  896SOL    HW1 3587   5.836   6.316   3.421
  896SOL    HW2 3588   5.768   6.229   3.541
  897SOL     OW 3589   4.586   2.693   6.637
  897SOL    HW1 3590   4.512   2.761   6.633
  897SOL    HW2 3591   4.651   2.710   6.563
  898SOL     OW 3592   5.426   6.606   3.692
  898SOL    HW1 3593   5.498   6.563   3.638
  898SOL    HW2 3594   5.361   6.536   3.722
  899SOL     OW 3595   0.465   4.454   6.542
  899SOL    HW1 3596   0.539   4.409   6.491
  899SOL    HW2 3597   0.444   4.541   6.498
  900SOL     OW 3598   0.222   6.183   3.451
  900SOL    HW1 3599   0.178   6.119   3.387
  900SOL    HW2 3600   0.318   6.157   3.463
  901SOL     OW 3601   6.488   1.147   4.073
  901SOL    HW1 3602   6.480   1.071   4.008
  901SOL    HW2 3603   6.559   1.210   4.041
  902SOL     OW 3604   6.942   0.238   6.439
  902SOL    HW1 3605   6.854   0.215   6.480
  902SOL    HW2 3606   6.939   0.220   6.341
  903SOL     OW 3607   0.452   4.926   0.968
  903SOL    HW1 3608   0.390   4.901   1.042
  903SOL    HW2 3609   0.399   4.956   0.889
  904SOL     OW 3610   1.789   1.732   3.319
  904SOL    HW1 3611   1.773   1.664   3.248
  904SOL    HW2 3612   1.744   1.703   3.403
  905SOL     OW 3613   5.238   2.132   5.605
  905SOL    HW1 3614   5.154   2.185   5.593
  905SOL    HW2 3615   5.220   2.035   5.587
  906SOL     OW 3616   0.142   4.053   6.154
  906SOL    HW1 3617   0.166   4.063   6.058
  906SOL    HW2 3618   0.091   4.134   6.184
  907SOL     OW 3619   6.013   2.351   2.591
  907SOL    HW1 3620   5.928   2.341   2.539
  907SOL    HW2 3621   6.056   2.262   2.602
  908SOL     OW 3622   2.174   0.260   4.203
  908SOL    HW1 3623   2.183   0.265   4.103
  908SOL    HW2 3624   2.094   0.206   4.227
  909SOL     OW 3625   3.629   1.002   1.331
  909SOL    HW1 3626   3.659   1.096   1.311
  909SOL    HW2 3627   3.709   0.943   1.342
  910SOL     OW 3628   1.829   1.641   0.561
  910SOL    HW1 3629   1.770   1.578   0.612
  910SOL    HW2 3630   1.873   1.591   0.486
  911SOL     OW 3631   0.068   4.642   0.999
  911SOL    HW1 3632   7.014   4.594   0.959
  911SOL    HW2 3633   0.144   4.643   0.934
  912SOL     OW 3634   0.057   0.734   6.026
  912SOL    HW1 3635   7.002   0.717   5.968
  912SOL    HW2 3636   0.079   0.651   6.077
  913SOL     OW 3637   2.497   0.984   2.400
  913SOL    HW1 3638   2.576   0.974   2.339
  913SOL    HW2 3639   2.476   1.081   2.413
  914SOL     OW 3640   2.831   6.014   3.540
  914SOL    HW1 3641   2.793   6.045   3.627
  914SOL    HW2 3642   2.917   5.964   3.557
  915SOL     OW 3643   0.637   2.850   0.183
  915SOL    HW1 3644   0.542   2.817   0.182
  915SOL    HW2 3645   0.690   2.793   0.246
  916SOL     OW 3646   2.623   2.358   3.062
  916SOL    HW1 3647   2.576   2.371   2.974
  916SOL    HW2 3648   2.603   2.436   3.122
  917SOL     OW 3649   4.142   1.594   1.394
  917SOL    HW1 3650   4.183   1.642   1.472
  917SOL    HW2 3651   4.043   1.596   1.403
  918SOL     OW 3652   2.397   6.083   6.576
  918SOL    HW1 3653   2.330   6.008   6.581
  918SOL    HW2 3654   2.378   6.149   6.648
  919SOL     OW 3655   1.549   5.941   1.607
  919SOL    HW1 3656   1.585   5.908   1.520
  919SOL    HW2 3657   1.622   5.944   1.675
  920SOL     OW 3658   2.904   0.489   3.451
  920SOL    HW1 3659   2.936   0.405   3.407
  920SOL    HW2 3660   2.921   0.567   3.391
  921SOL     OW 3661   5.823   4.970   4.259
  921SOL    HW1 3662   5.770   4.917   4.194
  921SOL    HW2 3663   5.904   4.918   4.288
  922SOL     OW 3664   3.334   3.630   6.927
  922SOL    HW1 3665   3.340   3.666   6.834
  922SOL    HW2 3666   3.317   3.706   6.991
  923SOL     OW 3667   3.118   6.435   6.939
  923SOL    HW1 3668   3.192   6.501   6.929
  923SOL    HW2 3669   3.110   6.381   6.856
  924SOL     OW 3670   6.060   3.924   2.529
  924SOL    HW1 3671   6.159   3.918   2.517
  924SOL    HW2 3672   6.026   3.838   2.568
  925SOL     OW 3673   0.245   1.823   4.948
  925SOL    HW1 3674   0.151   1.847   4.924
  925SOL    HW2 3675   0.249   1.795   5.044
  926SOL     OW 3676   5.271   5.969   0.410
  926SOL    HW1 3677   5.333   5.933   0.341
  926SOL    HW2 3678   5.324   6.020   0.479
  927SOL     OW 3679   4.649   4.335   4.255
  927SOL    HW1 3680   4.652   4.251   4.310
  927SOL    HW2 3681   4.614   4.313   4.164
  928SOL     OW 3682   2.076   0.933   1.659
  928SOL    HW1 3683   2.046   0.973   1.746
  928SOL    HW2 3684   1.998   0.891   1.613
  929SOL     OW 3685   0.063   2.747   2.716
  929SOL    HW1 3686   7.003   2.799   2.729
  929SOL    HW2 3687   0.140   2.798   2.757
  930SOL     OW 3688   5.264   4.839   4.353
  930SOL    HW1 3689   5.226   4.784   4.278
  930SOL    HW2 3690   5.363   4.842   4.345
  931SOL     OW 3691   1.179   2.290   2.492
  931SOL    HW1 3692   1.141   2.382   2.497
  931SOL    HW2 3693   1.121   2.233   2.434
  932SOL     OW 3694   4.665   6.157   1.055
  932SOL    HW1 3695   4.621   6.137   1.143
  932SOL    HW2 3696   4.632   6.092   0.986
  933SOL     OW 3697   1.764   5.192   2.594
  933SOL    HW1 3698   1.857   5.223   2.611
  933SOL    HW2 3699   1.701   5.269   2.604
  934SOL     OW 3700   3.219   1.605   5.153
  934SOL    HW1 3701   3.272   1.549   5.217
  934SOL    HW2 3702   3.219   1.561   5.063
  935SOL     OW 3703   3.851   2.885   6.113
  935SOL    HW1 3704   3.845   2.921   6.206
  935SOL    HW2 3705   3.929   2.928   6.066
  936SOL     OW 3706   0.702   0.742   0.668
  936SOL    HW1 3707   0.637   0.668   0.653
  936SOL    HW2 3708   0.662   0.810   0.730
  937SOL     OW 3709   4.287   1.641   4.677
  937SOL    HW1 3710   4.273   1.689   4.591
  937SOL    HW2 3711   4.307   1.544   4.658
  938SOL     OW 3712   0.645   3.022   6.094
  938SOL    HW1 3713   0.603   2.932   6.110
  938SOL    HW2 3714   0.653   3.070   6.181
  939SOL     OW 3715   5.527   1.496   6.050
  939SOL    HW1 3716   5.453   1.477   6.115
  939SOL    HW2 3717   5.489   1.512   5.959
  940SOL     OW 3718   6.909   0.995   3.961
  940SOL    HW1 3719   6.904   1.095   3.964
  940SOL    HW2 3720   6.828   0.956   4.005
  941SOL     OW 3721   5.384   1.669   3.784
  941SOL    HW1 3722   5.308   1.644   3.724
  941SOL    HW2 3723   5.357   1.654   3.879
  942SOL     OW 3724   4.839   6.703   5.221
  942SOL    HW1 3725   4.844   6.605   5.199
  942SOL    HW2 3726   4.913   6.751   5.175
  943SOL     OW 3727   5.969   2.284   1.990
  943SOL    HW1 3728   5.935   2.358   1.931
  943SOL    HW2 3729   5.998   2.207   1.933
  944SOL     OW 3730   5.741   3.826   4.630
  944SOL    HW1 3731   5.827   3.817   4.580
  944SOL    HW2 3732   5.707   3.735   4.652
  945SOL     OW 3733   5.281   4.320   4.316
  945SOL    HW1 3734   5.195   4.368   4.332
  945SOL    HW2 3735   5.264   4.222   4.307
  946SOL     OW 3736   5.872   2.924   5.760
  946SOL    HW1 3737   5.778   2.922   5.795
  946SOL    HW2 3738   5.894   2.835   5.720
  947SOL     OW 3739   3.095   2.548   6.402
  947SOL    HW1 3740   3.129   2.455   6.387
  947SOL    HW2 3741   3.152   2.613   6.353
  948SOL     OW 3742   3.878   1.893   0.883
  948SOL    HW1 3743   3.927   1.928   0.804
  948SOL    HW2 3744   3.833   1.968   0.931
  949SOL     OW 3745   6.278   5.426   6.438
  949SOL    HW1 3746   6.179   5.423   6.425
  949SOL    HW2 3747   6.316   5.500   6.382
  950SOL     OW 3748   4.023   5.535   0.839
  950SOL    HW1 3749   4.094   5.579   0.893
  950SOL    HW2 3750   4.060   5.513   0.748
  951SOL     OW 3751   1.085   0.780   1.629
  951SOL    HW1 3752   1.089   0.877   1.608
  951SOL    HW2 3753   1.165   0.754   1.684
  952SOL     OW 3754   5.472   1.114   3.212
  952SOL    HW1 3755   5.548   1.117   3.147
  952SOL    HW2 3756   5.403   1.050   3.179
  953SOL     OW 3757   4.088   5.840   5.977
  953SOL    HW1 3758   4.040   5.920   6.012
  953SOL    HW2 3759   4.141   5.866   5.896
  954SOL     OW 3760   5.778   0.267   1.328
  954SOL    HW1 3761   5.751   0.322   1.406
  954SOL    HW2 3762   5.701   0.208   1.301
  955SOL     OW 3763   0.874   5.764   3.286
  955SOL    HW1 3764   0.925   5.850   3.283
  955SOL    HW2 3765   0.934   5.688   3.265
  956SOL     OW 3766   1.886   1.973   0.996
  956SOL    HW1 3767   1.982   1.991   0.980
  956SOL    HW2 3768   1.854   1.902   0.932
  957SOL     OW 3769   1.831   5.044   4.927
  957SOL    HW1 3770   1.868   4.955   4.953
  957SOL    HW2 3771   1.758   5.032   4.858
  958SOL     OW 3772   5.445   2.089   1.274
  958SOL    HW1 3773   5.527   2.106   1.330
  958SOL    HW2 3774   5.399   2.007   1.308
  959SOL     OW 3775   3.136   5.067   3.083
  959SOL    HW1 3776   3.096   5.025   3.000
  959SOL    HW2 3777   3.213   5.124   3.057
  960SOL     OW 3778   2.059   5.871   4.486
  960SOL    HW1 3779   2.026   5.782   4.454
  960SOL    HW2 3780   2.133   5.858   4.551
  961SOL     OW 3781   4.316   6.485   1.675
  961SOL    HW1 3782   4.321   6.403   1.618
  961SOL    HW2 3783   4.223   6.520   1.676
  962SOL     OW 3784   1.577   1.090   3.383
  962SOL    HW1 3785   1.661   1.106   3.331
  962SOL    HW2 3786   1.525   1.015   3.340
  963SOL     OW 3787   6.446   0.864   1.493
  963SOL    HW1 3788   6.440   0.961   1.468
  963SOL    HW2 3789   6.375   0.813   1.444
  964SOL     OW 3790   5.274   3.772   1.742
  964SOL    HW1 3791   5.245   3.817   1.826
  964SOL    HW2 3792   5.374   3.768   1.739
  965SOL     OW 3793   0.416   1.643   0.459
  965SOL    HW1 3794   0.414   1.603   0.551
  965SOL    HW2 3795   0.362   1.585   0.397
  966SOL     OW 3796   6.529   1.468   2.817
  966SOL    HW1 3797   6.436   1.493   2.843
  966SOL    HW2 3798   6.529   1.375   2.779
  967SOL     OW 3799   0.687   5.388   0.545
  967SOL    HW1 3800   0.779   5.350   0.557
  967SOL    HW2 3801   0.663   5.442   0.626
  968SOL     OW 3802   4.712   2.621   2.006
  968SOL    HW1 3803   4.780   2.668   2.063
  968SOL    HW2 3804   4.670   2.547   2.058
  969SOL     OW 3805   4.564   6.243   5.865
  969SOL    HW1 3806   4.627   6.207   5.796
  969SOL    HW2 3807   4.542   6.171   5.931
  970SOL     OW 3808   4.282   2.178   5.279
  970SOL    HW1 3809   4.355   2.118   5.245
  970SOL    HW2 3810   4.196   2.127   5.283
  971SOL     OW 3811   6.847   1.535   1.945
  971SOL    HW1 3812   6.899   1.619   1.960
  971SOL    HW2 3813   6.907   1.464   1.910
  972SOL     OW 3814   6.345   5.324   0.671
  972SOL    HW1 3815   6.321   5.239   0.718
  972SOL    HW2 3816   6.373   5.303   0.577
  973SOL     OW 3817   6.248   4.396   6.293
  973SOL    HW1 3818   6.156   4.357   6.300
  973SOL    HW2 3819   6.288   4.404   6.384
  974SOL     OW 3820   3.208   0.493   3.311
  974SOL    HW1 3821   3.241   0.565   3.372
  974SOL    HW2 3822   3.213   0.524   3.216
  975SOL     OW 3823   2.548   5.915   5.537
  975SOL    HW1 3824   2.545   5.851   5.614
  975SOL    HW2 3825   2.643   5.941   5.519
  976SOL     OW 3826   6.502   3.227   3.132
  976SOL    HW1 3827   6.505   3.155   3.202
  976SOL    HW2 3828   6.522   3.188   3.043
  977SOL     OW 3829   1.568   1.085   3.734
  977SOL    HW1 3830   1.646   1.078   3.795
  977SOL    HW2 3831   1.509   1.004   3.745
  978SOL     OW 3832   5.573   4.034   4.187
  978SOL    HW1 3833   5.510   4.064   4.116
  978SOL    HW2 3834   5.564   3.936   4.201
  979SOL     OW 3835   6.397   0.442   3.408
  979SOL    HW1 3836   6.391   0.462   3.311
  979SOL    HW2 3837   6.388   0.527   3.460
  980SOL     OW 3838   5.180   2.190   4.225
  980SOL    HW1 3839   5.222   2.150   4.143
  980SOL    HW2 3840   5.090   2.227   4.202
  981SOL     OW 3841   1.277   1.335   4.418
  981SOL    HW1 3842   1.215   1.293   4.352
  981SOL    HW2 3843   1.323   1.263   4.471
  982SOL     OW 3844   1.230   2.281   1.564
  982SOL    HW1 3845   1.157   2.266   1.498
  982SOL    HW2 3846   1.210   2.363   1.618
  983SOL     OW 3847   6.073   1.982   3.280
  983SOL    HW1 3848   5.995   2.027   3.235
  983SOL    HW2 3849   6.042   1.899   3.325
  984SOL     OW 3850   4.600   1.482   5.388
  984SOL    HW1 3851   4.639   1.573   5.403
  984SOL    HW2 3852   4.501   1.490   5.375
  985SOL     OW 3853   2.938   5.668   0.807
  985SOL    HW1 3854   2.881   5.734   0.757
  985SOL    HW2 3855   2.925   5.577   0.769
  986SOL     OW 3856   4.717   5.517   6.284
  986SOL    HW1 3857   4.684   5.547   6.194
  986SOL    HW2 3858   4.665   5.437   6.313
  987SOL     OW 3859   2.856   6.467   1.845
  987SOL    HW1 3860   2.933   6.406   1.825
  987SOL    HW2 3861   2.778   6.414   1.878
  988SOL     OW 3862   4.063   3.058   0.843
  988SOL    HW1 3863   4.147   3.007   0.859
  988SOL    HW2 3864   4.005   3.008   0.778
  989SOL     OW 3865   0.762   0.107   6.155
  989SOL    HW1 3866   0.758   0.156   6.068
  989SOL    HW2 3867   0.857   0.102   6.187
  990SOL     OW 3868   4.633   0.328   4.116
  990SOL    HW1 3869   4.636   0.422   4.149
  990SOL    HW2 3870   4.549   0.314   4.064
  991SOL     OW 3871   1.362   2.476   4.686
  991SOL    HW1 3872   1.362   2.409   4.760
  991SOL    HW2 3873   1.435   2.454   4.622
  992SOL     OW 3874   0.232   3.060   6.610
  992SOL    HW1 3875   0.288   2.978   6.597
  992SOL    HW2 3876   0.180   3.052   6.695
  993SOL     OW 3877   3.343   4.920   2.592
  993SOL    HW1 3878   3.350   4.880   2.500
  993SOL    HW2 3879   3.368   5.016   2.589
  994SOL     OW 3880   3.909   3.415   2.119
  994SOL    HW1 3881   3.959   3.419   2.032
  994SOL    HW2 3882   3.937   3.333   2.169
  995SOL     OW 3883   1.719   2.629   6.110
  995SOL    HW1 3884   1.683   2.692   6.041
  995SOL    HW2 3885   1.706   2.535   6.080
  996SOL     OW 3886   2.014   3.333   2.692
  996SOL    HW1 3887   1.998   3.396   2.768
  996SOL    HW2 3888   1.962   3.363   2.612
  997SOL     OW 3889   0.660   0.736   1.492
  997SOL    HW1 3890   0.660   0.836   1.493
  997SOL    HW2 3891   0.745   0.702   1.532
  998SOL     OW 3892   4.199   6.812   1.979
  998SOL    HW1 3893   4.294   6.816   2.011
  998SOL    HW2 3894   4.148   6.888   2.018
  999SOL     OW 3895   6.177   5.727   0.666
  999SOL    HW1 3896   6.203   5.807   0.719
  999SOL    HW2 3897   6.087   5.694   0.696
 1000SOL     OW 3898   2.397   2.615   3.719
 1000SOL    HW1 3899   2.426   2.611   3.815
 1000SOL    HW2 3900   2.387   2.522   3.683
 1001SOL     OW 3901   4.590   6.798   6.622
 1001SOL    HW1 3902   4.520   6.764   6.558
 1001SOL    HW2 3903   4.614   6.726   6.686
 1002SOL     OW 3904   5.645   1.597   6.748
 1002SOL    HW1 3905   5.675   1.502   6.759
 1002SOL    HW2 3906   5.572   1.601   6.680
 1003SOL     OW 3907   3.188   6.135   2.776
 1003SOL    HW1 3908   3.120   6.168   2.842
 1003SOL    HW2 3909   3.275   6.121   2.822
 1004SOL     OW 3910   6.704   0.163   6.546
 1004SOL    HW1 3911   6.649   0.102   6.489
 1004SOL    HW2 3912   6.739   0.112   6.625
 1005SOL     OW 3913   0.517   0.477   2.711
 1005SOL    HW1 3914   0.591   0.427   2.666
 1005SOL    HW2 3915   0.454   0.514   2.643
 1006SOL     OW 3916   2.508   5.329   1.463
 1006SOL    HW1 3917   2.488   5.377   1.377
 1006SOL    HW2 3918   2.453   5.367   1.537
 1007SOL     OW 3919   6.631   1.319   3.389
 1007SOL    HW1 3920   6.607   1.337   3.294
 1007SOL    HW2 3921   6.634   1.404   3.440
 1008SOL     OW 3922   0.723   2.606   3.672
 1008SOL    HW1 3923   0.797   2.672   3.656
 1008SOL    HW2 3924   0.690   2.616   3.766
 1009SOL     OW 3925   6.930   5.735   4.298
 1009SOL    HW1 3926   6.926   5.641   4.263
 1009SOL    HW2 3927   7.021   5.772   4.284
 1010SOL     OW 3928   4.232   1.902   0.568
 1010SOL    HW1 3929   4.296   1.868   0.637
 1010SOL    HW2 3930   4.268   1.885   0.477
 1011SOL     OW 3931   2.737   5.732   3.732
 1011SOL    HW1 3932   2.749   5.660   3.664
 1011SOL    HW2 3933   2.663   5.793   3.702
 1012SOL     OW 3934   6.164   5.336   0.286
 1012SOL    HW1 3935   6.231   5.362   0.216
 1012SOL    HW2 3936   6.172   5.238   0.303
 1013SOL     OW 3937   1.162   0.962   0.002
 1013SOL    HW1 3938   1.108   0.974   6.944
 1013SOL    HW2 3939   1.227   0.887   7.013
 1014SOL     OW 3940   4.089   5.588   6.076
 1014SOL    HW1 3941   4.106   5.519   6.005
 1014SOL    HW2 3942   4.084   5.678   6.033
 1015SOL     OW 3943   3.526   6.488   5.072
 1015SOL    HW1 3944   3.448   6.469   5.012
 1015SOL    HW2 3945   3.602   6.523   5.018
 1016SOL     OW 3946   3.488   2.680   1.349
 1016SOL    HW1 3947   3.454   2.603   1.402
 1016SOL    HW2 3948   3.460   2.669   1.253
 1017SOL     OW 3949   4.701   2.603   0.740
 1017SOL    HW1 3950   4.728   2.643   0.652
 1017SOL    HW2 3951   4.732   2.663   0.814
 1018SOL     OW 3952   1.586   2.954   3.619
 1018SOL    HW1 3953   1.568   2.869   3.568
 1018SOL    HW2 3954   1.594   2.933   3.716
 1019SOL     OW 3955   0.072   1.305   0.067
 1019SOL    HW1 3956   0.045   1.238   0.137
 1019SOL    HW2 3957   0.058   1.397   0.102
 1020SOL     OW 3958   2.557   0.555   0.970
 1020SOL    HW1 3959   2.603   0.616   0.905
 1020SOL    HW2 3960   2.471   0.596   0.999
 1021SOL     OW 3961   6.755   1.210   1.817
 1021SOL    HW1 3962   6.669   1.161   1.835
 1021SOL    HW2 3963   6.737   1.285   1.752
 1022SOL     OW 3964   4.182   3.243   6.237
 1022SOL    HW1 3965   4.234   3.306   6.178
 1022SOL    HW2 3966   4.105   3.292   6.277
 1023SOL     OW 3967   5.524   0.379   2.540
 1023SOL    HW1 3968   5.443   0.436   2.525
 1023SOL    HW2 3969   5.496   0.283   2.551
 1024SOL     OW 3970   6.329   1.863   4.506
 1024SOL    HW1 3971   6.403   1.918   4.546
 1024SOL    HW2 3972   6.336   1.864   4.406
 1025SOL     OW 3973   3.484   4.494   0.995
 1025SOL    HW1 3974   3.423   4.551   0.940
 1025SOL    HW2 3975   3.436   4.410   1.022
 1026SOL     OW 3976   1.968   1.903   0.376
 1026SOL    HW1 3977   1.940   1.809   0.356
 1026SOL    HW2 3978   2.001   1.947   0.293
 1027SOL     OW 3979   2.972   5.055   1.907
 1027SOL    HW1 3980   2.941   5.136   1.859
 1027SOL    HW2 3981   2.898   4.987   1.908
 1028SOL     OW 3982   1.925   5.978   0.175
 1028SOL    HW1 3983   1.906   5.884   0.148
 1028SOL    HW2 3984   1.945   5.981   0.273
 1029SOL     OW 3985   1.651   0.449   0.171
 1029SOL    HW1 3986   1.607   0.500   0.245
 1029SOL    HW2 3987   1.750   0.457   0.179
 1030SOL     OW 3988   3.745   3.577   4.908
 1030SOL    HW1 3989   3.707   3.508   4.970
 1030SOL    HW2 3990   3.738   3.544   4.813
 1031SOL     OW 3991   3.320   5.123   1.192
 1031SOL    HW1 3992   3.374   5.068   1.128
 1031SOL    HW2 3993   3.266   5.190   1.141
 1032SOL     OW 3994   1.950   1.738   5.134
 1032SOL    HW1 3995   1.996   1.674   5.072
 1032SOL    HW2 3996   1.982   1.723   5.227
 1033SOL     OW 3997   2.332   5.480   1.656
 1033SOL    HW1 3998   2.406   5.545   1.677
 1033SOL    HW2 3999   2.247   5.531   1.640
 1034SOL     OW 4000   2.522   5.916   3.982
 1034SOL    HW1 4001   2.481   5.983   4.043
 1034SOL    HW2 4002   2.472   5.829   3.990
 1035SOL     OW 4003   2.754   1.589   4.710
 1035SOL    HW1 4004   2.682   1.520   4.719
 1035SOL    HW2 4005   2.843   1.545   4.716
 1036SOL     OW 4006   4.503   1.984   1.231
 1036SOL    HW1 4007   4.590   2.034   1.227
 1036SOL    HW2 4008   4.441   2.029   1.295
 1037SOL     OW 4009   1.407   1.198   0.689
 1037SOL    HW1 4010   1.319   1.158   0.665
 1037SOL    HW2 4011   1.470   1.189   0.611
 1038SOL     OW 4012   1.418   0.995   5.366
 1038SOL    HW1 4013   1.426   1.066   5.297
 1038SOL    HW2 4014   1.479   1.015   5.442
 1039SOL     OW 4015   3.784   1.273   4.639
 1039SOL    HW1 4016   3.785   1.337   4.561
 1039SOL    HW2 4017   3.870   1.280   4.688
 1040SOL     OW 4018   6.214   3.409   2.674
 1040SOL    HW1 4019   6.127   3.451   2.648
 1040SOL    HW2 4020   6.211   3.312   2.653
 1041SOL     OW 4021   6.678   0.303   4.108
 1041SOL    HW1 4022   6.764   0.354   4.101
 1041SOL    HW2 4023   6.616   0.331   4.034
 1042SOL     OW 4024   5.067   5.282   1.058
 1042SOL    HW1 4025   5.064   5.209   1.127
 1042SOL    HW2 4026   5.122   5.251   0.980
 1043SOL     OW 4027   3.762   1.718   6.288
 1043SOL    HW1 4028   3.757   1.643   6.354
 1043SOL    HW2 4029   3.670   1.754   6.272
 1044SOL     OW 4030   3.753   2.607   1.450
 1044SOL    HW1 4031   3.680   2.647   1.394
 1044SOL    HW2 4032   3.718   2.586   1.541
 1045SOL     OW 4033   3.231   0.939   2.505
 1045SOL    HW1 4034   3.287   0.903   2.430
 1045SOL    HW2 4035   3.287   0.999   2.562
 1046SOL     OW 4036   3.108   0.032   0.229
 1046SOL    HW1 4037   3.101   7.022   0.322
 1046SOL    HW2 4038   3.133   0.129   0.231
 1047SOL     OW 4039   1.796   5.127   3.152
 1047SOL    HW1 4040   1.747   5.171   3.077
 1047SOL    HW2 4041   1.737   5.124   3.233
 1048SOL     OW 4042   5.216   5.142   4.722
 1048SOL    HW1 4043   5.218   5.242   4.728
 1048SOL    HW2 4044   5.160   5.115   4.643
 1049SOL     OW 4045   6.761   3.901   5.019
 1049SOL    HW1 4046   6.738   3.995   4.994
 1049SOL    HW2 4047   6.733   3.840   4.946
 1050SOL     OW 4048   3.749   0.088   6.853
 1050SOL    HW1 4049   3.776   0.183   6.866
 1050SOL    HW2 4050   3.749   0.066   6.756
 1051SOL     OW 4051   4.187   5.010   0.443
 1051SOL    HW1 4052   4.199   5.095   0.391
 1051SOL    HW2 4053   4.271   4.956   0.439
 1052SOL     OW 4054   4.165   0.121   4.708
 1052SOL    HW1 4055   4.153   0.103   4.610
 1052SOL    HW2 4056   4.092   0.075   4.758
 1053SOL     OW 4057   4.894   5.279   3.792
 1053SOL    HW1 4058   4.862   5.195   3.748
 1053SOL    HW2 4059   4.862   5.281   3.887
 1054SOL     OW 4060   3.171   5.185   5.228
 1054SOL    HW1 4061   3.253   5.201   5.174
 1054SOL    HW2 4062   3.175   5.242   5.311
 1055SOL     OW 4063   4.884   5.271   4.562
 1055SOL    HW1 4064   4.891   5.171   4.550
 1055SOL    HW2 4065   4.823   5.291   4.638
 1056SOL     OW 4066   1.817   6.121   4.887
 1056SOL    HW1 4067   1.763   6.057   4.943
 1056SOL    HW2 4068   1.914   6.099   4.896
 1057SOL     OW 4069   2.856   3.502   3.009
 1057SOL    HW1 4070   2.893   3.473   2.921
 1057SOL    HW2 4071   2.884   3.437   3.079
 1058SOL     OW 4072   3.752   1.508   2.221
 1058SOL    HW1 4073   3.720   1.453   2.298
 1058SOL    HW2 4074   3.842   1.548   2.243
 1059SOL     OW 4075   4.496   1.294   2.106
 1059SOL    HW1 4076   4.451   1.209   2.133
 1059SOL    HW2 4077   4.487   1.306   2.007
 1060SOL     OW 4078   0.789   3.791   5.287
 1060SOL    HW1 4079   0.698   3.783   5.328
 1060SOL    HW2 4080   0.853   3.730   5.335
 1061SOL     OW 4081   3.200   5.166   1.763
 1061SOL    HW1 4082   3.160   5.141   1.852
 1061SOL    HW2 4083   3.187   5.091   1.698
 1062SOL     OW 4084   6.638   5.128   5.561
 1062SOL    HW1 4085   6.622   5.127   5.463
 1062SOL    HW2 4086   6.736   5.142   5.579
 1063SOL     OW 4087   1.655   3.247   1.540
 1063SOL    HW1 4088   1.675   3.260   1.443
 1063SOL    HW2 4089   1.651   3.337   1.585
 1064SOL     OW 4090   1.264   3.246   2.212
 1064SOL    HW1 4091   1.255   3.341   2.242
 1064SOL    HW2 4092   1.291   3.189   2.290
 1065SOL     OW 4093   5.253   0.293   3.957
 1065SOL    HW1 4094   5.326   0.357   3.982
 1065SOL    HW2 4095   5.271   0.204   4.000
 1066SOL     OW 4096   4.700   0.589   4.189
 1066SOL    HW1 4097   4.677   0.645   4.110
 1066SOL    HW2 4098   4.783   0.624   4.232
 1067SOL     OW 4099   1.886   2.536   1.864
 1067SOL    HW1 4100   1.908   2.618   1.917
 1067SOL    HW2 4101   1.843   2.563   1.777
 1068SOL     OW 4102   0.577   3.619   2.342
 1068SOL    HW1 4103   0.494   3.665   2.374
 1068SOL    HW2 4104   0.647   3.687   2.322
 1069SOL     OW 4105   4.169   4.551   0.667
 1069SOL    HW1 4106   4.170   4.645   0.703
 1069SOL    HW2 4107   4.192   4.487   0.741
 1070SOL     OW 4108   1.932   0.934   0.110
 1070SOL    HW1 4109   2.017   0.980   0.085
 1070SOL    HW2 4110   1.953   0.843   0.146
 1071SOL     OW 4111   4.203   6.292   2.865
 1071SOL    HW1 4112   4.163   6.362   2.806
 1071SOL    HW2 4113   4.152   6.287   2.950
 1072SOL     OW 4114   3.029   6.574   2.750
 1072SOL    HW1 4115   3.085   6.550   2.829
 1072SOL    HW2 4116   2.941   6.609   2.781
 1073SOL     OW 4117   2.885   5.164   2.518
 1073SOL    HW1 4118   2.826   5.136   2.593
 1073SOL    HW2 4119   2.906   5.085   2.460
 1074SOL     OW 4120   1.403   5.019   1.365
 1074SOL    HW1 4121   1.437   4.948   1.426
 1074SOL    HW2 4122   1.435   5.109   1.396
 1075SOL     OW 4123   5.705   4.401   3.415
 1075SOL    HW1 4124   5.768   4.334   3.456
 1075SOL    HW2 4125   5.622   4.355   3.384
 1076SOL     OW 4126   0.545   4.411   4.629
 1076SOL    HW1 4127   0.538   4.313   4.644
 1076SOL    HW2 4128   0.608   4.430   4.554
 1077SOL     OW 4129   5.459   0.125   1.319
 1077SOL    HW1 4130   5.494   0.164   1.404
 1077SOL    HW2 4131   5.528   0.063   1.281
 1078SOL     OW 4132   1.410   1.710   1.430
 1078SOL    HW1 4133   1.490   1.766   1.451
 1078SOL    HW2 4134   1.412   1.684   1.333
 1079SOL     OW 4135   2.359   5.908   3.496
 1079SOL    HW1 4136   2.310   5.993   3.479
 1079SOL    HW2 4137   2.439   5.926   3.552
 1080SOL     OW 4138   2.348   5.647   3.397
 1080SOL    HW1 4139   2.374   5.740   3.423
 1080SOL    HW2 4140   2.370   5.584   3.471
 1081SOL     OW 4141   1.633   0.967   6.265
 1081SOL    HW1 4142   1.586   0.939   6.181
 1081SOL    HW2 4143   1.721   1.009   6.242
 1082SOL     OW 4144   1.400   0.589   5.447
 1082SOL    HW1 4145   1.368   0.578   5.353
 1082SOL    HW2 4146   1.348   0.662   5.491
 1083SOL     OW 4147   3.963   3.172   1.968
 1083SOL    HW1 4148   3.971   3.098   2.035
 1083SOL    HW2 4149   3.886   3.152   1.906
 1084SOL     OW 4150   6.045   4.595   1.028
 1084SOL    HW1 4151   5.997   4.507   1.025
 1084SOL    HW2 4152   6.023   4.642   1.114
 1085SOL     OW 4153   1.901   5.001   4.004
 1085SOL    HW1 4154   1.811   5.043   4.005
 1085SOL    HW2 4155   1.934   4.990   4.098
 1086SOL     OW 4156   4.912   6.207   2.978
 1086SOL    HW1 4157   4.983   6.136   2.976
 1086SOL    HW2 4158   4.900   6.239   3.072
 1087SOL     OW 4159   4.844   3.046   5.361
 1087SOL    HW1 4160   4.759   3.064   5.411
 1087SOL    HW2 4161   4.850   3.108   5.282
 1088SOL     OW 4162   5.304   4.969   3.845
 1088SOL    HW1 4163   5.281   5.060   3.878
 1088SOL    HW2 4164   5.270   4.957   3.752
 1089SOL     OW 4165   0.209   0.307   5.012
 1089SOL    HW1 4166   0.213   0.234   5.081
 1089SOL    HW2 4167   0.264   0.384   5.042
 1090SOL     OW 4168   1.516   1.637   5.970
 1090SOL    HW1 4169   1.427   1.595   5.952
 1090SOL    HW2 4170   1.566   1.648   5.885
 1091SOL     OW 4171   1.394   1.662   4.706
 1091SOL    HW1 4172   1.401   1.635   4.610
 1091SOL    HW2 4173   1.461   1.611   4.760
 1092SOL     OW 4174   2.327   4.299   1.460
 1092SOL    HW1 4175   2.341   4.222   1.398
 1092SOL    HW2 4176   2.415   4.337   1.488
 1093SOL     OW 4177   1.146   2.615   2.478
 1093SOL    HW1 4178   1.050   2.616   2.507
 1093SOL    HW2 4179   1.164   2.697   2.423
 1094SOL     OW 4180   0.517   6.582   1.405
 1094SOL    HW1 4181   0.424   6.600   1.438
 1094SOL    HW2 4182   0.583   6.611   1.473
 1095SOL     OW 4183   6.030   3.009   6.465
 1095SOL    HW1 4184   6.035   2.953   6.382
 1095SOL    HW2 4185   6.063   3.101   6.444
 1096SOL     OW 4186   3.192   4.914   1.654
 1096SOL    HW1 4187   3.116   4.863   1.694
 1096SOL    HW2 4188   3.274   4.857   1.653
 1097SOL     OW 4189   1.242   4.929   4.882
 1097SOL    HW1 4190   1.275   5.009   4.933
 1097SOL    HW2 4191   1.223   4.854   4.946
 1098SOL     OW 4192   4.858   2.444   2.243
 1098SOL    HW1 4193   4.879   2.354   2.205
 1098SOL    HW2 4194   4.782   2.436   2.309
 1099SOL     OW 4195   4.320   2.037   4.227
 1099SOL    HW1 4196   4.327   2.085   4.315
 1099SOL    HW2 4197   4.329   2.103   4.153
 1100SOL     OW 4198   1.583   0.978   6.528
 1100SOL    HW1 4199   1.558   0.974   6.431
 1100SOL    HW2 4200   1.662   1.039   6.539
 1101SOL     OW 4201   4.998   3.295   1.110
 1101SOL    HW1 4202   5.035   3.384   1.084
 1101SOL    HW2 4203   4.937   3.305   1.189
 1102SOL     OW 4204   0.318   4.218   4.480
 1102SOL    HW1 4205   0.307   4.140   4.419
 1102SOL    HW2 4206   0.390   4.278   4.444
 1103SOL     OW 4207   1.795   1.701   1.724
 1103SOL    HW1 4208   1.782   1.604   1.742
 1103SOL    HW2 4209   1.784   1.718   1.626
 1104SOL     OW 4210   3.165   4.920   6.154
 1104SOL    HW1 4211   3.211   4.890   6.238
 1104SOL    HW2 4212   3.112   4.845   6.116
 1105SOL     OW 4213   4.675   4.146   6.834
 1105SOL    HW1 4214   4.640   4.068   6.885
 1105SOL    HW2 4215   4.695   4.221   6.897
 1106SOL     OW 4216   6.886   2.489   5.528
 1106SOL    HW1 4217   6.795   2.459   5.557
 1106SOL    HW2 4218   6.945   2.409   5.514
 1107SOL     OW 4219   0.882   0.541   0.486
 1107SOL    HW1 4220   0.847   0.597   0.561
 1107SOL    HW2 4221   0.876   0.444   0.510
 1108SOL     OW 4222   1.974   0.650   6.306
 1108SOL    HW1 4223   2.004   0.567   6.261
 1108SOL    HW2 4224   1.875   0.646   6.322
 1109SOL     OW 4225   3.948   6.298   4.095
 1109SOL    HW1 4226   3.980   6.213   4.055
 1109SOL    HW2 4227   3.989   6.375   4.045
 1110SOL     OW 4228   2.964   3.054   1.700
 1110SOL    HW1 4229   2.892   2.996   1.662
 1110SOL    HW2 4230   3.005   3.009   1.779
 1111SOL     OW 4231   5.843   0.716   6.939
 1111SOL    HW1 4232   5.889   0.639   6.896
 1111SOL    HW2 4233   5.758   0.685   6.981
 1112SOL     OW 4234   6.451   0.416   2.148
 1112SOL    HW1 4235   6.423   0.364   2.067
 1112SOL    HW2 4236   6.384   0.489   2.165
 1113SOL     OW 4237   6.544   3.533   3.053
 1113SOL    HW1 4238   6.509   3.487   3.134
 1113SOL    HW2 4239   6.492   3.617   3.037
 1114SOL     OW 4240   4.701   0.701   5.985
 1114SOL    HW1 4241   4.717   0.605   6.009
 1114SOL    HW2 4242   4.748   0.722   5.899
 1115SOL     OW 4243   3.538   3.139   0.863
 1115SOL    HW1 4244   3.577   3.067   0.806
 1115SOL    HW2 4245   3.483   3.098   0.936
 1116SOL     OW 4246   4.550   5.675   4.143
 1116SOL    HW1 4247   4.512   5.737   4.074
 1116SOL    HW2 4248   4.635   5.714   4.178
 1117SOL     OW 4249   2.567   2.695   1.305
 1117SOL    HW1 4250   2.619   2.738   1.231
 1117SOL    HW2 4251   2.625   2.689   1.386
 1118SOL     OW 4252   2.473   4.869   3.057
 1118SOL    HW1 4253   2.478   4.949   2.998
 1118SOL    HW2 4254   2.544   4.873   3.127
 1119SOL     OW 4255   4.208   4.170   1.654
 1119SOL    HW1 4256   4.268   4.125   1.589
 1119SOL    HW2 4257   4.263   4.208   1.729
 1120SOL     OW 4258   5.217   0.136   6.192
 1120SOL    HW1 4259   5.194   0.120   6.097
 1120SOL    HW2 4260   5.138   0.175   6.240
 1121SOL     OW 4261   4.939   2.924   1.920
 1121SOL    HW1 4262   4.871   2.980   1.968
 1121SOL    HW2 4263   4.896   2.882   1.840
 1122SOL     OW 4264   5.820   3.089   6.729
 1122SOL    HW1 4265   5.815   3.013   6.663
 1122SOL    HW2 4266   5.797   3.174   6.683
 1123SOL     OW 4267   4.750   1.147   1.859
 1123SOL    HW1 4268   4.798   1.081   1.801
 1123SOL    HW2 4269   4.799   1.158   1.945
 1124SOL     OW 4270   6.606   3.361   5.279
 1124SOL    HW1 4271   6.706   3.370   5.268
 1124SOL    HW2 4272   6.569   3.447   5.313
 1125SOL     OW 4273   2.932   2.928   5.335
 1125SOL    HW1 4274   2.835   2.934   5.359
 1125SOL    HW2 4275   2.986   2.977   5.403
 1126SOL     OW 4276   4.833   0.275   0.783
 1126SOL    HW1 4277   4.892   0.248   0.860
 1126SOL    HW2 4278   4.850   0.214   0.706
 1127SOL     OW 4279   2.712   4.824   0.773
 1127SOL    HW1 4280   2.646   4.754   0.802
 1127SOL    HW2 4281   2.773   4.786   0.704
 1128SOL     OW 4282   3.355   2.034   3.667
 1128SOL    HW1 4283   3.336   2.021   3.569
 1128SOL    HW2 4284   3.450   2.010   3.686
 1129SOL     OW 4285   4.549   0.662   6.815
 1129SOL    HW1 4286   4.539   0.751   6.771
 1129SOL    HW2 4287   4.631   0.663   6.873
 1130SOL     OW 4288   1.559   3.816   0.652
 1130SOL    HW1 4289   1.637   3.874   0.676
 1130SOL    HW2 4290   1.584   3.720   0.661
 1131SOL     OW 4291   0.331   6.105   5.627
 1131SOL    HW1 4292   0.264   6.179   5.625
 1131SOL    HW2 4293   0.284   6.017   5.622
 1132SOL     OW 4294   5.164   0.052   5.400
 1132SOL    HW1 4295   5.228   0.081   5.330
 1132SOL    HW2 4296   5.086   0.007   5.357
 1133SOL     OW 4297   0.994   3.120   1.536
 1133SOL    HW1 4298   1.066   3.125   1.466
 1133SOL    HW2 4299   0.905   3.127   1.492
 1134SOL     OW 4300   5.466   2.515   6.785
 1134SOL    HW1 4301   5.374   2.509   6.824
 1134SOL    HW2 4302   5.524   2.571   6.844
 1135SOL     OW 4303   3.054   2.177   3.708
 1135SOL    HW1 4304   3.134   2.231   3.735
 1135SOL    HW2 4305   2.986   2.236   3.665
 1136SOL     OW 4306   2.706   5.558   3.461
 1136SOL    HW1 4307   2.706   5.459   3.456
 1136SOL    HW2 4308   2.612   5.592   3.463
 1137SOL     OW 4309   1.444   2.253   6.514
 1137SOL    HW1 4310   1.408   2.194   6.443
 1137SOL    HW2 4311   1.474   2.198   6.592
 1138SOL     OW 4312   2.167   3.370   6.153
 1138SOL    HW1 4313   2.257   3.372   6.110
 1138SOL    HW2 4314   2.129   3.462   6.157
 1139SOL     OW 4315   1.219   6.672   2.762
 1139SOL    HW1 4316   1.168   6.753   2.792
 1139SOL    HW2 4317   1.301   6.662   2.819
 1140SOL     OW 4318   3.278   1.494   3.308
 1140SOL    HW1 4319   3.225   1.548   3.373
 1140SOL    HW2 4320   3.339   1.554   3.256
 1141SOL     OW 4321   5.592   5.756   5.064
 1141SOL    HW1 4322   5.628   5.675   5.018
 1141SOL    HW2 4323   5.592   5.833   5.000
 1142SOL     OW 4324   5.261   0.020   4.517
 1142SOL    HW1 4325   5.227   0.087   4.451
 1142SOL    HW2 4326   5.330   0.063   4.576
 1143SOL     OW 4327   3.905   2.084   3.279
 1143SOL    HW1 4328   3.979   2.081   3.212
 1143SOL    HW2 4329   3.943   2.078   3.371
 1144SOL     OW 4330   0.588   4.425   4.188
 1144SOL    HW1 4331   0.511   4.474   4.146
 1144SOL    HW2 4332   0.663   4.419   4.122
 1145SOL     OW 4333   0.046   5.406   4.402
 1145SOL    HW1 4334   0.119   5.474   4.398
 1145SOL    HW2 4335   7.011   5.417   4.322
 1146SOL     OW 4336   5.719   2.066   0.814
 1146SOL    HW1 4337   5.801   2.033   0.861
 1146SOL    HW2 4338   5.651   2.095   0.881
 1147SOL     OW 4339   0.325   4.153   2.347
 1147SOL    HW1 4340   0.335   4.088   2.423
 1147SOL    HW2 4341   0.383   4.123   2.270
 1148SOL     OW 4342   3.759   6.445   6.473
 1148SOL    HW1 4343   3.663   6.472   6.487
 1148SOL    HW2 4344   3.769   6.404   6.383
 1149SOL     OW 4345   6.374   3.788   3.054
 1149SOL    HW1 4346   6.282   3.796   3.016
 1149SOL    HW2 4347   6.371   3.735   3.139
 1150SOL     OW 4348   2.076   4.847   0.889
 1150SOL    HW1 4349   2.160   4.887   0.927
 1150SOL    HW2 4350   1.997   4.900   0.920
 1151SOL     OW 4351   5.852   4.914   6.463
 1151SOL    HW1 4352   5.825   4.852   6.536
 1151SOL    HW2 4353   5.920   4.870   6.405
 1152SOL     OW 4354   0.963   0.342   4.775
 1152SOL    HW1 4355   0.881   0.390   4.741
 1152SOL    HW2 4356   0.952   0.243   4.759
 1153SOL     OW 4357   2.117   5.745   2.763
 1153SOL    HW1 4358   2.075   5.826   2.722
 1153SOL    HW2 4359   2.213   5.740   2.735
 1154SOL     OW 4360   0.474   3.935   2.240
 1154SOL    HW1 4361   0.435   3.853   2.199
 1154SOL    HW2 4362   0.525   3.911   2.323
 1155SOL     OW 4363   3.236   6.145   1.107
 1155SOL    HW1 4364   3.159   6.086   1.082
 1155SOL    HW2 4365   3.204   6.216   1.171
 1156SOL     OW 4366   2.476   0.682   4.169
 1156SOL    HW1 4367   2.506   0.598   4.123
 1156SOL    HW2 4368   2.462   0.664   4.266
 1157SOL     OW 4369   0.043   2.269   4.173
 1157SOL    HW1 4370   0.070   2.355   4.216
 1157SOL    HW2 4371   7.024   2.287   4.085
 1158SOL     OW 4372   5.664   4.702   6.026
 1158SOL    HW1 4373   5.726   4.680   5.950
 1158SOL    HW2 4374   5.570   4.699   5.993
 1159SOL     OW 4375   3.997   5.531   2.639
 1159SOL    HW1 4376   3.917   5.507   2.584
 1159SOL    HW2 4377   4.064   5.578   2.582
 1160SOL     OW 4378   4.124   3.502   2.551
 1160SOL    HW1 4379   4.178   3.572   2.596
 1160SOL    HW2 4380   4.095   3.433   2.618
 1161SOL     OW 4381   5.688   0.391   3.418
 1161SOL    HW1 4382   5.769   0.333   3.426
 1161SOL    HW2 4383   5.667   0.431   3.507
 1162SOL     OW 4384   3.358   3.811   1.885
 1162SOL    HW1 4385   3.414   3.842   1.962
 1162SOL    HW2 4386   3.278   3.763   1.921
 1163SOL     OW 4387   5.009   2.663   2.181
 1163SOL    HW1 4388   4.987   2.568   2.200
 1163SOL    HW2 4389   5.091   2.690   2.231
 1164SOL     OW 4390   5.647   2.761   3.297
 1164SOL    HW1 4391   5.560   2.809   3.307
 1164SOL    HW2 4392   5.719   2.811   3.345
 1165SOL     OW 4393   1.109   3.271   3.594
 1165SOL    HW1 4394   1.130   3.175   3.575
 1165SOL    HW2 4395   1.011   3.280   3.613
 1166SOL     OW 4396   4.011   2.272   6.600
 1166SOL    HW1 4397   4.106   2.270   6.632
 1166SOL    HW2 4398   3.995   2.198   6.536
 1167SOL     OW 4399   4.365   0.648   5.102
 1167SOL    HW1 4400   4.386   0.741   5.071
 1167SOL    HW2 4401   4.271   0.625   5.076
 1168SOL     OW 4402   0.162   6.425   3.600
 1168SOL    HW1 4403   0.171   6.335   3.558
 1168SOL    HW2 4404   0.124   6.416   3.691
 1169SOL     OW 4405   1.209   3.717   1.536
 1169SOL    HW1 4406   1.223   3.653   1.461
 1169SOL    HW2 4407   1.191   3.666   1.620
 1170SOL     OW 4408   3.445   1.609   2.606
 1170SOL    HW1 4409   3.427   1.513   2.624
 1170SOL    HW2 4410   3.364   1.663   2.630
 1171SOL     OW 4411   2.942   5.746   1.332
 1171SOL    HW1 4412   2.933   5.651   1.362
 1171SOL    HW2 4413   3.010   5.793   1.388
 1172SOL     OW 4414   3.154   3.680   4.220
 1172SOL    HW1 4415   3.055   3.670   4.226
 1172SOL    HW2 4416   3.177   3.728   4.135
 1173SOL     OW 4417   3.031   0.688   5.847
 1173SOL    HW1 4418   3.083   0.603   5.835
 1173SOL    HW2 4419   2.933   0.667   5.849
 1174SOL     OW 4420   2.774   5.963   0.755
 1174SOL    HW1 4421   2.727   5.943   0.841
 1174SOL    HW2 4422   2.707   5.980   0.683
 1175SOL     OW 4423   5.988   4.616   6.063
 1175SOL    HW1 4424   6.081   4.579   6.059
 1175SOL    HW2 4425   5.922   4.544   6.040
 1176SOL     OW 4426   5.855   4.741   0.900
 1176SOL    HW1 4427   5.776   4.680   0.893
 1176SOL    HW2 4428   5.933   4.690   0.936
 1177SOL     OW 4429   6.971   3.153   6.084
 1177SOL    HW1 4430   6.987   3.235   6.139
 1177SOL    HW2 4431   0.031   3.129   6.036
 1178SOL     OW 4432   5.358   3.712   2.156
 1178SOL    HW1 4433   5.420   3.744   2.228
 1178SOL    HW2 4434   5.390   3.624   2.120
 1179SOL     OW 4435   1.531   4.380   0.148
 1179SOL    HW1 4436   1.543   4.461   0.206
 1179SOL    HW2 4437   1.446   4.334   0.172
 1180SOL     OW 4438   2.100   1.856   3.870
 1180SOL    HW1 4439   2.073   1.947   3.902
 1180SOL    HW2 4440   2.143   1.864   3.780
 1181SOL     OW 4441   1.355   4.465   4.008
 1181SOL    HW1 4442   1.358   4.371   4.041
 1181SOL    HW2 4443   1.277   4.477   3.947
 1182SOL     OW 4444   2.229   4.410   3.987
 1182SOL    HW1 4445   2.154   4.467   4.019
 1182SOL    HW2 4446   2.300   4.405   4.057
 1183SOL     OW 4447   4.132   5.942   1.652
 1183SOL    HW1 4448   4.108   5.986   1.565
 1183SOL    HW2 4449   4.186   6.005   1.708
 1184SOL     OW 4450   3.287   3.004   5.331
 1184SOL    HW1 4451   3.276   2.922   5.275
 1184SOL    HW2 4452   3.278   2.980   5.427
 1185SOL     OW 4453   1.955   0.233   0.131
 1185SOL    HW1 4454   2.040   0.181   0.137
 1185SOL    HW2 4455   1.887   0.179   0.082
 1186SOL     OW 4456   5.751   0.715   4.662
 1186SOL    HW1 4457   5.722   0.621   4.650
 1186SOL    HW2 4458   5.850   0.718   4.679
 1187SOL     OW 4459   6.112   6.771   5.033
 1187SOL    HW1 4460   6.084   6.749   4.939
 1187SOL    HW2 4461   6.053   6.844   5.069
 1188SOL     OW 4462   1.968   6.733   6.052
 1188SOL    HW1 4463   1.882   6.681   6.062
 1188SOL    HW2 4464   1.975   6.768   5.959
 1189SOL     OW 4465   5.597   1.467   1.175
 1189SOL    HW1 4466   5.576   1.423   1.088
 1189SOL    HW2 4467   5.650   1.405   1.232
 1190SOL     OW 4468   4.613   5.447   3.021
 1190SOL    HW1 4469   4.582   5.365   2.973
 1190SOL    HW2 4470   4.684   5.422   3.087
 1191SOL     OW 4471   3.084   5.449   5.687
 1191SOL    HW1 4472   3.073   5.413   5.595
 1191SOL    HW2 4473   3.044   5.541   5.691
 1192SOL     OW 4474   6.042   4.866   2.980
 1192SOL    HW1 4475   6.107   4.791   2.993
 1192SOL    HW2 4476   5.996   4.856   2.892
 1193SOL     OW 4477   4.831   0.360   4.392
 1193SOL    HW1 4478   4.807   0.339   4.297
 1193SOL    HW2 4479   4.914   0.414   4.395
 1194SOL     OW 4480   6.509   1.136   1.018
 1194SOL    HW1 4481   6.420   1.105   1.052
 1194SOL    HW2 4482   6.570   1.152   1.096
 1195SOL     OW 4483   5.352   0.716   6.115
 1195SOL    HW1 4484   5.415   0.735   6.190
 1195SOL    HW2 4485   5.303   0.631   6.134
 1196SOL     OW 4486   0.149   5.331   2.544
 1196SOL    HW1 4487   0.249   5.334   2.552
 1196SOL    HW2 4488   0.111   5.284   2.623
 1197SOL     OW 4489   3.835   5.743   5.675
 1197SOL    HW1 4490   3.765   5.814   5.681
 1197SOL    HW2 4491   3.796   5.663   5.629
 1198SOL     OW 4492   3.422   2.146   3.013
 1198SOL    HW1 4493   3.496   2.154   3.080
 1198SOL    HW2 4494   3.335   2.170   3.057
 1199SOL     OW 4495   3.299   4.077   1.812
 1199SOL    HW1 4496   3.221   4.072   1.874
 1199SOL    HW2 4497   3.320   3.986   1.777
 1200SOL     OW 4498   3.895   4.287   6.499
 1200SOL    HW1 4499   3.988   4.257   6.474
 1200SOL    HW2 4500   3.862   4.352   6.431
 1201SOL     OW 4501   1.067   1.649   4.638
 1201SOL    HW1 4502   1.023   1.701   4.564
 1201SOL    HW2 4503   1.165   1.666   4.636
 1202SOL     OW 4504   5.137   0.282   4.759
 1202SOL    HW1 4505   5.140   0.237   4.847
 1202SOL    HW2 4506   5.221   0.335   4.745
 1203SOL     OW 4507   5.343   0.327   1.181
 1203SOL    HW1 4508   5.387   0.248   1.224
 1203SOL    HW2 4509   5.296   0.298   1.098
 1204SOL     OW 4510   3.670   0.731   0.604
 1204SOL    HW1 4511   3.578   0.770   0.594
 1204SOL    HW2 4512   3.667   0.634   0.579
 1205SOL     OW 4513   6.272   2.312   5.632
 1205SOL    HW1 4514   6.192   2.322   5.692
 1205SOL    HW2 4515   6.285   2.396   5.580
 1206SOL     OW 4516   1.800   1.698   4.578
 1206SOL    HW1 4517   1.880   1.756   4.595
 1206SOL    HW2 4518   1.782   1.642   4.659
 1207SOL     OW 4519   5.853   0.155   0.136
 1207SOL    HW1 4520   5.809   0.118   0.054
 1207SOL    HW2 4521   5.848   0.255   0.134
 1208SOL     OW 4522   3.713   4.003   2.612
 1208SOL    HW1 4523   3.660   3.920   2.627
 1208SOL    HW2 4524   3.753   4.033   2.699
 1209SOL     OW 4525   5.804   5.490   4.902
 1209SOL    HW1 4526   5.762   5.429   4.834
 1209SOL    HW2 4527   5.892   5.453   4.931
 1210SOL     OW 4528   4.289   0.364   2.637
 1210SOL    HW1 4529   4.284   0.296   2.564
 1210SOL    HW2 4530   4.290   0.318   2.726
 1211SOL     OW 4531   1.467   3.824   3.701
 1211SOL    HW1 4532   1.499   3.868   3.617
 1211SOL    HW2 4533   1.494   3.880   3.779
 1212SOL     OW 4534   1.105   4.273   4.549
 1212SOL    HW1 4535   1.133   4.177   4.551
 1212SOL    HW2 4536   1.012   4.281   4.584
 1213SOL     OW 4537   6.339   2.876   5.399
 1213SOL    HW1 4538   6.326   2.906   5.305
 1213SOL    HW2 4539   6.388   2.789   5.401
 1214SOL     OW 4540   1.456   3.518   4.042
 1214SOL    HW1 4541   1.431   3.530   3.946
 1214SOL    HW2 4542   1.477   3.608   4.082
 1215SOL     OW 4543   1.639   4.259   3.233
 1215SOL    HW1 4544   1.629   4.165   3.265
 1215SOL    HW2 4545   1.728   4.271   3.189
 1216SOL     OW 4546   1.308   6.846   1.466
 1216SOL    HW1 4547   1.226   6.824   1.413
 1216SOL    HW2 4548   1.387   6.798   1.428
 1217SOL     OW 4549   1.301   6.462   0.805
 1217SOL    HW1 4550   1.354   6.382   0.832
 1217SOL    HW2 4551   1.354   6.545   0.822
 1218SOL     OW 4552   0.561   3.746   4.534
 1218SOL    HW1 4553   0.463   3.724   4.535
 1218SOL    HW2 4554   0.573   3.845   4.541
 1219SOL     OW 4555   3.791   5.709   0.884
 1219SOL    HW1 4556   3.888   5.688   0.899
 1219SOL    HW2 4557   3.760   5.775   0.952
 1220SOL     OW 4558   5.738   2.661   3.058
 1220SOL    HW1 4559   5.653   2.624   3.019
 1220SOL    HW2 4560   5.717   2.711   3.141
 1221SOL     OW 4561   5.101   3.463   0.728
 1221SOL    HW1 4562   5.060   3.372   0.734
 1221SOL    HW2 4563   5.100   3.505   0.819
 1222SOL     OW 4564   0.264   6.838   0.639
 1222SOL    HW1 4565   0.218   6.785   0.569
 1222SOL    HW2 4566   0.220   6.823   0.728
 1223SOL     OW 4567   6.204   0.277   6.156
 1223SOL    HW1 4568   6.119   0.310   6.198
 1223SOL    HW2 4569   6.243   0.205   6.214
 1224SOL     OW 4570   4.298   5.812   0.721
 1224SOL    HW1 4571   4.204   5.833   0.692
 1224SOL    HW2 4572   4.298   5.786   0.817
 1225SOL     OW 4573   4.723   1.716   0.415
 1225SOL    HW1 4574   4.789   1.704   0.489
 1225SOL    HW2 4575   4.755   1.666   0.334
 1226SOL     OW 4576   6.050   6.292   1.343
 1226SOL    HW1 4577   6.098   6.260   1.425
 1226SOL    HW2 4578   6.058   6.392   1.337
 1227SOL     OW 4579   5.642   3.919   5.526
 1227SOL    HW1 4580   5.594   3.882   5.447
 1227SOL    HW2 4581   5.582   3.981   5.576
 1228SOL     OW 4582   3.629   3.322   2.580
 1228SOL    HW1 4583   3.680   3.311   2.666
 1228SOL    HW2 4584   3.535   3.290   2.594
 1229SOL     OW 4585   1.754   6.311   2.489
 1229SOL    HW1 4586   1.851   6.308   2.516
 1229SOL    HW2 4587   1.734   6.233   2.430
 1230SOL     OW 4588   4.866   5.085   1.788
 1230SOL    HW1 4589   4.881   5.123   1.879
 1230SOL    HW2 4590   4.894   5.153   1.719
 1231SOL     OW 4591   1.899   2.202   6.426
 1231SOL    HW1 4592   1.963   2.242   6.361
 1231SOL    HW2 4593   1.940   2.121   6.468
 1232SOL     OW 4594   3.216   0.361   5.344
 1232SOL    HW1 4595   3.174   0.377   5.254
 1232SOL    HW2 4596   3.302   0.312   5.331
 1233SOL     OW 4597   0.118   5.193   4.053
 1233SOL    HW1 4598   0.046   5.262   4.058
 1233SOL    HW2 4599   0.100   5.132   3.976
 1234SOL     OW 4600   0.080   3.163   6.840
 1234SOL    HW1 4601   0.000   3.137   6.785
 1234SOL    HW2 4602   0.073   3.259   6.866
 1235SOL     OW 4603   6.092   4.781   0.404
 1235SOL    HW1 4604   6.041   4.846   0.347
 1235SOL    HW2 4605   6.118   4.702   0.348
 1236SOL     OW 4606   2.217   1.112   1.288
 1236SOL    HW1 4607   2.217   1.040   1.358
 1236SOL    HW2 4608   2.304   1.160   1.289
 1237SOL     OW 4609   1.386   0.255   4.954
 1237SOL    HW1 4610   1.404   0.158   4.974
 1237SOL    HW2 4611   1.291   0.276   4.974
 1238SOL     OW 4612   0.085   6.853   3.909
 1238SOL    HW1 4613   0.159   6.886   3.849
 1238SOL    HW2 4614   0.018   6.803   3.854
 1239SOL     OW 4615   5.782   5.470   4.421
 1239SOL    HW1 4616   5.859   5.414   4.451
 1239SOL    HW2 4617   5.803   5.567   4.440
 1240SOL     OW 4618   5.567   4.900   2.707
 1240SOL    HW1 4619   5.492   4.885   2.770
 1240SOL    HW2 4620   5.545   4.976   2.646
 1241SOL     OW 4621   5.652   5.015   3.889
 1241SOL    HW1 4622   5.675   4.937   3.948
 1241SOL    HW2 4623   5.698   5.097   3.923
 1242SOL     OW 4624   1.513   4.204   6.846
 1242SOL    HW1 4625   1.525   4.205   6.747
 1242SOL    HW2 4626   1.511   4.298   6.880
 1243SOL     OW 4627   1.082   3.871   4.874
 1243SOL    HW1 4628   1.048   3.778   4.864
 1243SOL    HW2 4629   1.179   3.873   4.850
 1244SOL     OW 4630   5.522   6.496   4.680
 1244SOL    HW1 4631   5.612   6.488   4.637
 1244SOL    HW2 4632   5.525   6.565   4.752
 1245SOL     OW 4633   5.352   6.324   2.071
 1245SOL    HW1 4634   5.266   6.368   2.096
 1245SOL    HW2 4635   5.404   6.303   2.154
 1246SOL     OW 4636   4.905   1.652   0.604
 1246SOL    HW1 4637   4.832   1.682   0.666
 1246SOL    HW2 4638   4.993   1.688   0.637
 1247SOL     OW 4639   6.637   6.496   3.339
 1247SOL    HW1 4640   6.558   6.542   3.299
 1247SOL    HW2 4641   6.606   6.424   3.401
 1248SOL     OW 4642   0.400   0.076   4.939
 1248SOL    HW1 4643   0.402   0.114   5.032
 1248SOL    HW2 4644   0.493   0.057   4.909
 1249SOL     OW 4645   0.095   4.554   0.536
 1249SOL    HW1 4646   0.027   4.486   0.564
 1249SOL    HW2 4647   0.123   4.535   0.441
 1250SOL     OW 4648   5.600   3.016   5.360
 1250SOL    HW1 4649   5.615   2.932   5.308
 1250SOL    HW2 4650   5.678   3.077   5.347
 1251SOL     OW 4651   2.447   0.287   2.541
 1251SOL    HW1 4652   2.468   0.190   2.528
 1251SOL    HW2 4653   2.403   0.323   2.459
 1252SOL     OW 4654   2.136   5.434   0.181
 1252SOL    HW1 4655   2.053   5.423   0.237
 1252SOL    HW2 4656   2.111   5.433   0.084
 1253SOL     OW 4657   3.310   1.298   1.213
 1253SOL    HW1 4658   3.341   1.318   1.120
 1253SOL    HW2 4659   3.354   1.361   1.277
 1254SOL     OW 4660   6.298   1.071   2.408
 1254SOL    HW1 4661   6.369   1.139   2.425
 1254SOL    HW2 4662   6.223   1.113   2.358
 1255SOL     OW 4663   5.248   1.714   4.755
 1255SOL    HW1 4664   5.194   1.691   4.674
 1255SOL    HW2 4665   5.253   1.634   4.815
 1256SOL     OW 4666   0.247   6.081   4.544
 1256SOL    HW1 4667   0.240   6.178   4.566
 1256SOL    HW2 4668   0.342   6.056   4.529
 1257SOL     OW 4669   0.496   4.742   3.716
 1257SOL    HW1 4670   0.451   4.787   3.793
 1257SOL    HW2 4671   0.546   4.662   3.749
 1258SOL     OW 4672   3.257   6.266   4.595
 1258SOL    HW1 4673   3.285   6.217   4.512
 1258SOL    HW2 4674   3.255   6.364   4.577
 1259SOL     OW 4675   5.235   0.139   4.977
 1259SOL    HW1 4676   5.324   0.152   5.019
 1259SOL    HW2 4677   5.181   0.075   5.032
 1260SOL     OW 4678   1.837   0.323   2.139
 1260SOL    HW1 4679   1.894   0.332   2.057
 1260SOL    HW2 4680   1.855   0.236   2.183
 1261SOL     OW 4681   6.809   4.552   6.414
 1261SOL    HW1 4682   6.896   4.516   6.449
 1261SOL    HW2 4683   6.734   4.507   6.461
 1262SOL     OW 4684   5.124   5.482   0.719
 1262SOL    HW1 4685   5.189   5.424   0.768
 1262SOL    HW2 4686   5.034   5.438   0.718
 1263SOL     OW 4687   0.793   2.326   1.349
 1263SOL    HW1 4688   0.797   2.384   1.268
 1263SOL    HW2 4689   0.881   2.280   1.361
 1264SOL     OW 4690   1.118   3.390   3.347
 1264SOL    HW1 4691   1.068   3.457   3.404
 1264SOL    HW2 4692   1.160   3.322   3.406
 1265SOL     OW 4693   6.811   4.360   4.794
 1265SOL    HW1 4694   6.759   4.434   4.837
 1265SOL    HW2 4695   6.786   4.354   4.697
 1266SOL     OW 4696   3.150   1.868   5.152
 1266SOL    HW1 4697   3.198   1.784   5.174
 1266SOL    HW2 4698   3.077   1.884   5.218
 1267SOL     OW 4699   0.170   4.816   3.381
 1267SOL    HW1 4700   0.238   4.857   3.320
 1267SOL    HW2 4701   0.135   4.886   3.443
 1268SOL     OW 4702   5.281   2.805   6.264
 1268SOL    HW1 4703   5.252   2.723   6.313
 1268SOL    HW2 4704   5.364   2.841   6.305
 1269SOL     OW 4705   6.617   5.692   5.448
 1269SOL    HW1 4706   6.700   5.661   5.494
 1269SOL    HW2 4707   6.632   5.695   5.349
 1270SOL     OW 4708   2.124   3.811   4.585
 1270SOL    HW1 4709   2.110   3.752   4.506
 1270SOL    HW2 4710   2.044   3.807   4.645
 1271SOL     OW 4711   3.109   1.663   2.651
 1271SOL    HW1 4712   3.030   1.605   2.629
 1271SOL    HW2 4713   3.078   1.758   2.662
 1272SOL     OW 4714   6.473   5.401   1.360
 1272SOL    HW1 4715   6.554   5.455   1.386
 1272SOL    HW2 4716   6.458   5.410   1.262
 1273SOL     OW 4717   2.319   4.574   6.755
 1273SOL    HW1 4718   2.416   4.557   6.770
 1273SOL    HW2 4719   2.268   4.489   6.766
 1274SOL     OW 4720   0.008   2.832   1.782
 1274SOL    HW1 4721   7.005   2.816   1.877
 1274SOL    HW2 4722   7.011   2.926   1.756
 1275SOL     OW 4723   4.399   0.833   4.838
 1275SOL    HW1 4724   4.433   0.904   4.776
 1275SOL    HW2 4725   4.392   0.870   4.931
 1276SOL     OW 4726   0.095   0.526   1.961
 1276SOL    HW1 4727   0.092   0.625   1.973
 1276SOL    HW2 4728   0.142   0.484   2.038
 1277SOL     OW 4729   0.030   0.661   4.617
 1277SOL    HW1 4730   7.021   0.604   4.541
 1277SOL    HW2 4731   0.125   0.686   4.600
 1278SOL     OW 4732   1.929   1.886   5.428
 1278SOL    HW1 4733   2.004   1.852   5.372
 1278SOL    HW2 4734   1.935   1.986   5.433
 1279SOL     OW 4735   3.009   6.171   0.541
 1279SOL    HW1 4736   2.997   6.073   0.527
 1279SOL    HW2 4737   3.104   6.189   0.567
 1280SOL     OW 4738   2.013   0.159   3.190
 1280SOL    HW1 4739   1.918   0.159   3.158
 1280SOL    HW2 4740   2.062   0.083   3.147
 1281SOL     OW 4741   1.470   6.250   3.103
 1281SOL    HW1 4742   1.491   6.332   3.051
 1281SOL    HW2 4743   1.435   6.275   3.193
 1282SOL     OW 4744   0.782   1.580   1.188
 1282SOL    HW1 4745   0.793   1.541   1.279
 1282SOL    HW2 4746   0.687   1.569   1.158
 1283SOL     OW 4747   5.491   4.137   5.625
 1283SOL    HW1 4748   5.553   4.214   5.638
 1283SOL    HW2 4749   5.455   4.108   5.714
 1284SOL     OW 4750   2.848   2.588   1.714
 1284SOL    HW1 4751   2.762   2.557   1.673
 1284SOL    HW2 4752   2.852   2.556   1.809
 1285SOL     OW 4753   4.757   2.651   6.048
 1285SOL    HW1 4754   4.729   2.740   6.085
 1285SOL    HW2 4755   4.689   2.620   5.981
 1286SOL     OW 4756   5.422   4.253   2.194
 1286SOL    HW1 4757   5.341   4.232   2.248
 1286SOL    HW2 4758   5.496   4.189   2.217
 1287SOL     OW 4759   5.981   5.784   6.712
 1287SOL    HW1 4760   6.048   5.832   6.768
 1287SOL    HW2 4761   5.944   5.707   6.764
 1288SOL     OW 4762   0.270   2.615   0.023
 1288SOL    HW1 4763   0.360   2.587   0.054
 1288SOL    HW2 4764   0.267   2.715   0.016
 1289SOL     OW 4765   6.765   5.931   2.299
 1289SOL    HW1 4766   6.749   5.921   2.201
 1289SOL    HW2 4767   6.847   5.987   2.314
 1290SOL     OW 4768   0.604   0.233   6.677
 1290SOL    HW1 4769   0.591   0.330   6.660
 1290SOL    HW2 4770   0.700   0.209   6.666
 1291SOL     OW 4771   1.450   5.631   6.289
 1291SOL    HW1 4772   1.453   5.731   6.298
 1291SOL    HW2 4773   1.542   5.596   6.275
 1292SOL     OW 4774   6.903   4.838   1.150
 1292SOL    HW1 4775   6.949   4.920   1.185
 1292SOL    HW2 4776   6.804   4.854   1.150
 1293SOL     OW 4777   2.328   1.845   6.749
 1293SOL    HW1 4778   2.359   1.870   6.658
 1293SOL    HW2 4779   2.241   1.796   6.742
 1294SOL     OW 4780   0.622   3.396   2.489
 1294SOL    HW1 4781   0.628   3.480   2.436
 1294SOL    HW2 4782   0.713   3.370   2.521
 1295SOL     OW 4783   5.343   3.096   2.166
 1295SOL    HW1 4784   5.246   3.111   2.146
 1295SOL    HW2 4785   5.360   2.997   2.170
 1296SOL     OW 4786   3.756   2.262   6.297
 1296SOL    HW1 4787   3.800   2.351   6.290
 1296SOL    HW2 4788   3.661   2.274   6.328
 1297SOL     OW 4789   6.577   1.469   5.713
 1297SOL    HW1 4790   6.668   1.452   5.750
 1297SOL    HW2 4791   6.565   1.418   5.628
 1298SOL     OW 4792   5.162   3.513   2.709
 1298SOL    HW1 4793   5.062   3.511   2.703
 1298SOL    HW2 4794   5.189   3.508   2.805
 1299SOL     OW 4795   2.071   4.310   3.551
 1299SOL    HW1 4796   2.007   4.289   3.624
 1299SOL    HW2 4797   2.036   4.385   3.495
 1300SOL     OW 4798   2.802   3.574   1.842
 1300SOL    HW1 4799   2.853   3.488   1.827
 1300SOL    HW2 4800   2.707   3.561   1.816
 1301SOL     OW 4801   1.037   6.707   3.738
 1301SOL    HW1 4802   1.083   6.676   3.821
 1301SOL    HW2 4803   0.998   6.629   3.689
 1302SOL     OW 4804   2.383   6.560   5.573
 1302SOL    HW1 4805   2.348   6.584   5.664
 1302SOL    HW2 4806   2.330   6.485   5.535
 1303SOL     OW 4807   3.856   1.696   1.068
 1303SOL    HW1 4808   3.874   1.762   0.995
 1303SOL    HW2 4809   3.915   1.714   1.146
 1304SOL     OW 4810   1.982   0.389   6.206
 1304SOL    HW1 4811   1.889   0.420   6.226
 1304SOL    HW2 4812   1.979   0.314   6.140
 1305SOL     OW 4813   4.669   6.393   4.337
 1305SOL    HW1 4814   4.717   6.467   4.290
 1305SOL    HW2 4815   4.718   6.370   4.421
 1306SOL     OW 4816   1.155   4.022   4.593
 1306SOL    HW1 4817   1.138   3.948   4.528
 1306SOL    HW2 4818   1.105   4.004   4.678
 1307SOL     OW 4819   1.384   3.284   5.073
 1307SOL    HW1 4820   1.326   3.327   5.142
 1307SOL    HW2 4821   1.461   3.239   5.118
 1308SOL     OW 4822   4.160   5.705   4.182
 1308SOL    HW1 4823   4.177   5.612   4.151
 1308SOL    HW2 4824   4.229   5.766   4.142
 1309SOL     OW 4825   5.408   2.846   4.884
 1309SOL    HW1 4826   5.460   2.768   4.919
 1309SOL    HW2 4827   5.325   2.859   4.938
 1310SOL     OW 4828   5.928   4.052   4.305
 1310SOL    HW1 4829   5.854   4.118   4.321
 1310SOL    HW2 4830   5.907   3.999   4.223
 1311SOL     OW 4831   5.893   6.941   4.424
 1311SOL    HW1 4832   5.929   6.991   4.346
 1311SOL    HW2 4833   5.955   6.950   4.502
 1312SOL     OW 4834   0.823   0.340   7.013
 1312SOL    HW1 4835   0.830   0.339   0.089
 1312SOL    HW2 4836   0.909   0.307   6.974
 1313SOL     OW 4837   3.337   5.684   4.989
 1313SOL    HW1 4838   3.357   5.586   4.989
 1313SOL    HW2 4839   3.245   5.700   4.954
 1314SOL     OW 4840   1.336   1.457   5.663
 1314SOL    HW1 4841   1.306   1.371   5.621
 1314SOL    HW2 4842   1.260   1.497   5.714
 1315SOL     OW 4843   1.806   1.382   1.180
 1315SOL    HW1 4844   1.749   1.308   1.215
 1315SOL    HW2 4845   1.851   1.353   1.096
 1316SOL     OW 4846   2.162   0.298   3.376
 1316SOL    HW1 4847   2.146   0.244   3.458
 1316SOL    HW2 4848   2.110   0.261   3.300
 1317SOL     OW 4849   0.701   4.506   4.431
 1317SOL    HW1 4850   0.661   4.443   4.364
 1317SOL    HW2 4851   0.796   4.525   4.407
 1318SOL     OW 4852   0.158   0.894   0.568
 1318SOL    HW1 4853   0.072   0.901   0.518
 1318SOL    HW2 4854   0.200   0.805   0.551
 1319SOL     OW 4855   0.104   1.047   1.002
 1319SOL    HW1 4856   0.121   0.960   0.955
 1319SOL    HW2 4857   0.182   1.108   0.989
 1320SOL     OW 4858   5.582   4.302   6.325
 1320SOL    HW1 4859   5.615   4.221   6.277
 1320SOL    HW2 4860   5.615   4.302   6.419
 1321SOL     OW 4861   4.366   3.623   6.764
 1321SOL    HW1 4862   4.309   3.647   6.843
 1321SOL    HW2 4863   4.371   3.523   6.756
 1322SOL     OW 4864   6.041   1.010   3.591
 1322SOL    HW1 4865   6.077   0.982   3.680
 1322SOL    HW2 4866   6.100   0.974   3.519
 1323SOL     OW 4867   6.713   1.542   5.132
 1323SOL    HW1 4868   6.685   1.452   5.097
 1323SOL    HW2 4869   6.753   1.531   5.223
 1324SOL     OW 4870   1.527   2.714   1.494
 1324SOL    HW1 4871   1.441   2.685   1.452
 1324SOL    HW2 4872   1.563   2.794   1.445
 1325SOL     OW 4873   1.830   6.133   3.305
 1325SOL    HW1 4874   1.849   6.085   3.391
 1325SOL    HW2 4875   1.756   6.087   3.257
 1326SOL     OW 4876   5.239   2.469   4.840
 1326SOL    HW1 4877   5.270   2.503   4.929
 1326SOL    HW2 4878   5.203   2.545   4.786
 1327SOL     OW 4879   2.751   5.550   2.647
 1327SOL    HW1 4880   2.654   5.539   2.669
 1327SOL    HW2 4881   2.801   5.572   2.730
 1328SOL     OW 4882   1.924   2.096   6.046
 1328SOL    HW1 4883   1.928   1.998   6.066
 1328SOL    HW2 4884   1.968   2.147   6.120
 1329SOL     OW 4885   0.811   1.659   0.554
 1329SOL    HW1 4886   0.797   1.728   0.484
 1329SOL    HW2 4887   0.795   1.698   0.644
 1330SOL     OW 4888   6.573   0.529   1.122
 1330SOL    HW1 4889   6.648   0.573   1.171
 1330SOL    HW2 4890   6.590   0.535   1.024
 1331SOL     OW 4891   6.291   0.650   2.223
 1331SOL    HW1 4892   6.302   0.740   2.265
 1331SOL    HW2 4893   6.225   0.656   2.149
 1332SOL     OW 4894   4.297   2.048   1.412
 1332SOL    HW1 4895   4.202   2.043   1.382
 1332SOL    HW2 4896   4.302   2.027   1.510
 1333SOL     OW 4897   3.797   4.093   4.736
 1333SOL    HW1 4898   3.845   4.006   4.732
 1333SOL    HW2 4899   3.797   4.127   4.830
 1334SOL     OW 4900   1.573   4.059   4.789
 1334SOL    HW1 4901   1.630   3.983   4.757
 1334SOL    HW2 4902   1.623   4.145   4.776
 1335SOL     OW 4903   2.358   6.478   2.868
 1335SOL    HW1 4904   2.319   6.529   2.945
 1335SOL    HW2 4905   2.352   6.380   2.886
 1336SOL     OW 4906   1.398   1.864   6.666
 1336SOL    HW1 4907   1.329   1.927   6.630
 1336SOL    HW2 4908   1.403   1.873   6.765
 1337SOL     OW 4909   2.068   2.230   6.227
 1337SOL    HW1 4910   2.079   2.328   6.213
 1337SOL    HW2 4911   2.153   2.192   6.265
 1338SOL     OW 4912   4.313   4.531   6.538
 1338SOL    HW1 4913   4.325   4.437   6.506
 1338SOL    HW2 4914   4.309   4.532   6.638
 1339SOL     OW 4915   7.010   4.275   6.181
 1339SOL    HW1 4916   0.014   4.331   6.103
 1339SOL    HW2 4917   6.917   4.241   6.166
 1340SOL     OW 4918   1.350   2.453   0.263
 1340SOL    HW1 4919   1.411   2.449   0.183
 1340SOL    HW2 4920   1.403   2.478   0.344
 1341SOL     OW 4921   3.657   1.036   4.417
 1341SOL    HW1 4922   3.690   0.942   4.421
 1341SOL    HW2 4923   3.582   1.048   4.482
 1342SOL     OW 4924   0.518   6.253   6.204
 1342SOL    HW1 4925   0.554   6.304   6.125
 1342SOL    HW2 4926   0.549   6.296   6.288
 1343SOL     OW 4927   3.639   6.352   2.321
 1343SOL    HW1 4928   3.653   6.348   2.222
 1343SOL    HW2 4929   3.711   6.409   2.362
 1344SOL     OW 4930   6.317   1.714   2.800
 1344SOL    HW1 4931   6.311   1.623   2.840
 1344SOL    HW2 4932   6.227   1.758   2.802
 1345SOL     OW 4933   0.655   1.026   3.485
 1345SOL    HW1 4934   0.621   1.119   3.493
 1345SOL    HW2 4935   0.658   1.000   3.388
 1346SOL     OW 4936   0.058   6.968   3.562
 1346SOL    HW1 4937   0.076   6.873   3.585
 1346SOL    HW2 4938   0.111   6.993   3.481
 1347SOL     OW 4939   6.292   6.224   2.979
 1347SOL    HW1 4940   6.276   6.229   3.078
 1347SOL    HW2 4941   6.373   6.278   2.957
 1348SOL     OW 4942   5.773   4.578   4.275
 1348SOL    HW1 4943   5.800   4.584   4.179
 1348SOL    HW2 4944   5.691   4.522   4.284
 1349SOL     OW 4945   4.097   2.924   0.085
 1349SOL    HW1 4946   4.076   2.950   0.179
 1349SOL    HW2 4947   4.097   2.825   0.077
 1350SOL     OW 4948   3.137   5.850   6.712
 1350SOL    HW1 4949   3.089   5.937   6.718
 1350SOL    HW2 4950   3.083   5.787   6.654
 1351SOL     OW 4951   7.015   0.473   4.427
 1351SOL    HW1 4952   0.013   0.379   4.399
 1351SOL    HW2 4953   6.968   0.520   4.353
 1352SOL     OW 4954   6.569   0.675   3.208
 1352SOL    HW1 4955   6.546   0.705   3.115
 1352SOL    HW2 4956   6.576   0.755   3.268
 1353SOL     OW 4957   0.170   4.236   5.089
 1353SOL    HW1 4958   0.099   4.206   5.152
 1353SOL    HW2 4959   0.160   4.334   5.072
 1354SOL     OW 4960   0.426   0.605   1.410
 1354SOL    HW1 4961   0.504   0.658   1.442
 1354SOL    HW2 4962   0.369   0.661   1.350
 1355SOL     OW 4963   5.351   4.331   0.375
 1355SOL    HW1 4964   5.407   4.252   0.351
 1355SOL    HW2 4965   5.258   4.300   0.397
 1356SOL     OW 4966   3.462   4.150   2.775
 1356SOL    HW1 4967   3.434   4.205   2.854
 1356SOL    HW2 4968   3.558   4.125   2.784
 1357SOL     OW 4969   2.371   3.241   6.363
 1357SOL    HW1 4970   2.373   3.141   6.368
 1357SOL    HW2 4971   2.464   3.275   6.347
 1358SOL     OW 4972   2.103   2.765   6.488
 1358SOL    HW1 4973   2.096   2.837   6.557
 1358SOL    HW2 4974   2.106   2.676   6.532
 1359SOL     OW 4975   6.189   3.393   1.528
 1359SOL    HW1 4976   6.217   3.489   1.529
 1359SOL    HW2 4977   6.093   3.386   1.557
 1360SOL     OW 4978   3.724   3.695   3.350
 1360SOL    HW1 4979   3.756   3.659   3.263
 1360SOL    HW2 4980   3.799   3.742   3.397
 1361SOL     OW 4981   0.873   6.586   6.371
 1361SOL    HW1 4982   0.926   6.512   6.330
 1361SOL    HW2 4983   0.825   6.551   6.453
 1362SOL     OW 4984   3.002   3.249   5.959
 1362SOL    HW1 4985   2.939   3.179   5.926
 1362SOL    HW2 4986   2.995   3.331   5.901
 1363SOL     OW 4987   6.794   6.078   3.341
 1363SOL    HW1 4988   6.878   6.070   3.287
 1363SOL    HW2 4989   6.716   6.086   3.279
 1364SOL     OW 4990   6.900   3.250   0.908
 1364SOL    HW1 4991   6.826   3.199   0.951
 1364SOL    HW2 4992   6.917   3.215   0.816
 1365SOL     OW 4993   0.836   3.483   5.640
 1365SOL    HW1 4994   0.736   3.485   5.637
 1365SOL    HW2 4995   0.867   3.422   5.713
 1366SOL     OW 4996   0.068   2.595   0.721
 1366SOL    HW1 4997   0.104   2.512   0.680
 1366SOL    HW2 4998   0.076   2.671   0.657
 1367SOL     OW 4999   0.832   4.211   3.767
 1367SOL    HW1 5000   0.867   4.123   3.798
 1367SOL    HW2 5001   0.813   4.206   3.669
 1368SOL     OW 5002   6.698   0.146   4.515
 1368SOL    HW1 5003   6.744   0.090   4.585
 1368SOL    HW2 5004   6.724   0.113   4.424
 1369SOL     OW 5005   1.638   6.093   2.309
 1369SOL    HW1 5006   1.676   6.004   2.283
 1369SOL    HW2 5007   1.604   6.140   2.227
 1370SOL     OW 5008   6.743   2.414   4.037
 1370SOL    HW1 5009   6.721   2.360   3.956
 1370SOL    HW2 5010   6.840   2.436   4.038
 1371SOL     OW 5011   6.032   1.290   4.611
 1371SOL    HW1 5012   6.004   1.228   4.538
 1371SOL    HW2 5013   6.077   1.370   4.570
 1372SOL     OW 5014   6.411   2.954   0.104
 1372SOL    HW1 5015   6.473   2.924   0.032
 1372SOL    HW2 5016   6.412   2.888   0.179
 1373SOL     OW 5017   4.434   2.737   1.533
 1373SOL    HW1 5018   4.471   2.772   1.619
 1373SOL    HW2 5019   4.483   2.654   1.507
 1374SOL     OW 5020   5.079   3.551   0.983
 1374SOL    HW1 5021   5.156   3.614   0.987
 1374SOL    HW2 5022   5.003   3.588   1.037
 1375SOL     OW 5023   6.911   5.957   5.610
 1375SOL    HW1 5024   7.003   5.918   5.604
 1375SOL    HW2 5025   6.882   5.988   5.519
 1376SOL     OW 5026   2.972   5.101   6.220
 1376SOL    HW1 5027   3.039   5.028   6.207
 1376SOL    HW2 5028   3.007   5.168   6.285
 1377SOL     OW 5029   1.106   2.577   3.683
 1377SOL    HW1 5030   1.199   2.614   3.689
 1377SOL    HW2 5031   1.047   2.642   3.636
 1378SOL     OW 5032   3.761   2.116   4.758
 1378SOL    HW1 5033   3.671   2.073   4.754
 1378SOL    HW2 5034   3.785   2.150   4.667
 1379SOL     OW 5035   5.126   5.040   1.728
 1379SOL    HW1 5036   5.154   5.077   1.816
 1379SOL    HW2 5037   5.029   5.017   1.731
 1380SOL     OW 5038   6.630   6.056   1.609
 1380SOL    HW1 5039   6.711   6.094   1.654
 1380SOL    HW2 5040   6.601   5.973   1.656
 1381SOL     OW 5041   6.118   2.412   5.867
 1381SOL    HW1 5042   6.081   2.505   5.872
 1381SOL    HW2 5043   6.139   2.379   5.959
 1382SOL     OW 5044   4.758   2.884   1.493
 1382SOL    HW1 5045   4.695   2.924   1.427
 1382SOL    HW2 5046   4.778   2.951   1.565
 1383SOL     OW 5047   1.467   0.060   2.194
 1383SOL    HW1 5048   1.528   0.103   2.261
 1383SOL    HW2 5049   1.520   0.032   2.114
 1384SOL     OW 5050   4.851   0.515   0.359
 1384SOL    HW1 5051   4.783   0.442   0.352
 1384SOL    HW2 5052   4.805   0.601   0.383
 1385SOL     OW 5053   1.924   4.953   3.506
 1385SOL    HW1 5054   1.939   4.969   3.604
 1385SOL    HW2 5055   1.934   4.856   3.486
 1386SOL     OW 5056   3.007   6.401   3.992
 1386SOL    HW1 5057   3.103   6.418   3.969
 1386SOL    HW2 5058   2.955   6.486   3.980
 1387SOL     OW 5059   3.945   5.667   1.139
 1387SOL    HW1 5060   3.884   5.604   1.187
 1387SOL    HW2 5061   3.895   5.751   1.117
 1388SOL     OW 5062   5.771   0.523   1.794
 1388SOL    HW1 5063   5.714   0.559   1.721
 1388SOL    HW2 5064   5.810   0.435   1.767
 1389SOL     OW 5065   6.383   1.061   3.354
 1389SOL    HW1 5066   6.297   1.011   3.360
 1389SOL    HW2 5067   6.364   1.159   3.347
 1390SOL     OW 5068   1.100   3.322   6.543
 1390SOL    HW1 5069   1.074   3.372   6.626
 1390SOL    HW2 5070   1.175   3.259   6.564
 1391SOL     OW 5071   6.931   1.251   3.922
 1391SOL    HW1 5072   6.971   1.225   3.834
 1391SOL    HW2 5073   6.997   1.306   3.974
 1392SOL     OW 5074   5.571   4.924   6.160
 1392SOL    HW1 5075   5.621   4.839   6.148
 1392SOL    HW2 5076   5.562   4.945   6.257
 1393SOL     OW 5077   6.005   5.960   5.534
 1393SOL    HW1 5078   6.027   5.952   5.437
 1393SOL    HW2 5079   5.994   6.056   5.558
 1394SOL     OW 5080   3.107   6.167   5.692
 1394SOL    HW1 5081   3.086   6.230   5.617
 1394SOL    HW2 5082   3.150   6.085   5.655
 1395SOL     OW 5083   2.958   4.419   5.763
 1395SOL    HW1 5084   2.992   4.331   5.796
 1395SOL    HW2 5085   2.861   4.428   5.787
 1396SOL     OW 5086   1.001   0.089   3.863
 1396SOL    HW1 5087   0.918   0.144   3.858
 1396SOL    HW2 5088   1.039   0.079   3.771
 1397SOL     OW 5089   6.357   0.519   4.509
 1397SOL    HW1 5090   6.377   0.519   4.607
 1397SOL    HW2 5091   6.386   0.432   4.469
 1398SOL     OW 5092   1.613   1.096   4.929
 1398SOL    HW1 5093   1.589   1.188   4.960
 1398SOL    HW2 5094   1.535   1.056   4.880
 1399SOL     OW 5095   3.607   6.634   1.336
 1399SOL    HW1 5096   3.626   6.605   1.242
 1399SOL    HW2 5097   3.565   6.559   1.387
 1400SOL     OW 5098   0.046   1.986   3.036
 1400SOL    HW1 5099   0.141   1.966   3.062
 1400SOL    HW2 5100   0.001   1.902   3.006
 1401SOL     OW 5101   0.386   1.456   5.484
 1401SOL    HW1 5102   0.433   1.543   5.472
 1401SOL    HW2 5103   0.306   1.469   5.542
 1402SOL     OW 5104   0.129   3.775   6.895
 1402SOL    HW1 5105   0.061   3.786   6.968
 1402SOL    HW2 5106   0.148   3.864   6.853
 1403SOL     OW 5107   3.386   1.240   2.037
 1403SOL    HW1 5108   3.458   1.238   1.968
 1403SOL    HW2 5109   3.415   1.295   2.115
 1404SOL     OW 5110   5.697   0.230   0.433
 1404SOL    HW1 5111   5.710   0.259   0.338
 1404SOL    HW2 5112   5.629   0.289   0.477
 1405SOL     OW 5113   2.240   3.966   0.797
 1405SOL    HW1 5114   2.147   3.984   0.766
 1405SOL    HW2 5115   2.238   3.894   0.867
 1406SOL     OW 5116   1.783   5.167   1.956
 1406SOL    HW1 5117   1.798   5.068   1.960
 1406SOL    HW2 5118   1.686   5.186   1.966
 1407SOL     OW 5119   0.462   1.526   2.013
 1407SOL    HW1 5120   0.464   1.577   1.926
 1407SOL    HW2 5121   0.536   1.459   2.013
 1408SOL     OW 5122   5.404   0.747   5.852
 1408SOL    HW1 5123   5.406   0.653   5.818
 1408SOL    HW2 5124   5.398   0.745   5.952
 1409SOL     OW 5125   0.655   6.960   5.410
 1409SOL    HW1 5126   0.674   6.862   5.416
 1409SOL    HW2 5127   0.738   7.012   5.433
 1410SOL     OW 5128   1.808   3.486   6.416
 1410SOL    HW1 5129   1.869   3.548   6.366
 1410SOL    HW2 5130   1.863   3.419   6.466
 1411SOL     OW 5131   2.572   6.493   3.157
 1411SOL    HW1 5132   2.499   6.424   3.158
 1411SOL    HW2 5133   2.539   6.576   3.202
 1412SOL     OW 5134   0.448   1.984   6.938
 1412SOL    HW1 5135   0.473   2.006   6.843
 1412SOL    HW2 5136   0.367   1.926   6.938
 1413SOL     OW 5137   1.786   0.666   4.907
 1413SOL    HW1 5138   1.864   0.609   4.934
 1413SOL    HW2 5139   1.755   0.639   4.815
 1414SOL     OW 5140   2.728   0.917   1.599
 1414SOL    HW1 5141   2.724   0.819   1.618
 1414SOL    HW2 5142   2.801   0.959   1.653
 1415SOL     OW 5143   2.728   0.398   4.304
 1415SOL    HW1 5144   2.745   0.336   4.228
 1415SOL    HW2 5145   2.666   0.355   4.370
 1416SOL     OW 5146   4.646   4.494   3.472
 1416SOL    HW1 5147   4.627   4.420   3.407
 1416SOL    HW2 5148   4.567   4.555   3.478
 1417SOL     OW 5149   2.470   2.367   0.299
 1417SOL    HW1 5150   2.561   2.327   0.309
 1417SOL    HW2 5151   2.402   2.303   0.334
 1418SOL     OW 5152   3.120   3.323   3.454
 1418SOL    HW1 5153   3.072   3.255   3.509
 1418SOL    HW2 5154   3.215   3.330   3.483
 1419SOL     OW 5155   3.224   6.526   4.454
 1419SOL    HW1 5156   3.268   6.503   4.368
 1419SOL    HW2 5157   3.200   6.623   4.455
 1420SOL     OW 5158   1.912   6.252   1.973
 1420SOL    HW1 5159   1.892   6.155   1.957
 1420SOL    HW2 5160   1.837   6.308   1.939
 1421SOL     OW 5161   1.721   2.782   2.975
 1421SOL    HW1 5162   1.800   2.721   2.972
 1421SOL    HW2 5163   1.637   2.728   2.987
 1422SOL     OW 5164   2.547   4.568   1.930
 1422SOL    HW1 5165   2.516   4.583   1.836
 1422SOL    HW2 5166   2.645   4.583   1.935
 1423SOL     OW 5167   5.105   6.421   2.127
 1423SOL    HW1 5168   5.100   6.431   2.227
 1423SOL    HW2 5169   5.080   6.507   2.083
 1424SOL     OW 5170   6.484   4.367   4.839
 1424SOL    HW1 5171   6.449   4.345   4.929
 1424SOL    HW2 5172   6.425   4.435   4.795
 1425SOL     OW 5173   1.595   6.328   4.296
 1425SOL    HW1 5174   1.536   6.405   4.272
 1425SOL    HW2 5175   1.569   6.248   4.241
 1426SOL     OW 5176   1.014   2.818   5.460
 1426SOL    HW1 5177   0.985   2.859   5.547
 1426SOL    HW2 5178   1.111   2.792   5.466
 1427SOL     OW 5179   0.248   6.927   2.761
 1427SOL    HW1 5180   0.179   6.857   2.746
 1427SOL    HW2 5181   0.329   6.887   2.802
 1428SOL     OW 5182   5.813   2.472   0.989
 1428SOL    HW1 5183   5.877   2.512   0.923
 1428SOL    HW2 5184   5.768   2.545   1.040
 1429SOL     OW 5185   6.155   1.945   6.986
 1429SOL    HW1 5186   6.116   1.910   6.901
 1429SOL    HW2 5187   6.254   1.931   6.986
 1430SOL     OW 5188   1.913   4.692   3.631
 1430SOL    HW1 5189   1.825   4.709   3.676
 1430SOL    HW2 5190   1.906   4.608   3.576
 1431SOL     OW 5191   2.490   1.993   1.348
 1431SOL    HW1 5192   2.524   1.982   1.441
 1431SOL    HW2 5193   2.426   2.070   1.345
 1432SOL     OW 5194   2.818   1.469   3.281
 1432SOL    HW1 5195   2.899   1.432   3.236
 1432SOL    HW2 5196   2.839   1.489   3.377
 1433SOL     OW 5197   4.536   1.257   4.168
 1433SOL    HW1 5198   4.522   1.160   4.148
 1433SOL    HW2 5199   4.585   1.267   4.255
 1434SOL     OW 5200   6.670   0.764   5.556
 1434SOL    HW1 5201   6.758   0.799   5.587
 1434SOL    HW2 5202   6.684   0.707   5.475
 1435SOL     OW 5203   6.033   0.958   2.181
 1435SOL    HW1 5204   5.981   0.954   2.266
 1435SOL    HW2 5205   5.997   1.031   2.123
 1436SOL     OW 5206   5.152   4.022   0.385
 1436SOL    HW1 5207   5.219   3.972   0.439
 1436SOL    HW2 5208   5.139   4.114   0.423
 1437SOL     OW 5209   2.486   2.628   3.983
 1437SOL    HW1 5210   2.481   2.550   4.045
 1437SOL    HW2 5211   2.573   2.675   3.994
 1438SOL     OW 5212   3.193   6.368   1.245
 1438SOL    HW1 5213   3.226   6.384   1.338
 1438SOL    HW2 5214   3.093   6.371   1.243
 1439SOL     OW 5215   0.127   5.760   1.869
 1439SOL    HW1 5216   0.155   5.738   1.962
 1439SOL    HW2 5217   0.205   5.752   1.807
 1440SOL     OW 5218   3.204   3.607   1.173
 1440SOL    HW1 5219   3.217   3.511   1.198
 1440SOL    HW2 5220   3.107   3.631   1.186
 1441SOL     OW 5221   6.113   0.495   2.448
 1441SOL    HW1 5222   6.155   0.407   2.469
 1441SOL    HW2 5223   6.171   0.545   2.383
 1442SOL     OW 5224   6.524   5.913   0.058
 1442SOL    HW1 5225   6.465   5.847   0.104
 1442SOL    HW2 5226   6.615   5.911   0.100
 1443SOL     OW 5227   0.381   2.486   2.447
 1443SOL    HW1 5228   0.430   2.399   2.445
 1443SOL    HW2 5229   0.303   2.482   2.384
 1444SOL     OW 5230   5.501   0.401   0.543
 1444SOL    HW1 5231   5.551   0.399   0.629
 1444SOL    HW2 5232   5.510   0.492   0.502
 1445SOL     OW 5233   0.827   3.150   2.781
 1445SOL    HW1 5234   0.907   3.116   2.830
 1445SOL    HW2 5235   0.807   3.091   2.704
 1446SOL     OW 5236   0.164   0.292   6.546
 1446SOL    HW1 5237   0.094   0.286   6.474
 1446SOL    HW2 5238   0.207   0.382   6.544
 1447SOL     OW 5239   5.801   5.045   3.480
 1447SOL    HW1 5240   5.738   5.120   3.462
 1447SOL    HW2 5241   5.769   4.994   3.560
 1448SOL     OW 5242   6.916   2.489   4.972
 1448SOL    HW1 5243   6.956   2.435   5.046
 1448SOL    HW2 5244   6.897   2.430   4.894
 1449SOL     OW 5245   1.001   3.967   5.294
 1449SOL    HW1 5246   1.083   3.931   5.251
 1449SOL    HW2 5247   0.920   3.920   5.258
 1450SOL     OW 5248   1.095   2.938   5.971
 1450SOL    HW1 5249   1.068   2.842   5.966
 1450SOL    HW2 5250   1.013   2.995   5.971
 1451SOL     OW 5251   1.312   6.200   2.292
 1451SOL    HW1 5252   1.274   6.293   2.292
 1451SOL    HW2 5253   1.276   6.150   2.214
 1452SOL     OW 5254   4.445   2.670   5.440
 1452SOL    HW1 5255   4.416   2.597   5.378
 1452SOL    HW2 5256   4.395   2.663   5.526
 1453SOL     OW 5257   0.609   4.306   5.213
 1453SOL    HW1 5258   0.648   4.257   5.290
 1453SOL    HW2 5259   0.541   4.248   5.167
 1454SOL     OW 5260   2.156   1.936   2.941
 1454SOL    HW1 5261   2.248   1.974   2.942
 1454SOL    HW2 5262   2.090   2.009   2.920
 1455SOL     OW 5263   1.360   6.241   2.607
 1455SOL    HW1 5264   1.316   6.198   2.528
 1455SOL    HW2 5265   1.395   6.331   2.581
 1456SOL     OW 5266   6.394   6.124   6.182
 1456SOL    HW1 5267   6.484   6.132   6.140
 1456SOL    HW2 5268   6.336   6.065   6.126
 1457SOL     OW 5269   0.389   4.378   0.608
 1457SOL    HW1 5270   0.363   4.447   0.676
 1457SOL    HW2 5271   0.358   4.288   0.638
 1458SOL     OW 5272   5.249   5.065   5.103
 1458SOL    HW1 5273   5.171   5.043   5.162
 1458SOL    HW2 5274   5.249   5.004   5.024
 1459SOL     OW 5275   4.207   6.423   6.037
 1459SOL    HW1 5276   4.116   6.463   6.044
 1459SOL    HW2 5277   4.203   6.326   6.060
 1460SOL     OW 5278   1.672   0.030   4.724
 1460SOL    HW1 5279   1.604   0.043   4.652
 1460SOL    HW2 5280   1.678   0.113   4.779
 1461SOL     OW 5281   0.383   3.489   3.390
 1461SOL    HW1 5282   0.308   3.440   3.345
 1461SOL    HW2 5283   0.437   3.537   3.322
 1462SOL     OW 5284   1.213   0.851   6.737
 1462SOL    HW1 5285   1.294   0.805   6.702
 1462SOL    HW2 5286   1.158   0.786   6.789
 1463SOL     OW 5287   1.394   4.979   5.862
 1463SOL    HW1 5288   1.320   4.914   5.877
 1463SOL    HW2 5289   1.452   4.983   5.943
 1464SOL     OW 5290   6.813   4.224   3.157
 1464SOL    HW1 5291   6.794   4.322   3.151
 1464SOL    HW2 5292   6.911   4.209   3.143
 1465SOL     OW 5293   1.704   2.311   3.975
 1465SOL    HW1 5294   1.782   2.372   3.986
 1465SOL    HW2 5295   1.678   2.273   4.064
 1466SOL     OW 5296   4.072   2.209   2.241
 1466SOL    HW1 5297   4.050   2.211   2.143
 1466SOL    HW2 5298   3.992   2.182   2.293
 1467SOL     OW 5299   1.904   1.528   4.291
 1467SOL    HW1 5300   1.950   1.614   4.309
 1467SOL    HW2 5301   1.807   1.537   4.314
 1468SOL     OW 5302   2.261   5.313   1.863
 1468SOL    HW1 5303   2.265   5.348   1.769
 1468SOL    HW2 5304   2.168   5.323   1.898
 1469SOL     OW 5305   6.920   6.014   2.924
 1469SOL    HW1 5306   6.929   6.058   3.013
 1469SOL    HW2 5307   6.824   6.005   2.900
 1470SOL     OW 5308   0.161   2.310   0.998
 1470SOL    HW1 5309   0.155   2.211   0.985
 1470SOL    HW2 5310   0.087   2.340   1.058
 1471SOL     OW 5311   0.863   0.263   0.564
 1471SOL    HW1 5312   0.927   0.199   0.608
 1471SOL    HW2 5313   0.770   0.227   0.571
 1472SOL     OW 5314   2.533   6.407   6.577
 1472SOL    HW1 5315   2.495   6.359   6.498
 1472SOL    HW2 5316   2.588   6.343   6.631
 1473SOL     OW 5317   2.943   5.439   4.478
 1473SOL    HW1 5318   2.871   5.389   4.527
 1473SOL    HW2 5319   3.009   5.373   4.441
 1474SOL     OW 5320   4.059   4.978   1.621
 1474SOL    HW1 5321   4.151   5.006   1.650
 1474SOL    HW2 5322   4.066   4.912   1.546
 1475SOL     OW 5323   5.238   1.304   6.877
 1475SOL    HW1 5324   5.226   1.398   6.907
 1475SOL    HW2 5325   5.153   1.271   6.835
 1476SOL     OW 5326   2.947   1.253   1.502
 1476SOL    HW1 5327   2.970   1.271   1.407
 1476SOL    HW2 5328   2.868   1.308   1.529
 1477SOL     OW 5329   3.903   0.318   0.459
 1477SOL    HW1 5330   3.825   0.287   0.514
 1477SOL    HW2 5331   3.988   0.294   0.505
 1478SOL     OW 5332   5.207   6.418   5.782
 1478SOL    HW1 5333   5.153   6.500   5.762
 1478SOL    HW2 5334   5.292   6.422   5.730
 1479SOL     OW 5335   3.567   3.619   1.362
 1479SOL    HW1 5336   3.587   3.682   1.437
 1479SOL    HW2 5337   3.642   3.621   1.296
 1480SOL     OW 5338   2.276   0.020   6.214
 1480SOL    HW1 5339   2.226   0.052   6.295
 1480SOL    HW2 5340   2.374   0.018   6.234
 1481SOL     OW 5341   5.641   3.050   5.821
 1481SOL    HW1 5342   5.663   3.120   5.753
 1481SOL    HW2 5343   5.567   2.992   5.786
 1482SOL     OW 5344   4.466   0.828   0.782
 1482SOL    HW1 5345   4.553   0.806   0.739
 1482SOL    HW2 5346   4.409   0.746   0.786
 1483SOL     OW 5347   5.394   2.300   5.435
 1483SOL    HW1 5348   5.345   2.243   5.501
 1483SOL    HW2 5349   5.402   2.393   5.470
 1484SOL     OW 5350   4.114   5.146   3.808
 1484SOL    HW1 5351   4.041   5.201   3.848
 1484SOL    HW2 5352   4.167   5.201   3.744
 1485SOL     OW 5353   5.387   0.823   3.743
 1485SOL    HW1 5354   5.447   0.818   3.664
 1485SOL    HW2 5355   5.330   0.742   3.747
 1486SOL     OW 5356   4.949   6.732   3.598
 1486SOL    HW1 5357   5.037   6.706   3.559
 1486SOL    HW2 5358   4.963   6.769   3.690
 1487SOL     OW 5359   0.478   0.810   6.599
 1487SOL    HW1 5360   0.548   0.847   6.538
 1487SOL    HW2 5361   0.448   0.881   6.663
 1488SOL     OW 5362   6.106   0.308   3.210
 1488SOL    HW1 5363   6.033   0.265   3.262
 1488SOL    HW2 5364   6.141   0.245   3.141
 1489SOL     OW 5365   4.119   4.633   6.370
 1489SOL    HW1 5366   4.059   4.700   6.413
 1489SOL    HW2 5367   4.194   4.610   6.431
 1490SOL     OW 5368   0.299   3.091   1.256
 1490SOL    HW1 5369   0.342   3.155   1.192
 1490SOL    HW2 5370   0.200   3.094   1.245
 1491SOL     OW 5371   6.916   4.218   2.152
 1491SOL    HW1 5372   6.900   4.207   2.250
 1491SOL    HW2 5373   7.011   4.242   2.136
 1492SOL     OW 5374   6.746   0.307   2.014
 1492SOL    HW1 5375   6.736   0.312   2.114
 1492SOL    HW2 5376   6.658   0.285   1.973
 1493SOL     OW 5377   3.737   1.501   6.477
 1493SOL    HW1 5378   3.638   1.516   6.478
 1493SOL    HW2 5379   3.760   1.416   6.524
 1494SOL     OW 5380   5.339   2.861   6.631
 1494SOL    HW1 5381   5.298   2.774   6.657
 1494SOL    HW2 5382   5.337   2.924   6.709
 1495SOL     OW 5383   6.596   3.636   3.594
 1495SOL    HW1 5384   6.624   3.555   3.542
 1495SOL    HW2 5385   6.677   3.690   3.617
 1496SOL     OW 5386   6.861   0.253   0.220
 1496SOL    HW1 5387   6.809   0.311   0.158
 1496SOL    HW2 5388   6.810   0.169   0.239
 1497SOL     OW 5389   4.975   3.117   2.404
 1497SOL    HW1 5390   5.047   3.184   2.386
 1497SOL    HW2 5391   4.950   3.120   2.501
 1498SOL     OW 5392   2.797   4.549   1.035
 1498SOL    HW1 5393   2.867   4.538   1.106
 1498SOL    HW2 5394   2.810   4.638   0.990
 1499SOL     OW 5395   0.544   3.683   5.778
 1499SOL    HW1 5396   0.556   3.606   5.715
 1499SOL    HW2 5397   0.616   3.750   5.764
 1500SOL     OW 5398   1.295   6.062   6.628
 1500SOL    HW1 5399   1.386   6.024   6.646
 1500SOL    HW2 5400   1.244   6.069   6.714
 1501SOL     OW 5401   6.053   1.838   6.766
 1501SOL    HW1 5402   6.046   1.742   6.739
 1501SOL    HW2 5403   5.962   1.874   6.787
 1502SOL     OW 5404   5.929   1.425   6.428
 1502SOL    HW1 5405   5.890   1.438   6.336
 1502SOL    HW2 5406   6.026   1.449   6.426
 1503SOL     OW 5407   0.982   2.988   2.567
 1503SOL    HW1 5408   0.962   2.891   2.572
 1503SOL    HW2 5409   0.903   3.037   2.530
 1504SOL     OW 5410   0.667   0.024   3.533
 1504SOL    HW1 5411   0.593   0.047   3.596
 1504SOL    HW2 5412   0.627   7.019   3.446
 1505SOL     OW 5413   5.111   6.375   6.026
 1505SOL    HW1 5414   5.136   6.285   6.062
 1505SOL    HW2 5415   5.164   6.393   5.943
 1506SOL     OW 5416   1.294   0.443   0.833
 1506SOL    HW1 5417   1.366   0.493   0.881
 1506SOL    HW2 5418   1.205   0.473   0.867
 1507SOL     OW 5419   0.644   1.497   4.252
 1507SOL    HW1 5420   0.606   1.577   4.204
 1507SOL    HW2 5421   0.576   1.463   4.317
 1508SOL     OW 5422   0.560   1.622   0.876
 1508SOL    HW1 5423   0.565   1.566   0.793
 1508SOL    HW2 5424   0.522   1.568   0.951
 1509SOL     OW 5425   4.989   1.270   5.183
 1509SOL    HW1 5426   4.920   1.281   5.254
 1509SOL    HW2 5427   4.948   1.227   5.102
 1510SOL     OW 5428   4.293   0.051   4.185
 1510SOL    HW1 5429   4.365   0.104   4.229
 1510SOL    HW2 5430   4.333   6.992   4.146
 1511SOL     OW 5431   3.139   3.886   4.017
 1511SOL    HW1 5432   3.180   3.928   3.936
 1511SOL    HW2 5433   3.148   3.948   4.095
 1512SOL     OW 5434   5.902   5.429   1.460
 1512SOL    HW1 5435   5.917   5.337   1.497
 1512SOL    HW2 5436   5.990   5.474   1.445
 1513SOL     OW 5437   3.378   0.127   4.637
 1513SOL    HW1 5438   3.383   0.078   4.724
 1513SOL    HW2 5439   3.362   0.061   4.563
 1514SOL     OW 5440   3.530   2.407   5.615
 1514SOL    HW1 5441   3.499   2.382   5.523
 1514SOL    HW2 5442   3.451   2.412   5.676
 1515SOL     OW 5443   6.440   1.306   2.434
 1515SOL    HW1 5444   6.447   1.403   2.410
 1515SOL    HW2 5445   6.515   1.282   2.496
 1516SOL     OW 5446   5.866   5.783   5.264
 1516SOL    HW1 5447   5.842   5.806   5.169
 1516SOL    HW2 5448   5.826   5.850   5.326
 1517SOL     OW 5449   3.991   6.925   3.149
 1517SOL    HW1 5450   3.946   6.984   3.083
 1517SOL    HW2 5451   3.925   6.899   3.220
 1518SOL     OW 5452   6.272   2.897   0.662
 1518SOL    HW1 5453   6.237   2.880   0.754
 1518SOL    HW2 5454   6.367   2.928   0.668
 1519SOL     OW 5455   7.013   5.174   0.756
 1519SOL    HW1 5456   0.020   5.118   0.832
 1519SOL    HW2 5457   0.062   5.238   0.729
 1520SOL     OW 5458   0.993   4.565   1.816
 1520SOL    HW1 5459   0.905   4.556   1.771
 1520SOL    HW2 5460   1.045   4.481   1.806
 1521SOL     OW 5461   2.034   4.862   0.478
 1521SOL    HW1 5462   1.954   4.921   0.487
 1521SOL    HW2 5463   2.116   4.918   0.472
 1522SOL     OW 5464   5.278   5.121   4.433
 1522SOL    HW1 5465   5.376   5.101   4.440
 1522SOL    HW2 5466   5.226   5.036   4.430
 1523SOL     OW 5467   3.558   6.936   6.944
 1523SOL    HW1 5468   3.477   6.963   6.997
 1523SOL    HW2 5469   3.610   7.017   6.918
 1524SOL     OW 5470   2.859   2.039   2.272
 1524SOL    HW1 5471   2.916   2.055   2.191
 1524SOL    HW2 5472   2.772   2.088   2.262
 1525SOL     OW 5473   6.090   2.353   1.155
 1525SOL    HW1 5474   6.023   2.324   1.223
 1525SOL    HW2 5475   6.182   2.338   1.190
 1526SOL     OW 5476   0.214   1.264   6.681
 1526SOL    HW1 5477   0.172   1.267   6.590
 1526SOL    HW2 5478   0.218   1.356   6.719
 1527SOL     OW 5479   4.082   0.906   4.817
 1527SOL    HW1 5480   4.053   0.810   4.817
 1527SOL    HW2 5481   4.081   0.941   4.723
 1528SOL     OW 5482   4.233   4.834   1.012
 1528SOL    HW1 5483   4.272   4.900   0.948
 1528SOL    HW2 5484   4.287   4.832   1.096
 1529SOL     OW 5485   5.026   1.158   6.810
 1529SOL    HW1 5486   4.981   1.151   6.899
 1529SOL    HW2 5487   4.959   1.149   6.737
 1530SOL     OW 5488   3.295   0.648   1.680
 1530SOL    HW1 5489   3.358   0.667   1.605
 1530SOL    HW2 5490   3.304   0.552   1.708
 1531SOL     OW 5491   4.642   0.708   4.786
 1531SOL    HW1 5492   4.621   0.611   4.800
 1531SOL    HW2 5493   4.565   0.764   4.815
 1532SOL     OW 5494   3.330   4.462   5.593
 1532SOL    HW1 5495   3.295   4.548   5.556
 1532SOL    HW2 5496   3.414   4.437   5.546
 1533SOL     OW 5497   5.645   5.717   0.310
 1533SOL    HW1 5498   5.641   5.648   0.382
 1533SOL    HW2 5499   5.704   5.685   0.236
 1534SOL     OW 5500   3.879   5.562   6.781
 1534SOL    HW1 5501   3.961   5.544   6.836
 1534SOL    HW2 5502   3.905   5.570   6.685
 1535SOL     OW 5503   5.372   6.043   4.914
 1535SOL    HW1 5504   5.367   6.116   4.845
 1535SOL    HW2 5505   5.461   5.998   4.909
 1536SOL     OW 5506   3.870   5.158   0.262
 1536SOL    HW1 5507   3.907   5.210   0.186
 1536SOL    HW2 5508   3.774   5.182   0.275
 1537SOL     OW 5509   3.966   5.886   3.395
 1537SOL    HW1 5510   3.951   5.944   3.315
 1537SOL    HW2 5511   4.050   5.833   3.383
 1538SOL     OW 5512   3.106   0.709   6.972
 1538SOL    HW1 5513   3.167   0.788   6.972
 1538SOL    HW2 5514   3.016   0.736   7.006
 1539SOL     OW 5515   4.915   3.259   2.174
 1539SOL    HW1 5516   4.842   3.231   2.112
 1539SOL    HW2 5517   4.895   3.225   2.266
 1540SOL     OW 5518   1.158   6.987   5.220
 1540SOL    HW1 5519   1.247   6.955   5.189
 1540SOL    HW2 5520   1.155   6.990   5.320
 1541SOL     OW 5521   3.294   3.299   4.291
 1541SOL    HW1 5522   3.249   3.228   4.345
 1541SOL    HW2 5523   3.297   3.271   4.195
 1542SOL     OW 5524   6.399   6.705   1.771
 1542SOL    HW1 5525   6.352   6.687   1.858
 1542SOL    HW2 5526   6.470   6.774   1.785
 1543SOL     OW 5527   3.920   5.100   6.221
 1543SOL    HW1 5528   3.828   5.074   6.193
 1543SOL    HW2 5529   3.947   5.044   6.300
 1544SOL     OW 5530   2.970   3.875   3.722
 1544SOL    HW1 5531   3.040   3.938   3.758
 1544SOL    HW2 5532   2.898   3.864   3.789
 1545SOL     OW 5533   6.155   0.995   2.704
 1545SOL    HW1 5534   6.150   1.013   2.606
 1545SOL    HW2 5535   6.150   0.897   2.721
 1546SOL     OW 5536   5.401   5.858   5.961
 1546SOL    HW1 5537   5.326   5.829   6.020
 1546SOL    HW2 5538   5.419   5.788   5.892
 1547SOL     OW 5539   1.826   3.778   1.363
 1547SOL    HW1 5540   1.837   3.875   1.384
 1547SOL    HW2 5541   1.813   3.727   1.447
 1548SOL     OW 5542   5.698   3.465   0.131
 1548SOL    HW1 5543   5.638   3.541   0.154
 1548SOL    HW2 5544   5.679   3.387   0.192
 1549SOL     OW 5545   4.480   1.336   3.630
 1549SOL    HW1 5546   4.531   1.284   3.562
 1549SOL    HW2 5547   4.526   1.330   3.719
 1550SOL     OW 5548   2.983   3.276   1.508
 1550SOL    HW1 5549   2.993   3.363   1.557
 1550SOL    HW2 5550   3.018   3.202   1.565
 1551SOL     OW 5551   1.266   5.373   6.870
 1551SOL    HW1 5552   1.265   5.318   6.786
 1551SOL    HW2 5553   1.360   5.396   6.893
 1552SOL     OW 5554   1.633   5.411   0.736
 1552SOL    HW1 5555   1.699   5.388   0.808
 1552SOL    HW2 5556   1.580   5.491   0.763
 1553SOL     OW 5557   6.964   1.518   6.639
 1553SOL    HW1 5558   6.929   1.435   6.684
 1553SOL    HW2 5559   6.977   1.590   6.706
 1554SOL     OW 5560   2.853   2.314   3.551
 1554SOL    HW1 5561   2.780   2.353   3.607
 1554SOL    HW2 5562   2.828   2.322   3.454
 1555SOL     OW 5563   6.100   3.206   6.782
 1555SOL    HW1 5564   6.003   3.197   6.759
 1555SOL    HW2 5565   6.126   3.134   6.846
 1556SOL     OW 5566   1.860   1.294   5.822
 1556SOL    HW1 5567   1.764   1.288   5.797
 1556SOL    HW2 5568   1.916   1.296   5.738
 1557SOL     OW 5569   2.019   3.947   5.877
 1557SOL    HW1 5570   1.937   3.984   5.921
 1557SOL    HW2 5571   2.072   4.022   5.838
 1558SOL     OW 5572   6.351   0.377   4.160
 1558SOL    HW1 5573   6.390   0.461   4.123
 1558SOL    HW2 5574   6.270   0.399   4.214
 1559SOL     OW 5575   1.552   3.355   6.416
 1559SOL    HW1 5576   1.506   3.441   6.393
 1559SOL    HW2 5577   1.650   3.371   6.429
 1560SOL     OW 5578   0.366   0.571   6.520
 1560SOL    HW1 5579   0.432   0.500   6.492
 1560SOL    HW2 5580   0.414   0.644   6.569
 1561SOL     OW 5581   4.955   6.240   3.585
 1561SOL    HW1 5582   4.939   6.339   3.587
 1561SOL    HW2 5583   5.011   6.217   3.505
 1562SOL     OW 5584   4.401   6.272   2.349
 1562SOL    HW1 5585   4.402   6.371   2.361
 1562SOL    HW2 5586   4.435   6.248   2.258
 1563SOL     OW 5587   2.931   0.463   5.590
 1563SOL    HW1 5588   3.010   0.401   5.595
 1563SOL    HW2 5589   2.963   0.555   5.569
 1564SOL     OW 5590   1.402   0.373   3.209
 1564SOL    HW1 5591   1.469   0.365   3.282
 1564SOL    HW2 5592   1.312   0.344   3.243
 1565SOL     OW 5593   4.745   4.276   2.735
 1565SOL    HW1 5594   4.669   4.236   2.684
 1565SOL    HW2 5595   4.831   4.246   2.694
 1566SOL     OW 5596   5.722   3.463   3.107
 1566SOL    HW1 5597   5.724   3.364   3.088
 1566SOL    HW2 5598   5.808   3.491   3.149
 1567SOL     OW 5599   6.013   6.043   6.854
 1567SOL    HW1 5600   5.940   6.027   6.787
 1567SOL    HW2 5601   5.977   6.032   6.946
 1568SOL     OW 5602   1.650   0.151   0.514
 1568SOL    HW1 5603   1.594   0.162   0.597
 1568SOL    HW2 5604   1.597   0.181   0.434
 1569SOL     OW 5605   4.545   5.957   3.660
 1569SOL    HW1 5606   4.486   6.021   3.610
 1569SOL    HW2 5607   4.614   6.009   3.710
 1570SOL     OW 5608   2.722   1.044   0.944
 1570SOL    HW1 5609   2.718   1.037   1.044
 1570SOL    HW2 5610   2.684   0.962   0.903
 1571SOL     OW 5611   5.809   3.586   1.010
 1571SOL    HW1 5612   5.765   3.646   1.078
 1571SOL    HW2 5613   5.879   3.531   1.055
 1572SOL     OW 5614   0.276   0.797   2.817
 1572SOL    HW1 5615   0.196   0.743   2.845
 1572SOL    HW2 5616   0.359   0.757   2.856
 1573SOL     OW 5617   5.194   0.762   1.945
 1573SOL    HW1 5618   5.128   0.693   1.916
 1573SOL    HW2 5619   5.146   0.847   1.968
 1574SOL     OW 5620   0.494   2.272   1.315
 1574SOL    HW1 5621   0.582   2.318   1.317
 1574SOL    HW2 5622   0.442   2.303   1.235
 1575SOL     OW 5623   2.740   1.987   0.409
 1575SOL    HW1 5624   2.662   1.926   0.395
 1575SOL    HW2 5625   2.708   2.073   0.448
 1576SOL     OW 5626   6.279   6.269   4.394
 1576SOL    HW1 5627   6.268   6.345   4.330
 1576SOL    HW2 5628   6.369   6.227   4.382
 1577SOL     OW 5629   2.263   1.575   4.909
 1577SOL    HW1 5630   2.343   1.634   4.919
 1577SOL    HW2 5631   2.293   1.481   4.895
 1578SOL     OW 5632   5.701   3.455   5.426
 1578SOL    HW1 5633   5.655   3.366   5.432
 1578SOL    HW2 5634   5.634   3.525   5.401
 1579SOL     OW 5635   0.368   1.463   3.337
 1579SOL    HW1 5636   0.334   1.451   3.431
 1579SOL    HW2 5637   0.347   1.381   3.284
 1580SOL     OW 5638   2.667   3.862   5.244
 1580SOL    HW1 5639   2.714   3.847   5.157
 1580SOL    HW2 5640   2.579   3.906   5.227
 1581SOL     OW 5641   6.755   4.388   4.192
 1581SOL    HW1 5642   6.766   4.485   4.215
 1581SOL    HW2 5643   6.842   4.351   4.162
 1582SOL     OW 5644   0.987   5.282   4.359
 1582SOL    HW1 5645   0.939   5.195   4.349
 1582SOL    HW2 5646   0.986   5.331   4.272
 1583SOL     OW 5647   1.782   2.680   4.089
 1583SOL    HW1 5648   1.819   2.702   3.998
 1583SOL    HW2 5649   1.809   2.752   4.153
 1584SOL     OW 5650   2.148   6.669   5.077
 1584SOL    HW1 5651   2.146   6.658   4.977
 1584SOL    HW2 5652   2.059   6.701   5.109
 1585SOL     OW 5653   5.250   2.025   3.398
 1585SOL    HW1 5654   5.333   2.037   3.452
 1585SOL    HW2 5655   5.198   1.947   3.432
 1586SOL     OW 5656   4.065   3.749   1.975
 1586SOL    HW1 5657   4.069   3.797   1.887
 1586SOL    HW2 5658   4.010   3.802   2.039
 1587SOL     OW 5659   2.610   5.365   6.183
 1587SOL    HW1 5660   2.655   5.346   6.270
 1587SOL    HW2 5661   2.513   5.341   6.189
 1588SOL     OW 5662   4.772   1.971   3.160
 1588SOL    HW1 5663   4.811   1.959   3.251
 1588SOL    HW2 5664   4.716   1.891   3.137
 1589SOL     OW 5665   5.739   3.572   3.526
 1589SOL    HW1 5666   5.693   3.609   3.446
 1589SOL    HW2 5667   5.827   3.532   3.498
 1590SOL     OW 5668   1.407   6.526   6.776
 1590SOL    HW1 5669   1.333   6.463   6.800
 1590SOL    HW2 5670   1.488   6.504   6.830
 1591SOL     OW 5671   0.893   4.845   2.647
 1591SOL    HW1 5672   0.974   4.798   2.684
 1591SOL    HW2 5673   0.850   4.787   2.578
 1592SOL     OW 5674   2.935   3.628   1.214
 1592SOL    HW1 5675   2.910   3.599   1.306
 1592SOL    HW2 5676   2.917   3.554   1.149
 1593SOL     OW 5677   0.845   6.115   4.787
 1593SOL    HW1 5678   0.907   6.181   4.745
 1593SOL    HW2 5679   0.887   6.024   4.786
 1594SOL     OW 5680   0.256   5.542   3.130
 1594SOL    HW1 5681   0.241   5.492   3.045
 1594SOL    HW2 5682   0.219   5.488   3.206
 1595SOL     OW 5683   0.175   4.762   6.548
 1595SOL    HW1 5684   0.126   4.731   6.467
 1595SOL    HW2 5685   0.147   4.707   6.627
 1596SOL     OW 5686   1.511   4.229   5.158
 1596SOL    HW1 5687   1.556   4.140   5.153
 1596SOL    HW2 5688   1.510   4.261   5.253
 1597SOL     OW 5689   2.648   5.943   1.008
 1597SOL    HW1 5690   2.692   5.909   1.090
 1597SOL    HW2 5691   2.602   6.030   1.028
 1598SOL     OW 5692   0.602   3.815   0.519
 1598SOL    HW1 5693   0.516   3.809   0.469
 1598SOL    HW2 5694   0.645   3.904   0.501
 1599SOL     OW 5695   4.514   3.640   6.125
 1599SOL    HW1 5696   4.556   3.654   6.035
 1599SOL    HW2 5697   4.500   3.542   6.139
 1600SOL     OW 5698   5.214   1.489   4.906
 1600SOL    HW1 5699   5.165   1.534   4.981
 1600SOL    HW2 5700   5.248   1.400   4.937
 1601SOL     OW 5701   2.058   4.588   4.131
 1601SOL    HW1 5702   2.036   4.586   4.228
 1601SOL    HW2 5703   1.975   4.601   4.078
 1602SOL     OW 5704   1.660   5.728   3.388
 1602SOL    HW1 5705   1.706   5.693   3.470
 1602SOL    HW2 5706   1.727   5.740   3.315
 1603SOL     OW 5707   1.381   6.634   2.086
 1603SOL    HW1 5708   1.299   6.577   2.077
 1603SOL    HW2 5709   1.384   6.674   2.178
 1604SOL     OW 5710   5.853   5.119   6.637
 1604SOL    HW1 5711   5.757   5.146   6.647
 1604SOL    HW2 5712   5.860   5.043   6.572
 1605SOL     OW 5713   6.528   0.126   2.418
 1605SOL    HW1 5714   6.599   0.191   2.389
 1605SOL    HW2 5715   6.520   0.054   2.350
 1606SOL     OW 5716   4.573   0.622   5.526
 1606SOL    HW1 5717   4.483   0.602   5.486
 1606SOL    HW2 5718   4.644   0.587   5.466
 1607SOL     OW 5719   4.785   2.802   0.907
 1607SOL    HW1 5720   4.858   2.763   0.963
 1607SOL    HW2 5721   4.810   2.894   0.878
 1608SOL     OW 5722   1.689   0.117   6.462
 1608SOL    HW1 5723   1.778   0.072   6.453
 1608SOL    HW2 5724   1.697   0.213   6.436
 1609SOL     OW 5725   6.156   2.308   6.112
 1609SOL    HW1 5726   6.241   2.349   6.143
 1609SOL    HW2 5727   6.085   2.322   6.182
 1610SOL     OW 5728   5.732   4.495   4.731
 1610SOL    HW1 5729   5.747   4.406   4.688
 1610SOL    HW2 5730   5.675   4.484   4.812
 1611SOL     OW 5731   3.627   3.090   2.182
 1611SOL    HW1 5732   3.566   3.026   2.136
 1611SOL    HW2 5733   3.573   3.152   2.239
 1612SOL     OW 5734   2.090   1.639   5.355
 1612SOL    HW1 5735   2.125   1.602   5.270
 1612SOL    HW2 5736   2.020   1.578   5.393
 1613SOL     OW 5737   2.095   5.993   0.998
 1613SOL    HW1 5738   2.130   6.064   1.060
 1613SOL    HW2 5739   2.052   5.921   1.052
 1614SOL     OW 5740   6.795   3.483   0.069
 1614SOL    HW1 5741   6.760   3.429   7.017
 1614SOL    HW2 5742   6.743   3.568   0.076
 1615SOL     OW 5743   0.012   4.825   0.565
 1615SOL    HW1 5744   0.037   4.745   0.510
 1615SOL    HW2 5745   7.007   4.795   0.656
 1616SOL     OW 5746   4.248   2.196   6.695
 1616SOL    HW1 5747   4.289   2.229   6.780
 1616SOL    HW2 5748   4.235   2.097   6.701
 1617SOL     OW 5749   6.252   0.244   2.425
 1617SOL    HW1 5750   6.336   0.201   2.459
 1617SOL    HW2 5751   6.242   0.224   2.328
 1618SOL     OW 5752   0.176   3.539   1.649
 1618SOL    HW1 5753   0.236   3.613   1.679
 1618SOL    HW2 5754   0.224   3.480   1.585
 1619SOL     OW 5755   1.044   3.521   4.413
 1619SOL    HW1 5756   1.089   3.433   4.430
 1619SOL    HW2 5757   0.959   3.506   4.364
 1620SOL     OW 5758   2.041   5.958   0.454
 1620SOL    HW1 5759   2.047   6.055   0.478
 1620SOL    HW2 5760   2.121   5.931   0.401
 1621SOL     OW 5761   0.717   0.674   6.668
 1621SOL    HW1 5762   0.727   0.624   6.754
 1621SOL    HW2 5763   0.620   0.697   6.654
 1622SOL     OW 5764   1.338   1.912   4.548
 1622SOL    HW1 5765   1.303   1.992   4.597
 1622SOL    HW2 5766   1.341   1.834   4.610
 1623SOL     OW 5767   2.773   2.732   6.355
 1623SOL    HW1 5768   2.846   2.789   6.390
 1623SOL    HW2 5769   2.725   2.780   6.281
 1624SOL     OW 5770   2.485   0.861   6.616
 1624SOL    HW1 5771   2.422   0.907   6.554
 1624SOL    HW2 5772   2.547   0.929   6.657
 1625SOL     OW 5773   1.380   5.266   1.773
 1625SOL    HW1 5774   1.348   5.177   1.739
 1625SOL    HW2 5775   1.450   5.252   1.843
 1626SOL     OW 5776   2.343   2.464   0.061
 1626SOL    HW1 5777   2.397   2.449   7.003
 1626SOL    HW2 5778   2.404   2.478   0.139
 1627SOL     OW 5779   6.341   1.849   4.238
 1627SOL    HW1 5780   6.276   1.905   4.188
 1627SOL    HW2 5781   6.427   1.843   4.187
 1628SOL     OW 5782   3.375   4.954   0.233
 1628SOL    HW1 5783   3.394   5.020   0.161
 1628SOL    HW2 5784   3.374   4.862   0.194
 1629SOL     OW 5785   3.147   2.139   4.423
 1629SOL    HW1 5786   3.169   2.097   4.334
 1629SOL    HW2 5787   3.222   2.121   4.487
 1630SOL     OW 5788   0.649   5.845   5.244
 1630SOL    HW1 5789   0.609   5.927   5.285
 1630SOL    HW2 5790   0.713   5.803   5.309
 1631SOL     OW 5791   6.816   0.245   5.755
 1631SOL    HW1 5792   6.759   0.327   5.741
 1631SOL    HW2 5793   6.912   0.270   5.749
 1632SOL     OW 5794   0.571   0.972   6.881
 1632SOL    HW1 5795   0.503   0.998   6.812
 1632SOL    HW2 5796   0.619   1.054   6.913
 1633SOL     OW 5797   5.734   2.742   2.599
 1633SOL    HW1 5798   5.712   2.726   2.502
 1633SOL    HW2 5799   5.651   2.732   2.654
 1634SOL     OW 5800   4.078   5.401   6.481
 1634SOL    HW1 5801   4.101   5.325   6.421
 1634SOL    HW2 5802   3.998   5.449   6.445
 1635SOL     OW 5803   6.570   5.646   4.823
 1635SOL    HW1 5804   6.551   5.617   4.729
 1635SOL    HW2 5805   6.595   5.566   4.878
 1636SOL     OW 5806   2.786   5.055   1.580
 1636SOL    HW1 5807   2.816   5.106   1.662
 1636SOL    HW2 5808   2.782   4.958   1.602
 1637SOL     OW 5809   0.021   2.442   2.792
 1637SOL    HW1 5810   7.015   2.422   2.699
 1637SOL    HW2 5811   0.058   2.535   2.795
 1638SOL     OW 5812   6.704   2.895   3.881
 1638SOL    HW1 5813   6.613   2.933   3.862
 1638SOL    HW2 5814   6.733   2.838   3.804
 1639SOL     OW 5815   5.481   5.360   2.936
 1639SOL    HW1 5816   5.548   5.311   2.880
 1639SOL    HW2 5817   5.505   5.351   3.033
 1640SOL     OW 5818   5.933   2.025   0.454
 1640SOL    HW1 5819   5.838   2.025   0.486
 1640SOL    HW2 5820   5.934   2.024   0.354
 1641SOL     OW 5821   5.471   3.212   3.556
 1641SOL    HW1 5822   5.543   3.223   3.488
 1641SOL    HW2 5823   5.384   3.241   3.518
 1642SOL     OW 5824   7.013   3.374   0.209
 1642SOL    HW1 5825   0.037   3.309   0.151
 1642SOL    HW2 5826   6.936   3.413   0.158
 1643SOL     OW 5827   3.673   6.754   4.894
 1643SOL    HW1 5828   3.671   6.838   4.948
 1643SOL    HW2 5829   3.768   6.723   4.884
 1644SOL     OW 5830   3.086   2.240   1.591
 1644SOL    HW1 5831   3.079   2.148   1.554
 1644SOL    HW2 5832   3.170   2.249   1.644
 1645SOL     OW 5833   3.033   6.252   5.930
 1645SOL    HW1 5834   2.942   6.293   5.923
 1645SOL    HW2 5835   3.070   6.237   5.838
 1646SOL     OW 5836   2.994   5.210   1.273
 1646SOL    HW1 5837   2.998   5.220   1.173
 1646SOL    HW2 5838   2.899   5.216   1.303
 1647SOL     OW 5839   6.031   2.759   3.286
 1647SOL    HW1 5840   5.981   2.834   3.328
 1647SOL    HW2 5841   6.060   2.694   3.356
 1648SOL     OW 5842   5.525   6.736   2.226
 1648SOL    HW1 5843   5.577   6.696   2.301
 1648SOL    HW2 5844   5.584   6.744   2.145
 1649SOL     OW 5845   3.015   0.450   2.705
 1649SOL    HW1 5846   2.978   0.541   2.726
 1649SOL    HW2 5847   3.083   0.457   2.632
 1650SOL     OW 5848   3.087   6.812   4.035
 1650SOL    HW1 5849   3.159   6.809   3.966
 1650SOL    HW2 5850   3.102   6.890   4.096
 1651SOL     OW 5851   0.504   0.289   0.378
 1651SOL    HW1 5852   0.440   0.305   0.303
 1651SOL    HW2 5853   0.462   0.226   0.444
 1652SOL     OW 5854   2.750   1.881   0.821
 1652SOL    HW1 5855   2.731   1.872   0.918
 1652SOL    HW2 5856   2.820   1.952   0.807
 1653SOL     OW 5857   6.981   5.107   1.191
 1653SOL    HW1 5858   6.973   5.099   1.092
 1653SOL    HW2 5859   7.022   5.196   1.214
 1654SOL     OW 5860   6.737   3.082   2.411
 1654SOL    HW1 5861   6.672   3.159   2.412
 1654SOL    HW2 5862   6.686   2.996   2.405
 1655SOL     OW 5863   5.562   4.576   6.265
 1655SOL    HW1 5864   5.588   4.479   6.272
 1655SOL    HW2 5865   5.601   4.615   6.182
 1656SOL     OW 5866   1.824   4.445   3.508
 1656SOL    HW1 5867   1.771   4.413   3.429
 1656SOL    HW2 5868   1.762   4.469   3.582
 1657SOL     OW 5869   1.339   1.008   5.810
 1657SOL    HW1 5870   1.262   0.950   5.837
 1657SOL    HW2 5871   1.347   1.084   5.874
 1658SOL     OW 5872   6.036   6.358   3.067
 1658SOL    HW1 5873   6.020   6.277   3.010
 1658SOL    HW2 5874   6.130   6.356   3.102
 1659SOL     OW 5875   3.464   2.109   6.631
 1659SOL    HW1 5876   3.550   2.069   6.601
 1659SOL    HW2 5877   3.480   2.168   6.710
 1660SOL     OW 5878   0.539   5.184   3.662
 1660SOL    HW1 5879   0.629   5.140   3.661
 1660SOL    HW2 5880   0.546   5.275   3.622
 1661SOL     OW 5881   3.074   1.778   2.383
 1661SOL    HW1 5882   3.097   1.728   2.466
 1661SOL    HW2 5883   2.975   1.786   2.376
 1662SOL     OW 5884   6.387   1.986   3.186
 1662SOL    HW1 5885   6.404   2.019   3.094
 1662SOL    HW2 5886   6.291   2.001   3.210
 1663SOL     OW 5887   3.211   0.191   3.514
 1663SOL    HW1 5888   3.286   0.183   3.448
 1663SOL    HW2 5889   3.126   0.210   3.466
 1664SOL     OW 5890   2.156   0.420   4.452
 1664SOL    HW1 5891   2.250   0.431   4.483
 1664SOL    HW2 5892   2.155   0.396   4.355
 1665SOL     OW 5893   6.950   1.529   2.770
 1665SOL    HW1 5894   6.918   1.467   2.698
 1665SOL    HW2 5895   6.935   1.486   2.859
 1666SOL     OW 5896   6.033   2.859   6.708
 1666SOL    HW1 5897   6.107   2.814   6.659
 1666SOL    HW2 5898   6.042   2.958   6.697
 1667SOL     OW 5899   5.904   6.667   0.194
 1667SOL    HW1 5900   6.004   6.663   0.194
 1667SOL    HW2 5901   5.873   6.721   0.116
 1668SOL     OW 5902   4.602   6.939   4.706
 1668SOL    HW1 5903   4.549   6.869   4.756
 1668SOL    HW2 5904   4.677   6.972   4.764
 1669SOL     OW 5905   5.429   5.911   0.156
 1669SOL    HW1 5906   5.449   5.816   0.181
 1669SOL    HW2 5907   5.448   5.925   0.059
 1670SOL     OW 5908   6.369   5.442   6.039
 1670SOL    HW1 5909   6.303   5.380   6.081
 1670SOL    HW2 5910   6.419   5.394   5.967
 1671SOL     OW 5911   4.351   3.000   1.168
 1671SOL    HW1 5912   4.270   3.005   1.227
 1671SOL    HW2 5913   4.337   2.929   1.098
 1672SOL     OW 5914   2.042   4.577   2.746
 1672SOL    HW1 5915   2.113   4.550   2.811
 1672SOL    HW2 5916   2.040   4.513   2.670
 1673SOL     OW 5917   6.470   2.961   5.137
 1673SOL    HW1 5918   6.461   2.928   5.043
 1673SOL    HW2 5919   6.566   2.980   5.157
 1674SOL     OW 5920   1.239   4.276   0.905
 1674SOL    HW1 5921   1.307   4.212   0.942
 1674SOL    HW2 5922   1.176   4.303   0.977
 1675SOL     OW 5923   4.420   0.719   6.410
 1675SOL    HW1 5924   4.405   0.708   6.312
 1675SOL    HW2 5925   4.366   0.651   6.460
 1676SOL     OW 5926   2.258   1.632   2.193
 1676SOL    HW1 5927   2.297   1.580   2.117
 1676SOL    HW2 5928   2.160   1.644   2.177
 1677SOL     OW 5929   5.976   2.138   5.847
 1677SOL    HW1 5930   5.904   2.086   5.801
 1677SOL    HW2 5931   6.031   2.186   5.778
 1678SOL     OW 5932   5.279   5.469   3.077
 1678SOL    HW1 5933   5.303   5.401   3.147
 1678SOL    HW2 5934   5.312   5.438   2.988
 1679SOL     OW 5935   1.748   3.830   5.341
 1679SOL    HW1 5936   1.705   3.750   5.382
 1679SOL    HW2 5937   1.837   3.804   5.302
 1680SOL     OW 5938   0.935   1.543   4.053
 1680SOL    HW1 5939   0.869   1.468   4.046
 1680SOL    HW2 5940   0.971   1.564   3.962
 1681SOL     OW 5941   6.354   4.938   1.133
 1681SOL    HW1 5942   6.424   4.985   1.188
 1681SOL    HW2 5943   6.382   4.937   1.037
 1682SOL     OW 5944   0.268   3.232   4.895
 1682SOL    HW1 5945   0.207   3.156   4.872
 1682SOL    HW2 5946   0.344   3.234   4.831
 1683SOL     OW 5947   4.278   5.022   0.818
 1683SOL    HW1 5948   4.326   5.054   0.736
 1683SOL    HW2 5949   4.267   5.099   0.882
 1684SOL     OW 5950   0.905   6.576   4.790
 1684SOL    HW1 5951   0.842   6.526   4.850
 1684SOL    HW2 5952   0.951   6.512   4.728
 1685SOL     OW 5953   1.899   1.359   6.591
 1685SOL    HW1 5954   1.973   1.387   6.652
 1685SOL    HW2 5955   1.930   1.362   6.496
 1686SOL     OW 5956   1.360   5.463   5.593
 1686SOL    HW1 5957   1.455   5.493   5.593
 1686SOL    HW2 5958   1.312   5.502   5.671
 1687SOL     OW 5959   1.978   4.371   2.032
 1687SOL    HW1 5960   2.035   4.444   1.994
 1687SOL    HW2 5961   2.035   4.292   2.052
 1688SOL     OW 5962   1.415   1.723   2.993
 1688SOL    HW1 5963   1.393   1.656   2.923
 1688SOL    HW2 5964   1.362   1.705   3.076
 1689SOL     OW 5965   3.400   2.059   2.210
 1689SOL    HW1 5966   3.500   2.061   2.213
 1689SOL    HW2 5967   3.369   2.090   2.120
 1690SOL     OW 5968   1.566   1.804   2.589
 1690SOL    HW1 5969   1.630   1.872   2.553
 1690SOL    HW2 5970   1.615   1.718   2.604
 1691SOL     OW 5971   5.408   3.748   3.255
 1691SOL    HW1 5972   5.447   3.840   3.261
 1691SOL    HW2 5973   5.309   3.753   3.271
 1692SOL     OW 5974   6.846   0.032   1.184
 1692SOL    HW1 5975   6.821   0.078   1.269
 1692SOL    HW2 5976   6.899   6.974   1.204
 1693SOL     OW 5977   1.843   2.762   3.848
 1693SOL    HW1 5978   1.773   2.698   3.816
 1693SOL    HW2 5979   1.931   2.739   3.806
 1694SOL     OW 5980   4.257   6.139   4.699
 1694SOL    HW1 5981   4.253   6.057   4.757
 1694SOL    HW2 5982   4.302   6.213   4.749
 1695SOL     OW 5983   1.972   2.141   5.307
 1695SOL    HW1 5984   1.904   2.109   5.241
 1695SOL    HW2 5985   1.947   2.232   5.339
 1696SOL     OW 5986   4.956   5.470   0.008
 1696SOL    HW1 5987   4.978   5.427   0.095
 1696SOL    HW2 5988   5.013   5.550   7.018
 1697SOL     OW 5989   0.752   6.790   0.955
 1697SOL    HW1 5990   0.775   6.763   1.048
 1697SOL    HW2 5991   0.823   6.760   0.892
 1698SOL     OW 5992   4.802   1.766   1.168
 1698SOL    HW1 5993   4.765   1.674   1.174
 1698SOL    HW2 5994   4.750   1.819   1.100
 1699SOL     OW 5995   2.494   2.422   1.046
 1699SOL    HW1 5996   2.472   2.329   1.075
 1699SOL    HW2 5997   2.547   2.468   1.117
 1700SOL     OW 5998   6.568   2.445   3.356
 1700SOL    HW1 5999   6.544   2.352   3.384
 1700SOL    HW2 6000   6.649   2.443   3.298
 1701SOL     OW 6001   5.548   2.365   4.860
 1701SOL    HW1 6002   5.529   2.267   4.868
 1701SOL    HW2 6003   5.637   2.378   4.816
 1702SOL     OW 6004   6.473   3.602   1.690
 1702SOL    HW1 6005   6.450   3.582   1.785
 1702SOL    HW2 6006   6.569   3.577   1.673
 1703SOL     OW 6007   2.784   3.776   1.645
 1703SOL    HW1 6008   2.812   3.729   1.728
 1703SOL    HW2 6009   2.842   3.856   1.630
 1704SOL     OW 6010   0.787   1.356   0.798
 1704SOL    HW1 6011   0.851   1.356   0.721
 1704SOL    HW2 6012   0.820   1.419   0.869
 1705SOL     OW 6013   3.676   2.316   1.249
 1705SOL    HW1 6014   3.640   2.279   1.335
 1705SOL    HW2 6015   3.628   2.274   1.172
 1706SOL     OW 6016   4.314   0.452   1.330
 1706SOL    HW1 6017   4.275   0.445   1.422
 1706SOL    HW2 6018   4.412   0.469   1.337
 1707SOL     OW 6019   4.381   1.630   2.340
 1707SOL    HW1 6020   4.457   1.650   2.402
 1707SOL    HW2 6021   4.354   1.714   2.293
 1708SOL     OW 6022   6.629   6.122   3.125
 1708SOL    HW1 6023   6.650   6.073   3.041
 1708SOL    HW2 6024   6.581   6.207   3.103
 1709SOL     OW 6025   2.566   6.785   2.615
 1709SOL    HW1 6026   2.611   6.760   2.530
 1709SOL    HW2 6027   2.478   6.829   2.595
 1710SOL     OW 6028   0.225   4.048   3.602
 1710SOL    HW1 6029   0.234   3.966   3.659
 1710SOL    HW2 6030   0.239   4.023   3.506
 1711SOL     OW 6031   1.589   4.528   5.222
 1711SOL    HW1 6032   1.505   4.573   5.192
 1711SOL    HW2 6033   1.644   4.503   5.142
 1712SOL     OW 6034   0.746   4.223   0.014
 1712SOL    HW1 6035   0.793   4.172   6.967
 1712SOL    HW2 6036   0.811   4.243   0.088
 1713SOL     OW 6037   1.877   2.511   1.401
 1713SOL    HW1 6038   1.864   2.462   1.487
 1713SOL    HW2 6039   1.938   2.589   1.417
 1714SOL     OW 6040   3.805   1.967   6.837
 1714SOL    HW1 6041   3.878   1.910   6.873
 1714SOL    HW2 6042   3.716   1.932   6.867
 1715SOL     OW 6043   0.037   2.944   3.646
 1715SOL    HW1 6044   6.964   2.923   3.632
 1715SOL    HW2 6045   0.086   2.860   3.669
 1716SOL     OW 6046   6.050   0.254   1.288
 1716SOL    HW1 6047   5.954   0.251   1.316
 1716SOL    HW2 6048   6.069   0.342   1.245
 1717SOL     OW 6049   2.321   5.984   6.997
 1717SOL    HW1 6050   2.317   5.896   6.951
 1717SOL    HW2 6051   2.391   5.981   0.045
 1718SOL     OW 6052   2.275   3.300   0.161
 1718SOL    HW1 6053   2.185   3.316   0.120
 1718SOL    HW2 6054   2.341   3.365   0.123
 1719SOL     OW 6055   2.022   3.116   1.373
 1719SOL    HW1 6056   2.081   3.149   1.299
 1719SOL    HW2 6057   2.053   3.155   1.460
 1720SOL     OW 6058   6.579   1.860   1.070
 1720SOL    HW1 6059   6.547   1.945   1.028
 1720SOL    HW2 6060   6.596   1.792   0.999
 1721SOL     OW 6061   1.398   6.080   2.905
 1721SOL    HW1 6062   1.422   6.141   2.980
 1721SOL    HW2 6063   1.440   6.113   2.821
 1722SOL     OW 6064   5.801   0.192   2.749
 1722SOL    HW1 6065   5.721   0.142   2.715
 1722SOL    HW2 6066   5.807   0.280   2.702
 1723SOL     OW 6067   6.093   2.651   3.029
 1723SOL    HW1 6068   6.014   2.650   2.967
 1723SOL    HW2 6069   6.071   2.707   3.109
 1724SOL     OW 6070   5.924   0.841   0.156
 1724SOL    HW1 6071   5.879   0.925   0.187
 1724SOL    HW2 6072   5.878   0.807   0.075
 1725SOL     OW 6073   3.465   4.426   0.057
 1725SOL    HW1 6074   3.481   4.329   0.071
 1725SOL    HW2 6075   3.445   4.443   6.984
 1726SOL     OW 6076   6.655   4.634   4.804
 1726SOL    HW1 6077   6.622   4.697   4.733
 1726SOL    HW2 6078   6.696   4.687   4.878
 1727SOL     OW 6079   3.922   3.809   4.723
 1727SOL    HW1 6080   3.932   3.714   4.751
 1727SOL    HW2 6081   3.992   3.831   4.655
 1728SOL     OW 6082   4.782   4.511   4.451
 1728SOL    HW1 6083   4.881   4.522   4.438
 1728SOL    HW2 6084   4.741   4.479   4.366
 1729SOL     OW 6085   1.717   3.944   3.205
 1729SOL    HW1 6086   1.648   3.873   3.198
 1729SOL    HW2 6087   1.797   3.920   3.149
 1730SOL     OW 6088   6.653   1.360   4.897
 1730SOL    HW1 6089   6.585   1.399   4.835
 1730SOL    HW2 6090   6.731   1.325   4.845
 1731SOL     OW 6091   2.087   4.874   1.911
 1731SOL    HW1 6092   2.178   4.850   1.945
 1731SOL    HW2 6093   2.096   4.920   1.823
 1732SOL     OW 6094   2.307   4.694   0.188
 1732SOL    HW1 6095   2.250   4.719   0.109
 1732SOL    HW2 6096   2.279   4.603   0.220
 1733SOL     OW 6097   1.430   3.943   2.446
 1733SOL    HW1 6098   1.520   3.969   2.482
 1733SOL    HW2 6099   1.438   3.858   2.395
 1734SOL     OW 6100   4.559   2.963   1.361
 1734SOL    HW1 6101   4.532   2.965   1.265
 1734SOL    HW2 6102   4.478   2.972   1.419
 1735SOL     OW 6103   5.900   5.917   1.382
 1735SOL    HW1 6104   5.999   5.919   1.392
 1735SOL    HW2 6105   5.863   5.836   1.429
 1736SOL     OW 6106   4.821   2.775   6.937
 1736SOL    HW1 6107   4.844   2.870   6.960
 1736SOL    HW2 6108   4.884   2.742   6.866
 1737SOL     OW 6109   2.170   6.921   3.739
 1737SOL    HW1 6110   2.258   6.889   3.774
 1737SOL    HW2 6111   2.153   6.881   3.649
 1738SOL     OW 6112   2.026   2.784   3.125
 1738SOL    HW1 6113   1.987   2.717   3.188
 1738SOL    HW2 6114   2.057   2.739   3.042
 1739SOL     OW 6115   4.409   2.385   4.928
 1739SOL    HW1 6116   4.462   2.466   4.905
 1739SOL    HW2 6117   4.326   2.412   4.976
 1740SOL     OW 6118   6.742   1.118   6.535
 1740SOL    HW1 6119   6.661   1.172   6.513
 1740SOL    HW2 6120   6.820   1.179   6.552
 1741SOL     OW 6121   2.204   0.828   2.743
 1741SOL    HW1 6122   2.214   0.740   2.789
 1741SOL    HW2 6123   2.173   0.897   2.808
 1742SOL     OW 6124   5.049   6.787   5.879
 1742SOL    HW1 6125   5.115   6.861   5.887
 1742SOL    HW2 6126   4.957   6.824   5.879
 1743SOL     OW 6127   1.735   1.139   1.838
 1743SOL    HW1 6128   1.753   1.235   1.858
 1743SOL    HW2 6129   1.691   1.096   1.918
 1744SOL     OW 6130   2.109   0.567   1.620
 1744SOL    HW1 6131   2.097   0.621   1.704
 1744SOL    HW2 6132   2.020   0.552   1.577
 1745SOL     OW 6133   6.681   1.728   4.038
 1745SOL    HW1 6134   6.680   1.662   4.114
 1745SOL    HW2 6135   6.669   1.820   4.074
 1746SOL     OW 6136   2.788   6.035   6.183
 1746SOL    HW1 6137   2.882   6.061   6.160
 1746SOL    HW2 6138   2.785   5.999   6.276
 1747SOL     OW 6139   5.101   6.893   1.826
 1747SOL    HW1 6140   5.186   6.947   1.828
 1747SOL    HW2 6141   5.037   6.930   1.893
 1748SOL     OW 6142   6.260   1.624   3.834
 1748SOL    HW1 6143   6.222   1.556   3.771
 1748SOL    HW2 6144   6.202   1.706   3.833
 1749SOL     OW 6145   3.713   6.667   6.215
 1749SOL    HW1 6146   3.789   6.603   6.226
 1749SOL    HW2 6147   3.649   6.632   6.147
 1750SOL     OW 6148   5.284   1.343   2.801
 1750SOL    HW1 6149   5.370   1.292   2.791
 1750SOL    HW2 6150   5.242   1.321   2.889
 1751SOL     OW 6151   2.659   4.725   4.638
 1751SOL    HW1 6152   2.617   4.678   4.715
 1751SOL    HW2 6153   2.635   4.679   4.553
 1752SOL     OW 6154   6.568   2.271   0.656
 1752SOL    HW1 6155   6.633   2.199   0.630
 1752SOL    HW2 6156   6.619   2.354   0.680
 1753SOL     OW 6157   0.536   0.245   7.009
 1753SOL    HW1 6158   0.634   0.249   6.990
 1753SOL    HW2 6159   0.496   0.168   6.960
 1754SOL     OW 6160   3.528   3.749   0.668
 1754SOL    HW1 6161   3.522   3.743   0.568
 1754SOL    HW2 6162   3.517   3.844   0.696
 1755SOL     OW 6163   5.207   4.696   1.785
 1755SOL    HW1 6164   5.111   4.715   1.808
 1755SOL    HW2 6165   5.238   4.760   1.715
 1756SOL     OW 6166   6.153   5.131   4.775
 1756SOL    HW1 6167   6.092   5.197   4.731
 1756SOL    HW2 6168   6.099   5.051   4.804
 1757SOL     OW 6169   1.896   6.729   4.898
 1757SOL    HW1 6170   1.874   6.744   4.994
 1757SOL    HW2 6171   1.960   6.799   4.866
 1758SOL     OW 6172   2.976   1.169   3.350
 1758SOL    HW1 6173   3.041   1.093   3.352
 1758SOL    HW2 6174   3.010   1.240   3.289
 1759SOL     OW 6175   0.447   4.651   6.365
 1759SOL    HW1 6176   0.542   4.655   6.334
 1759SOL    HW2 6177   0.405   4.741   6.354
 1760SOL     OW 6178   6.179   1.653   1.376
 1760SOL    HW1 6179   6.096   1.701   1.348
 1760SOL    HW2 6180   6.257   1.716   1.372
 1761SOL     OW 6181   6.610   0.581   0.795
 1761SOL    HW1 6182   6.591   0.625   0.707
 1761SOL    HW2 6183   6.577   0.487   0.792
 1762SOL     OW 6184   6.307   2.004   5.383
 1762SOL    HW1 6185   6.346   2.019   5.473
 1762SOL    HW2 6186   6.335   2.078   5.322
 1763SOL     OW 6187   1.988   3.894   4.312
 1763SOL    HW1 6188   2.078   3.937   4.304
 1763SOL    HW2 6189   1.928   3.953   4.366
 1764SOL     OW 6190   1.978   4.031   2.653
 1764SOL    HW1 6191   2.078   4.037   2.656
 1764SOL    HW2 6192   1.950   3.940   2.624
 1765SOL     OW 6193   3.246   1.230   6.995
 1765SOL    HW1 6194   3.147   1.220   6.984
 1765SOL    HW2 6195   3.265   1.283   0.053
 1766SOL     OW 6196   5.632   2.614   4.655
 1766SOL    HW1 6197   5.578   2.655   4.729
 1766SOL    HW2 6198   5.690   2.542   4.693
 1767SOL     OW 6199   5.240   4.101   2.739
 1767SOL    HW1 6200   5.294   4.126   2.659
 1767SOL    HW2 6201   5.216   4.004   2.733
 1768SOL     OW 6202   4.407   0.169   4.815
 1768SOL    HW1 6203   4.473   0.187   4.743
 1768SOL    HW2 6204   4.321   0.136   4.775
 1769SOL     OW 6205   4.050   2.192   4.320
 1769SOL    HW1 6206   4.077   2.137   4.399
 1769SOL    HW2 6207   4.129   2.206   4.260
 1770SOL     OW 6208   1.600   5.679   4.536
 1770SOL    HW1 6209   1.588   5.728   4.622
 1770SOL    HW2 6210   1.511   5.653   4.500
 1771SOL     OW 6211   2.602   5.738   6.888
 1771SOL    HW1 6212   2.520   5.721   6.833
 1771SOL    HW2 6213   2.610   5.836   6.907
 1772SOL     OW 6214   3.483   0.340   4.038
 1772SOL    HW1 6215   3.575   0.365   4.007
 1772SOL    HW2 6216   3.438   0.420   4.078
 1773SOL     OW 6217   2.745   5.302   5.729
 1773SOL    HW1 6218   2.654   5.326   5.694
 1773SOL    HW2 6219   2.758   5.342   5.819
 1774SOL     OW 6220   4.411   5.672   1.829
 1774SOL    HW1 6221   4.485   5.624   1.876
 1774SOL    HW2 6222   4.442   5.700   1.738
 1775SOL     OW 6223   1.459   3.915   3.018
 1775SOL    HW1 6224   1.372   3.869   3.034
 1775SOL    HW2 6225   1.445   4.014   3.017
 1776SOL     OW 6226   3.682   6.315   4.554
 1776SOL    HW1 6227   3.648   6.225   4.582
 1776SOL    HW2 6228   3.782   6.315   4.554
 1777SOL     OW 6229   3.822   5.556   6.465
 1777SOL    HW1 6230   3.838   5.640   6.412
 1777SOL    HW2 6231   3.723   5.543   6.476
 1778SOL     OW 6232   4.389   3.600   5.754
 1778SOL    HW1 6233   4.482   3.582   5.787
 1778SOL    HW2 6234   4.379   3.562   5.662
 1779SOL     OW 6235   4.494   0.453   4.754
 1779SOL    HW1 6236   4.406   0.425   4.715
 1779SOL    HW2 6237   4.552   0.373   4.767
 1780SOL     OW 6238   3.559   2.949   6.923
 1780SOL    HW1 6239   3.658   2.935   6.931
 1780SOL    HW2 6240   3.515   2.917   7.007
 1781SOL     OW 6241   3.937   5.946   2.536
 1781SOL    HW1 6242   3.988   6.018   2.583
 1781SOL    HW2 6243   3.880   5.986   2.465
 1782SOL     OW 6244   2.955   1.459   2.916
 1782SOL    HW1 6245   2.986   1.401   2.840
 1782SOL    HW2 6246   2.886   1.524   2.883
 1783SOL     OW 6247   2.048   5.909   5.959
 1783SOL    HW1 6248   2.054   5.992   5.904
 1783SOL    HW2 6249   2.128   5.903   6.019
 1784SOL     OW 6250   3.992   1.318   6.289
 1784SOL    HW1 6251   4.088   1.305   6.311
 1784SOL    HW2 6252   3.937   1.305   6.372
 1785SOL     OW 6253   6.404   4.085   2.911
 1785SOL    HW1 6254   6.477   4.025   2.942
 1785SOL    HW2 6255   6.371   4.055   2.822
 1786SOL     OW 6256   2.332   3.024   0.089
 1786SOL    HW1 6257   2.265   2.996   0.158
 1786SOL    HW2 6258   2.288   3.084   0.022
 1787SOL     OW 6259   2.570   1.447   5.105
 1787SOL    HW1 6260   2.517   1.365   5.085
 1787SOL    HW2 6261   2.552   1.476   5.199
 1788SOL     OW 6262   2.885   3.621   6.683
 1788SOL    HW1 6263   2.845   3.607   6.592
 1788SOL    HW2 6264   2.972   3.572   6.689
 1789SOL     OW 6265   5.637   1.540   2.349
 1789SOL    HW1 6266   5.552   1.578   2.386
 1789SOL    HW2 6267   5.715   1.582   2.396
 1790SOL     OW 6268   3.995   6.526   3.947
 1790SOL    HW1 6269   3.959   6.495   3.859
 1790SOL    HW2 6270   3.939   6.601   3.981
 1791SOL     OW 6271   6.147   0.419   3.512
 1791SOL    HW1 6272   6.175   0.379   3.600
 1791SOL    HW2 6273   6.214   0.393   3.442
 1792SOL     OW 6274   6.077   3.292   5.306
 1792SOL    HW1 6275   6.176   3.274   5.309
 1792SOL    HW2 6276   6.056   3.366   5.370
 1793SOL     OW 6277   6.201   6.870   3.916
 1793SOL    HW1 6278   6.130   6.845   3.982
 1793SOL    HW2 6279   6.184   6.824   3.829
 1794SOL     OW 6280   4.970   6.154   5.430
 1794SOL    HW1 6281   4.984   6.086   5.358
 1794SOL    HW2 6282   5.047   6.217   5.433
 1795SOL     OW 6283   1.055   2.242   1.374
 1795SOL    HW1 6284   1.098   2.307   1.310
 1795SOL    HW2 6285   1.058   2.150   1.334
 1796SOL     OW 6286   2.788   0.665   5.384
 1796SOL    HW1 6287   2.849   0.688   5.459
 1796SOL    HW2 6288   2.693   0.678   5.412
 1797SOL     OW 6289   1.353   6.982   0.424
 1797SOL    HW1 6290   1.257   7.009   0.427
 1797SOL    HW2 6291   1.402   0.000   0.500
 1798SOL     OW 6292   4.597   2.373   3.744
 1798SOL    HW1 6293   4.694   2.360   3.767
 1798SOL    HW2 6294   4.585   2.464   3.703
 1799SOL     OW 6295   6.822   2.710   5.377
 1799SOL    HW1 6296   6.843   2.622   5.419
 1799SOL    HW2 6297   6.884   2.780   5.413
 1800SOL     OW 6298   3.961   4.568   1.679
 1800SOL    HW1 6299   3.870   4.543   1.648
 1800SOL    HW2 6300   3.960   4.661   1.715
 1801SOL     OW 6301   0.451   0.087   1.760
 1801SOL    HW1 6302   0.407   0.177   1.768
 1801SOL    HW2 6303   0.394   0.028   1.703
 1802SOL     OW 6304   5.241   5.312   4.198
 1802SOL    HW1 6305   5.272   5.249   4.269
 1802SOL    HW2 6306   5.162   5.364   4.231
 1803SOL     OW 6307   0.036   5.450   6.167
 1803SOL    HW1 6308   0.076   5.358   6.160
 1803SOL    HW2 6309   0.015   5.485   6.076
 1804SOL     OW 6310   2.555   3.710   5.447
 1804SOL    HW1 6311   2.535   3.777   5.519
 1804SOL    HW2 6312   2.588   3.758   5.366
 1805SOL     OW 6313   5.666   4.061   6.249
 1805SOL    HW1 6314   5.617   4.022   6.327
 1805SOL    HW2 6315   5.632   4.020   6.164
 1806SOL     OW 6316   0.474   0.051   6.842
 1806SOL    HW1 6317   0.377   0.055   6.818
 1806SOL    HW2 6318   0.527   0.107   6.777
 1807SOL     OW 6319   5.134   3.022   4.655
 1807SOL    HW1 6320   5.073   2.970   4.715
 1807SOL    HW2 6321   5.211   2.965   4.627
 1808SOL     OW 6322   0.383   4.282   5.539
 1808SOL    HW1 6323   0.422   4.368   5.569
 1808SOL    HW2 6324   0.287   4.276   5.568
 1809SOL     OW 6325   1.934   2.454   4.858
 1809SOL    HW1 6326   2.029   2.451   4.891
 1809SOL    HW2 6327   1.898   2.546   4.870
 1810SOL     OW 6328   2.746   6.751   3.728
 1810SOL    HW1 6329   2.808   6.826   3.708
 1810SOL    HW2 6330   2.686   6.736   3.650
 1811SOL     OW 6331   5.784   5.933   3.103
 1811SOL    HW1 6332   5.785   5.975   3.193
 1811SOL    HW2 6333   5.717   5.859   3.100
 1812SOL     OW 6334   4.168   5.895   4.773
 1812SOL    HW1 6335   4.142   5.968   4.836
 1812SOL    HW2 6336   4.111   5.814   4.790
 1813SOL     OW 6337   6.190   4.154   0.793
 1813SOL    HW1 6338   6.277   4.109   0.815
 1813SOL    HW2 6339   6.202   4.254   0.799
 1814SOL     OW 6340   5.352   6.984   2.180
 1814SOL    HW1 6341   5.389   6.896   2.210
 1814SOL    HW2 6342   5.252   6.981   2.182
 1815SOL     OW 6343   0.847   1.951   2.551
 1815SOL    HW1 6344   0.941   1.965   2.519
 1815SOL    HW2 6345   0.841   1.973   2.648
 1816SOL     OW 6346   2.820   3.461   1.024
 1816SOL    HW1 6347   2.840   3.442   0.928
 1816SOL    HW2 6348   2.722   3.455   1.040
 1817SOL     OW 6349   2.706   6.719   2.398
 1817SOL    HW1 6350   2.695   6.700   2.300
 1817SOL    HW2 6351   2.759   6.645   2.440
 1818SOL     OW 6352   1.233   0.033   3.294
 1818SOL    HW1 6353   1.282   0.097   3.353
 1818SOL    HW2 6354   1.256   6.964   3.320
 1819SOL     OW 6355   1.132   4.332   1.898
 1819SOL    HW1 6356   1.081   4.271   1.837
 1819SOL    HW2 6357   1.229   4.310   1.893
 1820SOL     OW 6358   3.709   1.151   2.782
 1820SOL    HW1 6359   3.703   1.247   2.755
 1820SOL    HW2 6360   3.797   1.114   2.752
 1821SOL     OW 6361   0.861   1.409   2.364
 1821SOL    HW1 6362   0.824   1.342   2.428
 1821SOL    HW2 6363   0.829   1.500   2.390
 1822SOL     OW 6364   3.341   2.346   1.174
 1822SOL    HW1 6365   3.252   2.347   1.128
 1822SOL    HW2 6366   3.332   2.387   1.265
 1823SOL     OW 6367   3.826   6.067   3.544
 1823SOL    HW1 6368   3.877   5.987   3.512
 1823SOL    HW2 6369   3.876   6.150   3.520
 1824SOL     OW 6370   4.121   2.388   1.072
 1824SOL    HW1 6371   4.033   2.410   1.114
 1824SOL    HW2 6372   4.186   2.359   1.142
 1825SOL     OW 6373   1.102   0.233   2.251
 1825SOL    HW1 6374   1.040   0.156   2.264
 1825SOL    HW2 6375   1.185   0.218   2.305
 1826SOL     OW 6376   3.046   1.394   1.263
 1826SOL    HW1 6377   3.139   1.362   1.247
 1826SOL    HW2 6378   3.019   1.459   1.191
 1827SOL     OW 6379   0.511   5.050   2.262
 1827SOL    HW1 6380   0.550   4.977   2.206
 1827SOL    HW2 6381   0.584   5.093   2.316
 1828SOL     OW 6382   0.416   2.358   6.779
 1828SOL    HW1 6383   0.453   2.289   6.717
 1828SOL    HW2 6384   0.316   2.348   6.784
 1829SOL     OW 6385   4.825   0.065   3.077
 1829SOL    HW1 6386   4.815   7.002   3.125
 1829SOL    HW2 6387   4.823   0.050   2.978
 1830SOL     OW 6388   5.543   5.950   3.592
 1830SOL    HW1 6389   5.459   5.900   3.572
 1830SOL    HW2 6390   5.598   5.898   3.659
 1831SOL     OW 6391   5.727   6.547   2.828
 1831SOL    HW1 6392   5.762   6.641   2.827
 1831SOL    HW2 6393   5.644   6.543   2.772
 1832SOL     OW 6394   5.253   2.034   0.844
 1832SOL    HW1 6395   5.265   2.096   0.766
 1832SOL    HW2 6396   5.155   2.017   0.857
 1833SOL     OW 6397   5.470   0.846   4.721
 1833SOL    HW1 6398   5.566   0.821   4.731
 1833SOL    HW2 6399   5.453   0.879   4.629
 1834SOL     OW 6400   3.027   4.098   0.135
 1834SOL    HW1 6401   2.978   4.184   0.151
 1834SOL    HW2 6402   3.110   4.096   0.191
 1835SOL     OW 6403   1.182   4.412   1.582
 1835SOL    HW1 6404   1.128   4.450   1.506
 1835SOL    HW2 6405   1.129   4.340   1.628
 1836SOL     OW 6406   6.841   2.136   1.227
 1836SOL    HW1 6407   6.917   2.150   1.290
 1836SOL    HW2 6408   6.807   2.043   1.234
 1837SOL     OW 6409   0.616   2.136   3.787
 1837SOL    HW1 6410   0.676   2.102   3.859
 1837SOL    HW2 6411   0.571   2.220   3.817
 1838SOL     OW 6412   0.380   1.751   3.496
 1838SOL    HW1 6413   0.378   1.653   3.476
 1838SOL    HW2 6414   0.292   1.792   3.473
 1839SOL     OW 6415   4.680   2.621   5.112
 1839SOL    HW1 6416   4.633   2.553   5.169
 1839SOL    HW2 6417   4.647   2.614   5.018
 1840SOL     OW 6418   3.158   6.196   1.648
 1840SOL    HW1 6419   3.189   6.103   1.667
 1840SOL    HW2 6420   3.154   6.247   1.734
 1841SOL     OW 6421   1.886   3.774   4.722
 1841SOL    HW1 6422   1.800   3.797   4.675
 1841SOL    HW2 6423   1.874   3.690   4.775
 1842SOL     OW 6424   0.443   5.734   0.630
 1842SOL    HW1 6425   0.462   5.677   0.550
 1842SOL    HW2 6426   0.460   5.830   0.607
 1843SOL     OW 6427   1.883   2.660   4.466
 1843SOL    HW1 6428   1.884   2.716   4.383
 1843SOL    HW2 6429   1.816   2.586   4.455
 1844SOL     OW 6430   3.632   1.534   5.224
 1844SOL    HW1 6431   3.631   1.548   5.125
 1844SOL    HW2 6432   3.562   1.468   5.249
 1845SOL     OW 6433   2.459   0.371   6.402
 1845SOL    HW1 6434   2.491   0.435   6.473
 1845SOL    HW2 6435   2.535   0.348   6.341
 1846SOL     OW 6436   4.134   1.934   6.695
 1846SOL    HW1 6437   4.127   1.885   6.782
 1846SOL    HW2 6438   4.178   1.875   6.627
 1847SOL     OW 6439   1.709   0.686   6.381
 1847SOL    HW1 6440   1.711   0.689   6.481
 1847SOL    HW2 6441   1.667   0.770   6.345
 1848SOL     OW 6442   1.840   6.097   2.783
 1848SOL    HW1 6443   1.907   6.073   2.713
 1848SOL    HW2 6444   1.748   6.081   2.749
 1849SOL     OW 6445   4.042   1.225   0.653
 1849SOL    HW1 6446   4.008   1.275   0.733
 1849SOL    HW2 6447   4.070   1.134   0.681
 1850SOL     OW 6448   6.060   1.789   2.778
 1850SOL    HW1 6449   6.093   1.859   2.841
 1850SOL    HW2 6450   6.037   1.832   2.690
 1851SOL     OW 6451   0.255   1.333   1.145
 1851SOL    HW1 6452   0.282   1.319   1.050
 1851SOL    HW2 6453   0.305   1.269   1.204
 1852SOL     OW 6454   4.524   3.800   1.109
 1852SOL    HW1 6455   4.472   3.742   1.046
 1852SOL    HW2 6456   4.491   3.894   1.102
 1853SOL     OW 6457   0.752   3.697   1.885
 1853SOL    HW1 6458   0.733   3.781   1.834
 1853SOL    HW2 6459   0.680   3.630   1.869
 1854SOL     OW 6460   2.850   5.777   4.199
 1854SOL    HW1 6461   2.799   5.848   4.247
 1854SOL    HW2 6462   2.837   5.787   4.100
 1855SOL     OW 6463   4.751   4.617   0.460
 1855SOL    HW1 6464   4.814   4.693   0.475
 1855SOL    HW2 6465   4.697   4.633   0.377
 1856SOL     OW 6466   6.121   3.096   5.809
 1856SOL    HW1 6467   6.128   3.157   5.888
 1856SOL    HW2 6468   6.031   3.053   5.808
 1857SOL     OW 6469   3.968   0.985   5.254
 1857SOL    HW1 6470   3.964   1.067   5.311
 1857SOL    HW2 6471   4.029   0.918   5.297
 1858SOL     OW 6472   5.895   2.985   3.692
 1858SOL    HW1 6473   5.974   2.991   3.752
 1858SOL    HW2 6474   5.861   2.891   3.691
 1859SOL     OW 6475   4.004   1.883   3.854
 1859SOL    HW1 6476   3.958   1.889   3.765
 1859SOL    HW2 6477   3.946   1.832   3.917
 1860SOL     OW 6478   6.878   1.185   3.466
 1860SOL    HW1 6479   6.792   1.229   3.440
 1860SOL    HW2 6480   6.859   1.109   3.528
 1861SOL     OW 6481   4.633   6.499   2.082
 1861SOL    HW1 6482   4.645   6.548   1.996
 1861SOL    HW2 6483   4.716   6.507   2.137
 1862SOL     OW 6484   2.113   6.912   6.977
 1862SOL    HW1 6485   2.117   6.818   7.010
 1862SOL    HW2 6486   2.188   6.928   6.913
 1863SOL     OW 6487   2.622   2.620   0.590
 1863SOL    HW1 6488   2.551   2.553   0.573
 1863SOL    HW2 6489   2.627   2.639   0.688
 1864SOL     OW 6490   0.966   0.322   5.492
 1864SOL    HW1 6491   0.986   0.389   5.563
 1864SOL    HW2 6492   0.870   0.331   5.464
 1865SOL     OW 6493   3.812   0.684   5.410
 1865SOL    HW1 6494   3.771   0.740   5.337
 1865SOL    HW2 6495   3.741   0.651   5.471
 1866SOL     OW 6496   4.337   4.568   2.321
 1866SOL    HW1 6497   4.400   4.491   2.310
 1866SOL    HW2 6498   4.293   4.564   2.411
 1867SOL     OW 6499   0.859   3.700   0.522
 1867SOL    HW1 6500   0.782   3.763   0.511
 1867SOL    HW2 6501   0.866   3.672   0.618
 1868SOL     OW 6502   5.284   4.880   6.990
 1868SOL    HW1 6503   5.240   4.796   6.958
 1868SOL    HW2 6504   5.222   4.957   6.976
 1869SOL     OW 6505   6.406   2.091   4.983
 1869SOL    HW1 6506   6.350   2.019   5.024
 1869SOL    HW2 6507   6.502   2.076   5.008
 1870SOL     OW 6508   1.884   4.554   5.396
 1870SOL    HW1 6509   1.956   4.588   5.456
 1870SOL    HW2 6510   1.795   4.565   5.442
 1871SOL     OW 6511   1.185   6.742   0.725
 1871SOL    HW1 6512   1.096   6.701   0.745
 1871SOL    HW2 6513   1.220   6.706   0.639
 1872SOL     OW 6514   3.586   4.168   6.788
 1872SOL    HW1 6515   3.630   4.126   6.709
 1872SOL    HW2 6516   3.650   4.230   6.833
 1873SOL     OW 6517   4.289   1.393   5.315
 1873SOL    HW1 6518   4.366   1.371   5.255
 1873SOL    HW2 6519   4.249   1.308   5.351
 1874SOL     OW 6520   2.559   1.530   1.433
 1874SOL    HW1 6521   2.505   1.526   1.349
 1874SOL    HW2 6522   2.635   1.593   1.420
 1875SOL     OW 6523   0.987   0.606   6.667
 1875SOL    HW1 6524   1.013   0.611   6.764
 1875SOL    HW2 6525   0.892   0.637   6.657
 1876SOL     OW 6526   3.463   0.421   5.659
 1876SOL    HW1 6527   3.378   0.461   5.625
 1876SOL    HW2 6528   3.530   0.493   5.676
 1877SOL     OW 6529   0.280   0.339   3.480
 1877SOL    HW1 6530   0.345   0.349   3.405
 1877SOL    HW2 6531   0.305   0.400   3.556
 1878SOL     OW 6532   6.854   1.609   3.808
 1878SOL    HW1 6533   6.786   1.640   3.874
 1878SOL    HW2 6534   6.853   1.510   3.802
 1879SOL     OW 6535   1.074   4.102   4.181
 1879SOL    HW1 6536   1.123   4.148   4.255
 1879SOL    HW2 6537   0.976   4.111   4.194
 1880SOL     OW 6538   0.234   0.787   5.046
 1880SOL    HW1 6539   0.230   0.866   4.985
 1880SOL    HW2 6540   0.291   0.716   5.004
 1881SOL     OW 6541   5.581   2.238   2.280
 1881SOL    HW1 6542   5.562   2.274   2.188
 1881SOL    HW2 6543   5.652   2.168   2.274
 1882SOL     OW 6544   1.329   4.554   6.367
 1882SOL    HW1 6545   1.417   4.598   6.386
 1882SOL    HW2 6546   1.282   4.604   6.295
 1883SOL     OW 6547   6.381   2.115   2.947
 1883SOL    HW1 6548   6.385   2.071   2.857
 1883SOL    HW2 6549   6.460   2.175   2.958
 1884SOL     OW 6550   1.529   1.877   1.108
 1884SOL    HW1 6551   1.538   1.809   1.035
 1884SOL    HW2 6552   1.433   1.886   1.133
 1885SOL     OW 6553   1.507   1.831   6.153
 1885SOL    HW1 6554   1.570   1.902   6.122
 1885SOL    HW2 6555   1.511   1.754   6.089
 1886SOL     OW 6556   2.004   0.053   1.606
 1886SOL    HW1 6557   2.000   0.052   1.506
 1886SOL    HW2 6558   1.931   7.020   1.642
 1887SOL     OW 6559   0.742   5.499   5.700
 1887SOL    HW1 6560   0.772   5.593   5.683
 1887SOL    HW2 6561   0.732   5.485   5.798
 1888SOL     OW 6562   3.311   1.901   6.716
 1888SOL    HW1 6563   3.355   1.983   6.679
 1888SOL    HW2 6564   3.262   1.924   6.800
 1889SOL     OW 6565   0.019   3.599   4.212
 1889SOL    HW1 6566   0.117   3.609   4.192
 1889SOL    HW2 6567   7.005   3.688   4.234
 1890SOL     OW 6568   0.772   5.706   3.899
 1890SOL    HW1 6569   0.842   5.758   3.849
 1890SOL    HW2 6570   0.787   5.608   3.886
 1891SOL     OW 6571   4.293   2.998   1.508
 1891SOL    HW1 6572   4.324   3.045   1.591
 1891SOL    HW2 6573   4.323   2.903   1.510
 1892SOL     OW 6574   0.283   0.309   1.829
 1892SOL    HW1 6575   0.257   0.305   1.925
 1892SOL    HW2 6576   0.301   0.404   1.804
 1893SOL     OW 6577   3.631   2.756   1.907
 1893SOL    HW1 6578   3.730   2.745   1.921
 1893SOL    HW2 6579   3.601   2.696   1.833
 1894SOL     OW 6580   3.388   3.714   3.900
 1894SOL    HW1 6581   3.415   3.736   3.994
 1894SOL    HW2 6582   3.469   3.703   3.843
 1895SOL     OW 6583   4.112   0.040   0.713
 1895SOL    HW1 6584   4.120   0.113   0.645
 1895SOL    HW2 6585   4.201   7.021   0.727
 1896SOL     OW 6586   6.302   1.326   0.784
 1896SOL    HW1 6587   6.271   1.403   0.729
 1896SOL    HW2 6588   6.402   1.320   0.781
 1897SOL     OW 6589   1.953   4.864   2.176
 1897SOL    HW1 6590   1.969   4.879   2.078
 1897SOL    HW2 6591   1.929   4.768   2.191
 1898SOL     OW 6592   2.292   4.431   2.584
 1898SOL    HW1 6593   2.248   4.495   2.522
 1898SOL    HW2 6594   2.336   4.481   2.659
 1899SOL     OW 6595   0.920   1.154   6.863
 1899SOL    HW1 6596   0.830   1.197   6.871
 1899SOL    HW2 6597   0.927   1.110   6.773
 1900SOL     OW 6598   2.376   0.751   6.864
 1900SOL    HW1 6599   2.434   0.693   6.923
 1900SOL    HW2 6600   2.430   0.785   6.788
 1901SOL     OW 6601   2.695   2.249   0.841
 1901SOL    HW1 6602   2.632   2.182   0.803
 1901SOL    HW2 6603   2.647   2.306   0.909
 1902SOL     OW 6604   2.785   0.639   4.525
 1902SOL    HW1 6605   2.813   0.583   4.447
 1902SOL    HW2 6606   2.705   0.693   4.499
 1903SOL     OW 6607   0.901   3.427   3.179
 1903SOL    HW1 6608   0.976   3.412   3.243
 1903SOL    HW2 6609   0.825   3.366   3.202
 1904SOL     OW 6610   5.340   5.187   3.203
 1904SOL    HW1 6611   5.278   5.119   3.241
 1904SOL    HW2 6612   5.434   5.153   3.208
 1905SOL     OW 6613   0.785   0.523   3.348
 1905SOL    HW1 6614   0.776   0.565   3.439
 1905SOL    HW2 6615   0.877   0.486   3.338
 1906SOL     OW 6616   2.763   0.799   6.032
 1906SOL    HW1 6617   2.843   0.846   5.993
 1906SOL    HW2 6618   2.786   0.703   6.050
 1907SOL     OW 6619   4.870   2.644   1.407
 1907SOL    HW1 6620   4.829   2.731   1.438
 1907SOL    HW2 6621   4.797   2.583   1.376
 1908SOL     OW 6622   3.918   6.484   6.180
 1908SOL    HW1 6623   3.912   6.439   6.091
 1908SOL    HW2 6624   3.947   6.417   6.249
 1909SOL     OW 6625   0.907   3.103   3.848
 1909SOL    HW1 6626   0.999   3.066   3.864
 1909SOL    HW2 6627   0.839   3.031   3.863
 1910SOL     OW 6628   6.808   6.260   5.328
 1910SOL    HW1 6629   6.821   6.279   5.425
 1910SOL    HW2 6630   6.737   6.320   5.292
 1911SOL     OW 6631   6.990   3.830   4.616
 1911SOL    HW1 6632   6.983   3.770   4.696
 1911SOL    HW2 6633   0.027   3.906   4.637
 1912SOL     OW 6634   2.836   5.714   2.438
 1912SOL    HW1 6635   2.803   5.668   2.521
 1912SOL    HW2 6636   2.823   5.813   2.447
 1913SOL     OW 6637   2.533   6.823   4.433
 1913SOL    HW1 6638   2.623   6.839   4.473
 1913SOL    HW2 6639   2.527   6.868   4.344
 1914SOL     OW 6640   4.138   3.940   0.043
 1914SOL    HW1 6641   4.165   3.975   0.133
 1914SOL    HW2 6642   4.201   3.976   6.998
 1915SOL     OW 6643   4.927   2.991   5.811
 1915SOL    HW1 6644   4.873   2.910   5.787
 1915SOL    HW2 6645   4.885   3.039   5.887
 1916SOL     OW 6646   4.592   6.776   1.254
 1916SOL    HW1 6647   4.506   6.779   1.306
 1916SOL    HW2 6648   4.573   6.762   1.157
 1917SOL     OW 6649   2.679   3.658   0.249
 1917SOL    HW1 6650   2.699   3.692   0.340
 1917SOL    HW2 6651   2.687   3.733   0.182
 1918SOL     OW 6652   1.075   1.121   4.580
 1918SOL    HW1 6653   1.114   1.129   4.488
 1918SOL    HW2 6654   1.132   1.171   4.645
 1919SOL     OW 6655   1.839   1.870   0.721
 1919SOL    HW1 6656   1.842   1.784   0.670
 1919SOL    HW2 6657   1.865   1.945   0.661
 1920SOL     OW 6658   5.926   3.059   2.351
 1920SOL    HW1 6659   5.835   3.055   2.310
 1920SOL    HW2 6660   5.920   3.031   2.447
 1921SOL     OW 6661   1.035   2.833   0.185
 1921SOL    HW1 6662   1.119   2.802   0.229
 1921SOL    HW2 6663   1.037   2.808   0.088
 1922SOL     OW 6664   3.155   3.246   1.852
 1922SOL    HW1 6665   3.221   3.246   1.777
 1922SOL    HW2 6666   3.130   3.152   1.874
 1923SOL     OW 6667   4.630   0.986   0.288
 1923SOL    HW1 6668   4.692   0.945   0.356
 1923SOL    HW2 6669   4.536   0.969   0.314
 1924SOL     OW 6670   4.574   0.103   0.824
 1924SOL    HW1 6671   4.605   0.028   0.883
 1924SOL    HW2 6672   4.621   0.187   0.848
 1925SOL     OW 6673   0.987   4.218   1.677
 1925SOL    HW1 6674   1.017   4.160   1.601
 1925SOL    HW2 6675   0.888   4.232   1.671
 1926SOL     OW 6676   3.376   0.186   1.665
 1926SOL    HW1 6677   3.393   0.224   1.574
 1926SOL    HW2 6678   3.362   0.261   1.730
 1927SOL     OW 6679   2.478   3.873   0.714
 1927SOL    HW1 6680   2.464   3.785   0.758
 1927SOL    HW2 6681   2.409   3.938   0.746
 1928SOL     OW 6682   4.936   5.005   3.940
 1928SOL    HW1 6683   4.899   5.082   3.991
 1928SOL    HW2 6684   4.905   5.010   3.845
 1929SOL     OW 6685   2.530   0.706   2.185
 1929SOL    HW1 6686   2.575   0.786   2.224
 1929SOL    HW2 6687   2.588   0.668   2.112
 1930SOL     OW 6688   5.151   3.382   6.483
 1930SOL    HW1 6689   5.222   3.356   6.549
 1930SOL    HW2 6690   5.061   3.365   6.524
 1931SOL     OW 6691   1.057   1.869   6.686
 1931SOL    HW1 6692   1.088   1.800   6.751
 1931SOL    HW2 6693   1.044   1.828   6.596
 1932SOL     OW 6694   4.497   2.576   3.261
 1932SOL    HW1 6695   4.447   2.554   3.344
 1932SOL    HW2 6696   4.452   2.534   3.182
 1933SOL     OW 6697   0.453   1.874   0.264
 1933SOL    HW1 6698   0.461   1.801   0.331
 1933SOL    HW2 6699   0.540   1.888   0.218
 1934SOL     OW 6700   0.576   0.203   5.819
 1934SOL    HW1 6701   0.569   0.161   5.728
 1934SOL    HW2 6702   0.553   0.134   5.888
 1935SOL     OW 6703   4.544   4.439   4.000
 1935SOL    HW1 6704   4.446   4.458   4.009
 1935SOL    HW2 6705   4.559   4.382   3.919
 1936SOL     OW 6706   5.201   3.838   3.766
 1936SOL    HW1 6707   5.193   3.754   3.819
 1936SOL    HW2 6708   5.203   3.916   3.828
 1937SOL     OW 6709   4.583   6.217   6.703
 1937SOL    HW1 6710   4.545   6.221   6.610
 1937SOL    HW2 6711   4.611   6.124   6.724
 1938SOL     OW 6712   1.287   2.856   6.977
 1938SOL    HW1 6713   1.217   2.786   6.993
 1938SOL    HW2 6714   1.339   2.834   6.895
 1939SOL     OW 6715   0.564   5.420   4.700
 1939SOL    HW1 6716   0.572   5.480   4.621
 1939SOL    HW2 6717   0.627   5.343   4.689
 1940SOL     OW 6718   5.720   4.534   2.072
 1940SOL    HW1 6719   5.770   4.531   1.985
 1940SOL    HW2 6720   5.728   4.626   2.112
 1941SOL     OW 6721   0.317   2.636   3.362
 1941SOL    HW1 6722   0.395   2.697   3.375
 1941SOL    HW2 6723   0.339   2.546   3.400
 1942SOL     OW 6724   5.514   3.778   2.823
 1942SOL    HW1 6725   5.594   3.775   2.762
 1942SOL    HW2 6726   5.517   3.700   2.886
 1943SOL     OW 6727   1.101   1.615   2.036
 1943SOL    HW1 6728   1.084   1.704   2.079
 1943SOL    HW2 6729   1.014   1.569   2.019
 1944SOL     OW 6730   6.753   3.480   0.915
 1944SOL    HW1 6731   6.664   3.438   0.936
 1944SOL    HW2 6732   6.823   3.409   0.911
 1945SOL     OW 6733   4.192   6.583   0.992
 1945SOL    HW1 6734   4.240   6.505   0.952
 1945SOL    HW2 6735   4.105   6.552   1.030
 1946SOL     OW 6736   6.117   6.171   1.093
 1946SOL    HW1 6737   6.065   6.230   1.031
 1946SOL    HW2 6738   6.090   6.192   1.188
 1947SOL     OW 6739   6.205   5.226   3.816
 1947SOL    HW1 6740   6.146   5.154   3.855
 1947SOL    HW2 6741   6.179   5.314   3.854
 1948SOL     OW 6742   5.997   4.080   2.900
 1948SOL    HW1 6743   5.906   4.081   2.859
 1948SOL    HW2 6744   6.034   3.987   2.900
 1949SOL     OW 6745   3.629   4.387   0.496
 1949SOL    HW1 6746   3.580   4.303   0.474
 1949SOL    HW2 6747   3.651   4.389   0.593
 1950SOL     OW 6748   3.697   3.618   3.999
 1950SOL    HW1 6749   3.708   3.520   4.013
 1950SOL    HW2 6750   3.675   3.662   4.087
 1951SOL     OW 6751   6.547   4.350   5.655
 1951SOL    HW1 6752   6.512   4.302   5.574
 1951SOL    HW2 6753   6.612   4.420   5.626
 1952SOL     OW 6754   5.179   4.070   1.152
 1952SOL    HW1 6755   5.137   4.139   1.093
 1952SOL    HW2 6756   5.132   3.983   1.139
 1953SOL     OW 6757   7.022   1.198   6.385
 1953SOL    HW1 6758   0.051   1.121   6.421
 1953SOL    HW2 6759   6.982   1.173   6.297
 1954SOL     OW 6760   5.148   0.704   1.636
 1954SOL    HW1 6761   5.161   0.681   1.732
 1954SOL    HW2 6762   5.066   0.658   1.601
 1955SOL     OW 6763   0.712   1.397   2.025
 1955SOL    HW1 6764   0.743   1.452   1.948
 1955SOL    HW2 6765   0.733   1.301   2.008
 1956SOL     OW 6766   5.528   1.013   2.788
 1956SOL    HW1 6767   5.626   1.005   2.769
 1956SOL    HW2 6768   5.482   0.928   2.760
 1957SOL     OW 6769   5.134   2.904   3.788
 1957SOL    HW1 6770   5.165   2.994   3.757
 1957SOL    HW2 6771   5.118   2.845   3.709
 1958SOL     OW 6772   4.375   1.731   0.750
 1958SOL    HW1 6773   4.403   1.737   0.846
 1958SOL    HW2 6774   4.294   1.673   0.742
 1959SOL     OW 6775   6.828   6.928   3.803
 1959SOL    HW1 6776   6.862   7.022   3.808
 1959SOL    HW2 6777   6.756   6.922   3.735
 1960SOL     OW 6778   6.288   2.970   2.892
 1960SOL    HW1 6779   6.309   2.877   2.863
 1960SOL    HW2 6780   6.277   2.972   2.992
 1961SOL     OW 6781   6.351   4.664   4.920
 1961SOL    HW1 6782   6.422   4.727   4.951
 1961SOL    HW2 6783   6.370   4.572   4.955
 1962SOL     OW 6784   1.551   5.844   2.894
 1962SOL    HW1 6785   1.574   5.781   2.968
 1962SOL    HW2 6786   1.503   5.924   2.931
 1963SOL     OW 6787   0.884   1.063   1.589
 1963SOL    HW1 6788   0.794   1.021   1.579
 1963SOL    HW2 6789   0.921   1.083   1.498
 1964SOL     OW 6790   5.630   4.727   1.802
 1964SOL    HW1 6791   5.582   4.645   1.771
 1964SOL    HW2 6792   5.579   4.770   1.876
 1965SOL     OW 6793   0.763   3.928   3.953
 1965SOL    HW1 6794   0.861   3.921   3.935
 1965SOL    HW2 6795   0.748   3.953   4.048
 1966SOL     OW 6796   1.499   5.225   1.055
 1966SOL    HW1 6797   1.439   5.197   0.980
 1966SOL    HW2 6798   1.518   5.146   1.114
 1967SOL     OW 6799   6.743   2.308   3.766
 1967SOL    HW1 6800   6.767   2.230   3.709
 1967SOL    HW2 6801   6.644   2.309   3.781
 1968SOL     OW 6802   2.575   1.184   5.569
 1968SOL    HW1 6803   2.521   1.101   5.578
 1968SOL    HW2 6804   2.533   1.244   5.500
 1969SOL     OW 6805   3.051   0.760   1.590
 1969SOL    HW1 6806   3.138   0.714   1.610
 1969SOL    HW2 6807   3.053   0.853   1.626
 1970SOL     OW 6808   6.397   6.575   5.294
 1970SOL    HW1 6809   6.310   6.540   5.259
 1970SOL    HW2 6810   6.432   6.645   5.232
 1971SOL     OW 6811   1.435   0.024   5.705
 1971SOL    HW1 6812   1.435   0.001   5.803
 1971SOL    HW2 6813   1.353   0.077   5.683
 1972SOL     OW 6814   5.836   2.450   1.798
 1972SOL    HW1 6815   5.738   2.435   1.786
 1972SOL    HW2 6816   5.863   2.533   1.749
 1973SOL     OW 6817   2.485   3.635   1.278
 1973SOL    HW1 6818   2.516   3.545   1.308
 1973SOL    HW2 6819   2.541   3.666   1.202
 1974SOL     OW 6820   3.940   6.408   4.536
 1974SOL    HW1 6821   3.949   6.474   4.462
 1974SOL    HW2 6822   4.029   6.365   4.554
 1975SOL     OW 6823   2.178   3.025   3.601
 1975SOL    HW1 6824   2.131   3.107   3.568
 1975SOL    HW2 6825   2.115   2.948   3.598
 1976SOL     OW 6826   6.343   0.266   6.624
 1976SOL    HW1 6827   6.434   0.280   6.661
 1976SOL    HW2 6828   6.350   0.247   6.526
 1977SOL     OW 6829   2.684   3.691   6.470
 1977SOL    HW1 6830   2.620   3.632   6.420
 1977SOL    HW2 6831   2.722   3.759   6.408
 1978SOL     OW 6832   2.637   6.480   2.745
 1978SOL    HW1 6833   2.703   6.487   2.819
 1978SOL    HW2 6834   2.547   6.509   2.777
 1979SOL     OW 6835   5.899   5.252   6.903
 1979SOL    HW1 6836   5.902   5.204   6.815
 1979SOL    HW2 6837   5.806   5.248   6.939
 1980SOL     OW 6838   2.719   0.674   1.973
 1980SOL    HW1 6839   2.776   0.756   1.973
 1980SOL    HW2 6840   2.677   0.662   1.883
 1981SOL     OW 6841   4.907   2.701   2.903
 1981SOL    HW1 6842   4.818   2.689   2.859
 1981SOL    HW2 6843   4.928   2.620   2.958
 1982SOL     OW 6844   6.530   3.437   3.907
 1982SOL    HW1 6845   6.623   3.405   3.886
 1982SOL    HW2 6846   6.512   3.523   3.860
 1983SOL     OW 6847   0.625   0.436   0.854
 1983SOL    HW1 6848   0.565   0.389   0.790
 1983SOL    HW2 6849   0.718   0.399   0.847
 1984SOL     OW 6850   4.992   2.457   5.306
 1984SOL    HW1 6851   5.040   2.425   5.224
 1984SOL    HW2 6852   4.985   2.557   5.303
 1985SOL     OW 6853   6.541   4.967   1.473
 1985SOL    HW1 6854   6.470   5.037   1.463
 1985SOL    HW2 6855   6.628   5.002   1.437
 1986SOL     OW 6856   3.147   0.979   6.423
 1986SOL    HW1 6857   3.198   1.037   6.359
 1986SOL    HW2 6858   3.179   0.996   6.516
 1987SOL     OW 6859   1.239   0.924   4.101
 1987SOL    HW1 6860   1.311   0.993   4.095
 1987SOL    HW2 6861   1.281   0.833   4.096
 1988SOL     OW 6862   0.334   1.694   1.239
 1988SOL    HW1 6863   0.258   1.681   1.176
 1988SOL    HW2 6864   0.315   1.770   1.300
 1989SOL     OW 6865   2.867   5.640   5.007
 1989SOL    HW1 6866   2.773   5.651   4.975
 1989SOL    HW2 6867   2.914   5.574   4.949
 1990SOL     OW 6868   4.027   0.759   0.322
 1990SOL    HW1 6869   4.000   0.715   0.408
 1990SOL    HW2 6870   4.126   0.764   0.316
 1991SOL     OW 6871   2.891   5.742   0.243
 1991SOL    HW1 6872   2.872   5.740   0.341
 1991SOL    HW2 6873   2.839   5.670   0.197
 1992SOL     OW 6874   6.623   6.591   0.052
 1992SOL    HW1 6875   6.590   6.608   0.145
 1992SOL    HW2 6876   6.682   6.510   0.052
 1993SOL     OW 6877   2.015   2.880   4.772
 1993SOL    HW1 6878   2.075   2.837   4.705
 1993SOL    HW2 6879   2.062   2.956   4.817
 1994SOL     OW 6880   4.054   3.281   0.648
 1994SOL    HW1 6881   3.956   3.278   0.626
 1994SOL    HW2 6882   4.076   3.205   0.710
 1995SOL     OW 6883   5.280   1.969   4.890
 1995SOL    HW1 6884   5.238   2.059   4.886
 1995SOL    HW2 6885   5.220   1.902   4.844
 1996SOL     OW 6886   3.242   1.994   1.249
 1996SOL    HW1 6887   3.288   2.076   1.285
 1996SOL    HW2 6888   3.250   1.993   1.150
 1997SOL     OW 6889   3.271   1.569   3.862
 1997SOL    HW1 6890   3.306   1.572   3.955
 1997SOL    HW2 6891   3.230   1.657   3.839
 1998SOL     OW 6892   1.393   3.041   1.601
 1998SOL    HW1 6893   1.478   2.997   1.627
 1998SOL    HW2 6894   1.389   3.133   1.641
 1999SOL     OW 6895   0.672   0.413   5.476
 1999SOL    HW1 6896   0.644   0.497   5.430
 1999SOL    HW2 6897   0.604   0.388   5.545
 2000SOL     OW 6898   3.758   3.643   6.382
 2000SOL    HW1 6899   3.722   3.575   6.445
 2000SOL    HW2 6900   3.855   3.659   6.403
 2001SOL     OW 6901   1.822   1.832   6.769
 2001SOL    HW1 6902   1.758   1.766   6.731
 2001SOL    HW2 6903   1.915   1.797   6.762
 2002SOL     OW 6904   0.014   5.548   0.938
 2002SOL    HW1 6905   6.971   5.615   0.908
 2002SOL    HW2 6906   0.100   5.564   0.890
 2003SOL     OW 6907   6.392   5.023   1.876
 2003SOL    HW1 6908   6.433   5.105   1.837
 2003SOL    HW2 6909   6.352   5.045   1.965
 2004SOL     OW 6910   3.691   0.337   3.560
 2004SOL    HW1 6911   3.686   0.262   3.494
 2004SOL    HW2 6912   3.787   0.362   3.575
 2005SOL     OW 6913   0.235   6.057   0.375
 2005SOL    HW1 6914   0.205   6.116   0.450
 2005SOL    HW2 6915   0.156   6.026   0.323
 2006SOL     OW 6916   5.257   0.591   4.088
 2006SOL    HW1 6917   5.165   0.581   4.050
 2006SOL    HW2 6918   5.325   0.591   4.015
 2007SOL     OW 6919   4.658   4.170   1.132
 2007SOL    HW1 6920   4.637   4.180   1.229
 2007SOL    HW2 6921   4.705   4.084   1.116
 2008SOL     OW 6922   2.169   3.705   3.885
 2008SOL    HW1 6923   2.260   3.675   3.858
 2008SOL    HW2 6924   2.113   3.719   3.803
 2009SOL     OW 6925   6.481   6.162   2.068
 2009SOL    HW1 6926   6.387   6.157   2.034
 2009SOL    HW2 6927   6.525   6.244   2.033
 2010SOL     OW 6928   1.496   2.430   1.547
 2010SOL    HW1 6929   1.443   2.365   1.493
 2010SOL    HW2 6930   1.515   2.511   1.491
 2011SOL     OW 6931   0.150   6.841   5.492
 2011SOL    HW1 6932   0.192   6.764   5.540
 2011SOL    HW2 6933   0.220   6.892   5.441
 2012SOL     OW 6934   1.487   3.164   2.370
 2012SOL    HW1 6935   1.553   3.217   2.318
 2012SOL    HW2 6936   1.458   3.216   2.451
 2013SOL     OW 6937   0.530   3.007   2.986
 2013SOL    HW1 6938   0.474   3.020   3.067
 2013SOL    HW2 6939   0.504   3.073   2.915
 2014SOL     OW 6940   2.851   0.415   3.747
 2014SOL    HW1 6941   2.874   0.452   3.657
 2014SOL    HW2 6942   2.923   0.351   3.776
 2015SOL     OW 6943   3.738   1.003   1.834
 2015SOL    HW1 6944   3.677   1.079   1.810
 2015SOL    HW2 6945   3.697   0.917   1.802
 2016SOL     OW 6946   1.792   6.107   5.232
 2016SOL    HW1 6947   1.741   6.053   5.166
 2016SOL    HW2 6948   1.730   6.145   5.300
 2017SOL     OW 6949   4.221   6.802   2.900
 2017SOL    HW1 6950   4.203   6.900   2.912
 2017SOL    HW2 6951   4.137   6.751   2.920
 2018SOL     OW 6952   0.171   2.317   3.321
 2018SOL    HW1 6953   0.176   2.232   3.269
 2018SOL    HW2 6954   0.169   2.394   3.259
 2019SOL     OW 6955   6.030   4.784   6.289
 2019SOL    HW1 6956   6.118   4.753   6.324
 2019SOL    HW2 6957   6.005   4.732   6.208
 2020SOL     OW 6958   1.606   6.393   5.622
 2020SOL    HW1 6959   1.658   6.418   5.703
 2020SOL    HW2 6960   1.510   6.380   5.647
 2021SOL     OW 6961   6.069   6.282   3.496
 2021SOL    HW1 6962   6.156   6.234   3.486
 2021SOL    HW2 6963   6.047   6.289   3.593
 2022SOL     OW 6964   2.219   4.249   4.883
 2022SOL    HW1 6965   2.253   4.166   4.928
 2022SOL    HW2 6966   2.155   4.223   4.811
 2023SOL     OW 6967   0.161   0.599   6.707
 2023SOL    HW1 6968   0.061   0.600   6.705
 2023SOL    HW2 6969   0.196   0.603   6.613
 2024SOL     OW 6970   0.266   5.562   4.346
 2024SOL    HW1 6971   0.293   5.466   4.337
 2024SOL    HW2 6972   0.313   5.617   4.277
 2025SOL     OW 6973   2.419   1.107   4.434
 2025SOL    HW1 6974   2.368   1.027   4.403
 2025SOL    HW2 6975   2.362   1.159   4.498
 2026SOL     OW 6976   5.634   0.772   6.567
 2026SOL    HW1 6977   5.603   0.855   6.614
 2026SOL    HW2 6978   5.731   0.781   6.546
 2027SOL     OW 6979   0.831   5.737   1.534
 2027SOL    HW1 6980   0.788   5.818   1.573
 2027SOL    HW2 6981   0.760   5.670   1.512
 2028SOL     OW 6982   3.645   5.950   2.568
 2028SOL    HW1 6983   3.627   5.884   2.495
 2028SOL    HW2 6984   3.725   5.921   2.620
 2029SOL     OW 6985   6.797   1.903   6.394
 2029SOL    HW1 6986   6.720   1.957   6.427
 2029SOL    HW2 6987   6.879   1.961   6.392
 2030SOL     OW 6988   3.133   6.122   3.378
 2030SOL    HW1 6989   3.111   6.036   3.424
 2030SOL    HW2 6990   3.049   6.175   3.365
 2031SOL     OW 6991   6.982   5.714   2.989
 2031SOL    HW1 6992   6.954   5.703   3.085
 2031SOL    HW2 6993   6.967   5.809   2.961
 2032SOL     OW 6994   3.487   1.458   6.578
 2032SOL    HW1 6995   3.390   1.466   6.553
 2032SOL    HW2 6996   3.508   1.362   6.595
 2033SOL     OW 6997   1.468   0.950   0.839
 2033SOL    HW1 6998   1.539   0.889   0.806
 2033SOL    HW2 6999   1.453   1.023   0.772
 2034SOL     OW 7000   1.143   5.345   5.478
 2034SOL    HW1 7001   1.227   5.392   5.503
 2034SOL    HW2 7002   1.102   5.304   5.560
 2035SOL     OW 7003   6.280   6.633   2.008
 2035SOL    HW1 7004   6.268   6.534   2.003
 2035SOL    HW2 7005   6.223   6.669   2.083
 2036SOL     OW 7006   1.053   3.528   2.678
 2036SOL    HW1 7007   1.107   3.486   2.751
 2036SOL    HW2 7008   1.067   3.627   2.678
 2037SOL     OW 7009   0.252   2.878   6.134
 2037SOL    HW1 7010   0.184   2.952   6.129
 2037SOL    HW2 7011   0.233   2.810   6.064
 2038SOL     OW 7012   2.644   1.596   6.891
 2038SOL    HW1 7013   2.666   1.553   6.978
 2038SOL    HW2 7014   2.684   1.687   6.887
 2039SOL     OW 7015   7.003   6.018   2.671
 2039SOL    HW1 7016   6.971   6.011   2.765
 2039SOL    HW2 7017   0.050   5.950   2.654
 2040SOL     OW 7018   2.443   2.784   0.108
 2040SOL    HW1 7019   2.398   2.872   0.089
 2040SOL    HW2 7020   2.473   2.743   0.022
 2041SOL     OW 7021   1.746   6.989   6.059
 2041SOL    HW1 7022   1.837   0.005   6.068
 2041SOL    HW2 7023   1.745   6.924   5.983
 2042SOL     OW 7024   4.652   0.469   6.410
 2042SOL    HW1 7025   4.663   0.374   6.379
 2042SOL    HW2 7026   4.636   0.528   6.331
 2043SOL     OW 7027   7.013   2.953   1.425
 2043SOL    HW1 7028   0.073   2.903   1.442
 2043SOL    HW2 7029   7.024   3.009   1.343
 2044SOL     OW 7030   5.093   1.330   0.738
 2044SOL    HW1 7031   4.997   1.343   0.710
 2044SOL    HW2 7032   5.150   1.397   0.692
 2045SOL     OW 7033   1.691   5.896   5.986
 2045SOL    HW1 7034   1.781   5.939   5.972
 2045SOL    HW2 7035   1.696   5.836   6.065
 2046SOL     OW 7036   1.033   1.175   5.421
 2046SOL    HW1 7037   0.997   1.104   5.481
 2046SOL    HW2 7038   0.965   1.247   5.409
 2047SOL     OW 7039   6.463   2.177   0.245
 2047SOL    HW1 7040   6.370   2.155   0.272
 2047SOL    HW2 7041   6.490   2.265   0.284
 2048SOL     OW 7042   0.898   1.196   4.308
 2048SOL    HW1 7043   0.980   1.141   4.293
 2048SOL    HW2 7044   0.911   1.255   4.388
 2049SOL     OW 7045   4.564   1.634   4.761
 2049SOL    HW1 7046   4.476   1.632   4.713
 2049SOL    HW2 7047   4.587   1.729   4.783
 2050SOL     OW 7048   0.770   1.313   4.083
 2050SOL    HW1 7049   0.711   1.374   4.135
 2050SOL    HW2 7050   0.820   1.253   4.145
 2051SOL     OW 7051   3.151   6.726   1.086
 2051SOL    HW1 7052   3.111   6.751   1.175
 2051SOL    HW2 7053   3.107   6.779   1.014
 2052SOL     OW 7054   1.767   4.311   0.051
 2052SOL    HW1 7055   1.678   4.306   0.095
 2052SOL    HW2 7056   1.835   4.262   0.107
 2053SOL     OW 7057   1.122   5.669   3.909
 2053SOL    HW1 7058   1.157   5.648   4.001
 2053SOL    HW2 7059   1.128   5.767   3.892
 2054SOL     OW 7060   3.282   3.493   3.141
 2054SOL    HW1 7061   3.199   3.443   3.118
 2054SOL    HW2 7062   3.258   3.572   3.197
 2055SOL     OW 7063   1.669   2.379   4.959
 2055SOL    HW1 7064   1.768   2.366   4.957
 2055SOL    HW2 7065   1.647   2.472   4.930
 2056SOL     OW 7066   3.904   4.725   0.822
 2056SOL    HW1 7067   3.981   4.764   0.771
 2056SOL    HW2 7068   3.922   4.730   0.920
 2057SOL     OW 7069   5.442   2.242   4.624
 2057SOL    HW1 7070   5.409   2.151   4.648
 2057SOL    HW2 7071   5.420   2.307   4.697
 2058SOL     OW 7072   1.012   6.640   3.417
 2058SOL    HW1 7073   1.082   6.711   3.410
 2058SOL    HW2 7074   0.923   6.682   3.428
 2059SOL     OW 7075   2.356   0.139   5.688
 2059SOL    HW1 7076   2.388   0.186   5.770
 2059SOL    HW2 7077   2.394   0.183   5.607
 2060SOL     OW 7078   1.418   3.467   0.032
 2060SOL    HW1 7079   1.349   3.456   6.985
 2060SOL    HW2 7080   1.479   3.543   0.007
 2061SOL     OW 7081   2.137   1.984   2.319
 2061SOL    HW1 7082   2.092   2.073   2.310
 2061SOL    HW2 7083   2.084   1.926   2.380
 2062SOL     OW 7084   6.321   5.477   5.137
 2062SOL    HW1 7085   6.408   5.450   5.096
 2062SOL    HW2 7086   6.331   5.476   5.237
 2063SOL     OW 7087   1.385   0.177   5.349
 2063SOL    HW1 7088   1.370   0.231   5.267
 2063SOL    HW2 7089   1.430   0.091   5.324
 2064SOL     OW 7090   0.513   3.003   4.058
 2064SOL    HW1 7091   0.455   3.028   3.981
 2064SOL    HW2 7092   0.461   3.013   4.143
 2065SOL     OW 7093   4.582   2.956   5.546
 2065SOL    HW1 7094   4.633   3.041   5.544
 2065SOL    HW2 7095   4.556   2.931   5.452
 2066SOL     OW 7096   5.633   3.402   5.990
 2066SOL    HW1 7097   5.643   3.319   6.044
 2066SOL    HW2 7098   5.612   3.378   5.895
 2067SOL     OW 7099   6.945   4.622   1.908
 2067SOL    HW1 7100   6.855   4.627   1.866
 2067SOL    HW2 7101   7.003   4.694   1.871
 2068SOL     OW 7102   3.916   0.820   3.656
 2068SOL    HW1 7103   3.892   0.912   3.684
 2068SOL    HW2 7104   3.934   0.818   3.557
 2069SOL     OW 7105   7.010   1.918   4.117
 2069SOL    HW1 7106   0.079   1.884   4.106
 2069SOL    HW2 7107   6.993   1.990   4.050
 2070SOL     OW 7108   1.238   3.630   1.791
 2070SOL    HW1 7109   1.333   3.621   1.821
 2070SOL    HW2 7110   1.178   3.634   1.870
 2071SOL     OW 7111   6.368   1.390   5.877
 2071SOL    HW1 7112   6.290   1.452   5.874
 2071SOL    HW2 7113   6.442   1.426   5.819
 2072SOL     OW 7114   3.913   4.589   5.341
 2072SOL    HW1 7115   3.902   4.512   5.404
 2072SOL    HW2 7116   4.010   4.612   5.334
 2073SOL     OW 7117   3.825   6.169   0.126
 2073SOL    HW1 7118   3.827   6.082   0.175
 2073SOL    HW2 7119   3.846   6.243   0.189
 2074SOL     OW 7120   2.097   3.578   5.446
 2074SOL    HW1 7121   2.189   3.549   5.421
 2074SOL    HW2 7122   2.054   3.507   5.502
 2075SOL     OW 7123   7.011   2.109   1.846
 2075SOL    HW1 7124   6.984   2.013   1.854
 2075SOL    HW2 7125   6.968   2.162   1.919
 2076SOL     OW 7126   5.355   6.239   4.678
 2076SOL    HW1 7127   5.396   6.331   4.674
 2076SOL    HW2 7128   5.407   6.177   4.619
 2077SOL     OW 7129   0.273   3.344   1.485
 2077SOL    HW1 7130   0.359   3.297   1.508
 2077SOL    HW2 7131   0.197   3.279   1.495
 2078SOL     OW 7132   2.252   4.512   5.574
 2078SOL    HW1 7133   2.207   4.591   5.532
 2078SOL    HW2 7134   2.194   4.475   5.647
 2079SOL     OW 7135   5.286   1.661   1.489
 2079SOL    HW1 7136   5.380   1.689   1.506
 2079SOL    HW2 7137   5.286   1.568   1.452
 2080SOL     OW 7138   2.870   2.427   5.285
 2080SOL    HW1 7139   2.941   2.485   5.324
 2080SOL    HW2 7140   2.912   2.351   5.236
 2081SOL     OW 7141   0.035   0.028   2.943
 2081SOL    HW1 7142   0.098   6.990   2.899
 2081SOL    HW2 7143   6.984   7.001   2.983
 2082SOL     OW 7144   0.394   6.185   2.377
 2082SOL    HW1 7145   0.478   6.139   2.406
 2082SOL    HW2 7146   0.383   6.269   2.430
 2083SOL     OW 7147   6.558   6.189   4.453
 2083SOL    HW1 7148   6.606   6.263   4.407
 2083SOL    HW2 7149   6.572   6.197   4.552
 2084SOL     OW 7150   0.674   1.590   2.233
 2084SOL    HW1 7151   0.691   1.521   2.163
 2084SOL    HW2 7152   0.578   1.586   2.262
 2085SOL     OW 7153   5.064   5.767   6.900
 2085SOL    HW1 7154   5.134   5.716   6.850
 2085SOL    HW2 7155   5.092   5.778   6.995
 2086SOL     OW 7156   4.533   0.213   6.809
 2086SOL    HW1 7157   4.505   0.270   6.732
 2086SOL    HW2 7158   4.593   0.141   6.777
 2087SOL     OW 7159   4.074   2.153   0.015
 2087SOL    HW1 7160   4.012   2.199   6.976
 2087SOL    HW2 7161   4.135   2.220   0.057
 2088SOL     OW 7162   0.098   5.668   5.050
 2088SOL    HW1 7163   0.031   5.657   4.976
 2088SOL    HW2 7164   0.191   5.666   5.012
 2089SOL     OW 7165   2.684   3.315   6.028
 2089SOL    HW1 7166   2.700   3.254   5.950
 2089SOL    HW2 7167   2.647   3.402   5.994
 2090SOL     OW 7168   4.530   3.432   5.336
 2090SOL    HW1 7169   4.592   3.466   5.266
 2090SOL    HW2 7170   4.486   3.348   5.303
 2091SOL     OW 7171   6.196   5.905   1.606
 2091SOL    HW1 7172   6.281   5.898   1.658
 2091SOL    HW2 7173   6.139   5.824   1.624
 2092SOL     OW 7174   4.571   3.606   1.317
 2092SOL    HW1 7175   4.543   3.695   1.282
 2092SOL    HW2 7176   4.490   3.557   1.351
 2093SOL     OW 7177   3.821   2.093   2.937
 2093SOL    HW1 7178   3.811   2.099   3.036
 2093SOL    HW2 7179   3.735   2.119   2.894
 2094SOL     OW 7180   5.451   2.858   6.946
 2094SOL    HW1 7181   5.509   2.789   6.903
 2094SOL    HW2 7182   5.420   2.825   0.010
 2095SOL     OW 7183   5.682   6.328   3.913
 2095SOL    HW1 7184   5.691   6.412   3.860
 2095SOL    HW2 7185   5.674   6.250   3.852
 2096SOL     OW 7186   4.344   6.473   1.977
 2096SOL    HW1 7187   4.270   6.505   1.918
 2096SOL    HW2 7188   4.430   6.473   1.926
 2097SOL     OW 7189   2.009   4.692   6.518
 2097SOL    HW1 7190   2.021   4.660   6.424
 2097SOL    HW2 7191   1.988   4.615   6.578
 2098SOL     OW 7192   3.664   6.238   3.283
 2098SOL    HW1 7193   3.652   6.203   3.190
 2098SOL    HW2 7194   3.616   6.325   3.292
 2099SOL     OW 7195   5.303   1.098   0.032
 2099SOL    HW1 7196   5.248   1.031   7.007
 2099SOL    HW2 7197   5.295   1.187   7.012
 2100SOL     OW 7198   5.520   1.157   0.653
 2100SOL    HW1 7199   5.614   1.129   0.633
 2100SOL    HW2 7200   5.508   1.253   0.626
 2101SOL     OW 7201   0.449   6.519   1.719
 2101SOL    HW1 7202   0.451   6.528   1.818
 2101SOL    HW2 7203   0.456   6.609   1.677
 2102SOL     OW 7204   4.210   3.521   0.726
 2102SOL    HW1 7205   4.163   3.453   0.668
 2102SOL    HW2 7206   4.162   3.529   0.813
 2103SOL     OW 7207   2.986   5.832   0.005
 2103SOL    HW1 7208   2.938   5.792   0.083
 2103SOL    HW2 7209   3.015   5.925   0.028
 2104SOL     OW 7210   1.209   4.520   2.950
 2104SOL    HW1 7211   1.255   4.609   2.949
 2104SOL    HW2 7212   1.184   4.494   2.857
 2105SOL     OW 7213   5.374   4.396   0.059
 2105SOL    HW1 7214   5.394   4.445   6.999
 2105SOL    HW2 7215   5.423   4.439   0.135
 2106SOL     OW 7216   4.926   3.757   2.456
 2106SOL    HW1 7217   4.886   3.790   2.541
 2106SOL    HW2 7218   4.895   3.663   2.438
 2107SOL     OW 7219   5.580   3.912   5.234
 2107SOL    HW1 7220   5.601   4.008   5.251
 2107SOL    HW2 7221   5.585   3.894   5.136
 2108SOL     OW 7222   6.004   6.763   5.878
 2108SOL    HW1 7223   5.999   6.826   5.955
 2108SOL    HW2 7224   5.926   6.699   5.881
 2109SOL     OW 7225   3.080   5.564   3.179
 2109SOL    HW1 7226   3.174   5.577   3.145
 2109SOL    HW2 7227   3.049   5.472   3.157
 2110SOL     OW 7228   3.598   0.396   6.598
 2110SOL    HW1 7229   3.691   0.359   6.601
 2110SOL    HW2 7230   3.579   0.448   6.681
 2111SOL     OW 7231   1.109   3.195   5.741
 2111SOL    HW1 7232   1.089   3.248   5.823
 2111SOL    HW2 7233   1.199   3.152   5.750
 2112SOL     OW 7234   0.462   1.834   0.735
 2112SOL    HW1 7235   0.465   1.750   0.789
 2112SOL    HW2 7236   0.476   1.913   0.794
 2113SOL     OW 7237   1.927   0.304   4.704
 2113SOL    HW1 7238   1.836   0.344   4.713
 2113SOL    HW2 7239   1.933   0.254   4.618
 2114SOL     OW 7240   1.702   2.840   6.906
 2114SOL    HW1 7241   1.750   2.761   6.945
 2114SOL    HW2 7242   1.757   2.879   6.832
 2115SOL     OW 7243   0.190   5.344   3.300
 2115SOL    HW1 7244   0.216   5.308   3.389
 2115SOL    HW2 7245   0.100   5.309   3.274
 2116SOL     OW 7246   0.854   2.132   6.971
 2116SOL    HW1 7247   0.923   2.080   7.022
 2116SOL    HW2 7248   0.820   2.076   6.895
 2117SOL     OW 7249   5.745   1.628   2.031
 2117SOL    HW1 7250   5.703   1.645   2.120
 2117SOL    HW2 7251   5.679   1.649   1.959
 2118SOL     OW 7252   6.359   3.352   2.231
 2118SOL    HW1 7253   6.378   3.322   2.137
 2118SOL    HW2 7254   6.289   3.293   2.271
 2119SOL     OW 7255   2.824   0.272   6.934
 2119SOL    HW1 7256   2.890   0.210   6.976
 2119SOL    HW2 7257   2.803   0.241   6.841
 2120SOL     OW 7258   5.773   1.757   0.898
 2120SOL    HW1 7259   5.718   1.818   0.842
 2120SOL    HW2 7260   5.850   1.808   0.937
 2121SOL     OW 7261   2.308   0.992   6.427
 2121SOL    HW1 7262   2.328   0.944   6.342
 2121SOL    HW2 7263   2.285   1.087   6.407
 2122SOL     OW 7264   6.157   0.476   5.446
 2122SOL    HW1 7265   6.116   0.540   5.512
 2122SOL    HW2 7266   6.139   0.383   5.476
 2123SOL     OW 7267   1.132   6.084   3.014
 2123SOL    HW1 7268   1.091   6.163   2.967
 2123SOL    HW2 7269   1.227   6.074   2.985
 2124SOL     OW 7270   3.277   2.761   5.765
 2124SOL    HW1 7271   3.364   2.811   5.756
 2124SOL    HW2 7272   3.204   2.826   5.783
 2125SOL     OW 7273   1.834   5.947   3.006
 2125SOL    HW1 7274   1.825   5.992   2.917
 2125SOL    HW2 7275   1.748   5.957   3.057
 2126SOL     OW 7276   3.727   3.746   0.089
 2126SOL    HW1 7277   3.807   3.761   0.031
 2126SOL    HW2 7278   3.648   3.795   0.051
 2127SOL     OW 7279   0.204   2.671   5.947
 2127SOL    HW1 7280   0.253   2.714   5.871
 2127SOL    HW2 7281   0.113   2.643   5.916
 2128SOL     OW 7282   5.296   3.171   1.826
 2128SOL    HW1 7283   5.236   3.202   1.899
 2128SOL    HW2 7284   5.290   3.234   1.748
 2129SOL     OW 7285   5.523   4.286   3.696
 2129SOL    HW1 7286   5.603   4.227   3.705
 2129SOL    HW2 7287   5.464   4.251   3.623
 2130SOL     OW 7288   1.898   0.884   2.608
 2130SOL    HW1 7289   1.889   0.872   2.509
 2130SOL    HW2 7290   1.966   0.819   2.643
 2131SOL     OW 7291   5.814   1.894   5.740
 2131SOL    HW1 7292   5.781   1.834   5.667
 2131SOL    HW2 7293   5.822   1.842   5.825
 2132SOL     OW 7294   2.773   2.015   6.706
 2132SOL    HW1 7295   2.780   2.113   6.723
 2132SOL    HW2 7296   2.862   1.979   6.680
 2133SOL     OW 7297   2.533   2.149   1.854
 2133SOL    HW1 7298   2.558   2.127   1.760
 2133SOL    HW2 7299   2.433   2.159   1.860
 2134SOL     OW 7300   0.809   6.382   4.946
 2134SOL    HW1 7301   0.794   6.287   4.918
 2134SOL    HW2 7302   0.819   6.385   5.045
 2135SOL     OW 7303   0.604   1.306   3.495
 2135SOL    HW1 7304   0.646   1.349   3.415
 2135SOL    HW2 7305   0.514   1.270   3.470
 2136SOL     OW 7306   0.655   3.260   4.392
 2136SOL    HW1 7307   0.699   3.180   4.431
 2136SOL    HW2 7308   0.660   3.336   4.457
 2137SOL     OW 7309   1.439   7.018   5.020
 2137SOL    HW1 7310   1.511   6.956   4.989
 2137SOL    HW2 7311   1.413   6.995   5.114
 2138SOL     OW 7312   0.141   2.509   0.404
 2138SOL    HW1 7313   0.115   2.412   0.404
 2138SOL    HW2 7314   0.240   2.517   0.410
 2139SOL     OW 7315   3.244   0.368   4.692
 2139SOL    HW1 7316   3.296   0.285   4.672
 2139SOL    HW2 7317   3.188   0.392   4.613
 2140SOL     OW 7318   2.307   6.123   3.777
 2140SOL    HW1 7319   2.330   6.068   3.697
 2140SOL    HW2 7320   2.381   6.187   3.797
 2141SOL     OW 7321   5.777   2.332   0.766
 2141SOL    HW1 7322   5.761   2.234   0.776
 2141SOL    HW2 7323   5.797   2.372   0.856
 2142SOL     OW 7324   1.952   2.134   3.640
 2142SOL    HW1 7325   1.908   2.048   3.612
 2142SOL    HW2 7326   2.048   2.133   3.610
 2143SOL     OW 7327   3.485   0.028   1.366
 2143SOL    HW1 7328   3.391   0.057   1.345
 2143SOL    HW2 7329   3.533   0.102   1.413
 2144SOL     OW 7330   0.889   0.896   3.586
 2144SOL    HW1 7331   0.937   0.929   3.504
 2144SOL    HW2 7332   0.790   0.907   3.572
 2145SOL     OW 7333   3.472   5.261   3.374
 2145SOL    HW1 7334   3.471   5.161   3.372
 2145SOL    HW2 7335   3.506   5.292   3.463
 2146SOL     OW 7336   3.419   2.855   2.078
 2146SOL    HW1 7337   3.495   2.794   2.054
 2146SOL    HW2 7338   3.344   2.841   2.013
 2147SOL     OW 7339   0.626   1.669   6.165
 2147SOL    HW1 7340   0.595   1.574   6.173
 2147SOL    HW2 7341   0.716   1.678   6.206
 2148SOL     OW 7342   4.906   3.599   3.222
 2148SOL    HW1 7343   4.896   3.499   3.218
 2148SOL    HW2 7344   4.990   3.626   3.176
 2149SOL     OW 7345   3.987   1.038   2.433
 2149SOL    HW1 7346   3.939   0.961   2.477
 2149SOL    HW2 7347   4.072   1.004   2.392
 2150SOL     OW 7348   3.153   2.017   3.483
 2150SOL    HW1 7349   3.072   1.975   3.443
 2150SOL    HW2 7350   3.126   2.079   3.557
 2151SOL     OW 7351   3.623   2.647   5.518
 2151SOL    HW1 7352   3.607   2.564   5.572
 2151SOL    HW2 7353   3.591   2.727   5.569
 2152SOL     OW 7354   6.037   6.426   2.135
 2152SOL    HW1 7355   6.012   6.391   2.225
 2152SOL    HW2 7356   5.976   6.386   2.066
 2153SOL     OW 7357   4.476   1.794   3.841
 2153SOL    HW1 7358   4.383   1.800   3.803
 2153SOL    HW2 7359   4.542   1.797   3.766
 2154SOL     OW 7360   2.626   5.961   4.764
 2154SOL    HW1 7361   2.574   5.932   4.844
 2154SOL    HW2 7362   2.655   5.881   4.711
 2155SOL     OW 7363   1.263   4.157   0.138
 2155SOL    HW1 7364   1.344   4.116   0.095
 2155SOL    HW2 7365   1.289   4.196   0.226
 2156SOL     OW 7366   1.988   0.510   2.292
 2156SOL    HW1 7367   2.053   0.553   2.229
 2156SOL    HW2 7368   1.938   0.438   2.245
 2157SOL     OW 7369   0.316   1.236   4.900
 2157SOL    HW1 7370   0.326   1.183   4.816
 2157SOL    HW2 7371   0.247   1.194   4.959
 2158SOL     OW 7372   3.965   6.880   1.140
 2158SOL    HW1 7373   3.880   6.912   1.182
 2158SOL    HW2 7374   4.043   6.907   1.197
 2159SOL     OW 7375   1.224   6.923   4.847
 2159SOL    HW1 7376   1.305   6.956   4.896
 2159SOL    HW2 7377   1.182   6.849   4.900
 2160SOL     OW 7378   3.131   4.566   0.970
 2160SOL    HW1 7379   3.092   4.603   1.054
 2160SOL    HW2 7380   3.177   4.479   0.991
 2161SOL     OW 7381   5.048   3.124   3.302
 2161SOL    HW1 7382   5.035   3.025   3.306
 2161SOL    HW2 7383   5.103   3.154   3.379
 2162SOL     OW 7384   1.826   1.014   6.867
 2162SOL    HW1 7385   1.845   0.950   6.793
 2162SOL    HW2 7386   1.842   0.969   6.955
 2163SOL     OW 7387   1.627   1.232   0.544
 2163SOL    HW1 7388   1.703   1.167   0.545
 2163SOL    HW2 7389   1.642   1.300   0.472
 2164SOL     OW 7390   1.854   1.077   6.581
 2164SOL    HW1 7391   1.936   1.088   6.524
 2164SOL    HW2 7392   1.852   1.149   6.650
 2165SOL     OW 7393   1.664   0.013   3.308
 2165SOL    HW1 7394   1.673   0.091   3.246
 2165SOL    HW2 7395   1.746   0.005   3.364
 2166SOL     OW 7396   1.378   2.629   5.333
 2166SOL    HW1 7397   1.346   2.658   5.423
 2166SOL    HW2 7398   1.355   2.533   5.319
 2167SOL     OW 7399   3.734   0.953   2.115
 2167SOL    HW1 7400   3.723   1.034   2.173
 2167SOL    HW2 7401   3.734   0.980   2.019
 2168SOL     OW 7402   5.837   3.620   4.291
 2168SOL    HW1 7403   5.898   3.675   4.348
 2168SOL    HW2 7404   5.776   3.681   4.240
 2169SOL     OW 7405   4.870   2.288   6.319
 2169SOL    HW1 7406   4.873   2.388   6.312
 2169SOL    HW2 7407   4.921   2.248   6.242
 2170SOL     OW 7408   4.736   4.902   4.943
 2170SOL    HW1 7409   4.703   4.836   5.011
 2170SOL    HW2 7410   4.657   4.941   4.895
 2171SOL     OW 7411   6.858   2.866   0.251
 2171SOL    HW1 7412   6.911   2.931   0.307
 2171SOL    HW2 7413   6.781   2.913   0.209
 2172SOL     OW 7414   2.913   0.821   0.783
 2172SOL    HW1 7415   2.979   0.890   0.812
 2172SOL    HW2 7416   2.923   0.739   0.839
 2173SOL     OW 7417   5.398   1.604   5.809
 2173SOL    HW1 7418   5.306   1.579   5.836
 2173SOL    HW2 7419   5.436   1.533   5.749
 2174SOL     OW 7420   6.871   4.896   5.240
 2174SOL    HW1 7421   6.882   4.994   5.224
 2174SOL    HW2 7422   6.960   4.851   5.235
 2175SOL     OW 7423   2.581   0.475   3.972
 2175SOL    HW1 7424   2.673   0.437   3.959
 2175SOL    HW2 7425   2.551   0.518   3.887
 2176SOL     OW 7426   2.036   2.528   3.221
 2176SOL    HW1 7427   1.958   2.477   3.184
 2176SOL    HW2 7428   2.077   2.476   3.296
 2177SOL     OW 7429   0.463   2.496   0.837
 2177SOL    HW1 7430   0.382   2.471   0.784
 2177SOL    HW2 7431   0.480   2.426   0.907
 2178SOL     OW 7432   0.912   4.308   0.233
 2178SOL    HW1 7433   0.871   4.393   0.265
 2178SOL    HW2 7434   0.939   4.252   0.311
 2179SOL     OW 7435   1.726   5.246   4.250
 2179SOL    HW1 7436   1.642   5.296   4.274
 2179SOL    HW2 7437   1.763   5.202   4.332
 2180SOL     OW 7438   3.165   3.989   2.878
 2180SOL    HW1 7439   3.208   4.028   2.960
 2180SOL    HW2 7440   3.236   3.961   2.814
 2181SOL     OW 7441   5.502   5.713   5.714
 2181SOL    HW1 7442   5.491   5.764   5.629
 2181SOL    HW2 7443   5.458   5.624   5.706
 2182SOL     OW 7444   0.017   2.892   6.494
 2182SOL    HW1 7445   0.033   2.989   6.515
 2182SOL    HW2 7446   7.015   2.883   6.398
 2183SOL     OW 7447   3.697   2.950   0.725
 2183SOL    HW1 7448   3.641   2.867   0.725
 2183SOL    HW2 7449   3.792   2.926   0.705
 2184SOL     OW 7450   3.845   2.507   6.266
 2184SOL    HW1 7451   3.840   2.556   6.179
 2184SOL    HW2 7452   3.784   2.550   6.333
 2185SOL     OW 7453   1.693   0.804   1.430
 2185SOL    HW1 7454   1.677   0.885   1.487
 2185SOL    HW2 7455   1.703   0.832   1.334
 2186SOL     OW 7456   0.598   5.773   3.303
 2186SOL    HW1 7457   0.565   5.711   3.231
 2186SOL    HW2 7458   0.698   5.769   3.307
 2187SOL     OW 7459   6.760   1.645   0.203
 2187SOL    HW1 7460   6.798   1.565   0.249
 2187SOL    HW2 7461   6.814   1.666   0.121
 2188SOL     OW 7462   5.671   6.826   3.470
 2188SOL    HW1 7463   5.582   6.869   3.453
 2188SOL    HW2 7464   5.716   6.873   3.546
 2189SOL     OW 7465   2.175   6.503   6.324
 2189SOL    HW1 7466   2.182   6.586   6.269
 2189SOL    HW2 7467   2.097   6.511   6.386
 2190SOL     OW 7468   5.563   2.052   1.523
 2190SOL    HW1 7469   5.565   1.962   1.566
 2190SOL    HW2 7470   5.499   2.112   1.571
 2191SOL     OW 7471   2.996   2.962   6.340
 2191SOL    HW1 7472   3.010   2.905   6.421
 2191SOL    HW2 7473   3.079   3.013   6.319
 2192SOL     OW 7474   4.668   5.622   5.384
 2192SOL    HW1 7475   4.745   5.615   5.321
 2192SOL    HW2 7476   4.585   5.586   5.340
 2193SOL     OW 7477   0.698   5.215   5.327
 2193SOL    HW1 7478   0.728   5.120   5.331
 2193SOL    HW2 7479   0.602   5.218   5.300
 2194SOL     OW 7480   2.223   6.493   0.583
 2194SOL    HW1 7481   2.300   6.477   0.644
 2194SOL    HW2 7482   2.139   6.500   0.636
 2195SOL     OW 7483   1.122   5.385   2.860
 2195SOL    HW1 7484   1.042   5.347   2.814
 2195SOL    HW2 7485   1.177   5.311   2.899
 2196SOL     OW 7486   3.781   2.084   6.055
 2196SOL    HW1 7487   3.781   2.129   6.144
 2196SOL    HW2 7488   3.815   2.147   5.985
 2197SOL     OW 7489   5.111   5.090   1.313
 2197SOL    HW1 7490   5.092   5.171   1.367
 2197SOL    HW2 7491   5.061   5.012   1.351
 2198SOL     OW 7492   6.671   3.542   0.529
 2198SOL    HW1 7493   6.598   3.560   0.463
 2198SOL    HW2 7494   6.635   3.488   0.605
 2199SOL     OW 7495   4.417   0.049   1.267
 2199SOL    HW1 7496   4.464   6.995   1.307
 2199SOL    HW2 7497   4.372   0.020   1.182
 2200SOL     OW 7498   3.614   0.787   4.529
 2200SOL    HW1 7499   3.599   0.702   4.479
 2200SOL    HW2 7500   3.621   0.767   4.627
 2201SOL     OW 7501   5.746   3.595   2.147
 2201SOL    HW1 7502   5.787   3.595   2.056
 2201SOL    HW2 7503   5.809   3.551   2.212
 2202SOL     OW 7504   4.472   5.769   3.885
 2202SOL    HW1 7505   4.448   5.683   3.840
 2202SOL    HW2 7506   4.496   5.837   3.816
 2203SOL     OW 7507   3.398   1.893   3.412
 2203SOL    HW1 7508   3.309   1.936   3.426
 2203SOL    HW2 7509   3.408   1.867   3.316
 2204SOL     OW 7510   3.166   2.496   0.518
 2204SOL    HW1 7511   3.233   2.550   0.467
 2204SOL    HW2 7512   3.090   2.473   0.458
 2205SOL     OW 7513   3.120   0.114   0.937
 2205SOL    HW1 7514   3.096   0.210   0.923
 2205SOL    HW2 7515   3.212   0.097   0.901
 2206SOL     OW 7516   2.571   3.167   0.152
 2206SOL    HW1 7517   2.566   3.264   0.128
 2206SOL    HW2 7518   2.479   3.133   0.169
 2207SOL     OW 7519   1.009   4.539   6.318
 2207SOL    HW1 7520   0.970   4.539   6.226
 2207SOL    HW2 7521   1.047   4.449   6.339
 2208SOL     OW 7522   0.199   3.541   2.030
 2208SOL    HW1 7523   0.177   3.476   1.957
 2208SOL    HW2 7524   0.242   3.492   2.106
 2209SOL     OW 7525   0.890   5.922   6.517
 2209SOL    HW1 7526   0.841   5.842   6.552
 2209SOL    HW2 7527   0.861   5.939   6.423
 2210SOL     OW 7528   1.000   6.278   4.184
 2210SOL    HW1 7529   0.947   6.362   4.188
 2210SOL    HW2 7530   0.974   6.226   4.102
 2211SOL     OW 7531   5.894   1.233   5.934
 2211SOL    HW1 7532   5.970   1.212   5.873
 2211SOL    HW2 7533   5.811   1.189   5.900
 2212SOL     OW 7534   1.701   0.421   6.139
 2212SOL    HW1 7535   1.643   0.377   6.069
 2212SOL    HW2 7536   1.665   0.400   6.230
 2213SOL     OW 7537   3.663   1.798   3.438
 2213SOL    HW1 7538   3.569   1.823   3.417
 2213SOL    HW2 7539   3.685   1.709   3.398
 2214SOL     OW 7540   5.092   6.897   4.903
 2214SOL    HW1 7541   5.137   6.871   4.817
 2214SOL    HW2 7542   5.038   6.980   4.889
 2215SOL     OW 7543   6.284   2.445   5.288
 2215SOL    HW1 7544   6.345   2.503   5.234
 2215SOL    HW2 7545   6.283   2.479   5.383
 2216SOL     OW 7546   1.469   6.383   1.396
 2216SOL    HW1 7547   1.559   6.362   1.436
 2216SOL    HW2 7548   1.410   6.303   1.404
 2217SOL     OW 7549   4.036   0.287   1.386
 2217SOL    HW1 7550   4.014   0.257   1.479
 2217SOL    HW2 7551   4.135   0.289   1.374
 2218SOL     OW 7552   0.494   5.594   6.699
 2218SOL    HW1 7553   0.440   5.514   6.672
 2218SOL    HW2 7554   0.500   5.599   6.798
 2219SOL     OW 7555   1.927   3.771   2.999
 2219SOL    HW1 7556   1.851   3.809   2.946
 2219SOL    HW2 7557   1.911   3.673   3.014
 2220SOL     OW 7558   0.456   1.446   6.192
 2220SOL    HW1 7559   0.424   1.353   6.214
 2220SOL    HW2 7560   0.392   1.513   6.231
 2221SOL     OW 7561   6.593   2.387   1.494
 2221SOL    HW1 7562   6.587   2.320   1.567
 2221SOL    HW2 7563   6.548   2.472   1.522
 2222SOL     OW 7564   4.890   6.993   2.570
 2222SOL    HW1 7565   4.979   6.987   2.617
 2222SOL    HW2 7566   4.819   7.014   2.637
 2223SOL     OW 7567   5.610   5.221   3.189
 2223SOL    HW1 7568   5.664   5.300   3.217
 2223SOL    HW2 7569   5.664   5.163   3.128
 2224SOL     OW 7570   1.380   4.670   1.345
 2224SOL    HW1 7571   1.295   4.619   1.334
 2224SOL    HW2 7572   1.440   4.621   1.408
 2225SOL     OW 7573   6.265   5.044   2.143
 2225SOL    HW1 7574   6.268   4.947   2.167
 2225SOL    HW2 7575   6.170   5.074   2.142
 2226SOL     OW 7576   3.584   4.274   0.797
 2226SOL    HW1 7577   3.646   4.352   0.806
 2226SOL    HW2 7578   3.522   4.272   0.876
 2227SOL     OW 7579   6.699   4.166   5.000
 2227SOL    HW1 7580   6.651   4.188   5.085
 2227SOL    HW2 7581   6.740   4.250   4.963
 2228SOL     OW 7582   3.523   4.747   6.107
 2228SOL    HW1 7583   3.546   4.800   6.189
 2228SOL    HW2 7584   3.447   4.791   6.060
 2229SOL     OW 7585   4.396   1.039   3.415
 2229SOL    HW1 7586   4.394   0.939   3.426
 2229SOL    HW2 7587   4.349   1.065   3.331
 2230SOL     OW 7588   1.352   6.601   6.118
 2230SOL    HW1 7589   1.372   6.653   6.200
 2230SOL    HW2 7590   1.256   6.614   6.091
 2231SOL     OW 7591   2.331   6.973   1.554
 2231SOL    HW1 7592   2.369   6.882   1.569
 2231SOL    HW2 7593   2.295   7.009   1.640
 2232SOL     OW 7594   6.192   2.541   2.672
 2232SOL    HW1 7595   6.133   2.621   2.680
 2232SOL    HW2 7596   6.136   2.460   2.657
 2233SOL     OW 7597   3.802   0.049   0.102
 2233SOL    HW1 7598   3.878   7.020   0.139
 2233SOL    HW2 7599   3.808   0.053   0.003
 2234SOL     OW 7600   3.936   1.590   0.666
 2234SOL    HW1 7601   3.990   1.577   0.583
 2234SOL    HW2 7602   3.996   1.586   0.746
 2235SOL     OW 7603   1.467   6.740   0.696
 2235SOL    HW1 7604   1.371   6.757   0.721
 2235SOL    HW2 7605   1.471   6.672   0.623
 2236SOL     OW 7606   0.655   4.129   1.284
 2236SOL    HW1 7607   0.648   4.030   1.292
 2236SOL    HW2 7608   0.717   4.153   1.210
 2237SOL     OW 7609   6.060   2.772   4.586
 2237SOL    HW1 7610   6.048   2.681   4.626
 2237SOL    HW2 7611   6.077   2.763   4.488
 2238SOL     OW 7612   0.889   5.738   2.036
 2238SOL    HW1 7613   0.809   5.699   1.990
 2238SOL    HW2 7614   0.873   5.738   2.135
 2239SOL     OW 7615   4.442   5.077   3.242
 2239SOL    HW1 7616   4.393   5.081   3.329
 2239SOL    HW2 7617   4.494   4.992   3.236
 2240SOL     OW 7618   5.812   5.094   2.322
 2240SOL    HW1 7619   5.751   5.156   2.273
 2240SOL    HW2 7620   5.896   5.080   2.269
 2241SOL     OW 7621   0.355   6.952   2.159
 2241SOL    HW1 7622   0.423   6.972   2.090
 2241SOL    HW2 7623   0.275   7.011   2.146
 2242SOL     OW 7624   4.956   2.004   2.725
 2242SOL    HW1 7625   4.905   2.042   2.802
 2242SOL    HW2 7626   5.054   2.006   2.745
 2243SOL     OW 7627   2.246   5.860   5.127
 2243SOL    HW1 7628   2.233   5.776   5.180
 2243SOL    HW2 7629   2.294   5.928   5.183
 2244SOL     OW 7630   2.588   0.867   4.424
 2244SOL    HW1 7631   2.586   0.963   4.453
 2244SOL    HW2 7632   2.649   0.857   4.346
 2245SOL     OW 7633   1.114   1.345   2.284
 2245SOL    HW1 7634   1.159   1.393   2.208
 2245SOL    HW2 7635   1.022   1.384   2.297
 2246SOL     OW 7636   0.797   4.010   5.932
 2246SOL    HW1 7637   0.743   3.990   6.013
 2246SOL    HW2 7638   0.756   3.966   5.852
 2247SOL     OW 7639   2.146   2.486   6.150
 2247SOL    HW1 7640   2.107   2.495   6.058
 2247SOL    HW2 7641   2.194   2.570   6.174
 2248SOL     OW 7642   5.097   3.319   5.293
 2248SOL    HW1 7643   5.149   3.402   5.277
 2248SOL    HW2 7644   5.007   3.327   5.250
 2249SOL     OW 7645   5.116   5.479   3.795
 2249SOL    HW1 7646   5.193   5.485   3.858
 2249SOL    HW2 7647   5.051   5.411   3.829
 2250SOL     OW 7648   0.063   4.496   0.242
 2250SOL    HW1 7649   0.136   4.434   0.213
 2250SOL    HW2 7650   0.088   4.590   0.221
 2251SOL     OW 7651   5.780   0.997   6.884
 2251SOL    HW1 7652   5.756   1.020   6.790
 2251SOL    HW2 7653   5.809   0.901   6.888
 2252SOL     OW 7654   4.655   2.503   5.533
 2252SOL    HW1 7655   4.673   2.432   5.465
 2252SOL    HW2 7656   4.594   2.572   5.493
 2253SOL     OW 7657   2.530   3.462   0.125
 2253SOL    HW1 7658   2.583   3.522   0.186
 2253SOL    HW2 7659   2.507   3.511   0.041
 2254SOL     OW 7660   2.551   3.932   5.917
 2254SOL    HW1 7661   2.625   3.873   5.948
 2254SOL    HW2 7662   2.566   4.026   5.950
 2255SOL     OW 7663   6.313   2.423   1.314
 2255SOL    HW1 7664   6.401   2.379   1.331
 2255SOL    HW2 7665   6.295   2.489   1.387
 2256SOL     OW 7666   4.052   4.805   1.418
 2256SOL    HW1 7667   3.998   4.731   1.379
 2256SOL    HW2 7668   4.146   4.774   1.435
 2257SOL     OW 7669   1.995   4.174   4.159
 2257SOL    HW1 7670   2.010   4.163   4.257
 2257SOL    HW2 7671   1.904   4.213   4.144
 2258SOL     OW 7672   1.514   5.401   4.244
 2258SOL    HW1 7673   1.428   5.442   4.214
 2258SOL    HW2 7674   1.586   5.471   4.242
 2259SOL     OW 7675   5.151   3.541   0.119
 2259SOL    HW1 7676   5.201   3.625   0.097
 2259SOL    HW2 7677   5.126   3.494   0.034
 2260SOL     OW 7678   5.411   5.384   1.431
 2260SOL    HW1 7679   5.500   5.351   1.400
 2260SOL    HW2 7680   5.364   5.429   1.355
 2261SOL     OW 7681   5.312   6.293   6.867
 2261SOL    HW1 7682   5.254   6.374   6.856
 2261SOL    HW2 7683   5.406   6.315   6.840
 2262SOL     OW 7684   4.612   2.215   3.243
 2262SOL    HW1 7685   4.656   2.305   3.249
 2262SOL    HW2 7686   4.675   2.150   3.199
 2263SOL     OW 7687   0.815   4.980   5.971
 2263SOL    HW1 7688   0.832   4.986   5.873
 2263SOL    HW2 7689   0.871   4.907   6.011
 2264SOL     OW 7690   3.765   3.438   4.391
 2264SOL    HW1 7691   3.700   3.362   4.385
 2264SOL    HW2 7692   3.760   3.492   4.307
 2265SOL     OW 7693   0.166   6.821   1.943
 2265SOL    HW1 7694   0.113   6.836   1.859
 2265SOL    HW2 7695   0.133   6.883   2.014
 2266SOL     OW 7696   5.939   0.450   0.666
 2266SOL    HW1 7697   5.839   0.451   0.676
 2266SOL    HW2 7698   5.980   0.418   0.752
 2267SOL     OW 7699   6.225   2.757   5.714
 2267SOL    HW1 7700   6.257   2.741   5.807
 2267SOL    HW2 7701   6.144   2.701   5.696
 2268SOL     OW 7702   0.050   5.747   6.619
 2268SOL    HW1 7703   0.120   5.716   6.555
 2268SOL    HW2 7704   6.988   5.700   6.600
 2269SOL     OW 7705   6.457   4.981   5.729
 2269SOL    HW1 7706   6.509   4.900   5.755
 2269SOL    HW2 7707   6.511   5.036   5.666
 2270SOL     OW 7708   3.682   3.378   1.685
 2270SOL    HW1 7709   3.739   3.439   1.630
 2270SOL    HW2 7710   3.611   3.431   1.732
 2271SOL     OW 7711   6.575   4.391   2.127
 2271SOL    HW1 7712   6.662   4.403   2.176
 2271SOL    HW2 7713   6.542   4.481   2.097
 2272SOL     OW 7714   6.151   1.795   6.017
 2272SOL    HW1 7715   6.149   1.793   6.117
 2272SOL    HW2 7716   6.058   1.796   5.981
 2273SOL     OW 7717   0.657   1.661   2.748
 2273SOL    HW1 7718   0.645   1.658   2.649
 2273SOL    HW2 7719   0.568   1.650   2.793
 2274SOL     OW 7720   0.903   3.347   4.035
 2274SOL    HW1 7721   0.979   3.320   4.094
 2274SOL    HW2 7722   0.899   3.286   3.956
 2275SOL     OW 7723   4.991   6.770   3.886
 2275SOL    HW1 7724   5.067   6.722   3.931
 2275SOL    HW2 7725   4.905   6.744   3.929
 2276SOL     OW 7726   4.210   5.053   2.039
 2276SOL    HW1 7727   4.277   5.029   2.110
 2276SOL    HW2 7728   4.153   4.973   2.020
 2277SOL     OW 7729   3.518   3.351   0.132
 2277SOL    HW1 7730   3.447   3.282   0.124
 2277SOL    HW2 7731   3.535   3.371   0.228
 2278SOL     OW 7732   5.541   5.992   1.551
 2278SOL    HW1 7733   5.541   6.014   1.453
 2278SOL    HW2 7734   5.614   6.044   1.596
 2279SOL     OW 7735   5.863   3.502   4.780
 2279SOL    HW1 7736   5.820   3.577   4.731
 2279SOL    HW2 7737   5.930   3.457   4.720
 2280SOL     OW 7738   6.000   6.626   6.669
 2280SOL    HW1 7739   6.007   6.563   6.747
 2280SOL    HW2 7740   5.920   6.602   6.614
 2281SOL     OW 7741   3.584   2.699   0.737
 2281SOL    HW1 7742   3.595   2.626   0.804
 2281SOL    HW2 7743   3.539   2.663   0.656
 2282SOL     OW 7744   4.547   5.793   2.729
 2282SOL    HW1 7745   4.554   5.836   2.639
 2282SOL    HW2 7746   4.611   5.836   2.792
 2283SOL     OW 7747   6.931   3.017   3.006
 2283SOL    HW1 7748   6.960   2.921   2.998
 2283SOL    HW2 7749   6.987   3.063   3.075
 2284SOL     OW 7750   1.989   2.740   1.999
 2284SOL    HW1 7751   2.011   2.742   2.097
 2284SOL    HW2 7752   1.990   2.834   1.963
 2285SOL     OW 7753   1.471   4.190   0.520
 2285SOL    HW1 7754   1.569   4.209   0.511
 2285SOL    HW2 7755   1.452   4.097   0.490
 2286SOL     OW 7756   6.656   6.243   4.702
 2286SOL    HW1 7757   6.706   6.211   4.782
 2286SOL    HW2 7758   6.575   6.294   4.731
 2287SOL     OW 7759   2.277   2.538   2.072
 2287SOL    HW1 7760   2.184   2.504   2.086
 2287SOL    HW2 7761   2.336   2.505   2.146
 2288SOL     OW 7762   0.315   6.263   3.811
 2288SOL    HW1 7763   0.364   6.201   3.873
 2288SOL    HW2 7764   0.364   6.269   3.724
 2289SOL     OW 7765   5.304   1.997   2.140
 2289SOL    HW1 7766   5.224   1.973   2.085
 2289SOL    HW2 7767   5.361   2.063   2.091
 2290SOL     OW 7768   2.955   3.343   2.686
 2290SOL    HW1 7769   2.884   3.273   2.673
 2290SOL    HW2 7770   2.937   3.420   2.626
 2291SOL     OW 7771   1.690   2.722   0.545
 2291SOL    HW1 7772   1.773   2.675   0.518
 2291SOL    HW2 7773   1.655   2.682   0.630
 2292SOL     OW 7774   4.348   2.167   3.299
 2292SOL    HW1 7775   4.317   2.226   3.374
 2292SOL    HW2 7776   4.446   2.177   3.287
 2293SOL     OW 7777   6.151   1.287   6.986
 2293SOL    HW1 7778   6.059   1.248   6.984
 2293SOL    HW2 7779   6.218   1.213   6.980
 2294SOL     OW 7780   0.815   2.351   6.028
 2294SOL    HW1 7781   0.909   2.371   6.054
 2294SOL    HW2 7782   0.772   2.433   5.990
 2295SOL     OW 7783   5.982   6.618   1.482
 2295SOL    HW1 7784   6.059   6.647   1.426
 2295SOL    HW2 7785   6.014   6.555   1.553
 2296SOL     OW 7786   2.955   5.616   3.990
 2296SOL    HW1 7787   3.037   5.636   3.936
 2296SOL    HW2 7788   2.978   5.615   4.087
 2297SOL     OW 7789   4.186   4.622   5.362
 2297SOL    HW1 7790   4.233   4.581   5.284
 2297SOL    HW2 7791   4.240   4.607   5.445
 2298SOL     OW 7792   3.503   3.968   4.665
 2298SOL    HW1 7793   3.519   3.890   4.726
 2298SOL    HW2 7794   3.591   4.003   4.633
 2299SOL     OW 7795   5.390   2.834   4.619
 2299SOL    HW1 7796   5.428   2.745   4.592
 2299SOL    HW2 7797   5.418   2.854   4.713
 2300SOL     OW 7798   3.764   6.453   2.055
 2300SOL    HW1 7799   3.718   6.451   1.966
 2300SOL    HW2 7800   3.847   6.398   2.051
 2301SOL     OW 7801   3.474   3.655   4.592
 2301SOL    HW1 7802   3.454   3.623   4.499
 2301SOL    HW2 7803   3.392   3.650   4.648
 2302SOL     OW 7804   4.820   2.040   0.381
 2302SOL    HW1 7805   4.819   2.022   0.283
 2302SOL    HW2 7806   4.730   2.072   0.410
 2303SOL     OW 7807   3.766   2.358   0.883
 2303SOL    HW1 7808   3.689   2.419   0.899
 2303SOL    HW2 7809   3.740   2.288   0.816
 2304SOL     OW 7810   6.031   6.019   1.837
 2304SOL    HW1 7811   5.953   5.958   1.851
 2304SOL    HW2 7812   6.095   5.977   1.772
 2305SOL     OW 7813   2.066   1.135   4.924
 2305SOL    HW1 7814   2.047   1.170   5.016
 2305SOL    HW2 7815   1.996   1.068   4.899
 2306SOL     OW 7816   1.901   5.666   3.554
 2306SOL    HW1 7817   1.980   5.725   3.569
 2306SOL    HW2 7818   1.919   5.604   3.478
 2307SOL     OW 7819   0.487   2.157   5.506
 2307SOL    HW1 7820   0.567   2.196   5.460
 2307SOL    HW2 7821   0.489   2.183   5.603
 2308SOL     OW 7822   2.687   4.768   1.588
 2308SOL    HW1 7823   2.619   4.760   1.515
 2308SOL    HW2 7824   2.656   4.717   1.668
 2309SOL     OW 7825   1.457   6.287   5.068
 2309SOL    HW1 7826   1.445   6.251   4.975
 2309SOL    HW2 7827   1.529   6.357   5.067
 2310SOL     OW 7828   5.037   6.604   1.730
 2310SOL    HW1 7829   5.121   6.553   1.713
 2310SOL    HW2 7830   5.059   6.689   1.778
 2311SOL     OW 7831   2.667   6.319   0.876
 2311SOL    HW1 7832   2.614   6.363   0.949
 2311SOL    HW2 7833   2.720   6.244   0.914
 2312SOL     OW 7834   3.479   4.986   2.853
 2312SOL    HW1 7835   3.570   4.953   2.831
 2312SOL    HW2 7836   3.412   4.943   2.792
 2313SOL     OW 7837   4.945   5.298   2.272
 2313SOL    HW1 7838   4.962   5.217   2.215
 2313SOL    HW2 7839   4.875   5.277   2.340
 2314SOL     OW 7840   2.788   5.914   3.926
 2314SOL    HW1 7841   2.692   5.926   3.954
 2314SOL    HW2 7842   2.792   5.851   3.849
 2315SOL     OW 7843   4.102   3.303   6.883
 2315SOL    HW1 7844   4.038   3.284   6.957
 2315SOL    HW2 7845   4.068   3.263   6.798
 2316SOL     OW 7846   5.560   3.049   3.107
 2316SOL    HW1 7847   5.584   3.050   3.204
 2316SOL    HW2 7848   5.492   2.977   3.090
 2317SOL     OW 7849   1.450   4.977   3.704
 2317SOL    HW1 7850   1.428   5.055   3.762
 2317SOL    HW2 7851   1.459   5.007   3.609
 2318SOL     OW 7852   0.151   0.909   3.683
 2318SOL    HW1 7853   0.244   0.906   3.646
 2318SOL    HW2 7854   0.087   0.869   3.617
 2319SOL     OW 7855   1.556   4.053   4.143
 2319SOL    HW1 7856   1.474   4.109   4.134
 2319SOL    HW2 7857   1.615   4.066   4.063
 2320SOL     OW 7858   6.604   3.164   4.557
 2320SOL    HW1 7859   6.686   3.148   4.502
 2320SOL    HW2 7860   6.592   3.087   4.621
 2321SOL     OW 7861   3.201   6.626   5.377
 2321SOL    HW1 7862   3.189   6.583   5.466
 2321SOL    HW2 7863   3.113   6.662   5.345
 2322SOL     OW 7864   2.450   0.358   5.255
 2322SOL    HW1 7865   2.356   0.375   5.283
 2322SOL    HW2 7866   2.451   0.329   5.159
 2323SOL     OW 7867   4.809   5.252   2.017
 2323SOL    HW1 7868   4.714   5.220   2.007
 2323SOL    HW2 7869   4.816   5.312   2.096
 2324SOL     OW 7870   6.796   5.321   3.418
 2324SOL    HW1 7871   6.840   5.385   3.482
 2324SOL    HW2 7872   6.768   5.239   3.468
 2325SOL     OW 7873   0.144   3.631   0.712
 2325SOL    HW1 7874   0.142   3.702   0.641
 2325SOL    HW2 7875   0.051   3.598   0.728
 2326SOL     OW 7876   1.528   5.443   6.878
 2326SOL    HW1 7877   1.572   5.525   6.915
 2326SOL    HW2 7878   1.534   5.369   6.945
 2327SOL     OW 7879   4.874   2.629   4.512
 2327SOL    HW1 7880   4.816   2.641   4.431
 2327SOL    HW2 7881   4.963   2.594   4.485
 2328SOL     OW 7882   4.808   0.165   3.644
 2328SOL    HW1 7883   4.872   0.118   3.704
 2328SOL    HW2 7884   4.859   0.220   3.578
 2329SOL     OW 7885   0.606   6.407   3.745
 2329SOL    HW1 7886   0.613   6.307   3.743
 2329SOL    HW2 7887   0.669   6.444   3.813
 2330SOL     OW 7888   0.518   4.125   3.020
 2330SOL    HW1 7889   0.566   4.203   3.060
 2330SOL    HW2 7890   0.451   4.158   2.953
 2331SOL     OW 7891   1.021   4.468   5.182
 2331SOL    HW1 7892   0.938   4.523   5.189
 2331SOL    HW2 7893   1.050   4.464   5.086
 2332SOL     OW 7894   5.466   2.466   5.770
 2332SOL    HW1 7895   5.444   2.369   5.779
 2332SOL    HW2 7896   5.402   2.520   5.825
 2333SOL     OW 7897   0.886   5.961   3.655
 2333SOL    HW1 7898   0.969   5.965   3.600
 2333SOL    HW2 7899   0.810   6.005   3.605
 2334SOL     OW 7900   3.346   7.002   0.090
 2334SOL    HW1 7901   3.405   0.058   0.095
 2334SOL    HW2 7902   3.251   0.006   0.082
 2335SOL     OW 7903   5.137   6.591   4.025
 2335SOL    HW1 7904   5.151   6.504   4.072
 2335SOL    HW2 7905   5.218   6.649   4.037
 2336SOL     OW 7906   5.432   1.829   5.992
 2336SOL    HW1 7907   5.499   1.900   5.973
 2336SOL    HW2 7908   5.438   1.758   5.922
 2337SOL     OW 7909   5.453   6.948   3.313
 2337SOL    HW1 7910   5.478   0.021   3.318
 2337SOL    HW2 7911   5.449   6.920   3.218
 2338SOL     OW 7912   0.887   6.608   6.743
 2338SOL    HW1 7913   0.823   6.684   6.729
 2338SOL    HW2 7914   0.903   6.596   6.841
 2339SOL     OW 7915   3.524   4.150   0.426
 2339SOL    HW1 7916   3.511   4.088   0.503
 2339SOL    HW2 7917   3.535   4.097   0.342
 2340SOL     OW 7918   3.184   5.287   4.404
 2340SOL    HW1 7919   3.158   5.267   4.499
 2340SOL    HW2 7920   3.201   5.201   4.356
 2341SOL     OW 7921   5.654   5.070   0.606
 2341SOL    HW1 7922   5.583   5.006   0.635
 2341SOL    HW2 7923   5.668   5.139   0.678
 2342SOL     OW 7924   6.153   0.201   5.379
 2342SOL    HW1 7925   6.202   0.127   5.425
 2342SOL    HW2 7926   6.204   0.229   5.297
 2343SOL     OW 7927   1.107   6.756   1.309
 2343SOL    HW1 7928   1.149   6.669   1.287
 2343SOL    HW2 7929   1.008   6.751   1.293
 2344SOL     OW 7930   2.255   2.236   2.810
 2344SOL    HW1 7931   2.247   2.264   2.906
 2344SOL    HW2 7932   2.213   2.305   2.751
 2345SOL     OW 7933   1.998   1.358   4.522
 2345SOL    HW1 7934   1.933   1.432   4.543
 2345SOL    HW2 7935   1.996   1.339   4.424
 2346SOL     OW 7936   5.351   4.065   5.848
 2346SOL    HW1 7937   5.316   4.130   5.916
 2346SOL    HW2 7938   5.278   4.002   5.821
 2347SOL     OW 7939   1.932   2.992   1.918
 2347SOL    HW1 7940   1.858   2.986   1.986
 2347SOL    HW2 7941   1.996   3.063   1.946
 2348SOL     OW 7942   2.628   6.804   2.123
 2348SOL    HW1 7943   2.614   6.896   2.088
 2348SOL    HW2 7944   2.549   6.747   2.098
 2349SOL     OW 7945   5.497   5.798   5.461
 2349SOL    HW1 7946   5.447   5.789   5.375
 2349SOL    HW2 7947   5.526   5.893   5.473
 2350SOL     OW 7948   2.214   6.878   5.811
 2350SOL    HW1 7949   2.200   6.849   5.716
 2350SOL    HW2 7950   2.242   6.974   5.813
 2351SOL     OW 7951   2.141   5.404   4.325
 2351SOL    HW1 7952   2.179   5.461   4.398
 2351SOL    HW2 7953   2.213   5.346   4.287
 2352SOL     OW 7954   0.571   3.238   2.845
 2352SOL    HW1 7955   0.661   3.197   2.834
 2352SOL    HW2 7956   0.526   3.244   2.756
 2353SOL     OW 7957   3.057   4.180   5.881
 2353SOL    HW1 7958   3.031   4.187   5.978
 2353SOL    HW2 7959   3.089   4.087   5.862
 2354SOL     OW 7960   4.119   2.264   0.812
 2354SOL    HW1 7961   4.151   2.322   0.737
 2354SOL    HW2 7962   4.093   2.321   0.890
 2355SOL     OW 7963   0.426   6.173   0.656
 2355SOL    HW1 7964   0.504   6.229   0.682
 2355SOL    HW2 7965   0.458   6.093   0.604
 2356SOL     OW 7966   3.015   5.129   3.611
 2356SOL    HW1 7967   3.063   5.173   3.687
 2356SOL    HW2 7968   3.069   5.140   3.527
 2357SOL     OW 7969   6.635   4.212   1.669
 2357SOL    HW1 7970   6.602   4.279   1.736
 2357SOL    HW2 7971   6.714   4.249   1.621
 2358SOL     OW 7972   3.877   2.280   5.876
 2358SOL    HW1 7973   3.889   2.353   5.809
 2358SOL    HW2 7974   3.962   2.267   5.927
 2359SOL     OW 7975   1.435   1.702   5.538
 2359SOL    HW1 7976   1.532   1.705   5.514
 2359SOL    HW2 7977   1.409   1.609   5.561
 2360SOL     OW 7978   3.996   4.404   0.511
 2360SOL    HW1 7979   3.906   4.426   0.549
 2360SOL    HW2 7980   4.063   4.471   0.542
 2361SOL     OW 7981   3.887   6.120   1.657
 2361SOL    HW1 7982   3.829   6.041   1.638
 2361SOL    HW2 7983   3.913   6.119   1.754
 2362SOL     OW 7984   4.063   6.086   3.965
 2362SOL    HW1 7985   4.116   6.074   3.882
 2362SOL    HW2 7986   4.009   6.004   3.983
 2363SOL     OW 7987   3.098   3.996   0.532
 2363SOL    HW1 7988   3.157   4.053   0.474
 2363SOL    HW2 7989   3.146   3.971   0.615
 2364SOL     OW 7990   4.750   1.788   1.940
 2364SOL    HW1 7991   4.800   1.730   2.005
 2364SOL    HW2 7992   4.698   1.730   1.878
 2365SOL     OW 7993   4.896   3.635   3.776
 2365SOL    HW1 7994   4.884   3.691   3.694
 2365SOL    HW2 7995   4.993   3.627   3.797
 2366SOL     OW 7996   2.619   4.521   5.207
 2366SOL    HW1 7997   2.622   4.423   5.223
 2366SOL    HW2 7998   2.710   4.560   5.215
 2367SOL     OW 7999   0.550   4.520   5.656
 2367SOL    HW1 8000   0.513   4.530   5.749
 2367SOL    HW2 8001   0.527   4.600   5.602
 2368SOL     OW 8002   5.496   6.203   4.405
 2368SOL    HW1 8003   5.593   6.185   4.424
 2368SOL    HW2 8004   5.482   6.206   4.306
 2369SOL     OW 8005   3.189   1.850   3.830
 2369SOL    HW1 8006   3.241   1.887   3.753
 2369SOL    HW2 8007   3.148   1.926   3.881
 2370SOL     OW 8008   5.580   2.481   1.793
 2370SOL    HW1 8009   5.541   2.562   1.751
 2370SOL    HW2 8010   5.570   2.487   1.893
 2371SOL     OW 8011   0.875   0.001   3.115
 2371SOL    HW1 8012   0.776   0.008   3.103
 2371SOL    HW2 8013   0.899   6.932   3.139
 2372SOL     OW 8014   6.515   1.194   6.044
 2372SOL    HW1 8015   6.454   1.244   5.983
 2372SOL    HW2 8016   6.567   1.259   6.100
 2373SOL     OW 8017   5.803   6.470   6.207
 2373SOL    HW1 8018   5.774   6.433   6.119
 2373SOL    HW2 8019   5.778   6.566   6.213
 2374SOL     OW 8020   5.725   5.856   2.500
 2374SOL    HW1 8021   5.766   5.899   2.420
 2374SOL    HW2 8022   5.754   5.905   2.583
 2375SOL     OW 8023   0.956   0.567   3.886
 2375SOL    HW1 8024   0.861   0.582   3.913
 2375SOL    HW2 8025   1.012   0.557   3.968
 2376SOL     OW 8026   5.660   1.460   2.913
 2376SOL    HW1 8027   5.637   1.419   2.825
 2376SOL    HW2 8028   5.597   1.535   2.933
 2377SOL     OW 8029   4.017   5.069   5.834
 2377SOL    HW1 8030   3.925   5.033   5.819
 2377SOL    HW2 8031   4.013   5.169   5.838
 2378SOL     OW 8032   0.422   1.083   0.274
 2378SOL    HW1 8033   0.407   1.159   0.337
 2378SOL    HW2 8034   0.485   1.017   0.316
 2379SOL     OW 8035   6.681   5.217   1.177
 2379SOL    HW1 8036   6.738   5.298   1.165
 2379SOL    HW2 8037   6.587   5.237   1.148
 2380SOL     OW 8038   5.017   4.735   5.114
 2380SOL    HW1 8039   5.031   4.775   5.204
 2380SOL    HW2 8040   5.070   4.786   5.046
 2381SOL     OW 8041   2.742   5.318   4.611
 2381SOL    HW1 8042   2.764   5.221   4.601
 2381SOL    HW2 8043   2.705   5.335   4.703
 2382SOL     OW 8044   1.031   6.121   1.615
 2382SOL    HW1 8045   0.997   6.182   1.543
 2382SOL    HW2 8046   1.023   6.026   1.584
 2383SOL     OW 8047   5.041   5.639   5.537
 2383SOL    HW1 8048   5.079   5.696   5.464
 2383SOL    HW2 8049   5.070   5.545   5.524
 2384SOL     OW 8050   0.461   1.942   1.942
 2384SOL    HW1 8051   0.485   2.009   1.872
 2384SOL    HW2 8052   0.472   1.850   1.906
 2385SOL     OW 8053   1.021   2.016   1.244
 2385SOL    HW1 8054   1.065   2.041   1.158
 2385SOL    HW2 8055   0.927   1.987   1.225
 2386SOL     OW 8056   4.397   5.890   4.352
 2386SOL    HW1 8057   4.349   5.826   4.411
 2386SOL    HW2 8058   4.378   5.869   4.256
 2387SOL     OW 8059   1.771   1.565   4.046
 2387SOL    HW1 8060   1.682   1.589   4.083
 2387SOL    HW2 8061   1.832   1.538   4.121
 2388SOL     OW 8062   6.293   1.507   5.295
 2388SOL    HW1 8063   6.228   1.514   5.220
 2388SOL    HW2 8064   6.331   1.414   5.298
 2389SOL     OW 8065   6.168   4.527   4.516
 2389SOL    HW1 8066   6.076   4.515   4.554
 2389SOL    HW2 8067   6.231   4.554   4.588
 2390SOL     OW 8068   4.731   4.229   5.881
 2390SOL    HW1 8069   4.720   4.318   5.837
 2390SOL    HW2 8070   4.642   4.189   5.901
 2391SOL     OW 8071   3.622   3.841   6.234
 2391SOL    HW1 8072   3.525   3.816   6.243
 2391SOL    HW2 8073   3.678   3.774   6.281
 2392SOL     OW 8074   3.401   5.436   4.767
 2392SOL    HW1 8075   3.303   5.458   4.767
 2392SOL    HW2 8076   3.422   5.380   4.687
 2393SOL     OW 8077   3.214   5.405   1.470
 2393SOL    HW1 8078   3.223   5.307   1.485
 2393SOL    HW2 8079   3.290   5.437   1.413
 2394SOL     OW 8080   0.764   2.563   2.988
 2394SOL    HW1 8081   0.755   2.520   3.078
 2394SOL    HW2 8082   0.767   2.493   2.917
 2395SOL     OW 8083   0.025   2.255   5.455
 2395SOL    HW1 8084   0.122   2.232   5.449
 2395SOL    HW2 8085   7.009   2.208   5.533
 2396SOL     OW 8086   6.502   1.270   5.310
 2396SOL    HW1 8087   6.598   1.257   5.288
 2396SOL    HW2 8088   6.492   1.282   5.409
 2397SOL     OW 8089   0.177   5.014   4.995
 2397SOL    HW1 8090   0.247   5.085   4.997
 2397SOL    HW2 8091   0.154   4.992   4.900
 2398SOL     OW 8092   3.043   5.921   3.823
 2398SOL    HW1 8093   2.972   5.920   3.893
 2398SOL    HW2 8094   3.094   5.835   3.826
 2399SOL     OW 8095   2.737   2.286   3.962
 2399SOL    HW1 8096   2.811   2.291   4.030
 2399SOL    HW2 8097   2.694   2.195   3.966
 2400SOL     OW 8098   1.175   4.008   0.587
 2400SOL    HW1 8099   1.254   3.992   0.528
 2400SOL    HW2 8100   1.197   3.982   0.681
 2401SOL     OW 8101   3.532   0.144   5.694
 2401SOL    HW1 8102   3.617   0.100   5.725
 2401SOL    HW2 8103   3.539   0.243   5.709
 2402SOL     OW 8104   0.809   3.224   2.089
 2402SOL    HW1 8105   0.756   3.309   2.086
 2402SOL    HW2 8106   0.900   3.239   2.052
 2403SOL     OW 8107   3.551   3.747   2.946
 2403SOL    HW1 8108   3.510   3.817   3.003
 2403SOL    HW2 8109   3.505   3.659   2.963
 2404SOL     OW 8110   6.644   1.354   1.135
 2404SOL    HW1 8111   6.708   1.333   1.061
 2404SOL    HW2 8112   6.556   1.381   1.095
 2405SOL     OW 8113   2.530   3.829   0.443
 2405SOL    HW1 8114   2.506   3.732   0.448
 2405SOL    HW2 8115   2.525   3.869   0.535
 2406SOL     OW 8116   2.684   6.831   4.953
 2406SOL    HW1 8117   2.655   6.736   4.948
 2406SOL    HW2 8118   2.700   6.857   5.048
 2407SOL     OW 8119   3.633   1.235   3.773
 2407SOL    HW1 8120   3.633   1.327   3.732
 2407SOL    HW2 8121   3.561   1.229   3.841
 2408SOL     OW 8122   2.419   6.300   4.868
 2408SOL    HW1 8123   2.384   6.207   4.865
 2408SOL    HW2 8124   2.406   6.344   4.779
 2409SOL     OW 8125   2.225   2.536   1.006
 2409SOL    HW1 8126   2.306   2.488   1.040
 2409SOL    HW2 8127   2.143   2.500   1.050
 2410SOL     OW 8128   6.792   3.973   5.928
 2410SOL    HW1 8129   6.764   3.988   5.833
 2410SOL    HW2 8130   6.793   3.874   5.946
 2411SOL     OW 8131   2.476   3.658   6.960
 2411SOL    HW1 8132   2.514   3.626   6.873
 2411SOL    HW2 8133   2.534   3.730   6.998
 2412SOL     OW 8134   3.524   1.776   6.578
 2412SOL    HW1 8135   3.439   1.792   6.628
 2412SOL    HW2 8136   3.503   1.751   6.483
 2413SOL     OW 8137   0.151   2.647   6.660
 2413SOL    HW1 8138   0.093   2.658   6.579
 2413SOL    HW2 8139   0.203   2.731   6.674
 2414SOL     OW 8140   6.072   2.538   4.766
 2414SOL    HW1 8141   6.135   2.543   4.843
 2414SOL    HW2 8142   6.121   2.508   4.684
 2415SOL     OW 8143   2.960   6.135   0.887
 2415SOL    HW1 8144   2.905   6.055   0.863
 2415SOL    HW2 8145   3.051   6.126   0.846
 2416SOL     OW 8146   6.817   3.566   3.065
 2416SOL    HW1 8147   6.863   3.549   2.978
 2416SOL    HW2 8148   6.718   3.559   3.052
 2417SOL     OW 8149   3.748   3.779   0.904
 2417SOL    HW1 8150   3.788   3.833   0.978
 2417SOL    HW2 8151   3.654   3.753   0.929
 2418SOL     OW 8152   4.920   4.059   5.713
 2418SOL    HW1 8153   4.852   4.122   5.752
 2418SOL    HW2 8154   4.959   4.101   5.630
 2419SOL     OW 8155   2.111   6.319   4.224
 2419SOL    HW1 8156   2.089   6.222   4.230
 2419SOL    HW2 8157   2.084   6.365   4.309
 2420SOL     OW 8158   2.509   4.732   2.675
 2420SOL    HW1 8159   2.450   4.658   2.708
 2420SOL    HW2 8160   2.602   4.717   2.707
 2421SOL     OW 8161   3.115   6.777   4.460
 2421SOL    HW1 8162   3.042   6.723   4.502
 2421SOL    HW2 8163   3.075   6.839   4.392
 2422SOL     OW 8164   4.282   6.571   1.268
 2422SOL    HW1 8165   4.297   6.583   1.170
 2422SOL    HW2 8166   4.299   6.658   1.315
 2423SOL     OW 8167   2.225   4.568   2.107
 2423SOL    HW1 8168   2.305   4.545   2.163
 2423SOL    HW2 8169   2.229   4.664   2.081
 2424SOL     OW 8170   5.323   1.252   6.070
 2424SOL    HW1 8171   5.312   1.336   6.123
 2424SOL    HW2 8172   5.237   1.201   6.069
 2425SOL     OW 8173   4.347   5.270   5.574
 2425SOL    HW1 8174   4.381   5.197   5.515
 2425SOL    HW2 8175   4.332   5.235   5.667
 2426SOL     OW 8176   1.250   4.897   5.377
 2426SOL    HW1 8177   1.350   4.901   5.382
 2426SOL    HW2 8178   1.218   4.816   5.426
 2427SOL     OW 8179   4.945   0.757   6.322
 2427SOL    HW1 8180   4.965   0.802   6.235
 2427SOL    HW2 8181   5.031   0.737   6.369
 2428SOL     OW 8182   0.320   0.646   3.365
 2428SOL    HW1 8183   0.318   0.709   3.287
 2428SOL    HW2 8184   0.261   0.568   3.346
 2429SOL     OW 8185   5.423   5.651   2.291
 2429SOL    HW1 8186   5.355   5.585   2.260
 2429SOL    HW2 8187   5.426   5.728   2.226
 2430SOL     OW 8188   6.187   2.712   6.905
 2430SOL    HW1 8189   6.177   2.627   6.956
 2430SOL    HW2 8190   6.124   2.780   6.942
 2431SOL     OW 8191   6.788   1.864   1.255
 2431SOL    HW1 8192   6.704   1.868   1.201
 2431SOL    HW2 8193   6.776   1.798   1.330
 2432SOL     OW 8194   3.748   5.092   2.168
 2432SOL    HW1 8195   3.735   5.179   2.215
 2432SOL    HW2 8196   3.729   5.103   2.071
 2433SOL     OW 8197   6.700   3.736   0.113
 2433SOL    HW1 8198   6.683   3.761   0.209
 2433SOL    HW2 8199   6.614   3.735   0.063
 2434SOL     OW 8200   3.812   1.789   2.901
 2434SOL    HW1 8201   3.848   1.868   2.950
 2434SOL    HW2 8202   3.780   1.817   2.811
 2435SOL     OW 8203   5.347   6.744   6.727
 2435SOL    HW1 8204   5.331   6.833   6.770
 2435SOL    HW2 8205   5.333   6.752   6.628
 2436SOL     OW 8206   2.322   1.678   0.908
 2436SOL    HW1 8207   2.250   1.627   0.860
 2436SOL    HW2 8208   2.359   1.622   0.982
 2437SOL     OW 8209   6.878   5.535   1.826
 2437SOL    HW1 8210   6.895   5.511   1.921
 2437SOL    HW2 8211   6.947   5.600   1.795
 2438SOL     OW 8212   3.028   1.481   4.965
 2438SOL    HW1 8213   3.029   1.543   4.887
 2438SOL    HW2 8214   2.970   1.402   4.945
 2439SOL     OW 8215   0.579   5.570   0.388
 2439SOL    HW1 8216   0.594   5.577   0.290
 2439SOL    HW2 8217   0.632   5.493   0.424
 2440SOL     OW 8218   4.475   1.313   5.149
 2440SOL    HW1 8219   4.542   1.271   5.210
 2440SOL    HW2 8220   4.519   1.385   5.095
 2441SOL     OW 8221   5.934   0.455   6.885
 2441SOL    HW1 8222   5.864   0.403   6.836
 2441SOL    HW2 8223   6.025   0.432   6.850
 2442SOL     OW 8224   4.954   4.160   1.963
 2442SOL    HW1 8225   5.022   4.227   1.990
 2442SOL    HW2 8226   4.979   4.070   1.998
 2443SOL     OW 8227   2.101   2.083   0.629
 2443SOL    HW1 8228   2.131   1.991   0.653
 2443SOL    HW2 8229   2.003   2.082   0.605
 2444SOL     OW 8230   3.317   5.619   0.493
 2444SOL    HW1 8231   3.347   5.539   0.441
 2444SOL    HW2 8232   3.218   5.614   0.506
 2445SOL     OW 8233   0.679   2.189   0.624
 2445SOL    HW1 8234   0.603   2.125   0.629
 2445SOL    HW2 8235   0.766   2.139   0.624
 2446SOL     OW 8236   1.515   3.743   1.817
 2446SOL    HW1 8237   1.513   3.834   1.858
 2446SOL    HW2 8238   1.514   3.752   1.717
 2447SOL     OW 8239   2.752   0.360   1.018
 2447SOL    HW1 8240   2.828   0.359   0.953
 2447SOL    HW2 8241   2.688   0.432   0.992
 2448SOL     OW 8242   6.231   1.591   4.165
 2448SOL    HW1 8243   6.247   1.565   4.069
 2448SOL    HW2 8244   6.272   1.681   4.181
 2449SOL     OW 8245   1.706   4.307   1.859
 2449SOL    HW1 8246   1.784   4.344   1.909
 2449SOL    HW2 8247   1.701   4.349   1.768
 2450SOL     OW 8248   2.151   5.475   6.523
 2450SOL    HW1 8249   2.199   5.552   6.564
 2450SOL    HW2 8250   2.052   5.486   6.536
 2451SOL     OW 8251   0.998   0.051   4.750
 2451SOL    HW1 8252   1.085   0.028   4.794
 2451SOL    HW2 8253   0.981   7.012   4.675
 2452SOL     OW 8254   2.416   2.366   3.565
 2452SOL    HW1 8255   2.390   2.276   3.529
 2452SOL    HW2 8256   2.513   2.367   3.588
 2453SOL     OW 8257   0.374   1.484   0.217
 2453SOL    HW1 8258   0.381   1.520   0.124
 2453SOL    HW2 8259   0.465   1.459   0.251
 2454SOL     OW 8260   3.970   5.352   1.044
 2454SOL    HW1 8261   3.882   5.318   1.011
 2454SOL    HW2 8262   3.998   5.432   0.991
 2455SOL     OW 8263   3.804   0.954   0.723
 2455SOL    HW1 8264   3.887   0.934   0.775
 2455SOL    HW2 8265   3.773   0.871   0.677
 2456SOL     OW 8266   1.319   4.684   0.038
 2456SOL    HW1 8267   1.245   4.625   0.071
 2456SOL    HW2 8268   1.284   4.778   0.029
 2457SOL     OW 8269   5.462   1.823   5.348
 2457SOL    HW1 8270   5.510   1.739   5.324
 2457SOL    HW2 8271   5.526   1.900   5.346
 2458SOL     OW 8272   0.785   0.390   2.871
 2458SOL    HW1 8273   0.750   0.311   2.821
 2458SOL    HW2 8274   0.867   0.425   2.825
 2459SOL     OW 8275   2.448   6.176   0.313
 2459SOL    HW1 8276   2.352   6.207   0.315
 2459SOL    HW2 8277   2.508   6.255   0.325
 2460SOL     OW 8278   1.559   1.349   6.995
 2460SOL    HW1 8279   1.510   1.275   6.949
 2460SOL    HW2 8280   1.656   1.325   7.003
 2461SOL     OW 8281   4.097   0.725   4.146
 2461SOL    HW1 8282   4.109   0.688   4.054
 2461SOL    HW2 8283   4.181   0.711   4.199
 2462SOL     OW 8284   0.496   5.219   0.899
 2462SOL    HW1 8285   0.581   5.190   0.856
 2462SOL    HW2 8286   0.419   5.185   0.844
 2463SOL     OW 8287   6.838   1.016   6.997
 2463SOL    HW1 8288   6.913   1.064   6.952
 2463SOL    HW2 8289   6.837   0.920   6.967
 2464SOL     OW 8290   6.951   2.080   2.622
 2464SOL    HW1 8291   6.913   2.168   2.592
 2464SOL    HW2 8292   6.953   2.078   2.722
 2465SOL     OW 8293   0.202   5.042   5.893
 2465SOL    HW1 8294   0.155   4.965   5.850
 2465SOL    HW2 8295   0.299   5.038   5.871
 2466SOL     OW 8296   1.617   1.835   1.876
 2466SOL    HW1 8297   1.667   1.784   1.806
 2466SOL    HW2 8298   1.520   1.841   1.849
 2467SOL     OW 8299   4.956   1.547   6.154
 2467SOL    HW1 8300   4.942   1.461   6.204
 2467SOL    HW2 8301   4.868   1.579   6.118
 2468SOL     OW 8302   3.762   0.466   6.219
 2468SOL    HW1 8303   3.840   0.527   6.238
 2468SOL    HW2 8304   3.706   0.506   6.147
 2469SOL     OW 8305   4.203   2.780   5.723
 2469SOL    HW1 8306   4.104   2.778   5.738
 2469SOL    HW2 8307   4.237   2.687   5.710
 2470SOL     OW 8308   3.868   4.848   6.919
 2470SOL    HW1 8309   3.931   4.825   6.994
 2470SOL    HW2 8310   3.866   4.773   6.853
 2471SOL     OW 8311   3.831   6.646   0.888
 2471SOL    HW1 8312   3.861   6.738   0.867
 2471SOL    HW2 8313   3.732   6.645   0.902
 2472SOL     OW 8314   4.765   2.656   4.254
 2472SOL    HW1 8315   4.747   2.630   4.159
 2472SOL    HW2 8316   4.768   2.756   4.261
 2473SOL     OW 8317   1.007   4.103   4.977
 2473SOL    HW1 8318   1.101   4.131   4.993
 2473SOL    HW2 8319   1.005   4.007   4.949
 2474SOL     OW 8320   1.021   5.440   0.806
 2474SOL    HW1 8321   1.115   5.438   0.839
 2474SOL    HW2 8322   0.970   5.509   0.856
 2475SOL     OW 8323   5.194   0.437   0.719
 2475SOL    HW1 8324   5.257   0.451   0.643
 2475SOL    HW2 8325   5.110   0.489   0.702
 2476SOL     OW 8326   5.654   0.733   2.341
 2476SOL    HW1 8327   5.657   0.713   2.243
 2476SOL    HW2 8328   5.737   0.698   2.385
 2477SOL     OW 8329   3.956   0.438   3.512
 2477SOL    HW1 8330   3.996   0.406   3.426
 2477SOL    HW2 8331   4.024   0.433   3.585
 2478SOL     OW 8332   4.052   1.321   2.885
 2478SOL    HW1 8333   4.120   1.383   2.925
 2478SOL    HW2 8334   3.977   1.376   2.847
 2479SOL     OW 8335   0.568   2.760   1.517
 2479SOL    HW1 8336   0.627   2.685   1.547
 2479SOL    HW2 8337   0.568   2.764   1.417
 2480SOL     OW 8338   3.440   2.709   1.090
 2480SOL    HW1 8339   3.344   2.730   1.073
 2480SOL    HW2 8340   3.495   2.790   1.074
 2481SOL     OW 8341   3.239   0.385   1.803
 2481SOL    HW1 8342   3.177   0.462   1.816
 2481SOL    HW2 8343   3.199   0.302   1.842
 2482SOL     OW 8344   5.033   3.802   0.254
 2482SOL    HW1 8345   5.101   3.866   0.288
 2482SOL    HW2 8346   5.077   3.731   0.200
 2483SOL     OW 8347   0.864   2.485   7.005
 2483SOL    HW1 8348   0.783   2.427   7.000
 2483SOL    HW2 8349   0.945   2.428   7.020
 2484SOL     OW 8350   3.976   1.016   1.678
 2484SOL    HW1 8351   3.973   1.106   1.634
 2484SOL    HW2 8352   3.894   1.004   1.735
 2485SOL     OW 8353   5.769   2.361   6.916
 2485SOL    HW1 8354   5.696   2.425   6.939
 2485SOL    HW2 8355   5.786   2.362   6.817
 2486SOL     OW 8356   0.483   4.972   5.168
 2486SOL    HW1 8357   0.453   5.048   5.110
 2486SOL    HW2 8358   0.512   4.895   5.111
 2487SOL     OW 8359   4.266   6.351   0.875
 2487SOL    HW1 8360   4.249   6.288   0.951
 2487SOL    HW2 8361   4.198   6.337   0.803
 2488SOL     OW 8362   0.317   3.993   1.855
 2488SOL    HW1 8363   0.410   4.005   1.892
 2488SOL    HW2 8364   0.294   4.071   1.798
 2489SOL     OW 8365   0.792   6.481   3.921
 2489SOL    HW1 8366   0.717   6.481   3.988
 2489SOL    HW2 8367   0.874   6.519   3.964
 2490SOL     OW 8368   0.730   5.801   0.798
 2490SOL    HW1 8369   0.684   5.718   0.766
 2490SOL    HW2 8370   0.811   5.818   0.743
 2491SOL     OW 8371   3.762   4.107   1.502
 2491SOL    HW1 8372   3.732   4.054   1.422
 2491SOL    HW2 8373   3.851   4.148   1.483
 2492SOL     OW 8374   5.037   3.770   1.524
 2492SOL    HW1 8375   4.989   3.855   1.506
 2492SOL    HW2 8376   5.088   3.778   1.610
 2493SOL     OW 8377   0.001   0.421   0.955
 2493SOL    HW1 8378   6.985   0.350   0.897
 2493SOL    HW2 8379   0.041   0.379   1.036
 2494SOL     OW 8380   6.035   3.857   1.916
 2494SOL    HW1 8381   5.995   3.872   2.007
 2494SOL    HW2 8382   6.030   3.942   1.863
 2495SOL     OW 8383   5.112   5.978   3.320
 2495SOL    HW1 8384   5.137   5.882   3.310
 2495SOL    HW2 8385   5.023   5.985   3.366
 2496SOL     OW 8386   0.457   3.578   6.950
 2496SOL    HW1 8387   0.403   3.516   7.006
 2496SOL    HW2 8388   0.513   3.525   6.886
 2497SOL     OW 8389   0.793   0.347   0.267
 2497SOL    HW1 8390   0.712   0.292   0.288
 2497SOL    HW2 8391   0.792   0.430   0.321
 2498SOL     OW 8392   3.268   2.490   5.710
 2498SOL    HW1 8393   3.217   2.469   5.626
 2498SOL    HW2 8394   3.280   2.589   5.717
 2499SOL     OW 8395   6.129   2.910   1.860
 2499SOL    HW1 8396   6.180   2.929   1.944
 2499SOL    HW2 8397   6.186   2.932   1.781
 2500SOL     OW 8398   3.747   3.486   6.714
 2500SOL    HW1 8399   3.732   3.444   6.625
 2500SOL    HW2 8400   3.671   3.462   6.775
 2501SOL     OW 8401   5.163   5.761   0.137
 2501SOL    HW1 8402   5.225   5.835   0.165
 2501SOL    HW2 8403   5.212   5.674   0.141
 2502SOL     OW 8404   2.110   6.922   4.856
 2502SOL    HW1 8405   2.194   6.960   4.817
 2502SOL    HW2 8406   2.064   6.992   4.910
 2503SOL     OW 8407   3.447   6.812   5.137
 2503SOL    HW1 8408   3.518   6.747   5.163
 2503SOL    HW2 8409   3.375   6.764   5.087
 2504SOL     OW 8410   3.810   5.346   2.535
 2504SOL    HW1 8411   3.751   5.328   2.456
 2504SOL    HW2 8412   3.815   5.263   2.591
 2505SOL     OW 8413   0.449   5.998   3.051
 2505SOL    HW1 8414   0.543   6.032   3.053
 2505SOL    HW2 8415   0.400   6.032   3.131
 2506SOL     OW 8416   6.603   3.704   6.222
 2506SOL    HW1 8417   6.594   3.636   6.149
 2506SOL    HW2 8418   6.616   3.658   6.309
 2507SOL     OW 8419   0.452   3.523   0.389
 2507SOL    HW1 8420   0.403   3.484   0.468
 2507SOL    HW2 8421   0.456   3.454   0.317
 2508SOL     OW 8422   2.721   1.822   4.590
 2508SOL    HW1 8423   2.736   1.727   4.618
 2508SOL    HW2 8424   2.706   1.879   4.671
 2509SOL     OW 8425   6.644   4.221   0.271
 2509SOL    HW1 8426   6.716   4.206   0.203
 2509SOL    HW2 8427   6.683   4.271   0.349
 2510SOL     OW 8428   3.754   4.494   0.830
 2510SOL    HW1 8429   3.703   4.500   0.915
 2510SOL    HW2 8430   3.812   4.575   0.820
 2511SOL     OW 8431   2.241   1.248   4.604
 2511SOL    HW1 8432   2.215   1.167   4.656
 2511SOL    HW2 8433   2.161   1.283   4.555
 2512SOL     OW 8434   4.140   4.157   5.592
 2512SOL    HW1 8435   4.079   4.177   5.669
 2512SOL    HW2 8436   4.106   4.201   5.510
 2513SOL     OW 8437   2.149   5.415   5.006
 2513SOL    HW1 8438   2.083   5.347   4.974
 2513SOL    HW2 8439   2.212   5.372   5.072
 2514SOL     OW 8440   0.820   3.486   4.256
 2514SOL    HW1 8441   0.841   3.426   4.179
 2514SOL    HW2 8442   0.732   3.459   4.296
 2515SOL     OW 8443   1.540   6.673   1.384
 2515SOL    HW1 8444   1.516   6.575   1.386
 2515SOL    HW2 8445   1.615   6.690   1.448
 2516SOL     OW 8446   4.953   1.185   2.070
 2516SOL    HW1 8447   4.982   1.146   2.157
 2516SOL    HW2 8448   5.021   1.252   2.039
 2517SOL     OW 8449   1.724   0.261   5.902
 2517SOL    HW1 8450   1.731   0.310   5.815
 2517SOL    HW2 8451   1.631   0.224   5.911
 2518SOL     OW 8452   1.463   5.616   0.797
 2518SOL    HW1 8453   1.383   5.556   0.802
 2518SOL    HW2 8454   1.472   5.667   0.883
 2519SOL     OW 8455   3.410   1.071   1.479
 2519SOL    HW1 8456   3.479   1.047   1.411
 2519SOL    HW2 8457   3.433   1.159   1.521
 2520SOL     OW 8458   3.399   1.584   6.972
 2520SOL    HW1 8459   3.493   1.556   6.956
 2520SOL    HW2 8460   3.374   1.564   0.043
 2521SOL     OW 8461   3.106   1.619   5.469
 2521SOL    HW1 8462   3.082   1.557   5.544
 2521SOL    HW2 8463   3.090   1.714   5.497
 2522SOL     OW 8464   1.894   1.478   5.497
 2522SOL    HW1 8465   1.972   1.465   5.558
 2522SOL    HW2 8466   1.856   1.389   5.471
 2523SOL     OW 8467   1.679   3.349   1.242
 2523SOL    HW1 8468   1.742   3.419   1.276
 2523SOL    HW2 8469   1.586   3.369   1.272
 2524SOL     OW 8470   0.122   6.808   4.540
 2524SOL    HW1 8471   0.041   6.828   4.595
 2524SOL    HW2 8472   0.200   6.859   4.576
 2525SOL     OW 8473   1.678   3.368   4.720
 2525SOL    HW1 8474   1.759   3.320   4.686
 2525SOL    HW2 8475   1.619   3.391   4.642
 2526SOL     OW 8476   1.790   4.360   6.224
 2526SOL    HW1 8477   1.757   4.447   6.190
 2526SOL    HW2 8478   1.715   4.312   6.270
 2527SOL     OW 8479   5.535   6.082   5.475
 2527SOL    HW1 8480   5.516   6.087   5.573
 2527SOL    HW2 8481   5.460   6.124   5.424
 2528SOL     OW 8482   5.585   4.382   5.917
 2528SOL    HW1 8483   5.490   4.410   5.931
 2528SOL    HW2 8484   5.612   4.401   5.823
 2529SOL     OW 8485   0.486   6.708   6.993
 2529SOL    HW1 8486   0.486   6.610   6.976
 2529SOL    HW2 8487   0.513   6.725   0.064
 2530SOL     OW 8488   2.486   5.965   5.274
 2530SOL    HW1 8489   2.480   6.065   5.271
 2530SOL    HW2 8490   2.492   5.935   5.369
 2531SOL     OW 8491   5.986   6.260   5.521
 2531SOL    HW1 8492   6.080   6.237   5.495
 2531SOL    HW2 8493   5.985   6.348   5.569
 2532SOL     OW 8494   0.244   6.134   0.839
 2532SOL    HW1 8495   0.190   6.064   0.792
 2532SOL    HW2 8496   0.326   6.154   0.785
 2533SOL     OW 8497   4.562   0.454   3.655
 2533SOL    HW1 8498   4.617   0.420   3.732
 2533SOL    HW2 8499   4.604   0.536   3.618
 2534SOL     OW 8500   3.522   1.325   1.535
 2534SOL    HW1 8501   3.457   1.394   1.503
 2534SOL    HW2 8502   3.584   1.300   1.460
 2535SOL     OW 8503   3.522   2.363   6.780
 2535SOL    HW1 8504   3.610   2.386   6.738
 2535SOL    HW2 8505   3.474   2.447   6.804
 2536SOL     OW 8506   1.924   0.703   6.735
 2536SOL    HW1 8507   1.931   0.605   6.715
 2536SOL    HW2 8508   1.961   0.755   6.658
 2537SOL     OW 8509   3.291   6.943   6.386
 2537SOL    HW1 8510   3.264   6.888   6.307
 2537SOL    HW2 8511   3.235   0.001   6.390
 2538SOL     OW 8512   0.269   3.679   4.125
 2538SOL    HW1 8513   0.319   3.633   4.199
 2538SOL    HW2 8514   0.301   3.644   4.037
 2539SOL     OW 8515   5.089   1.078   4.320
 2539SOL    HW1 8516   5.096   0.993   4.268
 2539SOL    HW2 8517   5.010   1.074   4.381
 2540SOL     OW 8518   4.023   1.867   2.650
 2540SOL    HW1 8519   4.090   1.806   2.610
 2540SOL    HW2 8520   3.932   1.847   2.613
 2541SOL     OW 8521   3.109   6.968   5.295
 2541SOL    HW1 8522   3.027   6.993   5.347
 2541SOL    HW2 8523   3.085   6.956   5.198
 2542SOL     OW 8524   3.582   3.400   6.475
 2542SOL    HW1 8525   3.490   3.438   6.480
 2542SOL    HW2 8526   3.618   3.410   6.382
 2543SOL     OW 8527   0.341   0.652   4.340
 2543SOL    HW1 8528   0.381   0.560   4.340
 2543SOL    HW2 8529   0.315   0.677   4.433
 2544SOL     OW 8530   0.312   5.555   0.370
 2544SOL    HW1 8531   0.411   5.553   0.388
 2544SOL    HW2 8532   0.297   5.582   0.274
 2545SOL     OW 8533   1.679   6.471   2.162
 2545SOL    HW1 8534   1.686   6.541   2.091
 2545SOL    HW2 8535   1.764   6.468   2.214
 2546SOL     OW 8536   0.015   1.753   1.291
 2546SOL    HW1 8537   0.066   1.703   1.221
 2546SOL    HW2 8538   6.961   1.798   1.249
 2547SOL     OW 8539   0.711   4.035   0.455
 2547SOL    HW1 8540   0.792   4.091   0.437
 2547SOL    HW2 8541   0.629   4.088   0.434
 2548SOL     OW 8542   0.785   6.579   4.522
 2548SOL    HW1 8543   0.823   6.599   4.612
 2548SOL    HW2 8544   0.759   6.482   4.518
 2549SOL     OW 8545   0.981   0.376   1.634
 2549SOL    HW1 8546   0.914   0.343   1.700
 2549SOL    HW2 8547   1.067   0.398   1.681
 2550SOL     OW 8548   6.245   0.077   0.389
 2550SOL    HW1 8549   6.298   0.161   0.375
 2550SOL    HW2 8550   6.212   0.044   0.300
 2551SOL     OW 8551   3.137   4.587   0.455
 2551SOL    HW1 8552   3.099   4.586   0.363
 2551SOL    HW2 8553   3.087   4.652   0.512
 2552SOL     OW 8554   2.034   6.065   4.292
 2552SOL    HW1 8555   1.945   6.044   4.251
 2552SOL    HW2 8556   2.054   5.998   4.363
 2553SOL     OW 8557   3.899   3.469   6.123
 2553SOL    HW1 8558   3.951   3.548   6.155
 2553SOL    HW2 8559   3.873   3.481   6.027
 2554SOL     OW 8560   2.423   0.714   0.668
 2554SOL    HW1 8561   2.382   0.690   0.757
 2554SOL    HW2 8562   2.407   0.639   0.604
 2555SOL     OW 8563   5.786   1.376   4.294
 2555SOL    HW1 8564   5.730   1.459   4.286
 2555SOL    HW2 8565   5.835   1.361   4.208
 2556SOL     OW 8566   4.238   6.316   0.366
 2556SOL    HW1 8567   4.299   6.374   0.421
 2556SOL    HW2 8568   4.196   6.371   0.294
 2557SOL     OW 8569   1.662   3.564   0.656
 2557SOL    HW1 8570   1.746   3.610   0.685
 2557SOL    HW2 8571   1.665   3.549   0.557
 2558SOL     OW 8572   4.779   1.282   5.351
 2558SOL    HW1 8573   4.710   1.353   5.364
 2558SOL    HW2 8574   4.756   1.201   5.405
 2559SOL     OW 8575   1.245   4.359   5.517
 2559SOL    HW1 8576   1.158   4.337   5.473
 2559SOL    HW2 8577   1.320   4.326   5.461
 2560SOL     OW 8578   5.934   2.647   5.621
 2560SOL    HW1 8579   5.947   2.646   5.521
 2560SOL    HW2 8580   5.848   2.601   5.644
 2561SOL     OW 8581   2.713   4.844   5.078
 2561SOL    HW1 8582   2.675   4.845   5.171
 2561SOL    HW2 8583   2.787   4.777   5.073
 2562SOL     OW 8584   2.319   4.851   1.063
 2562SOL    HW1 8585   2.385   4.839   0.989
 2562SOL    HW2 8586   2.363   4.829   1.150
 2563SOL     OW 8587   3.814   1.405   1.108
 2563SOL    HW1 8588   3.861   1.362   1.031
 2563SOL    HW2 8589   3.815   1.504   1.097
 2564SOL     OW 8590   1.912   5.724   0.046
 2564SOL    HW1 8591   1.832   5.715   7.010
 2564SOL    HW2 8592   1.976   5.649   0.028
 2565SOL     OW 8593   1.380   0.756   0.123
 2565SOL    HW1 8594   1.478   0.754   0.106
 2565SOL    HW2 8595   1.338   0.672   0.087
 2566SOL     OW 8596   2.605   6.699   1.731
 2566SOL    HW1 8597   2.615   6.779   1.672
 2566SOL    HW2 8598   2.510   6.688   1.757
 2567SOL     OW 8599   1.046   0.502   0.938
 2567SOL    HW1 8600   0.996   0.588   0.932
 2567SOL    HW2 8601   0.981   0.426   0.937
 2568SOL     OW 8602   4.713   1.885   6.924
 2568SOL    HW1 8603   4.750   1.817   6.861
 2568SOL    HW2 8604   4.613   1.881   6.923
 2569SOL     OW 8605   3.098   0.777   2.956
 2569SOL    HW1 8606   3.031   0.844   2.988
 2569SOL    HW2 8607   3.109   0.785   2.857
 2570SOL     OW 8608   5.811   0.472   5.581
 2570SOL    HW1 8609   5.895   0.510   5.621
 2570SOL    HW2 8610   5.770   0.538   5.519
 2571SOL     OW 8611   1.659   4.791   3.693
 2571SOL    HW1 8612   1.686   4.800   3.597
 2571SOL    HW2 8613   1.604   4.870   3.720
 2572SOL     OW 8614   2.995   5.569   2.251
 2572SOL    HW1 8615   2.928   5.603   2.317
 2572SOL    HW2 8616   3.019   5.474   2.274
 2573SOL     OW 8617   0.636   2.086   1.088
 2573SOL    HW1 8618   0.700   2.042   1.151
 2573SOL    HW2 8619   0.542   2.075   1.122
 2574SOL     OW 8620   5.093   3.583   1.321
 2574SOL    HW1 8621   5.168   3.523   1.345
 2574SOL    HW2 8622   5.073   3.645   1.398
 2575SOL     OW 8623   5.793   5.469   6.608
 2575SOL    HW1 8624   5.746   5.381   6.614
 2575SOL    HW2 8625   5.890   5.454   6.590
 2576SOL     OW 8626   4.196   6.376   4.587
 2576SOL    HW1 8627   4.266   6.387   4.516
 2576SOL    HW2 8628   4.200   6.283   4.624
 2577SOL     OW 8629   3.314   5.363   1.923
 2577SOL    HW1 8630   3.305   5.451   1.876
 2577SOL    HW2 8631   3.260   5.294   1.874
 2578SOL     OW 8632   3.662   1.667   3.856
 2578SOL    HW1 8633   3.750   1.628   3.882
 2578SOL    HW2 8634   3.597   1.593   3.835
 2579SOL     OW 8635   1.178   6.355   3.981
 2579SOL    HW1 8636   1.129   6.333   4.066
 2579SOL    HW2 8637   1.243   6.282   3.960
 2580SOL     OW 8638   2.688   4.664   6.895
 2580SOL    HW1 8639   2.779   4.626   6.880
 2580SOL    HW2 8640   2.654   4.634   6.984
 2581SOL     OW 8641   1.848   5.733   0.891
 2581SOL    HW1 8642   1.928   5.745   0.832
 2581SOL    HW2 8643   1.826   5.819   0.937
 2582SOL     OW 8644   6.988   4.158   1.860
 2582SOL    HW1 8645   0.059   4.146   1.834
 2582SOL    HW2 8646   6.980   4.235   1.924
 2583SOL     OW 8647   0.872   0.975   6.654
 2583SOL    HW1 8648   0.795   0.986   6.590
 2583SOL    HW2 8649   0.857   0.896   6.712
 2584SOL     OW 8650   4.068   4.744   5.706
 2584SOL    HW1 8651   4.069   4.801   5.624
 2584SOL    HW2 8652   4.076   4.801   5.787
 2585SOL     OW 8653   2.606   4.141   0.105
 2585SOL    HW1 8654   2.701   4.146   0.071
 2585SOL    HW2 8655   2.607   4.124   0.203
 2586SOL     OW 8656   3.082   1.445   5.685
 2586SOL    HW1 8657   3.013   1.389   5.638
 2586SOL    HW2 8658   3.173   1.415   5.657
 2587SOL     OW 8659   6.266   1.300   3.236
 2587SOL    HW1 8660   6.237   1.233   3.167
 2587SOL    HW2 8661   6.362   1.324   3.221
 2588SOL     OW 8662   4.075   2.482   5.456
 2588SOL    HW1 8663   3.979   2.475   5.430
 2588SOL    HW2 8664   4.126   2.529   5.384
 2589SOL     OW 8665   1.079   6.791   6.589
 2589SOL    HW1 8666   1.112   6.698   6.576
 2589SOL    HW2 8667   0.995   6.789   6.643
 2590SOL     OW 8668   2.785   4.909   0.060
 2590SOL    HW1 8669   2.737   4.834   0.014
 2590SOL    HW2 8670   2.853   4.871   0.123
 2591SOL     OW 8671   6.984   5.252   3.220
 2591SOL    HW1 8672   6.916   5.298   3.277
 2591SOL    HW2 8673   6.944   5.171   3.178
 2592SOL     OW 8674   2.865   4.163   6.465
 2592SOL    HW1 8675   2.842   4.257   6.438
 2592SOL    HW2 8676   2.813   4.138   6.546
 2593SOL     OW 8677   2.973   5.602   0.493
 2593SOL    HW1 8678   2.972   5.534   0.567
 2593SOL    HW2 8679   2.985   5.555   0.405
 2594SOL     OW 8680   2.859   4.303   6.118
 2594SOL    HW1 8681   2.784   4.248   6.081
 2594SOL    HW2 8682   2.826   4.357   6.196
 2595SOL     OW 8683   0.439   1.672   4.123
 2595SOL    HW1 8684   0.383   1.660   4.206
 2595SOL    HW2 8685   0.380   1.701   4.048
 2596SOL     OW 8686   2.164   2.863   0.954
 2596SOL    HW1 8687   2.169   2.860   0.855
 2596SOL    HW2 8688   2.190   2.774   0.992
 2597SOL     OW 8689   6.840   5.271   6.698
 2597SOL    HW1 8690   6.936   5.285   6.671
 2597SOL    HW2 8691   6.836   5.253   6.796
 2598SOL     OW 8692   6.498   1.529   1.767
 2598SOL    HW1 8693   6.473   1.626   1.772
 2598SOL    HW2 8694   6.586   1.519   1.721
 2599SOL     OW 8695   1.484   6.252   0.887
 2599SOL    HW1 8696   1.556   6.309   0.847
 2599SOL    HW2 8697   1.506   6.156   0.873
 2600SOL     OW 8698   5.813   2.881   4.017
 2600SOL    HW1 8699   5.752   2.958   4.002
 2600SOL    HW2 8700   5.888   2.908   4.077
 2601SOL     OW 8701   1.591   2.333   2.041
 2601SOL    HW1 8702   1.609   2.243   2.000
 2601SOL    HW2 8703   1.577   2.401   1.969
 2602SOL     OW 8704   1.849   4.997   4.473
 2602SOL    HW1 8705   1.778   5.049   4.521
 2602SOL    HW2 8706   1.826   4.899   4.476
 2603SOL     OW 8707   2.429   0.711   2.482
 2603SOL    HW1 8708   2.486   0.793   2.469
 2603SOL    HW2 8709   2.337   0.729   2.449
 2604SOL     OW 8710   5.495   1.815   2.242
 2604SOL    HW1 8711   5.412   1.855   2.203
 2604SOL    HW2 8712   5.472   1.766   2.326
 2605SOL     OW 8713   1.610   3.669   2.677
 2605SOL    HW1 8714   1.634   3.757   2.635
 2605SOL    HW2 8715   1.588   3.603   2.605
 2606SOL     OW 8716   5.825   5.087   1.417
 2606SOL    HW1 8717   5.764   5.166   1.406
 2606SOL    HW2 8718   5.796   5.033   1.496
 2607SOL     OW 8719   1.731   2.068   1.207
 2607SOL    HW1 8720   1.793   2.064   1.129
 2607SOL    HW2 8721   1.669   1.990   1.203
 2608SOL     OW 8722   2.655   5.546   6.483
 2608SOL    HW1 8723   2.704   5.595   6.555
 2608SOL    HW2 8724   2.706   5.463   6.459
 2609SOL     OW 8725   0.329   1.159   1.400
 2609SOL    HW1 8726   0.258   1.090   1.407
 2609SOL    HW2 8727   0.311   1.233   1.466
 2610SOL     OW 8728   1.167   4.557   3.802
 2610SOL    HW1 8729   1.247   4.612   3.780
 2610SOL    HW2 8730   1.098   4.614   3.847
 2611SOL     OW 8731   4.398   6.351   0.116
 2611SOL    HW1 8732   4.307   6.392   0.115
 2611SOL    HW2 8733   4.402   6.280   0.187
 2612SOL     OW 8734   5.169   6.847   4.656
 2612SOL    HW1 8735   5.205   6.764   4.613
 2612SOL    HW2 8736   5.191   6.926   4.599
 2613SOL     OW 8737   1.647   5.235   6.318
 2613SOL    HW1 8738   1.671   5.332   6.313
 2613SOL    HW2 8739   1.725   5.183   6.354
 2614SOL     OW 8740   5.643   0.691   6.291
 2614SOL    HW1 8741   5.702   0.746   6.231
 2614SOL    HW2 8742   5.611   0.748   6.367
 2615SOL     OW 8743   1.407   3.292   1.720
 2615SOL    HW1 8744   1.419   3.307   1.818
 2615SOL    HW2 8745   1.441   3.372   1.670
 2616SOL     OW 8746   0.880   1.123   5.165
 2616SOL    HW1 8747   0.920   1.135   5.256
 2616SOL    HW2 8748   0.873   1.213   5.120
 2617SOL     OW 8749   5.157   0.841   0.772
 2617SOL    HW1 8750   5.236   0.780   0.761
 2617SOL    HW2 8751   5.166   0.891   0.858
 2618SOL     OW 8752   1.130   5.445   4.743
 2618SOL    HW1 8753   1.171   5.530   4.777
 2618SOL    HW2 8754   1.102   5.389   4.821
 2619SOL     OW 8755   4.424   1.725   1.984
 2619SOL    HW1 8756   4.459   1.760   1.897
 2619SOL    HW2 8757   4.355   1.655   1.967
 2620SOL     OW 8758   6.208   6.141   2.004
 2620SOL    HW1 8759   6.148   6.096   1.939
 2620SOL    HW2 8760   6.175   6.234   2.021
 2621SOL     OW 8761   0.715   5.480   2.852
 2621SOL    HW1 8762   0.802   5.439   2.825
 2621SOL    HW2 8763   0.731   5.572   2.886
 2622SOL     OW 8764   2.790   2.969   6.111
 2622SOL    HW1 8765   2.695   2.977   6.141
 2622SOL    HW2 8766   2.849   3.023   6.171
 2623SOL     OW 8767   0.315   6.914   3.756
 2623SOL    HW1 8768   0.384   6.893   3.824
 2623SOL    HW2 8769   0.346   6.884   3.666
 2624SOL     OW 8770   6.616   2.247   4.813
 2624SOL    HW1 8771   6.522   2.279   4.822
 2624SOL    HW2 8772   6.650   2.219   4.903
 2625SOL     OW 8773   2.237   4.988   5.528
 2625SOL    HW1 8774   2.196   4.990   5.437
 2625SOL    HW2 8775   2.336   4.978   5.520
 2626SOL     OW 8776   6.613   0.166   5.315
 2626SOL    HW1 8777   6.611   0.136   5.410
 2626SOL    HW2 8778   6.613   0.086   5.255
 2627SOL     OW 8779   0.986   0.377   6.436
 2627SOL    HW1 8780   1.063   0.319   6.411
 2627SOL    HW2 8781   0.954   0.353   6.528
 2628SOL     OW 8782   1.566   3.396   3.634
 2628SOL    HW1 8783   1.510   3.456   3.691
 2628SOL    HW2 8784   1.655   3.439   3.617
 2629SOL     OW 8785   3.202   4.073   3.265
 2629SOL    HW1 8786   3.114   4.034   3.291
 2629SOL    HW2 8787   3.274   4.037   3.324
 2630SOL     OW 8788   3.371   0.808   3.251
 2630SOL    HW1 8789   3.420   0.726   3.283
 2630SOL    HW2 8790   3.409   0.838   3.163
 2631SOL     OW 8791   5.287   0.454   6.252
 2631SOL    HW1 8792   5.357   0.479   6.320
 2631SOL    HW2 8793   5.231   0.380   6.288
 2632SOL     OW 8794   5.511   4.969   1.495
 2632SOL    HW1 8795   5.468   5.053   1.526
 2632SOL    HW2 8796   5.594   4.952   1.548
 2633SOL     OW 8797   6.585   2.631   5.503
 2633SOL    HW1 8798   6.612   2.617   5.598
 2633SOL    HW2 8799   6.665   2.647   5.446
 2634SOL     OW 8800   6.971   6.063   4.430
 2634SOL    HW1 8801   0.023   6.096   4.485
 2634SOL    HW2 8802   7.002   5.986   4.374
 2635SOL     OW 8803   5.599   5.468   4.055
 2635SOL    HW1 8804   5.588   5.379   4.011
 2635SOL    HW2 8805   5.680   5.514   4.017
 2636SOL     OW 8806   3.681   0.824   5.997
 2636SOL    HW1 8807   3.682   0.866   5.906
 2636SOL    HW2 8808   3.740   0.877   6.059
 2637SOL     OW 8809   0.108   1.849   3.472
 2637SOL    HW1 8810   0.158   1.927   3.508
 2637SOL    HW2 8811   0.014   1.851   3.505
 2638SOL     OW 8812   0.959   0.160   4.470
 2638SOL    HW1 8813   0.953   0.258   4.491
 2638SOL    HW2 8814   0.880   0.113   4.510
 2639SOL     OW 8815   4.907   5.137   4.986
 2639SOL    HW1 8816   4.857   5.053   4.963
 2639SOL    HW2 8817   4.953   5.125   5.074
 2640SOL     OW 8818   0.740   0.218   5.230
 2640SOL    HW1 8819   0.835   0.238   5.206
 2640SOL    HW2 8820   0.716   0.266   5.314
 2641SOL     OW 8821   5.407   2.688   0.139
 2641SOL    HW1 8822   5.451   2.609   0.097
 2641SOL    HW2 8823   5.465   2.725   0.211
 2642SOL     OW 8824   6.608   1.077   4.335
 2642SOL    HW1 8825   6.694   1.028   4.320
 2642SOL    HW2 8826   6.579   1.120   4.250
 2643SOL     OW 8827   0.717   2.917   3.902
 2643SOL    HW1 8828   0.647   2.942   3.970
 2643SOL    HW2 8829   0.737   2.820   3.909
 2644SOL     OW 8830   4.541   5.474   4.936
 2644SOL    HW1 8831   4.468   5.502   4.874
 2644SOL    HW2 8832   4.620   5.535   4.926
 2645SOL     OW 8833   4.779   5.098   3.491
 2645SOL    HW1 8834   4.721   5.176   3.516
 2645SOL    HW2 8835   4.782   5.090   3.392
 2646SOL     OW 8836   0.392   3.846   6.189
 2646SOL    HW1 8837   0.297   3.815   6.186
 2646SOL    HW2 8838   0.432   3.820   6.277
 2647SOL     OW 8839   5.225   0.307   1.663
 2647SOL    HW1 8840   5.204   0.331   1.568
 2647SOL    HW2 8841   5.290   0.373   1.701
 2648SOL     OW 8842   0.692   0.234   3.991
 2648SOL    HW1 8843   0.616   0.170   3.998
 2648SOL    HW2 8844   0.774   0.192   4.029
 2649SOL     OW 8845   5.280   2.879   1.853
 2649SOL    HW1 8846   5.181   2.884   1.863
 2649SOL    HW2 8847   5.318   2.971   1.846
 2650SOL     OW 8848   3.107   6.021   4.985
 2650SOL    HW1 8849   3.008   6.011   4.994
 2650SOL    HW2 8850   3.153   5.974   5.060
 2651SOL     OW 8851   3.641   1.638   6.021
 2651SOL    HW1 8852   3.707   1.651   6.095
 2651SOL    HW2 8853   3.602   1.726   5.995
 2652SOL     OW 8854   4.690   3.478   5.550
 2652SOL    HW1 8855   4.743   3.561   5.537
 2652SOL    HW2 8856   4.612   3.479   5.487
 2653SOL     OW 8857   3.408   5.762   6.174
 2653SOL    HW1 8858   3.461   5.846   6.163
 2653SOL    HW2 8859   3.350   5.770   6.255
 2654SOL     OW 8860   5.177   6.790   0.597
 2654SOL    HW1 8861   5.219   6.778   0.507
 2654SOL    HW2 8862   5.108   6.719   0.611
 2655SOL     OW 8863   4.835   5.952   3.454
 2655SOL    HW1 8864   4.837   5.852   3.447
 2655SOL    HW2 8865   4.807   5.979   3.546
 2656SOL     OW 8866   3.675   5.787   3.618
 2656SOL    HW1 8867   3.686   5.808   3.521
 2656SOL    HW2 8868   3.762   5.799   3.666
 2657SOL     OW 8869   1.801   3.914   0.739
 2657SOL    HW1 8870   1.834   3.998   0.781
 2657SOL    HW2 8871   1.865   3.839   0.759
 2658SOL     OW 8872   4.137   4.180   6.402
 2658SOL    HW1 8873   4.206   4.199   6.472
 2658SOL    HW2 8874   4.138   4.083   6.379
 2659SOL     OW 8875   5.243   2.256   5.169
 2659SOL    HW1 8876   5.308   2.224   5.237
 2659SOL    HW2 8877   5.265   2.351   5.144
 2660SOL     OW 8878   0.942   1.558   0.974
 2660SOL    HW1 8879   1.032   1.564   1.017
 2660SOL    HW2 8880   0.871   1.565   1.044
 2661SOL     OW 8881   1.625   0.349   1.323
 2661SOL    HW1 8882   1.643   0.411   1.399
 2661SOL    HW2 8883   1.547   0.382   1.270
 2662SOL     OW 8884   3.361   0.900   3.522
 2662SOL    HW1 8885   3.388   0.892   3.426
 2662SOL    HW2 8886   3.436   0.867   3.580
 2663SOL     OW 8887   3.295   6.826   5.859
 2663SOL    HW1 8888   3.290   6.925   5.875
 2663SOL    HW2 8889   3.301   6.809   5.761
 2664SOL     OW 8890   3.700   2.698   5.244
 2664SOL    HW1 8891   3.781   2.641   5.233
 2664SOL    HW2 8892   3.667   2.691   5.339
 2665SOL     OW 8893   2.348   3.527   5.332
 2665SOL    HW1 8894   2.400   3.442   5.328
 2665SOL    HW2 8895   2.385   3.585   5.405
 2666SOL     OW 8896   1.795   3.558   2.827
 2666SOL    HW1 8897   1.764   3.524   2.916
 2666SOL    HW2 8898   1.718   3.594   2.775
 2667SOL     OW 8899   6.506   4.048   3.882
 2667SOL    HW1 8900   6.579   4.026   3.818
 2667SOL    HW2 8901   6.468   3.964   3.920
 2668SOL     OW 8902   5.550   1.723   5.033
 2668SOL    HW1 8903   5.641   1.764   5.041
 2668SOL    HW2 8904   5.486   1.791   4.998
 2669SOL     OW 8905   2.361   6.423   0.100
 2669SOL    HW1 8906   2.419   6.346   0.071
 2669SOL    HW2 8907   2.375   6.500   0.038
 2670SOL     OW 8908   6.811   1.584   5.392
 2670SOL    HW1 8909   6.775   1.617   5.480
 2670SOL    HW2 8910   6.870   1.654   5.352
 2671SOL     OW 8911   3.819   5.650   5.990
 2671SOL    HW1 8912   3.850   5.656   5.896
 2671SOL    HW2 8913   3.889   5.606   6.046
 2672SOL     OW 8914   3.568   1.237   1.806
 2672SOL    HW1 8915   3.643   1.284   1.851
 2672SOL    HW2 8916   3.548   1.281   1.719
 2673SOL     OW 8917   5.105   6.954   2.763
 2673SOL    HW1 8918   5.154   6.982   2.845
 2673SOL    HW2 8919   5.084   6.856   2.769
 2674SOL     OW 8920   1.377   5.543   3.504
 2674SOL    HW1 8921   1.367   5.639   3.478
 2674SOL    HW2 8922   1.462   5.507   3.466
 2675SOL     OW 8923   0.018   5.929   3.897
 2675SOL    HW1 8924   0.080   5.901   3.824
 2675SOL    HW2 8925   0.072   5.958   3.976
 2676SOL     OW 8926   3.241   3.795   2.597
 2676SOL    HW1 8927   3.211   3.718   2.654
 2676SOL    HW2 8928   3.167   3.821   2.535
 2677SOL     OW 8929   2.089   4.409   1.302
 2677SOL    HW1 8930   2.147   4.430   1.223
 2677SOL    HW2 8931   2.137   4.433   1.386
 2678SOL     OW 8932   6.200   2.093   2.602
 2678SOL    HW1 8933   6.240   2.155   2.534
 2678SOL    HW2 8934   6.273   2.039   2.644
 2679SOL     OW 8935   1.558   5.426   1.994
 2679SOL    HW1 8936   1.502   5.386   2.067
 2679SOL    HW2 8937   1.644   5.460   2.033
 2680SOL     OW 8938   1.215   2.268   6.872
 2680SOL    HW1 8939   1.281   2.192   6.873
 2680SOL    HW2 8940   1.171   2.274   6.962
 2681SOL     OW 8941   0.995   3.176   5.250
 2681SOL    HW1 8942   1.018   3.079   5.257
 2681SOL    HW2 8943   0.989   3.216   5.341
 2682SOL     OW 8944   4.748   4.263   2.147
 2682SOL    HW1 8945   4.821   4.235   2.085
 2682SOL    HW2 8946   4.672   4.300   2.094
 2683SOL     OW 8947   2.363   4.259   3.241
 2683SOL    HW1 8948   2.269   4.285   3.219
 2683SOL    HW2 8949   2.380   4.165   3.211
 2684SOL     OW 8950   5.536   6.293   2.275
 2684SOL    HW1 8951   5.614   6.349   2.248
 2684SOL    HW2 8952   5.529   6.291   2.375
 2685SOL     OW 8953   6.903   5.293   4.870
 2685SOL    HW1 8954   6.813   5.299   4.827
 2685SOL    HW2 8955   6.971   5.339   4.812
 2686SOL     OW 8956   1.625   1.245   4.419
 2686SOL    HW1 8957   1.649   1.230   4.323
 2686SOL    HW2 8958   1.639   1.341   4.442
 2687SOL     OW 8959   4.202   1.563   1.924
 2687SOL    HW1 8960   4.133   1.591   1.858
 2687SOL    HW2 8961   4.158   1.515   2.000
 2688SOL     OW 8962   3.437   2.264   0.019
 2688SOL    HW1 8963   3.455   2.318   6.961
 2688SOL    HW2 8964   3.521   2.220   0.049
 2689SOL     OW 8965   0.775   3.864   2.716
 2689SOL    HW1 8966   0.679   3.875   2.739
 2689SOL    HW2 8967   0.827   3.943   2.748
 2690SOL     OW 8968   3.077   1.883   6.275
 2690SOL    HW1 8969   3.086   1.849   6.182
 2690SOL    HW2 8970   3.167   1.883   6.319
 2691SOL     OW 8971   0.265   4.348   4.726
 2691SOL    HW1 8972   0.302   4.304   4.644
 2691SOL    HW2 8973   0.340   4.372   4.787
 2692SOL     OW 8974   2.538   5.800   2.935
 2692SOL    HW1 8975   2.610   5.735   2.960
 2692SOL    HW2 8976   2.544   5.881   2.994
 2693SOL     OW 8977   1.767   5.786   3.786
 2693SOL    HW1 8978   1.827   5.864   3.804
 2693SOL    HW2 8979   1.811   5.723   3.722
 2694SOL     OW 8980   3.749   6.515   2.998
 2694SOL    HW1 8981   3.672   6.531   3.060
 2694SOL    HW2 8982   3.719   6.530   2.904
 2695SOL     OW 8983   6.550   6.843   2.654
 2695SOL    HW1 8984   6.511   6.752   2.670
 2695SOL    HW2 8985   6.512   6.881   2.569
 2696SOL     OW 8986   4.537   4.104   6.593
 2696SOL    HW1 8987   4.577   4.151   6.670
 2696SOL    HW2 8988   4.608   4.082   6.526
 2697SOL     OW 8989   4.178   1.206   1.051
 2697SOL    HW1 8990   4.117   1.178   1.125
 2697SOL    HW2 8991   4.272   1.208   1.084
 2698SOL     OW 8992   1.358   4.772   6.137
 2698SOL    HW1 8993   1.278   4.799   6.082
 2698SOL    HW2 8994   1.410   4.702   6.087
 2699SOL     OW 8995   3.039   6.022   2.286
 2699SOL    HW1 8996   3.070   5.934   2.248
 2699SOL    HW2 8997   3.098   6.047   2.363
 2700SOL     OW 8998   2.857   1.947   1.332
 2700SOL    HW1 8999   2.939   1.930   1.387
 2700SOL    HW2 9000   2.833   1.864   1.281
 2701SOL     OW 9001   5.359   3.048   4.416
 2701SOL    HW1 9002   5.405   3.077   4.332
 2701SOL    HW2 9003   5.423   2.998   4.474
 2702SOL     OW 9004   2.536   1.820   4.344
 2702SOL    HW1 9005   2.572   1.912   4.328
 2702SOL    HW2 9006   2.581   1.780   4.423
 2703SOL     OW 9007   1.873   5.444   1.611
 2703SOL    HW1 9008   1.799   5.499   1.573
 2703SOL    HW2 9009   1.835   5.368   1.663
 2704SOL     OW 9010   6.517   5.148   3.387
 2704SOL    HW1 9011   6.536   5.241   3.354
 2704SOL    HW2 9012   6.439   5.110   3.338
 2705SOL     OW 9013   0.654   0.866   4.980
 2705SOL    HW1 9014   0.617   0.949   5.021
 2705SOL    HW2 9015   0.747   0.883   4.947
 2706SOL     OW 9016   6.583   4.250   4.606
 2706SOL    HW1 9017   6.623   4.328   4.558
 2706SOL    HW2 9018   6.569   4.274   4.702
 2707SOL     OW 9019   3.818   6.883   2.875
 2707SOL    HW1 9020   3.836   6.981   2.880
 2707SOL    HW2 9021   3.811   6.855   2.779
 2708SOL     OW 9022   6.061   2.781   0.315
 2708SOL    HW1 9023   6.107   2.868   0.333
 2708SOL    HW2 9024   5.971   2.781   0.359
 2709SOL     OW 9025   4.879   0.086   6.271
 2709SOL    HW1 9026   4.882   0.113   6.175
 2709SOL    HW2 9027   4.919   7.019   6.281
 2710SOL     OW 9028   1.301   3.299   4.081
 2710SOL    HW1 9029   1.335   3.254   3.999
 2710SOL    HW2 9030   1.363   3.374   4.106
 2711SOL     OW 9031   3.583   1.891   3.707
 2711SOL    HW1 9032   3.616   1.848   3.623
 2711SOL    HW2 9033   3.598   1.830   3.784
 2712SOL     OW 9034   4.014   5.290   2.363
 2712SOL    HW1 9035   4.085   5.299   2.432
 2712SOL    HW2 9036   3.938   5.351   2.386
 2713SOL     OW 9037   4.869   4.223   6.495
 2713SOL    HW1 9038   4.828   4.294   6.552
 2713SOL    HW2 9039   4.918   4.266   6.419
 2714SOL     OW 9040   3.342   3.538   6.493
 2714SOL    HW1 9041   3.263   3.476   6.503
 2714SOL    HW2 9042   3.327   3.620   6.547
 2715SOL     OW 9043   5.005   1.509   1.296
 2715SOL    HW1 9044   5.035   1.603   1.282
 2715SOL    HW2 9045   5.051   1.449   1.230
 2716SOL     OW 9046   4.080   2.009   2.866
 2716SOL    HW1 9047   3.995   2.058   2.887
 2716SOL    HW2 9048   4.069   1.956   2.782
 2717SOL     OW 9049   0.990   1.068   2.245
 2717SOL    HW1 9050   1.046   1.150   2.257
 2717SOL    HW2 9051   0.898   1.094   2.217
 2718SOL     OW 9052   0.786   0.691   6.154
 2718SOL    HW1 9053   0.770   0.787   6.179
 2718SOL    HW2 9054   0.781   0.634   6.236
 2719SOL     OW 9055   1.846   4.716   2.630
 2719SOL    HW1 9056   1.933   4.678   2.660
 2719SOL    HW2 9057   1.853   4.742   2.534
 2720SOL     OW 9058   1.120   0.355   5.012
 2720SOL    HW1 9059   1.054   0.311   5.073
 2720SOL    HW2 9060   1.073   0.386   4.929
 2721SOL     OW 9061   2.907   6.272   1.529
 2721SOL    HW1 9062   2.992   6.243   1.574
 2721SOL    HW2 9063   2.830   6.226   1.572
 2722SOL     OW 9064   4.524   5.869   6.719
 2722SOL    HW1 9065   4.470   5.788   6.696
 2722SOL    HW2 9066   4.603   5.841   6.774
 2723SOL     OW 9067   3.285   6.640   6.873
 2723SOL    HW1 9068   3.224   6.713   6.904
 2723SOL    HW2 9069   3.371   6.680   6.843
 2724SOL     OW 9070   1.340   6.181   0.016
 2724SOL    HW1 9071   1.356   6.086   7.013
 2724SOL    HW2 9072   1.381   6.198   0.106
 2725SOL     OW 9073   5.094   3.868   4.133
 2725SOL    HW1 9074   5.015   3.858   4.073
 2725SOL    HW2 9075   5.136   3.957   4.118
 2726SOL     OW 9076   0.684   1.925   1.578
 2726SOL    HW1 9077   0.769   1.903   1.625
 2726SOL    HW2 9078   0.629   1.985   1.636
 2727SOL     OW 9079   2.282   4.176   4.199
 2727SOL    HW1 9080   2.327   4.112   4.136
 2727SOL    HW2 9081   2.187   4.188   4.172
 2728SOL     OW 9082   5.434   5.642   6.356
 2728SOL    HW1 9083   5.534   5.641   6.347
 2728SOL    HW2 9084   5.401   5.548   6.371
 2729SOL     OW 9085   5.298   6.336   6.526
 2729SOL    HW1 9086   5.205   6.333   6.491
 2729SOL    HW2 9087   5.297   6.359   6.623
 2730SOL     OW 9088   0.603   5.528   2.142
 2730SOL    HW1 9089   0.564   5.589   2.073
 2730SOL    HW2 9090   0.534   5.461   2.169
 2731SOL     OW 9091   3.002   3.145   3.605
 2731SOL    HW1 9092   3.004   3.083   3.683
 2731SOL    HW2 9093   2.912   3.190   3.601
 2732SOL     OW 9094   4.436   1.210   1.062
 2732SOL    HW1 9095   4.511   1.246   1.117
 2732SOL    HW2 9096   4.463   1.122   1.023
 2733SOL     OW 9097   6.846   0.936   5.698
 2733SOL    HW1 9098   6.865   1.020   5.750
 2733SOL    HW2 9099   6.851   0.857   5.759
 2734SOL     OW 9100   3.616   6.233   1.645
 2734SOL    HW1 9101   3.593   6.136   1.642
 2734SOL    HW2 9102   3.711   6.246   1.617
 2735SOL     OW 9103   1.173   2.255   0.472
 2735SOL    HW1 9104   1.230   2.191   0.421
 2735SOL    HW2 9105   1.174   2.344   0.426
 2736SOL     OW 9106   5.498   6.174   3.444
 2736SOL    HW1 9107   5.513   6.087   3.492
 2736SOL    HW2 9108   5.586   6.218   3.426
 2737SOL     OW 9109   2.882   2.022   6.396
 2737SOL    HW1 9110   2.926   1.967   6.324
 2737SOL    HW2 9111   2.928   2.005   6.483
 2738SOL     OW 9112   5.934   0.718   1.664
 2738SOL    HW1 9113   5.929   0.806   1.711
 2738SOL    HW2 9114   5.893   0.648   1.722
 2739SOL     OW 9115   1.167   5.401   1.441
 2739SOL    HW1 9116   1.168   5.408   1.541
 2739SOL    HW2 9117   1.112   5.476   1.403
 2740SOL     OW 9118   0.293   5.687   2.382
 2740SOL    HW1 9119   0.304   5.592   2.352
 2740SOL    HW2 9120   0.378   5.737   2.364
 2741SOL     OW 9121   0.961   2.348   4.294
 2741SOL    HW1 9122   0.878   2.401   4.314
 2741SOL    HW2 9123   0.966   2.331   4.195
 2742SOL     OW 9124   3.391   4.743   1.656
 2742SOL    HW1 9125   3.353   4.652   1.640
 2742SOL    HW2 9126   3.470   4.736   1.717
 2743SOL     OW 9127   6.898   4.741   2.147
 2743SOL    HW1 9128   6.798   4.740   2.139
 2743SOL    HW2 9129   6.939   4.713   2.060
 2744SOL     OW 9130   3.264   3.452   2.504
 2744SOL    HW1 9131   3.334   3.491   2.443
 2744SOL    HW2 9132   3.305   3.379   2.558
 2745SOL     OW 9133   6.835   1.464   5.818
 2745SOL    HW1 9134   6.840   1.453   5.917
 2745SOL    HW2 9135   6.920   1.504   5.784
 2746SOL     OW 9136   0.754   0.845   4.082
 2746SOL    HW1 9137   0.749   0.757   4.034
 2746SOL    HW2 9138   0.837   0.893   4.055
 2747SOL     OW 9139   3.593   5.556   0.069
 2747SOL    HW1 9140   3.653   5.634   0.051
 2747SOL    HW2 9141   3.513   5.586   0.120
 2748SOL     OW 9142   4.478   0.801   1.236
 2748SOL    HW1 9143   4.537   0.744   1.293
 2748SOL    HW2 9144   4.394   0.751   1.215
 2749SOL     OW 9145   1.174   3.483   0.413
 2749SOL    HW1 9146   1.264   3.459   0.376
 2749SOL    HW2 9147   1.123   3.399   0.431
 2750SOL     OW 9148   2.674   5.340   2.468
 2750SOL    HW1 9149   2.753   5.290   2.432
 2750SOL    HW2 9150   2.705   5.411   2.531
 2751SOL     OW 9151   1.998   1.930   1.442
 2751SOL    HW1 9152   1.997   1.949   1.540
 2751SOL    HW2 9153   1.954   2.006   1.394
 2752SOL     OW 9154   3.933   4.505   5.726
 2752SOL    HW1 9155   3.841   4.507   5.687
 2752SOL    HW2 9156   3.983   4.588   5.699
 2753SOL     OW 9157   5.953   6.253   4.968
 2753SOL    HW1 9158   5.993   6.296   5.049
 2753SOL    HW2 9159   5.891   6.180   4.997
 2754SOL     OW 9160   0.347   6.229   6.829
 2754SOL    HW1 9161   0.359   6.321   6.866
 2754SOL    HW2 9162   0.387   6.226   6.737
 2755SOL     OW 9163   2.795   6.775   2.795
 2755SOL    HW1 9164   2.879   6.780   2.742
 2755SOL    HW2 9165   2.716   6.774   2.734
 2756SOL     OW 9166   4.703   6.531   0.460
 2756SOL    HW1 9167   4.735   6.620   0.428
 2756SOL    HW2 9168   4.660   6.542   0.550
 2757SOL     OW 9169   1.348   5.267   0.405
 2757SOL    HW1 9170   1.259   5.221   0.412
 2757SOL    HW2 9171   1.389   5.273   0.496
 2758SOL     OW 9172   5.500   0.072   5.161
 2758SOL    HW1 9173   5.544   0.145   5.213
 2758SOL    HW2 9174   5.481   7.019   5.221
 2759SOL     OW 9175   5.146   6.340   4.147
 2759SOL    HW1 9176   5.079   6.267   4.162
 2759SOL    HW2 9177   5.204   6.348   4.228
 2760SOL     OW 9178   1.832   5.589   2.080
 2760SOL    HW1 9179   1.760   5.648   2.043
 2760SOL    HW2 9180   1.832   5.595   2.180
 2761SOL     OW 9181   1.361   5.247   3.863
 2761SOL    HW1 9182   1.444   5.298   3.886
 2761SOL    HW2 9183   1.308   5.229   3.945
 2762SOL     OW 9184   1.031   0.415   5.761
 2762SOL    HW1 9185   1.062   0.474   5.836
 2762SOL    HW2 9186   1.002   0.327   5.798
 2763SOL     OW 9187   5.536   2.010   3.606
 2763SOL    HW1 9188   5.540   2.110   3.615
 2763SOL    HW2 9189   5.623   1.976   3.570
 2764SOL     OW 9190   5.537   0.251   1.566
 2764SOL    HW1 9191   5.568   0.346   1.566
 2764SOL    HW2 9192   5.521   0.221   1.659
 2765SOL     OW 9193   5.145   1.114   1.730
 2765SOL    HW1 9194   5.195   1.051   1.670
 2765SOL    HW2 9195   5.186   1.111   1.821
 2766SOL     OW 9196   5.961   1.357   0.698
 2766SOL    HW1 9197   5.900   1.364   0.776
 2766SOL    HW2 9198   6.023   1.435   0.696
 2767SOL     OW 9199   6.499   4.707   6.653
 2767SOL    HW1 9200   6.418   4.719   6.710
 2767SOL    HW2 9201   6.572   4.666   6.708
 2768SOL     OW 9202   5.834   1.104   0.249
 2768SOL    HW1 9203   5.893   1.150   0.315
 2768SOL    HW2 9204   5.745   1.085   0.290
 2769SOL     OW 9205   6.343   4.335   3.361
 2769SOL    HW1 9206   6.403   4.404   3.400
 2769SOL    HW2 9207   6.393   4.250   3.348
 2770SOL     OW 9208   1.356   5.534   0.419
 2770SOL    HW1 9209   1.363   5.443   0.378
 2770SOL    HW2 9210   1.277   5.536   0.481
 2771SOL     OW 9211   4.875   1.409   0.965
 2771SOL    HW1 9212   4.958   1.465   0.967
 2771SOL    HW2 9213   4.900   1.312   0.969
 2772SOL     OW 9214   4.520   2.427   0.180
 2772SOL    HW1 9215   4.525   2.507   0.239
 2772SOL    HW2 9216   4.586   2.435   0.105
 2773SOL     OW 9217   3.871   3.180   5.998
 2773SOL    HW1 9218   3.884   3.248   6.070
 2773SOL    HW2 9219   3.809   3.217   5.928
 2774SOL     OW 9220   6.016   2.748   2.537
 2774SOL    HW1 9221   5.928   2.768   2.579
 2774SOL    HW2 9222   6.005   2.674   2.470
 2775SOL     OW 9223   6.883   6.287   0.960
 2775SOL    HW1 9224   6.889   6.187   0.957
 2775SOL    HW2 9225   6.793   6.316   0.928
 2776SOL     OW 9226   4.161   5.468   5.574
 2776SOL    HW1 9227   4.198   5.561   5.567
 2776SOL    HW2 9228   4.235   5.401   5.566
 2777SOL     OW 9229   3.413   1.102   2.682
 2777SOL    HW1 9230   3.510   1.107   2.706
 2777SOL    HW2 9231   3.359   1.094   2.766
 2778SOL     OW 9232   1.827   1.245   5.331
 2778SOL    HW1 9233   1.739   1.230   5.286
 2778SOL    HW2 9234   1.864   1.158   5.363
 2779SOL     OW 9235   4.542   0.262   0.532
 2779SOL    HW1 9236   4.604   0.250   0.455
 2779SOL    HW2 9237   4.560   0.191   0.600
 2780SOL     OW 9238   5.995   5.605   6.012
 2780SOL    HW1 9239   6.034   5.564   6.095
 2780SOL    HW2 9240   5.930   5.540   5.971
 2781SOL     OW 9241   6.175   5.271   1.873
 2781SOL    HW1 9242   6.195   5.294   1.968
 2781SOL    HW2 9243   6.260   5.265   1.822
 2782SOL     OW 9244   3.011   2.780   6.542
 2782SOL    HW1 9245   3.036   2.773   6.639
 2782SOL    HW2 9246   3.036   2.695   6.495
 2783SOL     OW 9247   6.049   3.412   4.615
 2783SOL    HW1 9248   6.047   3.409   4.515
 2783SOL    HW2 9249   6.097   3.331   4.650
 2784SOL     OW 9250   2.564   2.153   1.129
 2784SOL    HW1 9251   2.552   2.095   1.049
 2784SOL    HW2 9252   2.546   2.100   1.212
 2785SOL     OW 9253   6.363   1.111   6.935
 2785SOL    HW1 9254   6.391   1.189   6.879
 2785SOL    HW2 9255   6.321   1.041   6.877
 2786SOL     OW 9256   3.673   0.249   1.164
 2786SOL    HW1 9257   3.702   0.215   1.253
 2786SOL    HW2 9258   3.725   0.332   1.141
 2787SOL     OW 9259   2.493   3.962   6.680
 2787SOL    HW1 9260   2.401   3.929   6.657
 2787SOL    HW2 9261   2.508   3.954   6.778
 2788SOL     OW 9262   2.587   4.361   0.641
 2788SOL    HW1 9263   2.653   4.368   0.716
 2788SOL    HW2 9264   2.503   4.410   0.667
 2789SOL     OW 9265   1.374   2.030   4.049
 2789SOL    HW1 9266   1.398   2.117   4.092
 2789SOL    HW2 9267   1.279   2.006   4.073
 2790SOL     OW 9268   4.063   5.298   2.751
 2790SOL    HW1 9269   4.019   5.385   2.728
 2790SOL    HW2 9270   3.995   5.237   2.793
 2791SOL     OW 9271   1.961   4.805   4.944
 2791SOL    HW1 9272   1.929   4.743   5.015
 2791SOL    HW2 9273   1.965   4.757   4.856
 2792SOL     OW 9274   1.308   0.434   5.203
 2792SOL    HW1 9275   1.258   0.413   5.119
 2792SOL    HW2 9276   1.398   0.471   5.180
 2793SOL     OW 9277   5.097   1.754   2.314
 2793SOL    HW1 9278   5.170   1.797   2.368
 2793SOL    HW2 9279   5.133   1.674   2.267
 2794SOL     OW 9280   0.428   2.499   0.413
 2794SOL    HW1 9281   0.483   2.522   0.494
 2794SOL    HW2 9282   0.472   2.424   0.364
 2795SOL     OW 9283   3.170   4.015   1.279
 2795SOL    HW1 9284   3.145   4.058   1.366
 2795SOL    HW2 9285   3.087   3.981   1.234
 2796SOL     OW 9286   6.555   4.233   2.359
 2796SOL    HW1 9287   6.650   4.233   2.389
 2796SOL    HW2 9288   6.548   4.276   2.269
 2797SOL     OW 9289   4.924   5.533   4.689
 2797SOL    HW1 9290   4.962   5.499   4.774
 2797SOL    HW2 9291   4.960   5.480   4.612
 2798SOL     OW 9292   0.789   4.072   3.056
 2798SOL    HW1 9293   0.691   4.087   3.042
 2798SOL    HW2 9294   0.826   4.149   3.109
 2799SOL     OW 9295   0.284   5.288   6.359
 2799SOL    HW1 9296   0.354   5.360   6.367
 2799SOL    HW2 9297   0.269   5.268   6.262
 2800SOL     OW 9298   4.581   4.445   6.469
 2800SOL    HW1 9299   4.670   4.460   6.513
 2800SOL    HW2 9300   4.512   4.503   6.512
 2801SOL     OW 9301   4.261   6.087   3.111
 2801SOL    HW1 9302   4.249   6.030   3.029
 2801SOL    HW2 9303   4.306   6.172   3.085
 2802SOL     OW 9304   4.120   2.467   6.371
 2802SOL    HW1 9305   4.083   2.530   6.302
 2802SOL    HW2 9306   4.045   2.413   6.410
 2803SOL     OW 9307   2.036   6.151   5.803
 2803SOL    HW1 9308   1.938   6.170   5.806
 2803SOL    HW2 9309   2.086   6.226   5.846
 2804SOL     OW 9310   0.140   4.442   3.527
 2804SOL    HW1 9311   0.146   4.533   3.566
 2804SOL    HW2 9312   0.231   4.410   3.500
 2805SOL     OW 9313   4.479   3.598   1.704
 2805SOL    HW1 9314   4.420   3.675   1.680
 2805SOL    HW2 9315   4.571   3.631   1.724
 2806SOL     OW 9316   5.812   5.429   3.320
 2806SOL    HW1 9317   5.867   5.350   3.349
 2806SOL    HW2 9318   5.862   5.481   3.251
 2807SOL     OW 9319   5.613   4.568   3.746
 2807SOL    HW1 9320   5.544   4.597   3.813
 2807SOL    HW2 9321   5.585   4.480   3.707
 2808SOL     OW 9322   4.552   1.194   2.894
 2808SOL    HW1 9323   4.465   1.224   2.855
 2808SOL    HW2 9324   4.588   1.266   2.953
 2809SOL     OW 9325   0.061   2.586   1.653
 2809SOL    HW1 9326   7.019   2.583   1.578
 2809SOL    HW2 9327   0.034   2.657   1.718
 2810SOL     OW 9328   3.452   6.740   4.692
 2810SOL    HW1 9329   3.479   6.816   4.634
 2810SOL    HW2 9330   3.515   6.733   4.769
 2811SOL     OW 9331   0.881   0.976   2.516
 2811SOL    HW1 9332   0.785   0.993   2.496
 2811SOL    HW2 9333   0.938   1.039   2.464
 2812SOL     OW 9334   4.884   3.584   1.962
 2812SOL    HW1 9335   4.880   3.652   1.888
 2812SOL    HW2 9336   4.822   3.509   1.941
 2813SOL     OW 9337   5.989   6.941   6.088
 2813SOL    HW1 9338   5.961   6.986   6.173
 2813SOL    HW2 9339   6.028   7.010   6.026
 2814SOL     OW 9340   4.159   3.270   6.559
 2814SOL    HW1 9341   4.246   3.318   6.570
 2814SOL    HW2 9342   4.098   3.325   6.503
 2815SOL     OW 9343   6.929   0.882   4.503
 2815SOL    HW1 9344   6.843   0.902   4.549
 2815SOL    HW2 9345   6.972   0.802   4.546
 2816SOL     OW 9346   6.171   6.479   3.780
 2816SOL    HW1 9347   6.193   6.512   3.872
 2816SOL    HW2 9348   6.100   6.409   3.786
 2817SOL     OW 9349   1.654   0.379   1.048
 2817SOL    HW1 9350   1.680   0.351   1.140
 2817SOL    HW2 9351   1.727   0.354   0.984
 2818SOL     OW 9352   6.867   4.921   6.706
 2818SOL    HW1 9353   6.773   4.901   6.680
 2818SOL    HW2 9354   6.924   4.839   6.693
 2819SOL     OW 9355   0.208   1.909   0.621
 2819SOL    HW1 9356   0.296   1.871   0.650
 2819SOL    HW2 9357   0.222   2.001   0.584
 2820SOL     OW 9358   0.477   2.566   2.708
 2820SOL    HW1 9359   0.527   2.652   2.692
 2820SOL    HW2 9360   0.427   2.542   2.625
 2821SOL     OW 9361   2.775   4.427   6.423
 2821SOL    HW1 9362   2.800   4.517   6.388
 2821SOL    HW2 9363   2.748   4.434   6.519
 2822SOL     OW 9364   4.146   2.599   0.594
 2822SOL    HW1 9365   4.097   2.626   0.511
 2822SOL    HW2 9366   4.082   2.558   0.658
 2823SOL     OW 9367   1.795   6.728   1.459
 2823SOL    HW1 9368   1.794   6.795   1.533
 2823SOL    HW2 9369   1.868   6.750   1.395
 2824SOL     OW 9370   2.314   1.054   4.837
 2824SOL    HW1 9371   2.292   0.971   4.786
 2824SOL    HW2 9372   2.232   1.111   4.847
 2825SOL     OW 9373   6.626   6.805   0.587
 2825SOL    HW1 9374   6.704   6.744   0.570
 2825SOL    HW2 9375   6.550   6.752   0.623
 2826SOL     OW 9376   5.823   1.753   6.269
 2826SOL    HW1 9377   5.724   1.764   6.273
 2826SOL    HW2 9378   5.865   1.797   6.348
 2827SOL     OW 9379   6.751   1.276   5.190
 2827SOL    HW1 9380   6.709   1.205   5.133
 2827SOL    HW2 9381   6.820   1.234   5.249
 2828SOL     OW 9382   3.440   0.973   6.104
 2828SOL    HW1 9383   3.522   0.917   6.107
 2828SOL    HW2 9384   3.435   1.020   6.015
 2829SOL     OW 9385   3.904   4.441   6.244
 2829SOL    HW1 9386   3.963   4.513   6.280
 2829SOL    HW2 9387   3.865   4.470   6.157
 2830SOL     OW 9388   6.342   4.455   6.546
 2830SOL    HW1 9389   6.331   4.381   6.613
 2830SOL    HW2 9390   6.439   4.474   6.532
 2831SOL     OW 9391   6.748   5.974   4.606
 2831SOL    HW1 9392   6.844   5.969   4.580
 2831SOL    HW2 9393   6.731   6.061   4.653
 2832SOL     OW 9394   0.669   1.658   1.542
 2832SOL    HW1 9395   0.758   1.616   1.526
 2832SOL    HW2 9396   0.680   1.755   1.563
 2833SOL     OW 9397   5.338   1.527   1.986
 2833SOL    HW1 9398   5.338   1.600   1.917
 2833SOL    HW2 9399   5.411   1.462   1.966
 2834SOL     OW 9400   3.037   1.171   6.659
 2834SOL    HW1 9401   3.011   1.228   6.581
 2834SOL    HW2 9402   2.961   1.168   6.725
 2835SOL     OW 9403   0.419   6.778   1.853
 2835SOL    HW1 9404   0.337   6.799   1.906
 2835SOL    HW2 9405   0.421   6.837   1.772
 2836SOL     OW 9406   6.988   0.057   1.788
 2836SOL    HW1 9407   6.995   0.143   1.839
 2836SOL    HW2 9408   6.952   0.074   1.697
 2837SOL     OW 9409   5.300   3.416   2.974
 2837SOL    HW1 9410   5.370   3.486   2.989
 2837SOL    HW2 9411   5.312   3.342   3.040
 2838SOL     OW 9412   2.210   4.265   1.708
 2838SOL    HW1 9413   2.264   4.274   1.792
 2838SOL    HW2 9414   2.268   4.283   1.629
 2839SOL     OW 9415   6.147   1.335   1.888
 2839SOL    HW1 9416   6.243   1.307   1.885
 2839SOL    HW2 9417   6.121   1.355   1.982
 2840SOL     OW 9418   0.284   0.740   4.604
 2840SOL    HW1 9419   0.323   0.750   4.696
 2840SOL    HW2 9420   0.252   0.830   4.572
 2841SOL     OW 9421   0.375   0.120   6.499
 2841SOL    HW1 9422   0.290   0.160   6.534
 2841SOL    HW2 9423   0.448   0.135   6.566
 2842SOL     OW 9424   6.949   2.485   3.715
 2842SOL    HW1 9425   6.975   2.535   3.798
 2842SOL    HW2 9426   6.875   2.421   3.736
 2843SOL     OW 9427   3.281   1.708   4.388
 2843SOL    HW1 9428   3.190   1.750   4.391
 2843SOL    HW2 9429   3.271   1.608   4.393
 2844SOL     OW 9430   1.169   3.706   0.582
 2844SOL    HW1 9431   1.211   3.637   0.524
 2844SOL    HW2 9432   1.118   3.771   0.526
 2845SOL     OW 9433   0.958   3.526   1.043
 2845SOL    HW1 9434   1.021   3.572   0.981
 2845SOL    HW2 9435   0.990   3.434   1.063
 2846SOL     OW 9436   4.510   1.401   7.000
 2846SOL    HW1 9437   4.515   1.315   0.027
 2846SOL    HW2 9438   4.601   1.441   6.993
 2847SOL     OW 9439   5.525   3.398   3.298
 2847SOL    HW1 9440   5.446   3.367   3.246
 2847SOL    HW2 9441   5.584   3.453   3.238
 2848SOL     OW 9442   0.457   4.550   5.922
 2848SOL    HW1 9443   0.494   4.643   5.925
 2848SOL    HW2 9444   0.455   4.511   6.014
 2849SOL     OW 9445   3.406   0.509   0.954
 2849SOL    HW1 9446   3.395   0.425   1.007
 2849SOL    HW2 9447   3.328   0.570   0.970
 2850SOL     OW 9448   3.240   0.805   1.894
 2850SOL    HW1 9449   3.255   0.902   1.874
 2850SOL    HW2 9450   3.274   0.749   1.818
 2851SOL     OW 9451   1.029   4.244   5.360
 2851SOL    HW1 9452   1.020   4.169   5.294
 2851SOL    HW2 9453   1.011   4.331   5.314
 2852SOL     OW 9454   5.648   3.971   6.780
 2852SOL    HW1 9455   5.700   3.939   6.859
 2852SOL    HW2 9456   5.705   4.029   6.723
 2853SOL     OW 9457   2.748   2.534   0.082
 2853SOL    HW1 9458   2.813   2.546   0.007
 2853SOL    HW2 9459   2.782   2.579   0.164
 2854SOL     OW 9460   3.079   1.363   4.137
 2854SOL    HW1 9461   3.028   1.288   4.095
 2854SOL    HW2 9462   3.073   1.444   4.079
 2855SOL     OW 9463   1.840   0.557   5.963
 2855SOL    HW1 9464   1.798   0.491   6.024
 2855SOL    HW2 9465   1.792   0.558   5.875
 2856SOL     OW 9466   2.323   2.880   6.012
 2856SOL    HW1 9467   2.255   2.832   5.957
 2856SOL    HW2 9468   2.372   2.946   5.954
 2857SOL     OW 9469   2.924   1.570   1.747
 2857SOL    HW1 9470   2.962   1.597   1.658
 2857SOL    HW2 9471   2.873   1.646   1.786
 2858SOL     OW 9472   6.099   3.287   1.920
 2858SOL    HW1 9473   6.197   3.270   1.904
 2858SOL    HW2 9474   6.076   3.379   1.888
 2859SOL     OW 9475   5.428   1.787   0.267
 2859SOL    HW1 9476   5.362   1.790   0.342
 2859SOL    HW2 9477   5.477   1.874   0.261
 2860SOL     OW 9478   4.441   1.777   1.041
 2860SOL    HW1 9479   4.424   1.685   1.077
 2860SOL    HW2 9480   4.483   1.833   1.112
 2861SOL     OW 9481   4.569   5.446   5.609
 2861SOL    HW1 9482   4.482   5.402   5.586
 2861SOL    HW2 9483   4.597   5.506   5.535
 2862SOL     OW 9484   5.867   1.456   3.414
 2862SOL    HW1 9485   5.815   1.536   3.386
 2862SOL    HW2 9486   5.847   1.434   3.510
 2863SOL     OW 9487   5.891   1.192   0.003
 2863SOL    HW1 9488   5.865   1.156   0.092
 2863SOL    HW2 9489   5.871   1.124   6.956
 2864SOL     OW 9490   3.922   6.890   0.873
 2864SOL    HW1 9491   3.980   6.947   0.814
 2864SOL    HW2 9492   3.932   6.920   0.968
 2865SOL     OW 9493   4.869   4.253   5.022
 2865SOL    HW1 9494   4.799   4.307   4.977
 2865SOL    HW2 9495   4.918   4.198   4.955
 2866SOL     OW 9496   6.656   0.045   0.220
 2866SOL    HW1 9497   6.665   0.040   0.121
 2866SOL    HW2 9498   6.703   6.992   0.263
 2867SOL     OW 9499   6.088   4.216   2.546
 2867SOL    HW1 9500   6.129   4.245   2.633
 2867SOL    HW2 9501   6.049   4.124   2.557
 2868SOL     OW 9502   0.853   3.538   5.131
 2868SOL    HW1 9503   0.878   3.561   5.225
 2868SOL    HW2 9504   0.754   3.552   5.118
 2869SOL     OW 9505   6.171   1.108   3.076
 2869SOL    HW1 9506   6.075   1.084   3.058
 2869SOL    HW2 9507   6.225   1.090   2.993
 2870SOL     OW 9508   6.661   1.620   4.278
 2870SOL    HW1 9509   6.603   1.542   4.299
 2870SOL    HW2 9510   6.661   1.684   4.355
 2871SOL     OW 9511   2.127   1.673   6.442
 2871SOL    HW1 9512   2.168   1.707   6.357
 2871SOL    HW2 9513   2.029   1.694   6.442
 2872SOL     OW 9514   3.004   1.535   3.770
 2872SOL    HW1 9515   3.015   1.593   3.851
 2872SOL    HW2 9516   3.094   1.518   3.728
 2873SOL     OW 9517   0.573   5.400   3.512
 2873SOL    HW1 9518   0.542   5.370   3.422
 2873SOL    HW2 9519   0.662   5.445   3.503
 2874SOL     OW 9520   5.193   5.415   2.018
 2874SOL    HW1 9521   5.195   5.317   2.000
 2874SOL    HW2 9522   5.283   5.444   2.051
 2875SOL     OW 9523   4.302   6.492   6.322
 2875SOL    HW1 9524   4.258   6.461   6.238
 2875SOL    HW2 9525   4.239   6.477   6.399
 2876SOL     OW 9526   0.737   0.532   2.218
 2876SOL    HW1 9527   0.662   0.487   2.169
 2876SOL    HW2 9528   0.793   0.583   2.153
 2877SOL     OW 9529   3.545   2.849   5.036
 2877SOL    HW1 9530   3.600   2.779   5.082
 2877SOL    HW2 9531   3.602   2.929   5.018
 2878SOL     OW 9532   3.449   4.995   4.553
 2878SOL    HW1 9533   3.389   4.984   4.474
 2878SOL    HW2 9534   3.395   4.987   4.637
 2879SOL     OW 9535   4.922   5.309   0.254
 2879SOL    HW1 9536   4.835   5.265   0.232
 2879SOL    HW2 9537   4.975   5.250   0.314
 2880SOL     OW 9538   6.239   6.775   0.376
 2880SOL    HW1 9539   6.261   6.867   0.341
 2880SOL    HW2 9540   6.146   6.775   0.411
 2881SOL     OW 9541   6.022   6.368   0.883
 2881SOL    HW1 9542   5.930   6.394   0.914
 2881SOL    HW2 9543   6.019   6.342   0.787
 2882SOL     OW 9544   0.879   3.313   2.550
 2882SOL    HW1 9545   0.861   3.251   2.627
 2882SOL    HW2 9546   0.944   3.383   2.579
 2883SOL     OW 9547   4.091   6.718   3.533
 2883SOL    HW1 9548   4.179   6.701   3.579
 2883SOL    HW2 9549   4.017   6.705   3.599
 2884SOL     OW 9550   0.384   6.425   3.001
 2884SOL    HW1 9551   0.339   6.507   2.967
 2884SOL    HW2 9552   0.435   6.447   3.085
 2885SOL     OW 9553   0.287   2.679   2.899
 2885SOL    HW1 9554   0.346   2.642   2.827
 2885SOL    HW2 9555   0.272   2.777   2.884
 2886SOL     OW 9556   2.160   2.922   6.691
 2886SOL    HW1 9557   2.258   2.940   6.693
 2886SOL    HW2 9558   2.110   3.005   6.716
 2887SOL     OW 9559   2.397   6.733   5.145
 2887SOL    HW1 9560   2.461   6.670   5.101
 2887SOL    HW2 9561   2.305   6.717   5.108
 2888SOL     OW 9562   6.903   4.790   6.261
 2888SOL    HW1 9563   6.939   4.764   6.172
 2888SOL    HW2 9564   6.878   4.709   6.313
 2889SOL     OW 9565   1.379   1.061   2.236
 2889SOL    HW1 9566   1.393   1.038   2.332
 2889SOL    HW2 9567   1.344   1.154   2.229
 2890SOL     OW 9568   2.998   0.433   1.272
 2890SOL    HW1 9569   2.933   0.367   1.310
 2890SOL    HW2 9570   2.955   0.524   1.267
 2891SOL     OW 9571   2.641   4.640   3.411
 2891SOL    HW1 9572   2.608   4.597   3.495
 2891SOL    HW2 9573   2.729   4.685   3.430
 2892SOL     OW 9574   4.870   4.053   0.211
 2892SOL    HW1 9575   4.943   4.072   0.146
 2892SOL    HW2 9576   4.883   3.963   0.252
 2893SOL     OW 9577   1.943   6.489   5.785
 2893SOL    HW1 9578   2.021   6.446   5.830
 2893SOL    HW2 9579   1.861   6.477   5.842
 2894SOL     OW 9580   2.896   2.582   6.866
 2894SOL    HW1 9581   2.941   2.496   6.841
 2894SOL    HW2 9582   2.962   2.642   6.912
 2895SOL     OW 9583   3.834   2.984   6.388
 2895SOL    HW1 9584   3.754   3.021   6.435
 2895SOL    HW2 9585   3.917   3.014   6.436
 2896SOL     OW 9586   2.763   5.330   6.393
 2896SOL    HW1 9587   2.735   5.243   6.434
 2896SOL    HW2 9588   2.860   5.325   6.369
 2897SOL     OW 9589   2.468   6.408   3.816
 2897SOL    HW1 9590   2.525   6.450   3.746
 2897SOL    HW2 9591   2.518   6.404   3.903
 2898SOL     OW 9592   4.686   4.786   2.745
 2898SOL    HW1 9593   4.653   4.783   2.651
 2898SOL    HW2 9594   4.769   4.843   2.749
 2899SOL     OW 9595   0.167   1.010   6.485
 2899SOL    HW1 9596   0.147   0.982   6.579
 2899SOL    HW2 9597   0.159   0.932   6.424
 2900SOL     OW 9598   1.247   4.640   5.504
 2900SOL    HW1 9599   1.248   4.547   5.541
 2900SOL    HW2 9600   1.305   4.699   5.561
 2901SOL     OW 9601   1.506   0.354   2.950
 2901SOL    HW1 9602   1.468   0.369   3.042
 2901SOL    HW2 9603   1.440   0.303   2.896
 2902SOL     OW 9604   5.597   6.501   0.396
 2902SOL    HW1 9605   5.567   6.463   0.484
 2902SOL    HW2 9606   5.659   6.578   0.413
 2903SOL     OW 9607   3.011   0.030   2.249
 2903SOL    HW1 9608   3.016   0.002   2.153
 2903SOL    HW2 9609   3.092   7.021   2.298
 2904SOL     OW 9610   2.443   3.272   5.347
 2904SOL    HW1 9611   2.467   3.189   5.298
 2904SOL    HW2 9612   2.493   3.276   5.433
 2905SOL     OW 9613   1.509   1.398   2.591
 2905SOL    HW1 9614   1.418   1.365   2.565
 2905SOL    HW2 9615   1.565   1.321   2.620
 2906SOL     OW 9616   5.226   5.150   1.978
 2906SOL    HW1 9617   5.231   5.082   2.051
 2906SOL    HW2 9618   5.314   5.154   1.931
 2907SOL     OW 9619   6.348   1.111   5.138
 2907SOL    HW1 9620   6.375   1.182   5.203
 2907SOL    HW2 9621   6.306   1.035   5.188
 2908SOL     OW 9622   4.115   6.700   4.298
 2908SOL    HW1 9623   4.050   6.629   4.271
 2908SOL    HW2 9624   4.196   6.696   4.239
 2909SOL     OW 9625   0.651   4.767   4.464
 2909SOL    HW1 9626   0.687   4.674   4.458
 2909SOL    HW2 9627   0.695   4.815   4.539
 2910SOL     OW 9628   3.343   6.450   4.870
 2910SOL    HW1 9629   3.321   6.353   4.866
 2910SOL    HW2 9630   3.393   6.477   4.788
 2911SOL     OW 9631   2.490   5.423   3.575
 2911SOL    HW1 9632   2.413   5.414   3.512
 2911SOL    HW2 9633   2.513   5.333   3.611
 2912SOL     OW 9634   2.671   5.689   0.514
 2912SOL    HW1 9635   2.643   5.784   0.524
 2912SOL    HW2 9636   2.684   5.648   0.605
 2913SOL     OW 9637   1.781   4.661   2.327
 2913SOL    HW1 9638   1.684   4.676   2.349
 2913SOL    HW2 9639   1.805   4.566   2.346
 2914SOL     OW 9640   6.072   5.151   5.943
 2914SOL    HW1 9641   5.990   5.165   5.999
 2914SOL    HW2 9642   6.056   5.186   5.851
 2915SOL     OW 9643   4.422   1.809   4.105
 2915SOL    HW1 9644   4.448   1.797   4.009
 2915SOL    HW2 9645   4.427   1.905   4.130
 2916SOL     OW 9646   6.390   4.692   5.975
 2916SOL    HW1 9647   6.476   4.726   5.937
 2916SOL    HW2 9648   6.313   4.742   5.934
 2917SOL     OW 9649   3.684   0.590   1.350
 2917SOL    HW1 9650   3.718   0.673   1.395
 2917SOL    HW2 9651   3.758   0.550   1.295
 2918SOL     OW 9652   6.775   3.336   3.232
 2918SOL    HW1 9653   6.693   3.281   3.217
 2918SOL    HW2 9654   6.769   3.421   3.180
 2919SOL     OW 9655   6.201   0.142   0.640
 2919SOL    HW1 9656   6.218   0.109   0.547
 2919SOL    HW2 9657   6.279   0.196   0.670
 2920SOL     OW 9658   3.545   2.080   2.523
 2920SOL    HW1 9659   3.446   2.082   2.514
 2920SOL    HW2 9660   3.586   2.146   2.459
 2921SOL     OW 9661   0.216   1.271   2.954
 2921SOL    HW1 9662   0.274   1.264   2.872
 2921SOL    HW2 9663   0.124   1.240   2.932
 2922SOL     OW 9664   5.726   6.439   6.908
 2922SOL    HW1 9665   5.734   6.440   7.007
 2922SOL    HW2 9666   5.817   6.437   6.866
 2923SOL     OW 9667   6.923   5.409   2.615
 2923SOL    HW1 9668   6.925   5.452   2.706
 2923SOL    HW2 9669   7.016   5.387   2.587
 2924SOL     OW 9670   0.271   1.593   6.309
 2924SOL    HW1 9671   0.177   1.570   6.334
 2924SOL    HW2 9672   0.291   1.687   6.335
 2925SOL     OW 9673   5.789   0.969   2.724
 2925SOL    HW1 9674   5.834   1.056   2.743
 2925SOL    HW2 9675   5.819   0.901   2.791
 2926SOL     OW 9676   6.921   1.602   4.942
 2926SOL    HW1 9677   6.979   1.527   4.909
 2926SOL    HW2 9678   6.879   1.577   5.029
 2927SOL     OW 9679   1.276   2.124   2.063
 2927SOL    HW1 9680   1.335   2.133   2.143
 2927SOL    HW2 9681   1.311   2.181   1.988
 2928SOL     OW 9682   6.452   1.745   6.625
 2928SOL    HW1 9683   6.524   1.777   6.686
 2928SOL    HW2 9684   6.411   1.662   6.662
 2929SOL     OW 9685   0.761   0.970   6.140
 2929SOL    HW1 9686   0.759   0.962   6.040
 2929SOL    HW2 9687   0.852   1.000   6.170
 2930SOL     OW 9688   4.851   6.563   4.800
 2930SOL    HW1 9689   4.806   6.605   4.721
 2930SOL    HW2 9690   4.782   6.523   4.860
 2931SOL     OW 9691   5.120   6.001   6.668
 2931SOL    HW1 9692   5.070   5.923   6.629
 2931SOL    HW2 9693   5.055   6.070   6.699
 2932SOL     OW 9694   1.894   4.609   1.757
 2932SOL    HW1 9695   1.854   4.659   1.835
 2932SOL    HW2 9696   1.824   4.551   1.716
 2933SOL     OW 9697   5.257   2.389   3.866
 2933SOL    HW1 9698   5.281   2.486   3.868
 2933SOL    HW2 9699   5.340   2.334   3.855
 2934SOL     OW 9700   3.607   0.766   1.050
 2934SOL    HW1 9701   3.651   0.690   1.003
 2934SOL    HW2 9702   3.530   0.732   1.105
 2935SOL     OW 9703   6.565   2.891   1.536
 2935SOL    HW1 9704   6.622   2.956   1.585
 2935SOL    HW2 9705   6.508   2.939   1.470
 2936SOL     OW 9706   4.909   5.816   1.277
 2936SOL    HW1 9707   4.877   5.907   1.301
 2936SOL    HW2 9708   4.949   5.772   1.357
 2937SOL     OW 9709   2.866   5.068   0.480
 2937SOL    HW1 9710   2.790   5.020   0.437
 2937SOL    HW2 9711   2.839   5.162   0.500
 2938SOL     OW 9712   4.800   4.891   5.544
 2938SOL    HW1 9713   4.837   4.968   5.595
 2938SOL    HW2 9714   4.768   4.820   5.607
 2939SOL     OW 9715   0.241   6.533   4.881
 2939SOL    HW1 9716   0.315   6.596   4.856
 2939SOL    HW2 9717   0.154   6.567   4.846
 2940SOL     OW 9718   5.484   6.863   5.312
 2940SOL    HW1 9719   5.582   6.880   5.325
 2940SOL    HW2 9720   5.457   6.780   5.361
 2941SOL     OW 9721   1.803   2.649   5.694
 2941SOL    HW1 9722   1.847   2.717   5.635
 2941SOL    HW2 9723   1.779   2.569   5.639
 2942SOL     OW 9724   2.773   0.546   2.220
 2942SOL    HW1 9725   2.759   0.593   2.132
 2942SOL    HW2 9726   2.784   0.448   2.204
 2943SOL     OW 9727   5.182   3.541   2.422
 2943SOL    HW1 9728   5.238   3.617   2.389
 2943SOL    HW2 9729   5.182   3.540   2.522
 2944SOL     OW 9730   3.563   5.144   5.743
 2944SOL    HW1 9731   3.466   5.150   5.718
 2944SOL    HW2 9732   3.598   5.236   5.762
 2945SOL     OW 9733   3.969   3.801   2.769
 2945SOL    HW1 9734   3.901   3.832   2.702
 2945SOL    HW2 9735   3.992   3.705   2.751
 2946SOL     OW 9736   6.858   5.747   5.795
 2946SOL    HW1 9737   6.770   5.705   5.817
 2946SOL    HW2 9738   6.846   5.845   5.779
 2947SOL     OW 9739   0.415   3.792   0.101
 2947SOL    HW1 9740   0.496   3.849   0.114
 2947SOL    HW2 9741   0.431   3.730   0.024
 2948SOL     OW 9742   6.212   3.740   5.625
 2948SOL    HW1 9743   6.181   3.808   5.691
 2948SOL    HW2 9744   6.240   3.785   5.540
 2949SOL     OW 9745   1.658   6.014   1.179
 2949SOL    HW1 9746   1.687   6.097   1.228
 2949SOL    HW2 9747   1.723   5.994   1.106
 2950SOL     OW 9748   5.666   3.561   4.600
 2950SOL    HW1 9749   5.569   3.555   4.622
 2950SOL    HW2 9750   5.683   3.516   4.512
 2951SOL     OW 9751   0.031   2.481   0.023
 2951SOL    HW1 9752   0.121   2.525   0.026
 2951SOL    HW2 9753   7.009   2.494   0.111
 2952SOL     OW 9754   1.048   4.808   3.472
 2952SOL    HW1 9755   1.075   4.889   3.524
 2952SOL    HW2 9756   0.994   4.748   3.531
 2953SOL     OW 9757   5.373   2.539   2.293
 2953SOL    HW1 9758   5.421   2.509   2.211
 2953SOL    HW2 9759   5.277   2.510   2.289
 2954SOL     OW 9760   1.481   5.912   2.080
 2954SOL    HW1 9761   1.456   5.822   2.046
 2954SOL    HW2 9762   1.397   5.966   2.095
 2955SOL     OW 9763   0.344   2.884   0.575
 2955SOL    HW1 9764   0.266   2.925   0.622
 2955SOL    HW2 9765   0.398   2.956   0.530
 2956SOL     OW 9766   0.191   5.675   2.837
 2956SOL    HW1 9767   0.110   5.701   2.890
 2956SOL    HW2 9768   0.208   5.577   2.847
 2957SOL     OW 9769   0.019   3.646   1.290
 2957SOL    HW1 9770   0.002   3.737   1.253
 2957SOL    HW2 9771   6.974   3.583   1.256
 2958SOL     OW 9772   2.522   4.617   4.913
 2958SOL    HW1 9773   2.481   4.707   4.926
 2958SOL    HW2 9774   2.533   4.573   5.002
 2959SOL     OW 9775   5.453   4.465   6.818
 2959SOL    HW1 9776   5.431   4.545   6.761
 2959SOL    HW2 9777   5.546   4.474   6.853
 2960SOL     OW 9778   2.935   1.048   0.153
 2960SOL    HW1 9779   2.849   1.062   0.203
 2960SOL    HW2 9780   2.954   1.128   0.096
 2961SOL     OW 9781   5.318   3.252   4.595
 2961SOL    HW1 9782   5.344   3.213   4.684
 2961SOL    HW2 9783   5.300   3.179   4.530
 2962SOL     OW 9784   4.672   0.660   3.540
 2962SOL    HW1 9785   4.714   0.699   3.622
 2962SOL    HW2 9786   4.674   0.728   3.467
 2963SOL     OW 9787   1.695   1.677   5.782
 2963SOL    HW1 9788   1.738   1.765   5.802
 2963SOL    HW2 9789   1.764   1.615   5.743
 2964SOL     OW 9790   1.868   6.959   2.173
 2964SOL    HW1 9791   1.951   6.914   2.141
 2964SOL    HW2 9792   1.889   7.021   2.248
 2965SOL     OW 9793   0.309   0.793   5.304
 2965SOL    HW1 9794   0.277   0.775   5.211
 2965SOL    HW2 9795   0.266   0.877   5.339
 2966SOL     OW 9796   5.911   4.494   3.678
 2966SOL    HW1 9797   5.867   4.532   3.597
 2966SOL    HW2 9798   5.841   4.455   3.739
 2967SOL     OW 9799   5.734   2.776   3.753
 2967SOL    HW1 9800   5.672   2.853   3.736
 2967SOL    HW2 9801   5.759   2.774   3.850
 2968SOL     OW 9802   0.729   3.888   5.644
 2968SOL    HW1 9803   0.662   3.962   5.636
 2968SOL    HW2 9804   0.821   3.926   5.632
 2969SOL     OW 9805   5.653   2.012   5.338
 2969SOL    HW1 9806   5.671   2.110   5.326
 2969SOL    HW2 9807   5.726   1.959   5.294
 2970SOL     OW 9808   1.302   4.183   6.668
 2970SOL    HW1 9809   1.355   4.109   6.626
 2970SOL    HW2 9810   1.300   4.170   6.767
 2971SOL     OW 9811   5.724   2.994   4.433
 2971SOL    HW1 9812   5.757   3.020   4.342
 2971SOL    HW2 9813   5.693   3.075   4.482
 2972SOL     OW 9814   6.286   4.068   0.097
 2972SOL    HW1 9815   6.200   4.116   0.115
 2972SOL    HW2 9816   6.348   4.080   0.175
 2973SOL     OW 9817   5.504   0.446   3.950
 2973SOL    HW1 9818   5.578   0.381   3.966
 2973SOL    HW2 9819   5.527   0.534   3.993
 2974SOL     OW 9820   5.540   3.847   3.555
 2974SOL    HW1 9821   5.584   3.900   3.482
 2974SOL    HW2 9822   5.450   3.816   3.524
 2975SOL     OW 9823   0.374   1.872   5.254
 2975SOL    HW1 9824   0.330   1.888   5.342
 2975SOL    HW2 9825   0.345   1.943   5.189
 2976SOL     OW 9826   3.713   1.409   2.778
 2976SOL    HW1 9827   3.639   1.458   2.824
 2976SOL    HW2 9828   3.793   1.469   2.772
 2977SOL     OW 9829   2.848   7.013   4.205
 2977SOL    HW1 9830   2.834   6.916   4.184
 2977SOL    HW2 9831   2.945   0.008   4.208
 2978SOL     OW 9832   4.426   4.838   0.213
 2978SOL    HW1 9833   4.473   4.924   0.234
 2978SOL    HW2 9834   4.491   4.775   0.170
 2979SOL     OW 9835   3.781   0.422   3.973
 2979SOL    HW1 9836   3.802   0.434   4.070
 2979SOL    HW2 9837   3.828   0.493   3.919
 2980SOL     OW 9838   1.404   6.104   4.224
 2980SOL    HW1 9839   1.342   6.165   4.274
 2980SOL    HW2 9840   1.440   6.035   4.286
 2981SOL     OW 9841   0.537   0.208   6.238
 2981SOL    HW1 9842   0.621   0.167   6.203
 2981SOL    HW2 9843   0.516   0.169   6.327
 2982SOL     OW 9844   4.398   6.501   3.233
 2982SOL    HW1 9845   4.310   6.454   3.228
 2982SOL    HW2 9846   4.390   6.581   3.294
 2983SOL     OW 9847   0.426   0.483   4.104
 2983SOL    HW1 9848   0.355   0.536   4.149
 2983SOL    HW2 9849   0.389   0.441   4.021
 2984SOL     OW 9850   5.544   6.133   1.307
 2984SOL    HW1 9851   5.582   6.225   1.306
 2984SOL    HW2 9852   5.453   6.134   1.265
 2985SOL     OW 9853   0.632   2.161   4.424
 2985SOL    HW1 9854   0.542   2.197   4.448
 2985SOL    HW2 9855   0.694   2.172   4.502
 2986SOL     OW 9856   2.416   4.255   5.791
 2986SOL    HW1 9857   2.347   4.193   5.754
 2986SOL    HW2 9858   2.451   4.315   5.719
 2987SOL     OW 9859   4.775   1.009   4.093
 2987SOL    HW1 9860   4.751   0.948   4.169
 2987SOL    HW2 9861   4.710   0.997   4.018
 2988SOL     OW 9862   0.690   0.207   2.212
 2988SOL    HW1 9863   0.630   0.245   2.142
 2988SOL    HW2 9864   0.716   0.278   2.277
 2989SOL     OW 9865   6.189   5.541   0.939
 2989SOL    HW1 9866   6.118   5.554   0.870
 2989SOL    HW2 9867   6.147   5.509   1.024
 2990SOL     OW 9868   3.993   1.110   3.066
 2990SOL    HW1 9869   4.043   1.168   3.002
 2990SOL    HW2 9870   3.939   1.167   3.127
 2991SOL     OW 9871   0.217   3.897   0.979
 2991SOL    HW1 9872   0.303   3.942   1.004
 2991SOL    HW2 9873   0.185   3.932   0.891
 2992SOL     OW 9874   2.712   5.635   5.741
 2992SOL    HW1 9875   2.736   5.581   5.821
 2992SOL    HW2 9876   2.641   5.701   5.765
 2993SOL     OW 9877   1.384   4.876   1.949
 2993SOL    HW1 9878   1.361   4.779   1.954
 2993SOL    HW2 9879   1.328   4.920   1.879
 2994SOL     OW 9880   4.631   0.593   0.054
 2994SOL    HW1 9881   4.544   0.543   0.056
 2994SOL    HW2 9882   4.701   0.538   0.099
 2995SOL     OW 9883   1.075   2.676   6.979
 2995SOL    HW1 9884   0.993   2.627   7.009
 2995SOL    HW2 9885   1.073   2.687   6.880
 2996SOL     OW 9886   3.151   6.308   5.106
 2996SOL    HW1 9887   3.221   6.260   5.052
 2996SOL    HW2 9888   3.197   6.373   5.168
 2997SOL     OW 9889   4.923   6.180   1.831
 2997SOL    HW1 9890   4.879   6.260   1.792
 2997SOL    HW2 9891   4.913   6.181   1.930
 2998SOL     OW 9892   4.718   5.677   4.577
 2998SOL    HW1 9893   4.802   5.643   4.618
 2998SOL    HW2 9894   4.650   5.603   4.572
 2999SOL     OW 9895   3.706   6.025   3.837
 2999SOL    HW1 9896   3.717   6.121   3.863
 2999SOL    HW2 9897   3.752   6.008   3.750
 3000SOL     OW 9898   1.520   3.707   5.793
 3000SOL    HW1 9899   1.606   3.754   5.812
 3000SOL    HW2 9900   1.526   3.660   5.705
 3001SOL     OW 9901   4.932   6.919   6.841
 3001SOL    HW1 9902   4.988   6.988   6.887
 3001SOL    HW2 9903   4.979   6.887   6.760
 3002SOL     OW 9904   3.640   0.276   5.275
 3002SOL    HW1 9905   3.567   0.298   5.210
 3002SOL    HW2 9906   3.652   0.177   5.279
 3003SOL     OW 9907   2.902   6.323   6.338
 3003SOL    HW1 9908   2.826   6.331   6.273
 3003SOL    HW2 9909   2.896   6.397   6.405
 3004SOL     OW 9910   6.696   4.029   3.697
 3004SOL    HW1 9911   6.790   4.042   3.729
 3004SOL    HW2 9912   6.672   4.102   3.634
 3005SOL     OW 9913   3.262   3.347   1.247
 3005SOL    HW1 9914   3.210   3.303   1.320
 3005SOL    HW2 9915   3.351   3.303   1.237
 3006SOL     OW 9916   6.470   1.487   0.627
 3006SOL    HW1 9917   6.429   1.573   0.595
 3006SOL    HW2 9918   6.515   1.441   0.550
 3007SOL     OW 9919   5.969   5.299   2.445
 3007SOL    HW1 9920   5.908   5.358   2.392
 3007SOL    HW2 9921   5.938   5.205   2.439
 3008SOL     OW 9922   3.524   0.488   6.341
 3008SOL    HW1 9923   3.521   0.440   6.429
 3008SOL    HW2 9924   3.619   0.496   6.311
 3009SOL     OW 9925   0.774   6.825   2.674
 3009SOL    HW1 9926   0.750   6.749   2.736
 3009SOL    HW2 9927   0.692   6.855   2.626
 3010SOL     OW 9928   3.967   6.090   3.200
 3010SOL    HW1 9929   4.067   6.091   3.213
 3010SOL    HW2 9930   3.932   6.183   3.199
 3011SOL     OW 9931   5.924   0.666   6.530
 3011SOL    HW1 9932   5.968   0.594   6.584
 3011SOL    HW2 9933   5.934   0.645   6.432
 3012SOL     OW 9934   0.432   3.371   4.244
 3012SOL    HW1 9935   0.472   3.323   4.322
 3012SOL    HW2 9936   0.464   3.466   4.243
 3013SOL     OW 9937   5.259   6.221   3.279
 3013SOL    HW1 9938   5.216   6.136   3.309
 3013SOL    HW2 9939   5.350   6.228   3.319
 3014SOL     OW 9940   5.326   1.890   4.303
 3014SOL    HW1 9941   5.342   1.970   4.244
 3014SOL    HW2 9942   5.335   1.917   4.399
 3015SOL     OW 9943   3.278   2.505   6.895
 3015SOL    HW1 9944   3.238   2.581   6.945
 3015SOL    HW2 9945   3.206   2.452   6.851
 3016SOL     OW 9946   3.065   5.865   4.693
 3016SOL    HW1 9947   3.058   5.864   4.793
 3016SOL    HW2 9948   3.058   5.771   4.659
 3017SOL     OW 9949   1.165   5.755   1.025
 3017SOL    HW1 9950   1.211   5.793   1.106
 3017SOL    HW2 9951   1.217   5.780   0.943
 3018SOL     OW 9952   3.155   0.646   6.351
 3018SOL    HW1 9953   3.179   0.716   6.285
 3018SOL    HW2 9954   3.179   0.677   6.443
 3019SOL     OW 9955   3.449   6.417   1.107
 3019SOL    HW1 9956   3.362   6.387   1.147
 3019SOL    HW2 9957   3.522   6.357   1.139
 3020SOL     OW 9958   3.729   3.519   1.110
 3020SOL    HW1 9959   3.649   3.573   1.085
 3020SOL    HW2 9960   3.726   3.431   1.061
 3021SOL     OW 9961   2.251   2.190   6.768
 3021SOL    HW1 9962   2.154   2.184   6.744
 3021SOL    HW2 9963   2.285   2.100   6.794
 3022SOL     OW 9964   4.087   6.403   2.423
 3022SOL    HW1 9965   4.130   6.425   2.335
 3022SOL    HW2 9966   4.007   6.345   2.407
 3023SOL     OW 9967   3.549   6.123   3.043
 3023SOL    HW1 9968   3.542   6.104   2.945
 3023SOL    HW2 9969   3.457   6.137   3.081
 3024SOL     OW 9970   2.712   0.914   6.331
 3024SOL    HW1 9971   2.682   0.998   6.378
 3024SOL    HW2 9972   2.695   0.923   6.233
 3025SOL     OW 9973   3.404   2.681   0.373
 3025SOL    HW1 9974   3.356   2.620   0.310
 3025SOL    HW2 9975   3.404   2.641   0.464
 3026SOL     OW 9976   1.180   3.496   0.764
 3026SOL    HW1 9977   1.173   3.410   0.714
 3026SOL    HW2 9978   1.169   3.573   0.701
 3027SOL     OW 9979   4.372   1.064   2.144
 3027SOL    HW1 9980   4.334   1.045   2.235
 3027SOL    HW2 9981   4.320   1.013   2.075
 3028SOL     OW 9982   1.277   4.743   6.752
 3028SOL    HW1 9983   1.357   4.759   6.694
 3028SOL    HW2 9984   1.195   4.737   6.695
 3029SOL     OW 9985   6.833   5.467   5.080
 3029SOL    HW1 9986   6.875   5.406   5.012
 3029SOL    HW2 9987   6.887   5.464   5.164
 3030SOL     OW 9988   0.842   1.364   5.386
 3030SOL    HW1 9989   0.802   1.349   5.476
 3030SOL    HW2 9990   0.768   1.371   5.318
 3031SOL     OW 9991   0.505   3.563   0.883
 3031SOL    HW1 9992   0.486   3.535   0.790
 3031SOL    HW2 9993   0.420   3.568   0.935
 3032SOL     OW 9994   5.290   0.344   0.371
 3032SOL    HW1 9995   5.222   0.416   0.384
 3032SOL    HW2 9996   5.363   0.353   0.438
 3033SOL     OW 9997   0.470   2.432   0.025
 3033SOL    HW1 9998   0.448   2.423   6.952
 3033SOL    HW2 9999   0.558   2.389   0.044
 3034SOL     OW10000   1.920   6.157   3.613
 3034SOL    HW110001   1.846   6.204   3.565
 3034SOL    HW210002   1.966   6.221   3.675
 3035SOL     OW10003   6.576   1.819   0.643
 3035SOL    HW110004   6.500   1.813   0.579
 3035SOL    HW210005   6.649   1.756   0.615
 3036SOL     OW10006   2.001   3.658   0.016
 3036SOL    HW110007   2.092   3.664   6.999
 3036SOL    HW210008   1.931   3.668   6.969
 3037SOL     OW10009   6.040   6.012   4.462
 3037SOL    HW110010   6.078   6.093   4.418
 3037SOL    HW210011   6.101   5.934   4.448
 3038SOL     OW10012   5.932   0.068   6.352
 3038SOL    HW110013   6.024   0.070   6.392
 3038SOL    HW210014   5.872   0.013   6.410
 3039SOL     OW10015   6.836   4.757   2.435
 3039SOL    HW110016   6.874   4.849   2.432
 3039SOL    HW210017   6.842   4.715   2.344
 3040SOL     OW10018   4.712   3.818   6.223
 3040SOL    HW110019   4.702   3.888   6.294
 3040SOL    HW210020   4.623   3.775   6.206
 3041SOL     OW10021   1.752   2.452   5.881
 3041SOL    HW110022   1.675   2.400   5.844
 3041SOL    HW210023   1.763   2.536   5.829
 3042SOL     OW10024   5.261   0.163   1.926
 3042SOL    HW110025   5.325   0.086   1.925
 3042SOL    HW210026   5.277   0.220   1.846
 3043SOL     OW10027   0.189   5.388   0.704
 3043SOL    HW110028   0.115   5.453   0.685
 3043SOL    HW210029   0.268   5.437   0.741
 3044SOL     OW10030   3.339   4.179   5.392
 3044SOL    HW110031   3.411   4.248   5.404
 3044SOL    HW210032   3.253   4.225   5.372
 3045SOL     OW10033   4.752   0.592   2.478
 3045SOL    HW110034   4.825   0.531   2.449
 3045SOL    HW210035   4.745   0.591   2.578
 3046SOL     OW10036   1.500   3.584   5.551
 3046SOL    HW110037   1.472   3.626   5.465
 3046SOL    HW210038   1.574   3.519   5.534
 3047SOL     OW10039   5.471   5.492   1.996
 3047SOL    HW110040   5.532   5.563   2.030
 3047SOL    HW210041   5.504   5.458   1.908
 3048SOL     OW10042   4.043   3.398   1.425
 3048SOL    HW110043   4.010   3.393   1.331
 3048SOL    HW210044   3.978   3.449   1.481
 3049SOL     OW10045   0.521   5.841   0.988
 3049SOL    HW110046   0.512   5.748   1.022
 3049SOL    HW210047   0.613   5.853   0.949
 3050SOL     OW10048   3.652   0.125   3.380
 3050SOL    HW110049   3.751   0.109   3.377
 3050SOL    HW210050   3.605   0.043   3.411
 3051SOL     OW10051   2.471   3.987   6.966
 3051SOL    HW110052   2.497   4.052   0.014
 3051SOL    HW210053   2.396   3.930   6.998
 3052SOL     OW10054   3.842   0.360   2.884
 3052SOL    HW110055   3.873   0.363   2.789
 3052SOL    HW210056   3.772   0.430   2.899
 3053SOL     OW10057   6.170   0.507   6.732
 3053SOL    HW110058   6.236   0.561   6.786
 3053SOL    HW210059   6.220   0.446   6.671
 3054SOL     OW10060   0.137   2.388   6.792
 3054SOL    HW110061   0.151   2.482   6.759
 3054SOL    HW210062   0.099   2.391   6.885
 3055SOL     OW10063   5.228   0.584   3.761
 3055SOL    HW110064   5.277   0.503   3.728
 3055SOL    HW210065   5.155   0.555   3.822
 3056SOL     OW10066   6.663   0.428   0.075
 3056SOL    HW110067   6.735   0.491   0.106
 3056SOL    HW210068   6.589   0.427   0.143
 3057SOL     OW10069   4.346   5.658   2.854
 3057SOL    HW110070   4.406   5.583   2.829
 3057SOL    HW210071   4.381   5.743   2.814
 3058SOL     OW10072   6.223   5.752   1.394
 3058SOL    HW110073   6.184   5.820   1.455
 3058SOL    HW210074   6.185   5.662   1.415
 3059SOL     OW10075   1.754   3.354   5.083
 3059SOL    HW110076   1.748   3.279   5.017
 3059SOL    HW210077   1.824   3.333   5.151
 3060SOL     OW10078   0.120   6.498   0.310
 3060SOL    HW110079   0.097   6.567   0.379
 3060SOL    HW210080   0.134   6.543   0.222
 3061SOL     OW10081   7.020   0.669   5.220
 3061SOL    HW110082   0.060   0.637   5.150
 3061SOL    HW210083   0.005   0.768   5.231
 3062SOL     OW10084   1.620   6.863   1.145
 3062SOL    HW110085   1.652   6.769   1.139
 3062SOL    HW210086   1.526   6.865   1.181
 3063SOL     OW10087   2.469   5.013   2.526
 3063SOL    HW110088   2.374   5.009   2.558
 3063SOL    HW210089   2.530   5.026   2.604
 3064SOL     OW10090   5.846   3.265   3.700
 3064SOL    HW110091   5.800   3.179   3.720
 3064SOL    HW210092   5.877   3.266   3.605
 3065SOL     OW10093   2.197   0.473   6.446
 3065SOL    HW110094   2.277   0.466   6.387
 3065SOL    HW210095   2.148   0.558   6.427
 3066SOL     OW10096   5.797   4.187   0.310
 3066SOL    HW110097   5.709   4.227   0.285
 3066SOL    HW210098   5.861   4.259   0.336
 3067SOL     OW10099   2.895   1.016   4.739
 3067SOL    HW110100   2.845   1.086   4.790
 3067SOL    HW210101   2.993   1.025   4.757
 3068SOL     OW10102   6.017   6.281   0.637
 3068SOL    HW110103   5.984   6.308   0.546
 3068SOL    HW210104   5.989   6.186   0.655
 3069SOL     OW10105   6.703   5.488   1.450
 3069SOL    HW110106   6.763   5.568   1.452
 3069SOL    HW210107   6.715   5.436   1.535
 3070SOL     OW10108   2.038   1.229   2.086
 3070SOL    HW110109   2.030   1.326   2.107
 3070SOL    HW210110   2.003   1.175   2.163
 3071SOL     OW10111   6.773   6.702   3.521
 3071SOL    HW110112   6.816   6.748   3.443
 3071SOL    HW210113   6.739   6.613   3.492
 3072SOL     OW10114   0.720   6.240   1.050
 3072SOL    HW110115   0.794   6.307   1.051
 3072SOL    HW210116   0.755   6.153   1.013
 3073SOL     OW10117   0.856   3.698   4.878
 3073SOL    HW110118   0.772   3.752   4.881
 3073SOL    HW210119   0.868   3.651   4.966
 3074SOL     OW10120   5.443   2.977   0.758
 3074SOL    HW110121   5.344   2.963   0.755
 3074SOL    HW210122   5.487   2.896   0.796
 3075SOL     OW10123   1.758   6.234   1.361
 3075SOL    HW110124   1.716   6.252   1.449
 3075SOL    HW210125   1.805   6.317   1.329
 3076SOL     OW10126   6.174   0.674   4.378
 3076SOL    HW110127   6.140   0.752   4.431
 3076SOL    HW210128   6.256   0.637   4.422
 3077SOL     OW10129   5.490   4.569   2.724
 3077SOL    HW110130   5.420   4.618   2.670
 3077SOL    HW210131   5.556   4.635   2.759
 3078SOL     OW10132   2.211   3.759   1.608
 3078SOL    HW110133   2.164   3.684   1.654
 3078SOL    HW210134   2.305   3.731   1.587
 3079SOL     OW10135   1.850   2.696   4.928
 3079SOL    HW110136   1.763   2.717   4.883
 3079SOL    HW210137   1.922   2.753   4.888
 3080SOL     OW10138   5.470   5.054   1.893
 3080SOL    HW110139   5.472   5.050   1.793
 3080SOL    HW210140   5.445   4.965   1.930
 3081SOL     OW10141   0.935   4.286   5.898
 3081SOL    HW110142   0.906   4.190   5.903
 3081SOL    HW210143   0.886   4.331   5.823
 3082SOL     OW10144   3.835   6.693   3.632
 3082SOL    HW110145   3.837   6.780   3.680
 3082SOL    HW210146   3.749   6.685   3.582
 3083SOL     OW10147   4.237   6.761   2.378
 3083SOL    HW110148   4.180   6.681   2.358
 3083SOL    HW210149   4.271   6.756   2.471
 3084SOL     OW10150   5.064   4.146   4.386
 3084SOL    HW110151   5.114   4.204   4.450
 3084SOL    HW210152   5.103   4.053   4.388
 3085SOL     OW10153   0.266   4.271   3.240
 3085SOL    HW110154   0.366   4.281   3.237
 3085SOL    HW210155   0.223   4.353   3.202
 3086SOL     OW10156   4.311   1.399   2.262
 3086SOL    HW110157   4.377   1.356   2.199
 3086SOL    HW210158   4.350   1.484   2.297
 3087SOL     OW10159   0.006   4.660   4.135
 3087SOL    HW110160   0.050   4.588   4.081
 3087SOL    HW210161   0.076   4.719   4.175
 3088SOL     OW10162   2.925   5.064   5.308
 3088SOL    HW110163   2.988   5.118   5.251
 3088SOL    HW210164   2.944   4.967   5.294
 3089SOL     OW10165   1.105   3.182   6.939
 3089SOL    HW110166   1.117   3.168   0.013
 3089SOL    HW210167   1.132   3.099   6.890
 3090SOL     OW10168   1.768   1.772   1.469
 3090SOL    HW110169   1.768   1.699   1.401
 3090SOL    HW210170   1.848   1.831   1.455
 3091SOL     OW10171   2.866   6.758   0.290
 3091SOL    HW110172   2.896   6.692   0.359
 3091SOL    HW210173   2.801   6.715   0.228
 3092SOL     OW10174   5.202   0.101   0.214
 3092SOL    HW110175   5.265   0.024   0.224
 3092SOL    HW210176   5.238   0.180   0.264
 3093SOL     OW10177   5.798   5.470   5.881
 3093SOL    HW110178   5.716   5.466   5.939
 3093SOL    HW210179   5.804   5.388   5.825
 3094SOL     OW10180   3.255   6.708   4.981
 3094SOL    HW110181   3.226   6.751   4.895
 3094SOL    HW210182   3.214   6.617   4.988
 3095SOL     OW10183   2.539   4.710   4.340
 3095SOL    HW110184   2.474   4.642   4.375
 3095SOL    HW210185   2.578   4.679   4.254
 3096SOL     OW10186   6.691   0.636   4.567
 3096SOL    HW110187   6.749   0.562   4.599
 3096SOL    HW210188   6.671   0.624   4.470
 3097SOL     OW10189   0.830   2.456   0.480
 3097SOL    HW110190   0.832   2.427   0.576
 3097SOL    HW210191   0.918   2.499   0.456
 3098SOL     OW10192   2.243   3.486   1.328
 3098SOL    HW110193   2.258   3.410   1.265
 3098SOL    HW210194   2.313   3.556   1.312
 3099SOL     OW10195   6.959   5.691   4.828
 3099SOL    HW110196   6.909   5.639   4.758
 3099SOL    HW210197   7.009   5.765   4.784
 3100SOL     OW10198   6.722   7.017   4.769
 3100SOL    HW110199   6.623   7.019   4.760
 3100SOL    HW210200   6.750   0.048   4.847
 3101SOL     OW10201   4.379   6.195   5.416
 3101SOL    HW110202   4.366   6.284   5.459
 3101SOL    HW210203   4.328   6.192   5.330
 3102SOL     OW10204   1.007   4.790   1.423
 3102SOL    HW110205   0.921   4.757   1.462
 3102SOL    HW210206   1.064   4.828   1.496
 3103SOL     OW10207   3.470   1.467   0.592
 3103SOL    HW110208   3.531   1.527   0.643
 3103SOL    HW210209   3.483   1.372   0.622
 3104SOL     OW10210   5.725   6.077   4.495
 3104SOL    HW110211   5.743   6.053   4.591
 3104SOL    HW210212   5.810   6.070   4.443
 3105SOL     OW10213   6.368   5.525   3.471
 3105SOL    HW110214   6.430   5.492   3.399
 3105SOL    HW210215   6.302   5.453   3.492
 3106SOL     OW10216   6.658   2.001   2.616
 3106SOL    HW110217   6.755   1.994   2.642
 3106SOL    HW210218   6.652   2.031   2.521
 3107SOL     OW10219   3.882   0.469   4.457
 3107SOL    HW110220   3.882   0.534   4.532
 3107SOL    HW210221   3.844   0.382   4.489
 3108SOL     OW10222   1.960   1.130   4.237
 3108SOL    HW110223   1.992   1.063   4.304
 3108SOL    HW210224   1.860   1.133   4.238
 3109SOL     OW10225   5.410   5.887   2.529
 3109SOL    HW110226   5.370   5.847   2.612
 3109SOL    HW210227   5.492   5.837   2.504
 3110SOL     OW10228   0.272   2.071   3.572
 3110SOL    HW110229   0.227   2.156   3.597
 3110SOL    HW210230   0.369   2.088   3.556
 3111SOL     OW10231   5.960   5.787   3.841
 3111SOL    HW110232   5.869   5.746   3.850
 3111SOL    HW210233   6.024   5.740   3.902
 3112SOL     OW10234   4.733   2.787   5.728
 3112SOL    HW110235   4.685   2.704   5.754
 3112SOL    HW210236   4.672   2.845   5.673
 3113SOL     OW10237   2.504   0.130   3.964
 3113SOL    HW110238   2.544   0.214   3.999
 3113SOL    HW210239   2.531   0.053   4.022
 3114SOL     OW10240   5.392   4.091   0.097
 3114SOL    HW110241   5.343   4.177   0.083
 3114SOL    HW210242   5.345   4.018   0.047
 3115SOL     OW10243   4.435   3.617   0.071
 3115SOL    HW110244   4.345   3.629   0.029
 3115SOL    HW210245   4.425   3.611   0.170
 3116SOL     OW10246   0.043   3.095   0.076
 3116SOL    HW110247   0.072   3.100   7.004
 3116SOL    HW210248   6.973   3.064   0.080
 3117SOL     OW10249   4.620   3.945   5.328
 3117SOL    HW110250   4.529   3.902   5.326
 3117SOL    HW210251   4.634   3.989   5.416
 3118SOL     OW10252   6.613   4.402   6.545
 3118SOL    HW110253   6.631   4.398   6.644
 3118SOL    HW210254   6.629   4.312   6.505
 3119SOL     OW10255   1.926   4.642   5.135
 3119SOL    HW110256   1.869   4.611   5.211
 3119SOL    HW210257   1.985   4.567   5.105
 3120SOL     OW10258   2.357   6.343   4.513
 3120SOL    HW110259   2.270   6.377   4.477
 3120SOL    HW210260   2.349   6.246   4.533
 3121SOL     OW10261   0.321   1.255   2.427
 3121SOL    HW110262   0.223   1.236   2.426
 3121SOL    HW210263   0.369   1.186   2.373
 3122SOL     OW10264   3.531   5.293   6.092
 3122SOL    HW110265   3.467   5.240   6.036
 3122SOL    HW210266   3.527   5.389   6.064
 3123SOL     OW10267   3.107   6.730   3.611
 3123SOL    HW110268   3.050   6.812   3.616
 3123SOL    HW210269   3.071   6.669   3.540
 3124SOL     OW10270   4.067   0.662   5.120
 3124SOL    HW110271   4.107   0.576   5.088
 3124SOL    HW210272   3.970   0.665   5.097
 3125SOL     OW10273   6.491   2.384   5.808
 3125SOL    HW110274   6.409   2.350   5.763
 3125SOL    HW210275   6.465   2.456   5.872
 3126SOL     OW10276   4.818   4.467   6.629
 3126SOL    HW110277   4.912   4.450   6.659
 3126SOL    HW210278   4.803   4.565   6.620
 3127SOL     OW10279   0.779   2.164   3.338
 3127SOL    HW110280   0.769   2.192   3.243
 3127SOL    HW210281   0.849   2.220   3.382
 3128SOL     OW10282   1.763   0.592   0.638
 3128SOL    HW110283   1.781   0.494   0.642
 3128SOL    HW210284   1.764   0.622   0.543
 3129SOL     OW10285   0.886   4.520   6.064
 3129SOL    HW110286   0.913   4.433   6.024
 3129SOL    HW210287   0.795   4.511   6.105
 3130SOL     OW10288   2.492   4.756   2.250
 3130SOL    HW110289   2.420   4.783   2.186
 3130SOL    HW210290   2.473   4.795   2.340
 3131SOL     OW10291   1.213   2.896   3.127
 3131SOL    HW110292   1.301   2.909   3.174
 3131SOL    HW210293   1.144   2.956   3.169
 3132SOL     OW10294   5.366   6.229   5.335
 3132SOL    HW110295   5.324   6.157   5.281
 3132SOL    HW210296   5.300   6.302   5.352
 3133SOL     OW10297   2.230   2.229   4.127
 3133SOL    HW110298   2.182   2.314   4.149
 3133SOL    HW210299   2.221   2.165   4.203
 3134SOL     OW10300   5.339   3.501   1.787
 3134SOL    HW110301   5.314   3.444   1.709
 3134SOL    HW210302   5.313   3.596   1.770
 3135SOL     OW10303   3.886   1.697   4.844
 3135SOL    HW110304   3.969   1.740   4.878
 3135SOL    HW210305   3.886   1.698   4.744
 3136SOL     OW10306   6.298   6.377   6.115
 3136SOL    HW110307   6.335   6.290   6.147
 3136SOL    HW210308   6.371   6.431   6.074
 3137SOL     OW10309   4.867   1.360   3.557
 3137SOL    HW110310   4.895   1.360   3.653
 3137SOL    HW210311   4.934   1.409   3.502
 3138SOL     OW10312   6.067   1.978   4.469
 3138SOL    HW110313   6.004   1.905   4.445
 3138SOL    HW210314   6.161   1.943   4.469
 3139SOL     OW10315   5.373   6.617   6.176
 3139SOL    HW110316   5.447   6.602   6.111
 3139SOL    HW210317   5.285   6.606   6.130
 3140SOL     OW10318   6.508   6.382   6.457
 3140SOL    HW110319   6.493   6.471   6.499
 3140SOL    HW210320   6.539   6.394   6.363
 3141SOL     OW10321   0.681   6.440   6.663
 3141SOL    HW110322   0.620   6.494   6.605
 3141SOL    HW210323   0.772   6.482   6.664
 3142SOL     OW10324   5.101   6.237   0.313
 3142SOL    HW110325   5.185   6.274   0.354
 3142SOL    HW210326   5.022   6.286   0.349
 3143SOL     OW10327   7.015   2.074   6.415
 3143SOL    HW110328   0.003   2.148   6.481
 3143SOL    HW210329   0.057   2.085   6.341
 3144SOL     OW10330   2.288   3.777   1.008
 3144SOL    HW110331   2.350   3.705   0.977
 3144SOL    HW210332   2.253   3.755   1.099
 3145SOL     OW10333   3.016   5.877   2.715
 3145SOL    HW110334   3.077   5.956   2.727
 3145SOL    HW210335   3.070   5.796   2.691
 3146SOL     OW10336   1.264   6.713   3.203
 3146SOL    HW110337   1.285   6.737   3.297
 3146SOL    HW210338   1.333   6.753   3.142
 3147SOL     OW10339   4.018   5.313   0.467
 3147SOL    HW110340   3.974   5.267   0.544
 3147SOL    HW210341   3.974   5.287   0.382
 3148SOL     OW10342   4.051   5.444   4.143
 3148SOL    HW110343   4.067   5.494   4.228
 3148SOL    HW210344   4.062   5.346   4.160
 3149SOL     OW10345   3.319   0.620   5.548
 3149SOL    HW110346   3.233   0.594   5.504
 3149SOL    HW210347   3.396   0.593   5.490
 3150SOL     OW10348   5.048   5.841   4.282
 3150SOL    HW110349   5.117   5.869   4.348
 3150SOL    HW210350   5.092   5.809   4.198
 3151SOL     OW10351   4.691   1.329   6.557
 3151SOL    HW110352   4.602   1.301   6.595
 3151SOL    HW210353   4.690   1.317   6.458
 3152SOL     OW10354   0.487   5.181   1.630
 3152SOL    HW110355   0.499   5.252   1.560
 3152SOL    HW210356   0.564   5.185   1.694
 3153SOL     OW10357   6.140   3.882   1.505
 3153SOL    HW110358   6.143   3.941   1.586
 3153SOL    HW210359   6.083   3.924   1.435
 3154SOL     OW10360   6.617   2.077   0.050
 3154SOL    HW110361   6.569   2.118   0.128
 3154SOL    HW210362   6.563   2.001   0.014
 3155SOL     OW10363   6.974   4.607   1.253
 3155SOL    HW110364   0.004   4.578   1.174
 3155SOL    HW210365   6.943   4.701   1.240
 3156SOL     OW10366   4.119   3.541   3.448
 3156SOL    HW110367   4.071   3.489   3.378
 3156SOL    HW210368   4.134   3.484   3.528
 3157SOL     OW10369   2.155   3.457   4.636
 3157SOL    HW110370   2.193   3.533   4.689
 3157SOL    HW210371   2.135   3.488   4.543
 3158SOL     OW10372   5.251   0.042   1.593
 3158SOL    HW110373   5.153   0.027   1.580
 3158SOL    HW210374   5.267   0.138   1.617
 3159SOL     OW10375   4.732   5.964   6.136
 3159SOL    HW110376   4.800   5.964   6.210
 3159SOL    HW210377   4.769   5.913   6.058
 3160SOL     OW10378   6.197   4.064   6.369
 3160SOL    HW110379   6.111   4.093   6.326
 3160SOL    HW210380   6.268   4.060   6.299
 3161SOL     OW10381   1.547   1.005   2.953
 3161SOL    HW110382   1.614   0.978   3.023
 3161SOL    HW210383   1.583   0.983   2.863
 3162SOL     OW10384   6.840   5.340   0.034
 3162SOL    HW110385   6.783   5.339   0.116
 3162SOL    HW210386   6.795   5.394   6.987
 3163SOL     OW10387   3.851   2.935   6.910
 3163SOL    HW110388   3.951   2.942   6.902
 3163SOL    HW210389   3.828   2.893   6.998
 3164SOL     OW10390   5.474   4.512   1.411
 3164SOL    HW110391   5.419   4.582   1.455
 3164SOL    HW210392   5.546   4.481   1.474
 3165SOL     OW10393   1.033   7.015   1.770
 3165SOL    HW110394   1.021   0.022   1.676
 3165SOL    HW210395   0.958   0.026   1.827
 3166SOL     OW10396   4.881   2.562   6.297
 3166SOL    HW110397   4.846   2.581   6.205
 3166SOL    HW210398   4.838   2.625   6.362
 3167SOL     OW10399   0.241   4.425   1.952
 3167SOL    HW110400   0.280   4.516   1.945
 3167SOL    HW210401   0.173   4.412   1.879
 3168SOL     OW10402   5.708   3.129   0.846
 3168SOL    HW110403   5.754   3.074   0.776
 3168SOL    HW210404   5.613   3.145   0.820
 3169SOL     OW10405   0.941   3.604   5.411
 3169SOL    HW110406   0.896   3.560   5.489
 3169SOL    HW210407   1.038   3.618   5.433
 3170SOL     OW10408   4.332   0.426   0.150
 3170SOL    HW110409   4.281   0.364   0.209
 3170SOL    HW210410   4.272   0.457   0.076
 3171SOL     OW10411   6.595   6.920   1.792
 3171SOL    HW110412   6.585   7.010   1.750
 3171SOL    HW210413   6.641   6.929   1.880
 3172SOL     OW10414   6.579   6.374   4.976
 3172SOL    HW110415   6.642   6.318   5.029
 3172SOL    HW210416   6.627   6.454   4.941
 3173SOL     OW10417   1.971   0.172   2.333
 3173SOL    HW110418   1.983   0.194   2.430
 3173SOL    HW210419   2.058   0.186   2.284
 3174SOL     OW10420   3.078   2.913   5.837
 3174SOL    HW110421   3.074   2.878   5.931
 3174SOL    HW210422   2.987   2.910   5.796
 3175SOL     OW10423   1.077   6.165   6.793
 3175SOL    HW110424   1.104   6.259   6.814
 3175SOL    HW210425   1.009   6.166   6.720
 3176SOL     OW10426   1.503   4.502   6.048
 3176SOL    HW110427   1.531   4.498   5.952
 3176SOL    HW210428   1.443   4.425   6.069
 3177SOL     OW10429   5.639   4.602   5.449
 3177SOL    HW110430   5.719   4.587   5.391
 3177SOL    HW210431   5.561   4.552   5.412
 3178SOL     OW10432   0.807   4.187   1.960
 3178SOL    HW110433   0.800   4.262   1.894
 3178SOL    HW210434   0.886   4.130   1.937
 3179SOL     OW10435   2.160   2.402   2.386
 3179SOL    HW110436   2.117   2.402   2.296
 3179SOL    HW210437   2.259   2.418   2.375
 3180SOL     OW10438   4.851   0.875   5.488
 3180SOL    HW110439   4.922   0.836   5.547
 3180SOL    HW210440   4.875   0.860   5.392
 3181SOL     OW10441   0.415   0.871   3.569
 3181SOL    HW110442   0.405   0.812   3.489
 3181SOL    HW210443   0.476   0.947   3.547
 3182SOL     OW10444   0.239   0.478   5.888
 3182SOL    HW110445   0.293   0.430   5.957
 3182SOL    HW210446   0.174   0.539   5.933
 3183SOL     OW10447   4.423   5.247   1.556
 3183SOL    HW110448   4.385   5.171   1.609
 3183SOL    HW210449   4.384   5.333   1.587
 3184SOL     OW10450   2.381   1.681   2.473
 3184SOL    HW110451   2.332   1.655   2.390
 3184SOL    HW210452   2.315   1.714   2.541
 3185SOL     OW10453   0.358   6.903   5.311
 3185SOL    HW110454   0.306   6.870   5.233
 3185SOL    HW210455   0.391   6.996   5.292
 3186SOL     OW10456   3.598   1.387   2.416
 3186SOL    HW110457   3.532   1.389   2.340
 3186SOL    HW210458   3.551   1.361   2.500
 3187SOL     OW10459   3.781   4.294   6.929
 3187SOL    HW110460   3.843   4.223   6.961
 3187SOL    HW210461   3.766   4.361   7.002
 3188SOL     OW10462   3.565   5.658   2.822
 3188SOL    HW110463   3.649   5.712   2.820
 3188SOL    HW210464   3.587   5.563   2.800
 3189SOL     OW10465   1.224   0.755   3.301
 3189SOL    HW110466   1.159   0.820   3.339
 3189SOL    HW210467   1.184   0.713   3.219
 3190SOL     OW10468   1.291   6.028   1.720
 3190SOL    HW110469   1.285   6.090   1.799
 3190SOL    HW210470   1.388   6.013   1.698
 3191SOL     OW10471   3.818   0.850   1.428
 3191SOL    HW110472   3.910   0.835   1.391
 3191SOL    HW210473   3.825   0.882   1.522
 3192SOL     OW10474   0.702   2.514   1.587
 3192SOL    HW110475   0.652   2.432   1.614
 3192SOL    HW210476   0.742   2.501   1.496
 3193SOL     OW10477   4.604   2.113   6.498
 3193SOL    HW110478   4.703   2.102   6.490
 3193SOL    HW210479   4.566   2.038   6.552
 3194SOL     OW10480   1.647   3.939   6.358
 3194SOL    HW110481   1.736   3.943   6.402
 3194SOL    HW210482   1.647   3.867   6.288
 3195SOL     OW10483   1.182   2.997   3.860
 3195SOL    HW110484   1.183   2.902   3.889
 3195SOL    HW210485   1.269   3.041   3.885
 3196SOL     OW10486   0.018   0.303   4.804
 3196SOL    HW110487   6.964   0.361   4.825
 3196SOL    HW210488   0.085   0.309   4.879
 3197SOL     OW10489   1.354   5.886   3.187
 3197SOL    HW110490   1.307   5.925   3.266
 3197SOL    HW210491   1.345   5.786   3.189
 3198SOL     OW10492   6.954   1.794   5.993
 3198SOL    HW110493   6.869   1.801   6.046
 3198SOL    HW210494   6.988   1.886   5.972
 3199SOL     OW10495   4.686   1.559   1.766
 3199SOL    HW110496   4.613   1.496   1.791
 3199SOL    HW210497   4.747   1.515   1.700
 3200SOL     OW10498   0.253   2.142   0.488
 3200SOL    HW110499   0.333   2.176   0.438
 3200SOL    HW210500   0.170   2.164   0.436
 3201SOL     OW10501   5.593   3.909   3.804
 3201SOL    HW110502   5.641   3.832   3.847
 3201SOL    HW210503   5.555   3.879   3.716
 3202SOL     OW10504   1.847   4.907   1.787
 3202SOL    HW110505   1.922   4.865   1.837
 3202SOL    HW210506   1.880   4.939   1.699
 3203SOL     OW10507   6.932   1.039   1.252
 3203SOL    HW110508   6.945   0.994   1.164
 3203SOL    HW210509   6.836   1.061   1.264
 3204SOL     OW10510   6.393   5.819   1.806
 3204SOL    HW110511   6.422   5.815   1.901
 3204SOL    HW210512   6.449   5.758   1.750
 3205SOL     OW10513   6.509   3.822   5.770
 3205SOL    HW110514   6.517   3.882   5.849
 3205SOL    HW210515   6.456   3.741   5.796
 3206SOL     OW10516   0.741   6.687   5.441
 3206SOL    HW110517   0.832   6.695   5.482
 3206SOL    HW210518   0.712   6.591   5.443
 3207SOL     OW10519   0.906   0.999   4.931
 3207SOL    HW110520   0.847   1.048   4.867
 3207SOL    HW210521   0.919   1.053   5.014
 3208SOL     OW10522   4.357   5.540   4.725
 3208SOL    HW110523   4.314   5.461   4.680
 3208SOL    HW210524   4.325   5.624   4.682
 3209SOL     OW10525   2.678   0.186   3.723
 3209SOL    HW110526   2.737   0.266   3.736
 3209SOL    HW210527   2.673   0.134   3.808
 3210SOL     OW10528   0.312   4.156   2.853
 3210SOL    HW110529   0.291   4.118   2.763
 3210SOL    HW210530   0.259   4.108   2.923
 3211SOL     OW10531   1.824   4.397   1.352
 3211SOL    HW110532   1.765   4.384   1.273
 3211SOL    HW210533   1.916   4.421   1.322
 3212SOL     OW10534   4.422   2.396   6.880
 3212SOL    HW110535   4.387   2.482   6.917
 3212SOL    HW210536   4.510   2.411   6.835
 3213SOL     OW10537   6.051   5.819   3.145
 3213SOL    HW110538   5.978   5.886   3.150
 3213SOL    HW210539   6.014   5.728   3.161
 3214SOL     OW10540   4.278   6.248   6.793
 3214SOL    HW110541   4.262   6.150   6.785
 3214SOL    HW210542   4.257   6.293   6.705
 3215SOL     OW10543   6.456   2.767   6.856
 3215SOL    HW110544   6.371   2.745   6.904
 3215SOL    HW210545   6.459   2.716   6.770
 3216SOL     OW10546   5.501   6.791   3.877
 3216SOL    HW110547   5.444   6.791   3.958
 3216SOL    HW210548   5.468   6.721   3.813
 3217SOL     OW10549   0.282   4.423   2.698
 3217SOL    HW110550   0.327   4.376   2.774
 3217SOL    HW210551   0.183   4.422   2.712
 3218SOL     OW10552   3.892   0.100   2.977
 3218SOL    HW110553   3.979   0.081   2.931
 3218SOL    HW210554   3.852   0.184   2.939
 3219SOL     OW10555   0.156   0.279   3.161
 3219SOL    HW110556   0.184   0.364   3.117
 3219SOL    HW210557   0.058   0.280   3.177
 3220SOL     OW10558   0.103   4.837   5.211
 3220SOL    HW110559   0.150   4.789   5.136
 3220SOL    HW210560   0.143   4.928   5.221
 3221SOL     OW10561   2.530   6.982   3.603
 3221SOL    HW110562   2.561   0.023   3.672
 3221SOL    HW210563   2.506   6.896   3.647
 3222SOL     OW10564   5.124   1.772   2.877
 3222SOL    HW110565   5.179   1.838   2.824
 3222SOL    HW210566   5.081   1.818   2.954
 3223SOL     OW10567   2.498   5.027   6.016
 3223SOL    HW110568   2.584   4.980   6.039
 3223SOL    HW210569   2.424   4.960   6.016
 3224SOL     OW10570   3.897   5.686   0.069
 3224SOL    HW110571   3.825   5.669   0.001
 3224SOL    HW210572   3.910   5.604   0.124
 3225SOL     OW10573   3.181   3.353   0.248
 3225SOL    HW110574   3.261   3.412   0.244
 3225SOL    HW210575   3.100   3.408   0.270
 3226SOL     OW10576   1.924   0.740   4.197
 3226SOL    HW110577   1.869   0.658   4.181
 3226SOL    HW210578   1.993   0.749   4.125
 3227SOL     OW10579   3.922   1.523   5.908
 3227SOL    HW110580   4.017   1.504   5.933
 3227SOL    HW210581   3.861   1.478   5.973
 3228SOL     OW10582   5.238   3.624   4.078
 3228SOL    HW110583   5.219   3.722   4.089
 3228SOL    HW210584   5.333   3.605   4.104
 3229SOL     OW10585   4.239   1.772   5.802
 3229SOL    HW110586   4.193   1.684   5.795
 3229SOL    HW210587   4.181   1.836   5.853
 3230SOL     OW10588   0.466   0.574   2.960
 3230SOL    HW110589   0.543   0.620   3.003
 3230SOL    HW210590   0.492   0.544   2.868
 3231SOL     OW10591   5.946   6.009   0.674
 3231SOL    HW110592   6.014   5.987   0.744
 3231SOL    HW210593   5.945   5.937   0.605
 3232SOL     OW10594   2.887   5.075   4.590
 3232SOL    HW110595   2.847   5.002   4.645
 3232SOL    HW210596   2.855   5.066   4.495
 3233SOL     OW10597   0.587   3.682   1.565
 3233SOL    HW110598   0.545   3.593   1.547
 3233SOL    HW210599   0.687   3.672   1.568
 3234SOL     OW10600   0.152   1.878   6.589
 3234SOL    HW110601   0.072   1.921   6.546
 3234SOL    HW210602   0.222   1.863   6.519
 3235SOL     OW10603   5.702   6.916   3.025
 3235SOL    HW110604   5.747   7.005   3.040
 3235SOL    HW210605   5.727   6.854   3.100
 3236SOL     OW10606   1.048   2.783   2.832
 3236SOL    HW110607   0.976   2.770   2.764
 3236SOL    HW210608   1.120   2.715   2.818
 3237SOL     OW10609   3.888   6.618   4.768
 3237SOL    HW110610   3.933   6.553   4.830
 3237SOL    HW210611   3.886   6.580   4.676
 3238SOL     OW10612   0.140   5.812   6.137
 3238SOL    HW110613   0.185   5.886   6.087
 3238SOL    HW210614   0.093   5.850   6.217
 3239SOL     OW10615   6.358   0.251   5.669
 3239SOL    HW110616   6.412   0.309   5.608
 3239SOL    HW210617   6.330   0.168   5.621
 3240SOL     OW10618   1.230   0.179   4.502
 3240SOL    HW110619   1.130   0.183   4.515
 3240SOL    HW210620   1.261   0.263   4.458
 3241SOL     OW10621   5.034   0.943   4.043
 3241SOL    HW110622   4.940   0.968   4.065
 3241SOL    HW210623   5.066   0.997   3.966
 3242SOL     OW10624   3.978   6.336   6.611
 3242SOL    HW110625   3.955   6.252   6.660
 3242SOL    HW210626   3.894   6.379   6.578
 3243SOL     OW10627   4.301   5.462   0.214
 3243SOL    HW110628   4.286   5.556   0.247
 3243SOL    HW210629   4.360   5.464   0.134
 3244SOL     OW10630   3.724   5.897   6.073
 3244SOL    HW110631   3.757   5.805   6.090
 3244SOL    HW210632   3.792   5.949   6.022
 3245SOL     OW10633   3.682   2.614   6.448
 3245SOL    HW110634   3.643   2.688   6.503
 3245SOL    HW210635   3.711   2.540   6.508
 3246SOL     OW10636   5.120   6.667   2.934
 3246SOL    HW110637   5.132   6.576   2.974
 3246SOL    HW210638   5.095   6.731   3.007
 3247SOL     OW10639   6.803   2.879   3.606
 3247SOL    HW110640   6.711   2.899   3.575
 3247SOL    HW210641   6.829   2.787   3.577
 3248SOL     OW10642   6.321   3.051   1.730
 3248SOL    HW110643   6.396   3.015   1.786
 3248SOL    HW210644   6.309   3.149   1.750
 3249SOL     OW10645   3.085   4.917   4.898
 3249SOL    HW110646   2.999   4.872   4.872
 3249SOL    HW210647   3.133   4.861   4.966
 3250SOL     OW10648   4.607   6.896   2.524
 3250SOL    HW110649   4.585   6.841   2.444
 3250SOL    HW210650   4.566   6.987   2.514
 3251SOL     OW10651   3.581   2.145   2.804
 3251SOL    HW110652   3.563   2.135   2.707
 3251SOL    HW210653   3.495   2.149   2.854
 3252SOL     OW10654   2.815   1.010   2.602
 3252SOL    HW110655   2.859   1.081   2.548
 3252SOL    HW210656   2.726   0.988   2.563
 3253SOL     OW10657   5.358   2.935   1.491
 3253SOL    HW110658   5.363   2.892   1.582
 3253SOL    HW210659   5.313   2.873   1.427
 3254SOL     OW10660   4.187   4.733   3.571
 3254SOL    HW110661   4.159   4.799   3.640
 3254SOL    HW210662   4.181   4.775   3.480
 3255SOL     OW10663   4.185   5.762   0.293
 3255SOL    HW110664   4.262   5.730   0.347
 3255SOL    HW210665   4.209   5.846   0.245
 3256SOL     OW10666   5.177   0.049   5.888
 3256SOL    HW110667   5.156   0.075   5.793
 3256SOL    HW210668   5.275   0.028   5.896
 3257SOL     OW10669   1.536   2.237   1.291
 3257SOL    HW110670   1.556   2.330   1.259
 3257SOL    HW210671   1.617   2.180   1.279
 3258SOL     OW10672   5.481   6.692   1.751
 3258SOL    HW110673   5.436   6.779   1.773
 3258SOL    HW210674   5.418   6.617   1.771
 3259SOL     OW10675   4.308   6.172   4.141
 3259SOL    HW110676   4.264   6.250   4.097
 3259SOL    HW210677   4.264   6.154   4.229
 3260SOL     OW10678   2.223   1.619   7.016
 3260SOL    HW110679   2.290   1.564   6.967
 3260SOL    HW210680   2.213   1.707   6.971
 3261SOL     OW10681   4.740   6.840   0.865
 3261SOL    HW110682   4.829   6.862   0.904
 3261SOL    HW210683   4.689   6.781   0.929
 3262SOL     OW10684   3.743   1.874   2.626
 3262SOL    HW110685   3.730   1.787   2.578
 3262SOL    HW210686   3.672   1.938   2.597
 3263SOL     OW10687   4.651   6.835   1.719
 3263SOL    HW110688   4.700   6.861   1.636
 3263SOL    HW210689   4.682   6.892   1.795
 3264SOL     OW10690   6.520   4.879   6.997
 3264SOL    HW110691   6.446   4.845   6.939
 3264SOL    HW210692   6.577   4.942   6.945
 3265SOL     OW10693   5.203   1.064   6.311
 3265SOL    HW110694   5.117   1.096   6.352
 3265SOL    HW210695   5.187   1.041   6.215
 3266SOL     OW10696   0.744   1.962   6.525
 3266SOL    HW110697   0.788   2.032   6.469
 3266SOL    HW210698   0.746   1.875   6.477
 3267SOL     OW10699   3.263   1.709   0.963
 3267SOL    HW110700   3.265   1.679   0.868
 3267SOL    HW210701   3.323   1.787   0.976
 3268SOL     OW10702   0.927   4.135   6.453
 3268SOL    HW110703   0.956   4.048   6.492
 3268SOL    HW210704   1.006   4.195   6.442
 3269SOL     OW10705   4.181   4.390   0.923
 3269SOL    HW110706   4.234   4.325   0.977
 3269SOL    HW210707   4.101   4.345   0.884
 3270SOL     OW10708   0.683   5.573   4.133
 3270SOL    HW110709   0.752   5.569   4.205
 3270SOL    HW210710   0.715   5.632   4.059
 3271SOL     OW10711   6.409   2.219   1.103
 3271SOL    HW110712   6.508   2.204   1.113
 3271SOL    HW210713   6.375   2.163   1.027
 3272SOL     OW10714   3.898   0.611   0.829
 3272SOL    HW110715   3.799   0.605   0.841
 3272SOL    HW210716   3.943   0.544   0.887
 3273SOL     OW10717   0.531   6.826   2.512
 3273SOL    HW110718   0.557   6.838   2.416
 3273SOL    HW210719   0.489   6.736   2.524
 3274SOL     OW10720   2.690   2.200   5.707
 3274SOL    HW110721   2.771   2.179   5.763
 3274SOL    HW210722   2.706   2.284   5.655
 3275SOL     OW10723   1.854   0.658   0.001
 3275SOL    HW110724   1.885   0.591   0.068
 3275SOL    HW210725   1.931   0.688   6.969
 3276SOL     OW10726   3.261   6.047   6.322
 3276SOL    HW110727   3.355   6.075   6.339
 3276SOL    HW210728   3.247   5.954   6.355
 3277SOL     OW10729   7.010   6.235   5.012
 3277SOL    HW110730   0.036   6.183   5.081
 3277SOL    HW210731   0.040   6.240   4.928
 3278SOL     OW10732   1.407   0.909   6.093
 3278SOL    HW110733   1.356   0.995   6.097
 3278SOL    HW210734   1.342   0.833   6.082
 3279SOL     OW10735   0.467   6.820   0.998
 3279SOL    HW110736   0.458   6.779   1.088
 3279SOL    HW210737   0.558   6.799   0.960
 3280SOL     OW10738   1.992   4.926   5.960
 3280SOL    HW110739   2.040   4.993   5.903
 3280SOL    HW210740   2.059   4.875   6.014
 3281SOL     OW10741   2.735   5.581   0.059
 3281SOL    HW110742   2.669   5.630   0.001
 3281SOL    HW210743   2.807   5.542   0.002
 3282SOL     OW10744   2.787   5.281   3.546
 3282SOL    HW110745   2.865   5.232   3.585
 3282SOL    HW210746   2.718   5.215   3.515
 3283SOL     OW10747   2.956   0.838   3.515
 3283SOL    HW110748   2.878   0.809   3.460
 3283SOL    HW210749   3.037   0.847   3.457
 3284SOL     OW10750   6.616   5.058   6.810
 3284SOL    HW110751   6.710   5.056   6.776
 3284SOL    HW210752   6.554   5.082   6.735
 3285SOL     OW10753   0.620   1.806   3.319
 3285SOL    HW110754   0.566   1.796   3.402
 3285SOL    HW210755   0.718   1.802   3.341
 3286SOL     OW10756   3.260   3.722   4.788
 3286SOL    HW110757   3.350   3.731   4.831
 3286SOL    HW210758   3.216   3.812   4.785
 3287SOL     OW10759   1.879   5.428   0.289
 3287SOL    HW110760   1.829   5.498   0.238
 3287SOL    HW210761   1.827   5.401   0.370
 3288SOL     OW10762   0.802   5.866   6.253
 3288SOL    HW110763   0.879   5.814   6.219
 3288SOL    HW210764   0.770   5.929   6.182
 3289SOL     OW10765   1.008   6.664   5.504
 3289SOL    HW110766   0.992   6.631   5.411
 3289SOL    HW210767   1.105   6.685   5.516
 3290SOL     OW10768   6.353   5.168   1.426
 3290SOL    HW110769   6.396   5.249   1.386
 3290SOL    HW210770   6.253   5.176   1.419
 3291SOL     OW10771   1.379   5.940   6.925
 3291SOL    HW110772   1.338   5.879   6.857
 3291SOL    HW210773   1.478   5.929   6.924
 3292SOL     OW10774   6.988   6.716   5.824
 3292SOL    HW110775   6.994   6.816   5.817
 3292SOL    HW210776   6.945   6.692   5.911
 3293SOL     OW10777   6.953   1.187   2.927
 3293SOL    HW110778   6.880   1.119   2.942
 3293SOL    HW210779   6.952   1.254   3.001
 3294SOL     OW10780   0.111   0.508   6.167
 3294SOL    HW110781   0.186   0.451   6.199
 3294SOL    HW210782   0.025   0.457   6.173
 3295SOL     OW10783   1.852   3.204   1.077
 3295SOL    HW110784   1.783   3.263   1.117
 3295SOL    HW210785   1.810   3.147   1.005
 3296SOL     OW10786   2.321   6.401   2.590
 3296SOL    HW110787   2.407   6.353   2.606
 3296SOL    HW210788   2.256   6.378   2.662
 3297SOL     OW10789   3.046   2.787   6.084
 3297SOL    HW110790   2.969   2.838   6.123
 3297SOL    HW210791   3.011   2.713   6.027
 3298SOL     OW10792   6.760   3.453   2.501
 3298SOL    HW110793   6.669   3.411   2.504
 3298SOL    HW210794   6.752   3.550   2.526
 3299SOL     OW10795   1.710   0.006   5.130
 3299SOL    HW110796   1.724   6.973   5.049
 3299SOL    HW210797   1.763   6.993   5.206
 3300SOL     OW10798   6.327   6.466   4.945
 3300SOL    HW110799   6.407   6.417   4.980
 3300SOL    HW210800   6.268   6.494   5.021
 3301SOL     OW10801   0.609   3.277   3.502
 3301SOL    HW110802   0.566   3.366   3.495
 3301SOL    HW210803   0.620   3.237   3.411
 3302SOL     OW10804   1.374   4.702   3.711
 3302SOL    HW110805   1.466   4.688   3.672
 3302SOL    HW210806   1.363   4.799   3.733
 3303SOL     OW10807   3.922   3.966   3.811
 3303SOL    HW110808   3.876   3.966   3.899
 3303SOL    HW210809   4.000   3.903   3.814
 3304SOL     OW10810   0.911   6.533   4.254
 3304SOL    HW110811   0.984   6.601   4.261
 3304SOL    HW210812   0.848   6.544   4.330
 3305SOL     OW10813   1.959   1.097   2.313
 3305SOL    HW110814   2.045   1.112   2.362
 3305SOL    HW210815   1.883   1.127   2.370
 3306SOL     OW10816   2.238   4.030   3.737
 3306SOL    HW110817   2.312   4.083   3.779
 3306SOL    HW210818   2.228   4.056   3.641
 3307SOL     OW10819   6.719   6.059   0.725
 3307SOL    HW110820   6.815   6.086   0.733
 3307SOL    HW210821   6.706   5.968   0.765
 3308SOL     OW10822   4.891   6.204   0.699
 3308SOL    HW110823   4.937   6.127   0.655
 3308SOL    HW210824   4.884   6.187   0.798
 3309SOL     OW10825   0.456   5.082   3.005
 3309SOL    HW110826   0.536   5.024   3.003
 3309SOL    HW210827   0.469   5.160   2.944
 3310SOL     OW10828   0.555   5.119   2.701
 3310SOL    HW110829   0.518   5.034   2.663
 3310SOL    HW210830   0.645   5.101   2.740
 3311SOL     OW10831   4.359   6.812   1.420
 3311SOL    HW110832   4.389   6.796   1.514
 3311SOL    HW210833   4.261   6.831   1.419
 3312SOL     OW10834   3.293   3.553   6.207
 3312SOL    HW110835   3.281   3.637   6.154
 3312SOL    HW210836   3.288   3.573   6.304
 3313SOL     OW10837   0.147   5.017   3.814
 3313SOL    HW110838   0.207   5.076   3.760
 3313SOL    HW210839   0.194   4.931   3.835
 3314SOL     OW10840   1.723   3.546   5.282
 3314SOL    HW110841   1.812   3.591   5.275
 3314SOL    HW210842   1.714   3.477   5.210
 3315SOL     OW10843   0.122   1.597   3.894
 3315SOL    HW110844   0.160   1.681   3.933
 3315SOL    HW210845   0.032   1.616   3.855
 3316SOL     OW10846   4.851   1.992   6.491
 3316SOL    HW110847   4.896   1.940   6.420
 3316SOL    HW210848   4.918   2.023   6.559
 3317SOL     OW10849   4.479   2.566   1.146
 3317SOL    HW110850   4.401   2.580   1.207
 3317SOL    HW210851   4.482   2.640   1.078
 3318SOL     OW10852   2.634   5.670   5.235
 3318SOL    HW110853   2.669   5.638   5.323
 3318SOL    HW210854   2.623   5.770   5.238
 3319SOL     OW10855   0.507   5.972   4.539
 3319SOL    HW110856   0.443   5.896   4.547
 3319SOL    HW210857   0.537   6.001   4.630
 3320SOL     OW10858   6.066   1.172   5.387
 3320SOL    HW110859   6.131   1.097   5.373
 3320SOL    HW210860   6.089   1.221   5.471
 3321SOL     OW10861   3.539   3.270   3.250
 3321SOL    HW110862   3.571   3.308   3.163
 3321SOL    HW210863   3.514   3.174   3.237
 3322SOL     OW10864   3.990   2.035   0.669
 3322SOL    HW110865   4.037   2.115   0.706
 3322SOL    HW210866   4.057   1.975   0.625
 3323SOL     OW10867   2.408   4.948   0.298
 3323SOL    HW110868   2.325   5.002   0.311
 3323SOL    HW210869   2.385   4.860   0.257
 3324SOL     OW10870   0.854   3.318   0.249
 3324SOL    HW110871   0.948   3.309   0.282
 3324SOL    HW210872   0.800   3.371   0.315
 3325SOL     OW10873   1.347   2.641   1.026
 3325SOL    HW110874   1.395   2.554   1.010
 3325SOL    HW210875   1.254   2.634   0.989
 3326SOL     OW10876   6.579   1.625   0.910
 3326SOL    HW110877   6.515   1.589   0.978
 3326SOL    HW210878   6.540   1.614   0.818
 3327SOL     OW10879   3.048   6.889   2.682
 3327SOL    HW110880   3.082   6.926   2.596
 3327SOL    HW210881   3.125   6.863   2.740
 3328SOL     OW10882   4.971   0.909   2.042
 3328SOL    HW110883   4.925   0.865   2.118
 3328SOL    HW210884   4.967   1.009   2.053
 3329SOL     OW10885   4.845   0.548   5.423
 3329SOL    HW110886   4.782   0.545   5.345
 3329SOL    HW210887   4.918   0.614   5.405
 3330SOL     OW10888   6.147   6.195   2.454
 3330SOL    HW110889   6.183   6.136   2.382
 3330SOL    HW210890   6.115   6.139   2.530
 3331SOL     OW10891   1.940   3.472   2.482
 3331SOL    HW110892   1.991   3.492   2.399
 3331SOL    HW210893   1.861   3.416   2.460
 3332SOL     OW10894   4.190   5.441   0.637
 3332SOL    HW110895   4.136   5.397   0.565
 3332SOL    HW210896   4.271   5.484   0.596
 3333SOL     OW10897   3.793   3.572   1.538
 3333SOL    HW110898   3.811   3.647   1.602
 3333SOL    HW210899   3.782   3.609   1.446
 3334SOL     OW10900   1.788   2.173   2.653
 3334SOL    HW110901   1.855   2.133   2.716
 3334SOL    HW210902   1.712   2.211   2.706
 3335SOL     OW10903   3.655   4.263   5.165
 3335SOL    HW110904   3.714   4.263   5.084
 3335SOL    HW210905   3.564   4.231   5.139
 3336SOL     OW10906   3.907   6.295   3.420
 3336SOL    HW110907   3.914   6.389   3.387
 3336SOL    HW210908   3.831   6.249   3.376
 3337SOL     OW10909   3.398   3.959   3.055
 3337SOL    HW110910   3.307   3.938   3.090
 3337SOL    HW210911   3.445   4.019   3.120
 3338SOL     OW10912   2.086   1.379   1.824
 3338SOL    HW110913   2.063   1.316   1.898
 3338SOL    HW210914   2.138   1.331   1.753
 3339SOL     OW10915   2.515   0.546   5.786
 3339SOL    HW110916   2.438   0.535   5.723
 3339SOL    HW210917   2.481   0.560   5.879
 3340SOL     OW10918   4.278   1.209   4.402
 3340SOL    HW110919   4.180   1.223   4.386
 3340SOL    HW210920   4.297   1.111   4.404
 3341SOL     OW10921   2.628   4.636   2.991
 3341SOL    HW110922   2.577   4.722   3.001
 3341SOL    HW210923   2.616   4.581   3.073
 3342SOL     OW10924   6.305   0.183   2.997
 3342SOL    HW110925   6.356   0.177   3.083
 3342SOL    HW210926   6.304   0.093   2.953
 3343SOL     OW10927   5.173   5.478   6.345
 3343SOL    HW110928   5.087   5.529   6.341
 3343SOL    HW210929   5.178   5.414   6.268
 3344SOL     OW10930   6.869   2.835   2.128
 3344SOL    HW110931   6.845   2.931   2.141
 3344SOL    HW210932   6.968   2.823   2.140
 3345SOL     OW10933   0.058   5.074   0.405
 3345SOL    HW110934   0.032   5.001   0.468
 3345SOL    HW210935   7.015   5.080   0.331
 3346SOL     OW10936   1.800   1.255   7.002
 3346SOL    HW110937   1.800   1.167   6.955
 3346SOL    HW210938   1.892   1.293   7.002
 3347SOL     OW10939   0.557   3.457   6.120
 3347SOL    HW110940   0.572   3.396   6.197
 3347SOL    HW210941   0.639   3.513   6.105
 3348SOL     OW10942   3.835   3.878   6.063
 3348SOL    HW110943   3.759   3.883   6.128
 3348SOL    HW210944   3.901   3.950   6.083
 3349SOL     OW10945   2.873   4.824   3.549
 3349SOL    HW110946   2.908   4.841   3.641
 3349SOL    HW210947   2.910   4.893   3.486
 3350SOL     OW10948   0.118   3.991   5.358
 3350SOL    HW110949   0.032   4.008   5.406
 3350SOL    HW210950   0.100   3.985   5.259
 3351SOL     OW10951   5.239   1.411   1.106
 3351SOL    HW110952   5.263   1.337   1.043
 3351SOL    HW210953   5.201   1.487   1.053
 3352SOL     OW10954   4.841   2.764   6.523
 3352SOL    HW110955   4.854   2.707   6.604
 3352SOL    HW210956   4.889   2.851   6.535
 3353SOL     OW10957   2.945   1.039   1.751
 3353SOL    HW110958   2.944   1.133   1.787
 3353SOL    HW210959   3.012   1.033   1.677
 3354SOL     OW10960   3.666   2.924   5.910
 3354SOL    HW110961   3.758   2.909   5.945
 3354SOL    HW210962   3.632   3.012   5.944
 3355SOL     OW10963   2.326   0.366   5.014
 3355SOL    HW110964   2.370   0.449   4.979
 3355SOL    HW210965   2.284   0.317   4.938
 3356SOL     OW10966   1.598   6.892   5.511
 3356SOL    HW110967   1.569   6.796   5.505
 3356SOL    HW210968   1.557   6.934   5.591
 3357SOL     OW10969   3.374   3.515   1.552
 3357SOL    HW110970   3.437   3.507   1.629
 3357SOL    HW210971   3.424   3.547   1.471
 3358SOL     OW10972   6.389   0.585   2.588
 3358SOL    HW110973   6.379   0.665   2.529
 3358SOL    HW210974   6.368   0.502   2.536
 3359SOL     OW10975   6.607   5.718   3.934
 3359SOL    HW110976   6.608   5.811   3.899
 3359SOL    HW210977   6.702   5.686   3.946
 3360SOL     OW10978   7.006   2.908   5.451
 3360SOL    HW110979   0.003   2.893   5.548
 3360SOL    HW210980   7.016   3.005   5.430
 3361SOL     OW10981   0.286   0.426   4.654
 3361SOL    HW110982   0.202   0.373   4.663
 3361SOL    HW210983   0.264   0.523   4.654
 3362SOL     OW10984   3.618   1.756   4.112
 3362SOL    HW110985   3.625   1.733   4.015
 3362SOL    HW210986   3.705   1.735   4.158
 3363SOL     OW10987   5.826   3.111   1.525
 3363SOL    HW110988   5.845   3.085   1.620
 3363SOL    HW210989   5.740   3.161   1.521
 3364SOL     OW10990   1.816   4.618   3.260
 3364SOL    HW110991   1.845   4.606   3.166
 3364SOL    HW210992   1.869   4.558   3.320
 3365SOL     OW10993   1.886   3.546   3.949
 3365SOL    HW110994   1.908   3.454   3.980
 3365SOL    HW210995   1.941   3.613   3.999
 3366SOL     OW10996   6.112   3.615   4.023
 3366SOL    HW110997   6.208   3.592   4.038
 3366SOL    HW210998   6.067   3.539   3.975
 3367SOL     OW10999   3.973   3.161   4.333
 3367SOL    HW111000   3.882   3.181   4.368
 3367SOL    HW211001   4.041   3.209   4.389
 3368SOL     OW11002   1.653   6.102   0.374
 3368SOL    HW111003   1.691   6.013   0.349
 3368SOL    HW211004   1.638   6.106   0.473
 3369SOL     OW11005   3.961   2.734   1.171
 3369SOL    HW111006   3.982   2.693   1.082
 3369SOL    HW211007   4.042   2.733   1.229
 3370SOL     OW11008   0.766   5.724   2.286
 3370SOL    HW111009   0.712   5.648   2.250
 3370SOL    HW211010   0.805   5.699   2.374
 3371SOL     OW11011   2.466   2.513   3.255
 3371SOL    HW111012   2.446   2.599   3.209
 3371SOL    HW211013   2.496   2.531   3.348
 3372SOL     OW11014   6.788   3.234   1.295
 3372SOL    HW111015   6.782   3.329   1.265
 3372SOL    HW211016   6.821   3.177   1.220
 3373SOL     OW11017   0.356   2.446   1.135
 3373SOL    HW111018   0.299   2.478   1.211
 3373SOL    HW211019   0.298   2.410   1.062
 3374SOL     OW11020   0.565   0.342   3.795
 3374SOL    HW111021   0.510   0.274   3.746
 3374SOL    HW211022   0.604   0.301   3.877
 3375SOL     OW11023   6.673   4.836   6.478
 3375SOL    HW111024   6.585   4.801   6.510
 3375SOL    HW211025   6.727   4.761   6.440
 3376SOL     OW11026   2.709   3.552   5.614
 3376SOL    HW111027   2.803   3.581   5.595
 3376SOL    HW211028   2.645   3.613   5.569
 3377SOL     OW11029   5.982   4.850   3.242
 3377SOL    HW111030   6.003   4.884   3.150
 3377SOL    HW211031   6.054   4.788   3.272
 3378SOL     OW11032   1.211   6.400   6.913
 3378SOL    HW111033   1.121   6.429   6.944
 3378SOL    HW211034   1.241   6.321   6.967
 3379SOL     OW11035   0.302   3.822   3.736
 3379SOL    HW111036   0.371   3.831   3.808
 3379SOL    HW211037   0.251   3.737   3.751
 3380SOL     OW11038   3.896   4.242   5.880
 3380SOL    HW111039   3.917   4.333   5.844
 3380SOL    HW211040   3.808   4.212   5.843
 3381SOL     OW11041   1.650   3.690   1.183
 3381SOL    HW111042   1.703   3.625   1.128
 3381SOL    HW211043   1.703   3.716   1.264
 3382SOL     OW11044   0.133   2.011   0.928
 3382SOL    HW111045   0.170   1.961   0.849
 3382SOL    HW211046   0.036   1.988   0.939
 3383SOL     OW11047   5.289   5.224   0.232
 3383SOL    HW111048   5.228   5.280   0.287
 3383SOL    HW211049   5.307   5.138   0.279
 3384SOL     OW11050   2.213   4.473   0.309
 3384SOL    HW111051   2.123   4.436   0.286
 3384SOL    HW211052   2.211   4.512   0.401
 3385SOL     OW11053   0.675   1.840   3.732
 3385SOL    HW111054   0.613   1.763   3.749
 3385SOL    HW211055   0.629   1.926   3.755
 3386SOL     OW11056   6.395   4.960   6.419
 3386SOL    HW111057   6.335   5.036   6.443
 3386SOL    HW211058   6.354   4.874   6.452
 3387SOL     OW11059   6.428   0.051   3.629
 3387SOL    HW111060   6.475   6.990   3.608
 3387SOL    HW211061   6.375   0.081   3.550
 3388SOL     OW11062   6.372   2.998   1.361
 3388SOL    HW111063   6.353   3.095   1.342
 3388SOL    HW211064   6.302   2.963   1.422
 3389SOL     OW11065   6.440   6.051   0.762
 3389SOL    HW111066   6.536   6.026   0.750
 3389SOL    HW211067   6.392   6.041   0.675
 3390SOL     OW11068   3.952   6.392   5.908
 3390SOL    HW111069   3.935   6.465   5.842
 3390SOL    HW211070   3.983   6.310   5.861
 3391SOL     OW11071   5.484   3.006   3.708
 3391SOL    HW111072   5.483   3.077   3.639
 3391SOL    HW211073   5.531   3.039   3.790
 3392SOL     OW11074   4.173   7.012   5.847
 3392SOL    HW111075   4.102   0.014   5.913
 3392SOL    HW211076   4.209   0.070   5.803
 3393SOL     OW11077   5.440   6.488   1.142
 3393SOL    HW111078   5.395   6.543   1.070
 3393SOL    HW211079   5.489   6.549   1.204
 3394SOL     OW11080   2.941   5.824   1.674
 3394SOL    HW111081   2.971   5.833   1.769
 3394SOL    HW211082   3.018   5.846   1.613
 3395SOL     OW11083   3.656   0.314   3.172
 3395SOL    HW111084   3.756   0.313   3.172
 3395SOL    HW211085   3.623   0.265   3.252
 3396SOL     OW11086   4.125   1.803   4.184
 3396SOL    HW111087   4.192   1.877   4.190
 3396SOL    HW211088   4.154   1.738   4.114
 3397SOL     OW11089   2.342   5.707   6.809
 3397SOL    HW111090   2.357   5.622   6.758
 3397SOL    HW211091   2.335   5.784   6.745
 3398SOL     OW11092   6.916   1.589   4.640
 3398SOL    HW111093   6.904   1.580   4.739
 3398SOL    HW211094   6.893   1.502   4.595
 3399SOL     OW11095   6.955   4.992   2.440
 3399SOL    HW111096   7.016   5.002   2.519
 3399SOL    HW211097   6.969   5.068   2.377
 3400SOL     OW11098   5.749   2.165   6.017
 3400SOL    HW111099   5.733   2.263   6.003
 3400SOL    HW211100   5.845   2.144   5.999
 3401SOL     OW11101   0.054   3.553   5.259
 3401SOL    HW111102   0.127   3.537   5.326
 3401SOL    HW211103   7.004   3.603   5.303
 3402SOL     OW11104   6.684   4.549   1.411
 3402SOL    HW111105   6.585   4.565   1.414
 3402SOL    HW211106   6.704   4.479   1.342
 3403SOL     OW11107   3.967   6.890   6.907
 3403SOL    HW111108   3.885   6.853   6.950
 3403SOL    HW211109   3.941   6.953   6.834
 3404SOL     OW11110   5.240   3.763   4.902
 3404SOL    HW111111   5.208   3.694   4.966
 3404SOL    HW211112   5.188   3.847   4.914
 3405SOL     OW11113   5.793   6.070   6.146
 3405SOL    HW111114   5.727   6.047   6.075
 3405SOL    HW211115   5.874   6.011   6.136
 3406SOL     OW11116   1.866   3.910   1.779
 3406SOL    HW111117   1.910   3.996   1.753
 3406SOL    HW211118   1.787   3.930   1.837
 3407SOL     OW11119   1.861   3.960   0.461
 3407SOL    HW111120   1.854   3.881   0.400
 3407SOL    HW211121   1.834   3.934   0.553
 3408SOL     OW11122   4.726   2.466   4.037
 3408SOL    HW111123   4.701   2.529   3.963
 3408SOL    HW211124   4.822   2.440   4.028
 3409SOL     OW11125   5.072   1.070   0.634
 3409SOL    HW111126   5.108   0.988   0.680
 3409SOL    HW211127   5.070   1.146   0.700
 3410SOL     OW11128   5.060   0.358   2.046
 3410SOL    HW111129   5.107   0.271   2.031
 3410SOL    HW211130   5.086   0.394   2.136
 3411SOL     OW11131   0.025   2.233   0.355
 3411SOL    HW111132   6.953   2.215   0.372
 3411SOL    HW211133   0.053   2.189   0.269
 3412SOL     OW11134   5.689   3.369   1.713
 3412SOL    HW111135   5.610   3.397   1.657
 3412SOL    HW211136   5.663   3.290   1.769
 3413SOL     OW11137   0.347   2.089   5.890
 3413SOL    HW111138   0.342   2.012   5.826
 3413SOL    HW211139   0.401   2.063   5.970
 3414SOL     OW11140   3.594   3.475   0.720
 3414SOL    HW111141   3.575   3.573   0.724
 3414SOL    HW211142   3.509   3.423   0.733
 3415SOL     OW11143   2.173   2.513   4.965
 3415SOL    HW111144   2.122   2.524   5.051
 3415SOL    HW211145   2.196   2.603   4.928
 3416SOL     OW11146   5.762   6.982   6.597
 3416SOL    HW111147   5.844   6.935   6.629
 3416SOL    HW211148   5.682   6.925   6.614
 3417SOL     OW11149   6.566   6.358   3.007
 3417SOL    HW111150   6.557   6.439   3.065
 3417SOL    HW211151   6.657   6.356   2.966
 3418SOL     OW11152   5.039   4.849   1.437
 3418SOL    HW111153   4.973   4.825   1.508
 3418SOL    HW211154   5.015   4.803   1.351
 3419SOL     OW11155   3.447   6.028   6.010
 3419SOL    HW111156   3.402   6.088   5.944
 3419SOL    HW211157   3.546   6.032   5.997
 3420SOL     OW11158   4.205   2.262   3.544
 3420SOL    HW111159   4.252   2.241   3.630
 3420SOL    HW211160   4.106   2.251   3.557
 3421SOL     OW11161   5.289   2.362   3.504
 3421SOL    HW111162   5.327   2.283   3.552
 3421SOL    HW211163   5.336   2.445   3.533
 3422SOL     OW11164   1.963   6.795   1.256
 3422SOL    HW111165   1.933   6.763   1.166
 3422SOL    HW211166   2.061   6.779   1.266
 3423SOL     OW11167   0.955   4.685   5.684
 3423SOL    HW111168   0.891   4.737   5.628
 3423SOL    HW211169   0.907   4.607   5.725
 3424SOL     OW11170   4.952   0.274   1.738
 3424SOL    HW111171   5.049   0.266   1.757
 3424SOL    HW211172   4.922   0.369   1.754
 3425SOL     OW11173   5.729   3.824   1.547
 3425SOL    HW111174   5.731   3.923   1.529
 3425SOL    HW211175   5.819   3.795   1.581
 3426SOL     OW11176   5.516   3.331   6.900
 3426SOL    HW111177   5.615   3.336   6.887
 3426SOL    HW211178   5.496   3.328   6.998
 3427SOL     OW11179   1.066   2.561   0.478
 3427SOL    HW111180   1.146   2.560   0.538
 3427SOL    HW211181   1.075   2.636   0.412
 3428SOL     OW11182   5.432   6.089   5.724
 3428SOL    HW111183   5.412   6.023   5.796
 3428SOL    HW211184   5.347   6.136   5.697
 3429SOL     OW11185   6.834   0.326   1.247
 3429SOL    HW111186   6.737   0.303   1.249
 3429SOL    HW211187   6.879   0.276   1.173
 3430SOL     OW11188   1.682   4.695   5.584
 3430SOL    HW111189   1.589   4.715   5.615
 3430SOL    HW211190   1.747   4.732   5.650
 3431SOL     OW11191   2.419   6.107   2.834
 3431SOL    HW111192   2.414   6.020   2.883
 3431SOL    HW211193   2.458   6.092   2.743
 3432SOL     OW11194   2.017   4.207   1.101
 3432SOL    HW111195   2.059   4.263   1.173
 3432SOL    HW211196   2.036   4.111   1.118
 3433SOL     OW11197   2.568   1.137   6.444
 3433SOL    HW111198   2.589   1.138   6.541
 3433SOL    HW211199   2.470   1.152   6.430
 3434SOL     OW11200   2.672   2.043   1.558
 3434SOL    HW111201   2.727   2.093   1.626
 3434SOL    HW211202   2.725   2.034   1.474
 3435SOL     OW11203   2.132   0.868   6.885
 3435SOL    HW111204   2.087   0.834   6.802
 3435SOL    HW211205   2.212   0.812   6.905
 3436SOL     OW11206   3.370   5.692   0.146
 3436SOL    HW111207   3.347   5.753   0.070
 3436SOL    HW211208   3.371   5.744   0.232
 3437SOL     OW11209   1.235   6.741   6.330
 3437SOL    HW111210   1.188   6.711   6.412
 3437SOL    HW211211   1.186   6.708   6.249
 3438SOL     OW11212   1.474   3.854   1.279
 3438SOL    HW111213   1.553   3.808   1.239
 3438SOL    HW211214   1.424   3.902   1.206
 3439SOL     OW11215   2.109   5.675   1.965
 3439SOL    HW111216   2.095   5.653   1.869
 3439SOL    HW211217   2.028   5.648   2.018
 3440SOL     OW11218   4.078   3.855   4.432
 3440SOL    HW111219   4.134   3.788   4.481
 3440SOL    HW211220   4.087   3.840   4.333
 3441SOL     OW11221   5.373   5.443   5.711
 3441SOL    HW111222   5.298   5.427   5.646
 3441SOL    HW211223   5.421   5.357   5.729
 3442SOL     OW11224   3.709   3.229   1.057
 3442SOL    HW111225   3.780   3.159   1.054
 3442SOL    HW211226   3.640   3.209   0.988
 3443SOL     OW11227   2.040   6.279   2.228
 3443SOL    HW111228   1.994   6.271   2.140
 3443SOL    HW211229   1.992   6.347   2.285
 3444SOL     OW11230   5.712   3.713   1.268
 3444SOL    HW111231   5.723   3.744   1.362
 3444SOL    HW211232   5.615   3.704   1.246
 3445SOL     OW11233   5.986   4.322   3.059
 3445SOL    HW111234   6.000   4.235   3.012
 3445SOL    HW211235   5.994   4.309   3.158
 3446SOL     OW11236   4.860   1.117   1.209
 3446SOL    HW111237   4.779   1.156   1.253
 3446SOL    HW211238   4.840   1.095   1.113
 3447SOL     OW11239   4.941   0.852   6.981
 3447SOL    HW111240   4.857   0.812   7.018
 3447SOL    HW211241   4.945   0.836   6.883
 3448SOL     OW11242   1.394   5.965   4.902
 3448SOL    HW111243   1.328   5.977   4.828
 3448SOL    HW211244   1.470   5.909   4.870
 3449SOL     OW11245   5.997   4.048   5.266
 3449SOL    HW111246   5.982   3.968   5.324
 3449SOL    HW211247   5.974   4.026   5.172
 3450SOL     OW11248   1.229   6.072   0.711
 3450SOL    HW111249   1.312   6.117   0.742
 3450SOL    HW211250   1.252   5.989   0.661
 3451SOL     OW11251   2.306   0.055   1.044
 3451SOL    HW111252   2.367   7.022   1.099
 3451SOL    HW211253   2.218   0.064   1.090
 3452SOL     OW11254   4.990   0.677   5.182
 3452SOL    HW111255   5.059   0.605   5.184
 3452SOL    HW211256   5.035   0.766   5.184
 3453SOL     OW11257   4.713   6.540   5.848
 3453SOL    HW111258   4.767   6.472   5.897
 3453SOL    HW211259   4.625   6.553   5.895
 3454SOL     OW11260   1.199   2.788   1.787
 3454SOL    HW111261   1.282   2.842   1.797
 3454SOL    HW211262   1.167   2.759   1.878
 3455SOL     OW11263   0.797   3.599   6.077
 3455SOL    HW111264   0.801   3.633   5.983
 3455SOL    HW211265   0.841   3.665   6.138
 3456SOL     OW11266   5.198   4.163   2.320
 3456SOL    HW111267   5.202   4.064   2.308
 3456SOL    HW211268   5.104   4.194   2.312
 3457SOL     OW11269   3.920   5.557   5.352
 3457SOL    HW111270   4.020   5.550   5.358
 3457SOL    HW211271   3.886   5.494   5.283
 3458SOL     OW11272   4.428   1.837   2.806
 3458SOL    HW111273   4.362   1.838   2.731
 3458SOL    HW211274   4.481   1.753   2.803
 3459SOL     OW11275   4.187   6.995   3.483
 3459SOL    HW111276   4.230   7.011   3.393
 3459SOL    HW211277   4.153   6.902   3.487
 3460SOL     OW11278   4.227   1.656   5.327
 3460SOL    HW111279   4.161   1.670   5.401
 3460SOL    HW211280   4.243   1.558   5.315
 3461SOL     OW11281   5.875   5.182   6.135
 3461SOL    HW111282   5.809   5.251   6.161
 3461SOL    HW211283   5.845   5.092   6.167
 3462SOL     OW11284   2.139   4.039   6.916
 3462SOL    HW111285   2.178   4.120   6.959
 3462SOL    HW211286   2.140   3.963   6.980
 3463SOL     OW11287   6.295   4.106   1.364
 3463SOL    HW111288   6.210   4.069   1.328
 3463SOL    HW211289   6.292   4.106   1.464
 3464SOL     OW11290   0.046   4.471   6.399
 3464SOL    HW111291   0.108   4.422   6.460
 3464SOL    HW211292   0.024   4.415   6.319
 3465SOL     OW11293   1.918   0.459   1.446
 3465SOL    HW111294   1.824   0.492   1.448
 3465SOL    HW211295   1.919   0.359   1.451
 3466SOL     OW11296   6.598   3.839   5.246
 3466SOL    HW111297   6.668   3.855   5.176
 3466SOL    HW211298   6.507   3.846   5.204
 3467SOL     OW11299   1.995   1.955   6.526
 3467SOL    HW111300   1.972   1.973   6.621
 3467SOL    HW211301   1.927   1.894   6.486
 3468SOL     OW11302   3.164   0.360   4.140
 3468SOL    HW111303   3.154   0.320   4.231
 3468SOL    HW211304   3.244   0.420   4.138
 3469SOL     OW11305   5.905   2.422   3.168
 3469SOL    HW111306   5.998   2.392   3.149
 3469SOL    HW211307   5.900   2.521   3.161
 3470SOL     OW11308   6.889   5.761   0.859
 3470SOL    HW111309   6.814   5.694   0.859
 3470SOL    HW211310   6.869   5.833   0.925
 3471SOL     OW11311   3.949   6.349   4.929
 3471SOL    HW111312   3.852   6.356   4.907
 3471SOL    HW211313   3.960   6.318   5.024
 3472SOL     OW11314   2.879   1.309   5.569
 3472SOL    HW111315   2.883   1.211   5.589
 3472SOL    HW211316   2.892   1.323   5.471
 3473SOL     OW11317   5.085   0.834   6.103
 3473SOL    HW111318   5.160   0.776   6.072
 3473SOL    HW211319   5.020   0.847   6.028
 3474SOL     OW11320   4.686   5.415   1.156
 3474SOL    HW111321   4.682   5.499   1.210
 3474SOL    HW211322   4.782   5.388   1.145
 3475SOL     OW11323   1.566   5.943   4.344
 3475SOL    HW111324   1.594   5.864   4.399
 3475SOL    HW211325   1.643   5.973   4.287
 3476SOL     OW11326   4.728   1.132   4.530
 3476SOL    HW111327   4.826   1.119   4.543
 3476SOL    HW211328   4.703   1.227   4.550
 3477SOL     OW11329   3.802   5.905   1.065
 3477SOL    HW111330   3.767   5.947   1.148
 3477SOL    HW211331   3.807   5.974   0.993
 3478SOL     OW11332   3.604   5.180   0.289
 3478SOL    HW111333   3.556   5.130   0.362
 3478SOL    HW211334   3.541   5.244   0.246
 3479SOL     OW11335   0.812   0.231   1.772
 3479SOL    HW111336   0.743   0.303   1.784
 3479SOL    HW211337   0.766   0.142   1.765
 3480SOL     OW11338   0.466   1.265   3.174
 3480SOL    HW111339   0.495   1.208   3.097
 3480SOL    HW211340   0.538   1.332   3.194
 3481SOL     OW11341   2.442   6.658   6.985
 3481SOL    HW111342   2.528   6.657   6.934
 3481SOL    HW211343   2.455   6.709   0.045
 3482SOL     OW11344   0.679   2.282   0.063
 3482SOL    HW111345   0.670   2.273   0.162
 3482SOL    HW211346   0.735   2.207   0.028
 3483SOL     OW11347   2.874   0.070   1.096
 3483SOL    HW111348   2.961   0.076   1.046
 3483SOL    HW211349   2.856   0.157   1.142
 3484SOL     OW11350   3.992   3.793   3.457
 3484SOL    HW111351   4.085   3.830   3.449
 3484SOL    HW211352   3.997   3.693   3.462
 3485SOL     OW11353   1.367   2.452   5.015
 3485SOL    HW111354   1.459   2.488   5.001
 3485SOL    HW211355   1.372   2.356   5.041
 3486SOL     OW11356   4.444   2.134   1.966
 3486SOL    HW111357   4.384   2.117   2.044
 3486SOL    HW211358   4.412   2.215   1.916
 3487SOL     OW11359   6.290   1.243   6.589
 3487SOL    HW111360   6.347   1.160   6.589
 3487SOL    HW211361   6.297   1.288   6.500
 3488SOL     OW11362   5.237   3.163   3.739
 3488SOL    HW111363   5.324   3.119   3.716
 3488SOL    HW211364   5.248   3.217   3.822
 3489SOL     OW11365   3.475   0.748   1.493
 3489SOL    HW111366   3.484   0.847   1.495
 3489SOL    HW211367   3.506   0.714   1.404
 3490SOL     OW11368   4.511   4.166   0.165
 3490SOL    HW111369   4.505   4.093   0.097
 3490SOL    HW211370   4.506   4.127   0.257
 3491SOL     OW11371   0.213   2.843   4.709
 3491SOL    HW111372   0.307   2.877   4.710
 3491SOL    HW211373   0.150   2.920   4.721
 3492SOL     OW11374   6.571   4.354   6.834
 3492SOL    HW111375   6.560   4.256   6.819
 3492SOL    HW211376   6.539   4.378   6.926
 3493SOL     OW11377   6.505   4.408   0.903
 3493SOL    HW111378   6.548   4.497   0.919
 3493SOL    HW211379   6.477   4.401   0.808
 3494SOL     OW11380   3.384   0.277   1.123
 3494SOL    HW111381   3.330   0.278   1.206
 3494SOL    HW211382   3.474   0.237   1.142
 3495SOL     OW11383   4.756   4.885   1.173
 3495SOL    HW111384   4.756   4.957   1.104
 3495SOL    HW211385   4.836   4.826   1.161
 3496SOL     OW11386   1.868   2.830   0.773
 3496SOL    HW111387   1.925   2.750   0.756
 3496SOL    HW211388   1.868   2.890   0.693
 3497SOL     OW11389   4.348   0.635   3.679
 3497SOL    HW111390   4.287   0.664   3.605
 3497SOL    HW211391   4.421   0.579   3.641
 3498SOL     OW11392   2.423   1.754   1.896
 3498SOL    HW111393   2.393   1.659   1.894
 3498SOL    HW211394   2.520   1.757   1.919
 3499SOL     OW11395   6.465   2.935   4.402
 3499SOL    HW111396   6.473   3.002   4.328
 3499SOL    HW211397   6.555   2.895   4.421
 3500SOL     OW11398   5.968   3.768   6.402
 3500SOL    HW111399   5.978   3.848   6.462
 3500SOL    HW211400   6.053   3.716   6.400
 3501SOL     OW11401   1.763   4.726   4.301
 3501SOL    HW111402   1.856   4.716   4.336
 3501SOL    HW211403   1.764   4.788   4.223
 3502SOL     OW11404   0.969   2.858   1.602
 3502SOL    HW111405   1.064   2.831   1.616
 3502SOL    HW211406   0.964   2.953   1.573
 3503SOL     OW11407   5.047   5.997   4.710
 3503SOL    HW111408   5.069   6.064   4.639
 3503SOL    HW211409   4.948   5.987   4.717
 3504SOL     OW11410   2.396   3.214   1.722
 3504SOL    HW111411   2.367   3.306   1.747
 3504SOL    HW211412   2.493   3.203   1.743
 3505SOL     OW11413   5.162   5.407   5.500
 3505SOL    HW111414   5.110   5.328   5.533
 3505SOL    HW211415   5.235   5.375   5.439
 3506SOL     OW11416   4.691   5.606   3.425
 3506SOL    HW111417   4.765   5.640   3.366
 3506SOL    HW211418   4.608   5.660   3.408
 3507SOL     OW11419   0.853   6.905   6.726
 3507SOL    HW111420   0.758   6.915   6.758
 3507SOL    HW211421   0.861   6.939   6.633
 3508SOL     OW11422   5.780   3.905   0.017
 3508SOL    HW111423   5.730   3.855   0.087
 3508SOL    HW211424   5.877   3.880   0.022
 3509SOL     OW11425   6.579   6.636   0.340
 3509SOL    HW111426   6.505   6.693   0.376
 3509SOL    HW211427   6.559   6.540   0.360
 3510SOL     OW11428   2.409   2.460   2.292
 3510SOL    HW111429   2.447   2.484   2.382
 3510SOL    HW211430   2.449   2.374   2.261
 3511SOL     OW11431   0.678   1.714   6.919
 3511SOL    HW111432   0.709   1.794   6.868
 3511SOL    HW211433   0.721   1.713   7.009
 3512SOL     OW11434   2.420   3.129   0.837
 3512SOL    HW111435   2.454   3.045   0.795
 3512SOL    HW211436   2.495   3.196   0.843
 3513SOL     OW11437   6.624   4.649   1.023
 3513SOL    HW111438   6.601   4.745   1.040
 3513SOL    HW211439   6.714   4.644   0.979
 3514SOL     OW11440   0.673   6.085   1.424
 3514SOL    HW111441   0.576   6.064   1.413
 3514SOL    HW211442   0.710   6.033   1.501
 3515SOL     OW11443   3.252   6.491   3.446
 3515SOL    HW111444   3.305   6.408   3.463
 3515SOL    HW211445   3.297   6.545   3.374
 3516SOL     OW11446   3.540   1.376   1.003
 3516SOL    HW111447   3.613   1.310   0.988
 3516SOL    HW211448   3.478   1.376   0.925
 3517SOL     OW11449   1.412   1.465   6.421
 3517SOL    HW111450   1.490   1.410   6.449
 3517SOL    HW211451   1.442   1.558   6.399
 3518SOL     OW11452   4.054   2.967   5.903
 3518SOL    HW111453   4.150   2.981   5.877
 3518SOL    HW211454   4.013   3.055   5.927
 3519SOL     OW11455   2.079   6.418   6.672
 3519SOL    HW111456   2.162   6.472   6.686
 3519SOL    HW211457   2.003   6.460   6.721
 3520SOL     OW11458   3.431   5.757   0.993
 3520SOL    HW111459   3.467   5.849   0.973
 3520SOL    HW211460   3.374   5.727   0.916
 3521SOL     OW11461   6.137   2.399   0.886
 3521SOL    HW111462   6.102   2.405   0.979
 3521SOL    HW211463   6.213   2.463   0.874
 3522SOL     OW11464   3.369   4.865   2.291
 3522SOL    HW111465   3.353   4.867   2.192
 3522SOL    HW211466   3.447   4.806   2.310
 3523SOL     OW11467   2.316   4.843   4.726
 3523SOL    HW111468   2.367   4.907   4.784
 3523SOL    HW211469   2.288   4.764   4.781
 3524SOL     OW11470   2.472   0.264   0.858
 3524SOL    HW111471   2.456   0.362   0.874
 3524SOL    HW211472   2.451   0.213   0.942
 3525SOL     OW11473   0.700   3.021   2.529
 3525SOL    HW111474   0.680   2.941   2.473
 3525SOL    HW211475   0.667   3.104   2.484
 3526SOL     OW11476   1.789   0.736   2.354
 3526SOL    HW111477   1.735   0.734   2.271
 3526SOL    HW211478   1.856   0.661   2.353
 3527SOL     OW11479   5.271   3.416   5.903
 3527SOL    HW111480   5.175   3.421   5.932
 3527SOL    HW211481   5.328   3.389   5.981
 3528SOL     OW11482   0.309   6.624   4.497
 3528SOL    HW111483   0.223   6.673   4.495
 3528SOL    HW211484   0.335   6.599   4.404
 3529SOL     OW11485   4.039   6.154   5.755
 3529SOL    HW111486   4.051   6.061   5.719
 3529SOL    HW211487   4.126   6.204   5.748
 3530SOL     OW11488   2.565   5.136   2.869
 3530SOL    HW111489   2.511   5.204   2.919
 3530SOL    HW211490   2.505   5.065   2.834
 3531SOL     OW11491   5.656   4.165   0.026
 3531SOL    HW111492   5.557   4.146   0.025
 3531SOL    HW211493   5.705   4.079   0.039
 3532SOL     OW11494   1.541   0.123   6.958
 3532SOL    HW111495   1.514   0.124   6.862
 3532SOL    HW211496   1.476   0.066   7.009
 3533SOL     OW11497   0.999   1.355   3.087
 3533SOL    HW111498   0.972   1.260   3.104
 3533SOL    HW211499   1.066   1.384   3.156
 3534SOL     OW11500   4.985   1.222   4.866
 3534SOL    HW111501   4.895   1.238   4.906
 3534SOL    HW211502   5.000   1.289   4.792
 3535SOL     OW11503   5.305   4.813   6.319
 3535SOL    HW111504   5.393   4.803   6.366
 3535SOL    HW211505   5.296   4.906   6.284
 3536SOL     OW11506   1.686   3.898   2.883
 3536SOL    HW111507   1.653   3.860   2.797
 3536SOL    HW211508   1.608   3.913   2.945
 3537SOL     OW11509   2.535   5.158   0.996
 3537SOL    HW111510   2.597   5.135   0.921
 3537SOL    HW211511   2.442   5.166   0.960
 3538SOL     OW11512   2.486   0.655   3.763
 3538SOL    HW111513   2.527   0.624   3.677
 3538SOL    HW211514   2.552   0.711   3.813
 3539SOL     OW11515   4.573   5.243   6.009
 3539SOL    HW111516   4.626   5.186   6.072
 3539SOL    HW211517   4.567   5.198   5.920
 3540SOL     OW11518   2.623   3.189   6.897
 3540SOL    HW111519   2.619   3.161   6.993
 3540SOL    HW211520   2.684   3.268   6.887
 3541SOL     OW11521   3.525   2.494   0.898
 3541SOL    HW111522   3.510   2.564   0.969
 3541SOL    HW211523   3.448   2.430   0.897
 3542SOL     OW11524   5.404   2.587   6.037
 3542SOL    HW111525   5.483   2.526   6.049
 3542SOL    HW211526   5.397   2.648   6.116
 3543SOL     OW11527   1.356   2.660   3.622
 3543SOL    HW111528   1.441   2.712   3.612
 3543SOL    HW211529   1.314   2.647   3.532
 3544SOL     OW11530   2.762   4.746   6.225
 3544SOL    HW111531   2.741   4.841   6.201
 3544SOL    HW211532   2.692   4.686   6.188
 3545SOL     OW11533   3.760   6.897   1.298
 3545SOL    HW111534   3.779   6.884   1.395
 3545SOL    HW211535   3.667   6.867   1.278
 3546SOL     OW11536   7.021   3.157   3.226
 3546SOL    HW111537   6.941   3.217   3.221
 3546SOL    HW211538   0.078   3.208   3.199
 3547SOL     OW11539   0.304   3.746   5.663
 3547SOL    HW111540   0.230   3.748   5.729
 3547SOL    HW211541   0.388   3.715   5.708
 3548SOL     OW11542   5.998   0.481   5.120
 3548SOL    HW111543   6.063   0.449   5.052
 3548SOL    HW211544   6.002   0.422   5.201
 3549SOL     OW11545   2.592   5.873   6.588
 3549SOL    HW111546   2.556   5.794   6.539
 3549SOL    HW211547   2.522   5.945   6.590
 3550SOL     OW11548   5.187   1.186   5.389
 3550SOL    HW111549   5.261   1.251   5.403
 3550SOL    HW211550   5.109   1.232   5.347
 3551SOL     OW11551   4.121   2.151   4.709
 3551SOL    HW111552   4.048   2.203   4.754
 3551SOL    HW211553   4.122   2.058   4.743
 3552SOL     OW11554   0.137   6.235   2.735
 3552SOL    HW111555   0.160   6.205   2.828
 3552SOL    HW211556   0.067   6.175   2.697
 3553SOL     OW11557   4.151   5.493   6.803
 3553SOL    HW111558   4.202   5.439   6.870
 3553SOL    HW211559   4.214   5.527   6.733
 3554SOL     OW11560   4.939   3.416   1.584
 3554SOL    HW111561   4.909   3.347   1.650
 3554SOL    HW211562   4.891   3.502   1.602
 3555SOL     OW11563   2.416   1.964   4.761
 3555SOL    HW111564   2.473   2.046   4.759
 3555SOL    HW211565   2.457   1.896   4.822
 3556SOL     OW11566   4.869   0.390   5.637
 3556SOL    HW111567   4.966   0.367   5.649
 3556SOL    HW211568   4.858   0.446   5.555
 3557SOL     OW11569   6.405   1.105   1.371
 3557SOL    HW111570   6.361   1.073   1.287
 3557SOL    HW211571   6.363   1.191   1.400
 3558SOL     OW11572   3.226   6.410   1.501
 3558SOL    HW111573   3.207   6.321   1.542
 3558SOL    HW211574   3.180   6.481   1.554
 3559SOL     OW11575   3.767   6.055   4.924
 3559SOL    HW111576   3.732   6.149   4.925
 3559SOL    HW211577   3.794   6.031   4.830
 3560SOL     OW11578   2.284   5.897   4.297
 3560SOL    HW111579   2.194   5.912   4.257
 3560SOL    HW211580   2.297   5.799   4.313
 3561SOL     OW11581   4.786   4.141   5.261
 3561SOL    HW111582   4.783   4.187   5.171
 3561SOL    HW211583   4.749   4.048   5.252
 3562SOL     OW11584   2.082   1.310   5.652
 3562SOL    HW111585   2.133   1.331   5.736
 3562SOL    HW211586   2.146   1.277   5.582
 3563SOL     OW11587   5.903   2.350   5.164
 3563SOL    HW111588   5.857   2.289   5.098
 3563SOL    HW211589   5.966   2.296   5.220
 3564SOL     OW11590   6.610   4.397   1.854
 3564SOL    HW111591   6.630   4.493   1.838
 3564SOL    HW211592   6.627   4.374   1.950
 3565SOL     OW11593   3.853   5.571   3.218
 3565SOL    HW111594   3.906   5.650   3.187
 3565SOL    HW211595   3.894   5.487   3.183
 3566SOL     OW11596   0.859   1.085   5.631
 3566SOL    HW111597   0.929   1.025   5.669
 3566SOL    HW211598   0.829   1.149   5.702
 3567SOL     OW11599   0.672   4.277   6.436
 3567SOL    HW111600   0.669   4.339   6.358
 3567SOL    HW211601   0.757   4.225   6.434
 3568SOL     OW11602   6.299   3.644   5.872
 3568SOL    HW111603   6.214   3.633   5.922
 3568SOL    HW211604   6.280   3.660   5.776
 3569SOL     OW11605   1.742   2.485   5.456
 3569SOL    HW111606   1.678   2.436   5.397
 3569SOL    HW211607   1.792   2.552   5.402
 3570SOL     OW11608   6.151   1.345   4.245
 3570SOL    HW111609   6.181   1.438   4.222
 3570SOL    HW211610   6.068   1.324   4.193
 3571SOL     OW11611   6.032   5.648   6.456
 3571SOL    HW111612   6.021   5.689   6.546
 3571SOL    HW211613   6.113   5.687   6.411
 3572SOL     OW11614   5.735   4.230   4.653
 3572SOL    HW111615   5.815   4.202   4.707
 3572SOL    HW211616   5.741   4.190   4.562
 3573SOL     OW11617   1.309   3.042   3.394
 3573SOL    HW111618   1.377   3.107   3.427
 3573SOL    HW211619   1.355   2.960   3.361
 3574SOL     OW11620   0.340   4.104   0.620
 3574SOL    HW111621   0.247   4.090   0.585
 3574SOL    HW211622   0.405   4.105   0.544
 3575SOL     OW11623   6.072   4.791   2.344
 3575SOL    HW111624   6.078   4.691   2.336
 3575SOL    HW211625   5.978   4.820   2.325
 3576SOL     OW11626   0.710   1.290   6.096
 3576SOL    HW111627   0.712   1.197   6.132
 3576SOL    HW211628   0.631   1.338   6.134
 3577SOL     OW11629   0.376   2.820   6.683
 3577SOL    HW111630   0.399   2.737   6.631
 3577SOL    HW211631   0.426   2.820   6.769
 3578SOL     OW11632   3.008   4.834   0.543
 3578SOL    HW111633   2.965   4.922   0.524
 3578SOL    HW211634   3.010   4.818   0.642
 3579SOL     OW11635   6.642   3.805   4.803
 3579SOL    HW111636   6.585   3.872   4.755
 3579SOL    HW211637   6.619   3.713   4.769
 3580SOL     OW11638   6.444   1.504   2.223
 3580SOL    HW111639   6.468   1.587   2.273
 3580SOL    HW211640   6.526   1.469   2.176
 3581SOL     OW11641   0.273   0.385   2.144
 3581SOL    HW111642   0.300   0.298   2.186
 3581SOL    HW211643   0.292   0.460   2.208
 3582SOL     OW11644   1.415   0.495   6.087
 3582SOL    HW111645   1.393   0.443   6.170
 3582SOL    HW211646   1.406   0.435   6.007
 3583SOL     OW11647   0.938   5.370   6.758
 3583SOL    HW111648   0.882   5.328   6.686
 3583SOL    HW211649   1.028   5.327   6.760
 3584SOL     OW11650   5.181   6.538   6.807
 3584SOL    HW111651   5.090   6.561   6.773
 3584SOL    HW211652   5.244   6.613   6.790
 3585SOL     OW11653   3.647   4.937   4.325
 3585SOL    HW111654   3.613   4.956   4.233
 3585SOL    HW211655   3.581   4.970   4.393
 3586SOL     OW11656   6.530   3.549   6.011
 3586SOL    HW111657   6.454   3.595   5.966
 3586SOL    HW211658   6.548   3.461   5.967
 3587SOL     OW11659   3.574   6.627   0.383
 3587SOL    HW111660   3.581   6.646   0.481
 3587SOL    HW211661   3.518   6.545   0.369
 3588SOL     OW11662   1.372   2.582   6.095
 3588SOL    HW111663   1.316   2.647   6.148
 3588SOL    HW211664   1.331   2.491   6.102
 3589SOL     OW11665   3.031   0.730   5.553
 3589SOL    HW111666   3.057   0.780   5.636
 3589SOL    HW211667   3.084   0.765   5.475
 3590SOL     OW11668   1.591   5.529   5.957
 3590SOL    HW111669   1.676   5.519   5.905
 3590SOL    HW211670   1.552   5.438   5.975
 3591SOL     OW11671   5.142   2.340   5.905
 3591SOL    HW111672   5.145   2.436   5.879
 3591SOL    HW211673   5.227   2.295   5.877
 3592SOL     OW11674   5.376   2.710   3.052
 3592SOL    HW111675   5.357   2.618   3.087
 3592SOL    HW211676   5.332   2.721   2.963
 3593SOL     OW11677   1.698   6.736   3.913
 3593SOL    HW111678   1.626   6.678   3.875
 3593SOL    HW211679   1.668   6.776   3.999
 3594SOL     OW11680   2.631   1.237   3.772
 3594SOL    HW111681   2.649   1.328   3.809
 3594SOL    HW211682   2.703   1.213   3.707
 3595SOL     OW11683   2.674   6.381   6.227
 3595SOL    HW111684   2.589   6.331   6.245
 3595SOL    HW211685   2.658   6.479   6.237
 3596SOL     OW11686   6.658   1.012   2.174
 3596SOL    HW111687   6.626   0.936   2.117
 3596SOL    HW211688   6.587   1.081   2.181
 3597SOL     OW11689   3.825   5.994   4.661
 3597SOL    HW111690   3.899   6.019   4.599
 3597SOL    HW211691   3.737   6.020   4.621
 3598SOL     OW11692   1.129   6.836   5.767
 3598SOL    HW111693   1.117   6.784   5.683
 3598SOL    HW211694   1.138   6.933   5.745
 3599SOL     OW11695   6.798   2.075   5.402
 3599SOL    HW111696   6.770   1.981   5.419
 3599SOL    HW211697   6.873   2.099   5.463
 3600SOL     OW11698   6.112   2.648   1.098
 3600SOL    HW111699   6.060   2.732   1.109
 3600SOL    HW211700   6.066   2.573   1.146
 3601SOL     OW11701   0.340   3.776   0.368
 3601SOL    HW111702   0.381   3.686   0.383
 3601SOL    HW211703   0.329   3.791   0.270
 3602SOL     OW11704   2.149   1.134   6.964
 3602SOL    HW111705   2.125   1.044   6.930
 3602SOL    HW211706   2.206   1.182   6.897
 3603SOL     OW11707   4.008   4.798   4.024
 3603SOL    HW111708   3.957   4.807   4.110
 3603SOL    HW211709   4.077   4.726   4.033
 3604SOL     OW11710   0.161   2.198   2.837
 3604SOL    HW111711   0.151   2.110   2.884
 3604SOL    HW211712   0.129   2.271   2.898
 3605SOL     OW11713   5.734   3.612   6.375
 3605SOL    HW111714   5.815   3.666   6.397
 3605SOL    HW211715   5.658   3.673   6.354
 3606SOL     OW11716   6.771   4.452   5.319
 3606SOL    HW111717   6.866   4.433   5.295
 3606SOL    HW211718   6.765   4.481   5.414
 3607SOL     OW11719   5.221   0.250   0.925
 3607SOL    HW111720   5.220   0.151   0.918
 3607SOL    HW211721   5.179   0.291   0.844
 3608SOL     OW11722   0.597   2.109   1.782
 3608SOL    HW111723   0.690   2.089   1.813
 3608SOL    HW211724   0.586   2.208   1.773
 3609SOL     OW11725   6.794   0.927   5.038
 3609SOL    HW111726   6.773   0.834   5.008
 3609SOL    HW211727   6.715   0.986   5.021
 3610SOL     OW11728   1.301   6.360   5.682
 3610SOL    HW111729   1.226   6.426   5.686
 3610SOL    HW211730   1.305   6.318   5.592
 3611SOL     OW11731   3.386   5.292   5.050
 3611SOL    HW111732   3.428   5.332   5.131
 3611SOL    HW211733   3.457   5.265   4.985
 3612SOL     OW11734   0.896   6.270   0.464
 3612SOL    HW111735   0.879   6.295   0.368
 3612SOL    HW211736   0.984   6.307   0.492
 3613SOL     OW11737   5.479   4.841   0.563
 3613SOL    HW111738   5.522   4.767   0.512
 3613SOL    HW211739   5.449   4.808   0.652
 3614SOL     OW11740   3.814   3.607   3.101
 3614SOL    HW111741   3.768   3.583   3.015
 3614SOL    HW211742   3.881   3.679   3.084
 3615SOL     OW11743   5.927   5.718   5.625
 3615SOL    HW111744   5.842   5.719   5.677
 3615SOL    HW211745   5.948   5.811   5.595
 3616SOL     OW11746   6.868   2.360   5.839
 3616SOL    HW111747   6.830   2.387   5.927
 3616SOL    HW211748   6.966   2.342   5.849
 3617SOL     OW11749   6.424   2.266   6.243
 3617SOL    HW111750   6.356   2.193   6.248
 3617SOL    HW211751   6.515   2.226   6.235
 3618SOL     OW11752   1.777   1.940   5.717
 3618SOL    HW111753   1.805   1.922   5.623
 3618SOL    HW211754   1.837   2.011   5.756
 3619SOL     OW11755   5.747   2.050   4.134
 3619SOL    HW111756   5.843   2.057   4.164
 3619SOL    HW211757   5.733   1.963   4.088
 3620SOL     OW11758   5.878   0.318   5.374
 3620SOL    HW111759   5.959   0.261   5.388
 3620SOL    HW211760   5.864   0.376   5.455
 3621SOL     OW11761   2.814   2.873   5.689
 3621SOL    HW111762   2.841   2.780   5.660
 3621SOL    HW211763   2.719   2.873   5.718
 3622SOL     OW11764   0.774   1.405   2.816
 3622SOL    HW111765   0.676   1.391   2.833
 3622SOL    HW211766   0.792   1.503   2.806
 3623SOL     OW11767   5.497   5.269   3.896
 3623SOL    HW111768   5.417   5.233   3.944
 3623SOL    HW211769   5.557   5.193   3.870
 3624SOL     OW11770   2.185   6.909   3.417
 3624SOL    HW111771   2.085   6.907   3.414
 3624SOL    HW211772   2.217   7.003   3.428
 3625SOL     OW11773   6.156   3.322   6.040
 3625SOL    HW111774   6.206   3.377   6.108
 3625SOL    HW211775   6.096   3.381   5.987
 3626SOL     OW11776   2.175   3.490   5.128
 3626SOL    HW111777   2.187   3.414   5.192
 3626SOL    HW211778   2.171   3.576   5.180
 3627SOL     OW11779   3.655   3.955   3.319
 3627SOL    HW111780   3.712   3.993   3.392
 3627SOL    HW211781   3.648   3.856   3.332
 3628SOL     OW11782   2.181   5.922   2.049
 3628SOL    HW111783   2.176   5.836   1.998
 3628SOL    HW211784   2.169   5.903   2.146
 3629SOL     OW11785   6.064   1.905   5.461
 3629SOL    HW111786   6.006   1.854   5.397
 3629SOL    HW211787   6.153   1.923   5.419
 3630SOL     OW11788   5.829   2.133   5.031
 3630SOL    HW111789   5.810   2.101   4.938
 3630SOL    HW211790   5.913   2.090   5.065
 3631SOL     OW11791   2.565   0.239   4.485
 3631SOL    HW111792   2.499   0.171   4.452
 3631SOL    HW211793   2.651   0.194   4.508
 3632SOL     OW11794   5.080   1.025   1.336
 3632SOL    HW111795   5.001   1.068   1.293
 3632SOL    HW211796   5.163   1.075   1.311
 3633SOL     OW11797   2.910   2.636   5.897
 3633SOL    HW111798   2.925   2.588   5.811
 3633SOL    HW211799   2.811   2.645   5.913
 3634SOL     OW11800   1.705   6.606   4.741
 3634SOL    HW111801   1.701   6.506   4.739
 3634SOL    HW211802   1.787   6.635   4.791
 3635SOL     OW11803   2.462   1.756   4.955
 3635SOL    HW111804   2.561   1.744   4.969
 3635SOL    HW211805   2.415   1.751   5.043
 3636SOL     OW11806   0.007   5.636   5.963
 3636SOL    HW111807   6.967   5.686   5.906
 3636SOL    HW211808   0.052   5.699   6.027
 3637SOL     OW11809   5.884   2.022   1.632
 3637SOL    HW111810   5.805   2.061   1.583
 3637SOL    HW211811   5.967   2.038   1.578
 3638SOL     OW11812   6.498   4.243   4.267
 3638SOL    HW111813   6.587   4.289   4.263
 3638SOL    HW211814   6.426   4.310   4.254
 3639SOL     OW11815   3.230   4.338   1.082
 3639SOL    HW111816   3.236   4.297   1.173
 3639SOL    HW211817   3.257   4.270   1.013
 3640SOL     OW11818   3.271   6.145   0.422
 3640SOL    HW111819   3.208   6.089   0.369
 3640SOL    HW211820   3.365   6.127   0.393
 3641SOL     OW11821   3.492   1.370   4.569
 3641SOL    HW111822   3.583   1.335   4.593
 3641SOL    HW211823   3.454   1.315   4.494
 3642SOL     OW11824   4.638   0.887   5.715
 3642SOL    HW111825   4.652   0.790   5.697
 3642SOL    HW211826   4.680   0.941   5.643
 3643SOL     OW11827   2.943   5.580   4.759
 3643SOL    HW111828   3.040   5.557   4.769
 3643SOL    HW211829   2.910   5.545   4.671
 3644SOL     OW11830   6.623   2.568   1.043
 3644SOL    HW111831   6.523   2.571   1.051
 3644SOL    HW211832   6.659   2.495   1.102
 3645SOL     OW11833   5.061   1.695   3.732
 3645SOL    HW111834   5.094   1.613   3.686
 3645SOL    HW211835   4.967   1.714   3.703
 3646SOL     OW11836   0.292   4.968   5.457
 3646SOL    HW111837   0.343   4.980   5.372
 3646SOL    HW211838   0.267   5.058   5.493
 3647SOL     OW11839   1.028   3.098   0.211
 3647SOL    HW111840   0.940   3.144   0.224
 3647SOL    HW211841   1.013   3.001   0.191
 3648SOL     OW11842   4.307   5.432   2.342
 3648SOL    HW111843   4.403   5.449   2.319
 3648SOL    HW211844   4.300   5.349   2.396
 3649SOL     OW11845   4.525   3.882   0.667
 3649SOL    HW111846   4.574   3.795   0.671
 3649SOL    HW211847   4.433   3.870   0.705
 3650SOL     OW11848   6.729   6.411   1.137
 3650SOL    HW111849   6.654   6.451   1.084
 3650SOL    HW211850   6.742   6.316   1.110
 3651SOL     OW11851   0.982   6.002   2.430
 3651SOL    HW111852   1.010   5.949   2.510
 3651SOL    HW211853   1.041   5.979   2.352
 3652SOL     OW11854   4.824   6.488   3.590
 3652SOL    HW111855   4.744   6.479   3.531
 3652SOL    HW211856   4.869   6.575   3.572
 3653SOL     OW11857   5.884   1.084   3.099
 3653SOL    HW111858   5.823   1.131   3.035
 3653SOL    HW211859   5.921   1.151   3.164
 3654SOL     OW11860   2.536   6.648   0.537
 3654SOL    HW111861   2.477   6.729   0.541
 3654SOL    HW211862   2.515   6.587   0.613
 3655SOL     OW11863   1.685   0.076   4.409
 3655SOL    HW111864   1.783   0.096   4.404
 3655SOL    HW211865   1.633   0.158   4.385
 3656SOL     OW11866   2.086   2.334   2.134
 3656SOL    HW111867   1.991   2.314   2.161
 3656SOL    HW211868   2.105   2.289   2.046
 3657SOL     OW11869   3.962   6.041   6.621
 3657SOL    HW111870   3.941   6.048   6.718
 3657SOL    HW211871   4.015   5.959   6.603
 3658SOL     OW11872   1.025   5.621   5.042
 3658SOL    HW111873   0.932   5.600   5.012
 3658SOL    HW211874   1.041   5.584   5.134
 3659SOL     OW11875   3.128   4.617   0.184
 3659SOL    HW111876   3.105   4.578   0.095
 3659SOL    HW211877   3.226   4.640   0.186
 3660SOL     OW11878   4.518   6.249   2.111
 3660SOL    HW111879   4.569   6.335   2.108
 3660SOL    HW211880   4.562   6.182   2.051
 3661SOL     OW11881   5.131   2.127   0.408
 3661SOL    HW111882   5.071   2.078   0.472
 3661SOL    HW211883   5.216   2.151   0.454
 3662SOL     OW11884   3.679   6.981   5.097
 3662SOL    HW111885   3.753   7.005   5.160
 3662SOL    HW211886   3.609   6.929   5.146
 3663SOL     OW11887   1.476   1.649   0.669
 3663SOL    HW111888   1.398   1.607   0.623
 3663SOL    HW211889   1.540   1.579   0.698
 3664SOL     OW11890   4.907   1.592   0.234
 3664SOL    HW111891   5.000   1.628   0.244
 3664SOL    HW211892   4.876   1.605   0.140
 3665SOL     OW11893   0.846   6.478   5.195
 3665SOL    HW111894   0.853   6.573   5.224
 3665SOL    HW211895   0.827   6.419   5.274
 3666SOL     OW11896   1.567   4.691   3.938
 3666SOL    HW111897   1.512   4.608   3.935
 3666SOL    HW211898   1.607   4.708   3.848
 3667SOL     OW11899   6.042   0.870   6.667
 3667SOL    HW111900   6.012   0.799   6.603
 3667SOL    HW211901   6.042   0.832   6.760
 3668SOL     OW11902   1.115   6.948   2.912
 3668SOL    HW111903   1.061   6.883   2.965
 3668SOL    HW211904   1.113   0.013   2.956
 3669SOL     OW11905   6.019   1.713   4.357
 3669SOL    HW111906   6.045   1.645   4.426
 3669SOL    HW211907   6.058   1.687   4.269
 3670SOL     OW11908   2.557   5.117   0.145
 3670SOL    HW111909   2.489   5.091   0.213
 3670SOL    HW211910   2.616   5.039   0.124
 3671SOL     OW11911   6.570   0.433   3.084
 3671SOL    HW111912   6.472   0.413   3.082
 3671SOL    HW211913   6.589   0.502   3.153
 3672SOL     OW11914   6.138   1.733   0.271
 3672SOL    HW111915   6.191   1.789   0.208
 3672SOL    HW211916   6.042   1.732   0.242
 3673SOL     OW11917   3.790   0.980   6.176
 3673SOL    HW111918   3.852   1.043   6.128
 3673SOL    HW211919   3.842   0.927   6.243
 3674SOL     OW11920   0.503   6.461   6.894
 3674SOL    HW111921   0.564   6.452   6.815
 3674SOL    HW211922   0.546   6.419   6.974
 3675SOL     OW11923   1.638   2.773   5.452
 3675SOL    HW111924   1.542   2.778   5.426
 3675SOL    HW211925   1.646   2.756   5.551
 3676SOL     OW11926   3.932   5.322   3.912
 3676SOL    HW111927   3.969   5.412   3.933
 3676SOL    HW211928   3.900   5.279   3.996
 3677SOL     OW11929   0.532   6.519   3.221
 3677SOL    HW111930   0.528   6.574   3.305
 3677SOL    HW211931   0.619   6.535   3.175
 3678SOL     OW11932   1.252   2.434   3.866
 3678SOL    HW111933   1.192   2.473   3.796
 3678SOL    HW211934   1.330   2.495   3.880
 3679SOL     OW11935   0.130   1.021   2.701
 3679SOL    HW111936   0.033   1.037   2.722
 3679SOL    HW211937   0.167   0.954   2.766
 3680SOL     OW11938   6.074   2.488   3.887
 3680SOL    HW111939   6.119   2.412   3.841
 3680SOL    HW211940   6.001   2.524   3.829
 3681SOL     OW11941   1.110   0.883   5.892
 3681SOL    HW111942   1.013   0.882   5.916
 3681SOL    HW211943   1.162   0.830   5.960
 3682SOL     OW11944   6.495   1.797   5.527
 3682SOL    HW111945   6.511   1.878   5.470
 3682SOL    HW211946   6.422   1.816   5.592
 3683SOL     OW11947   6.255   6.698   4.532
 3683SOL    HW111948   6.221   6.628   4.595
 3683SOL    HW211949   6.353   6.711   4.547
 3684SOL     OW11950   2.054   2.767   1.717
 3684SOL    HW111951   2.101   2.749   1.630
 3684SOL    HW211952   2.043   2.681   1.767
 3685SOL     OW11953   6.254   5.763   6.353
 3685SOL    HW111954   6.342   5.728   6.321
 3685SOL    HW211955   6.218   5.829   6.287
 3686SOL     OW11956   6.460   4.704   2.459
 3686SOL    HW111957   6.429   4.785   2.508
 3686SOL    HW211958   6.548   4.674   2.497
 3687SOL     OW11959   3.089   6.306   6.670
 3687SOL    HW111960   3.037   6.227   6.637
 3687SOL    HW211961   3.174   6.313   6.618
 3688SOL     OW11962   0.808   3.496   6.990
 3688SOL    HW111963   0.727   3.443   6.964
 3688SOL    HW211964   0.832   3.474   0.060
 3689SOL     OW11965   1.010   0.681   5.236
 3689SOL    HW111966   1.076   0.740   5.283
 3689SOL    HW211967   1.058   0.616   5.178
 3690SOL     OW11968   4.340   0.884   6.096
 3690SOL    HW111969   4.316   0.893   5.999
 3690SOL    HW211970   4.361   0.788   6.115
 3691SOL     OW11971   2.675   3.283   6.479
 3691SOL    HW111972   2.626   3.361   6.442
 3691SOL    HW211973   2.627   3.249   6.560
 3692SOL     OW11974   0.815   5.846   4.497
 3692SOL    HW111975   0.717   5.835   4.481
 3692SOL    HW211976   0.854   5.904   4.425
 3693SOL     OW11977   1.830   2.285   3.200
 3693SOL    HW111978   1.800   2.346   3.274
 3693SOL    HW211979   1.751   2.241   3.159
 3694SOL     OW11980   1.000   5.526   3.672
 3694SOL    HW111981   1.089   5.500   3.635
 3694SOL    HW211982   1.012   5.576   3.757
 3695SOL     OW11983   0.817   2.349   2.788
 3695SOL    HW111984   0.769   2.271   2.828
 3695SOL    HW211985   0.914   2.346   2.814
 3696SOL     OW11986   4.646   5.958   5.648
 3696SOL    HW111987   4.666   5.910   5.733
 3696SOL    HW211988   4.658   6.057   5.662
 3697SOL     OW11989   6.965   6.806   3.312
 3697SOL    HW111990   0.001   6.885   3.301
 3697SOL    HW211991   7.019   6.722   3.311
 3698SOL     OW11992   3.826   0.254   5.480
 3698SOL    HW111993   3.752   0.233   5.417
 3698SOL    HW211994   3.892   0.315   5.436
 3699SOL     OW11995   0.100   3.921   2.729
 3699SOL    HW111996   0.032   3.869   2.676
 3699SOL    HW211997   0.096   3.892   2.825
 3700SOL     OW11998   6.041   0.033   4.210
 3700SOL    HW111999   6.141   0.035   4.208
 3700SOL    HW212000   6.006   0.123   4.238
 3701SOL     OW12001   0.450   0.928   4.403
 3701SOL    HW112002   0.439   0.830   4.385
 3701SOL    HW212003   0.360   0.971   4.406
 3702SOL     OW12004   4.284   0.046   1.719
 3702SOL    HW112005   4.293   6.971   1.719
 3702SOL    HW212006   4.281   0.080   1.813
 3703SOL     OW12007   4.184   3.734   5.860
 3703SOL    HW112008   4.260   3.683   5.820
 3703SOL    HW212009   4.192   3.830   5.833
 3704SOL     OW12010   2.734   0.937   2.213
 3704SOL    HW112011   2.763   0.928   2.117
 3704SOL    HW212012   2.801   0.892   2.272
 3705SOL     OW12013   4.393   0.228   3.965
 3705SOL    HW112014   4.430   0.232   3.872
 3705SOL    HW212015   4.348   0.139   3.979
 3706SOL     OW12016   1.813   2.964   4.594
 3706SOL    HW112017   1.896   2.934   4.641
 3706SOL    HW212018   1.807   3.064   4.597
 3707SOL     OW12019   5.190   2.806   5.588
 3707SOL    HW112020   5.104   2.758   5.574
 3707SOL    HW212021   5.179   2.902   5.564
 3708SOL     OW12022   6.222   0.677   6.481
 3708SOL    HW112023   6.180   0.765   6.502
 3708SOL    HW212024   6.164   0.627   6.416
 3709SOL     OW12025   3.382   1.077   5.578
 3709SOL    HW112026   3.303   1.114   5.530
 3709SOL    HW212027   3.464   1.127   5.551
 3710SOL     OW12028   6.741   5.871   6.751
 3710SOL    HW112029   6.681   5.815   6.693
 3710SOL    HW212030   6.713   5.967   6.744
 3711SOL     OW12031   0.458   5.771   2.891
 3711SOL    HW112032   0.372   5.724   2.869
 3711SOL    HW212033   0.439   5.861   2.930
 3712SOL     OW12034   6.964   6.544   6.599
 3712SOL    HW112035   6.885   6.598   6.628
 3712SOL    HW212036   6.945   6.447   6.610
 3713SOL     OW12037   2.054   5.989   4.982
 3713SOL    HW112038   2.118   5.935   5.036
 3713SOL    HW212039   2.104   6.052   4.923
 3714SOL     OW12040   4.926   6.518   4.421
 3714SOL    HW112041   4.912   6.574   4.339
 3714SOL    HW212042   4.873   6.556   4.497
 3715SOL     OW12043   5.976   4.594   4.737
 3715SOL    HW112044   5.883   4.560   4.722
 3715SOL    HW212045   5.973   4.691   4.761
 3716SOL     OW12046   6.488   0.297   4.420
 3716SOL    HW112047   6.568   0.268   4.472
 3716SOL    HW212048   6.491   0.257   4.328
 3717SOL     OW12049   6.178   5.957   0.809
 3717SOL    HW112050   6.266   5.998   0.787
 3717SOL    HW212051   6.168   5.950   0.908
 3718SOL     OW12052   1.202   6.556   6.556
 3718SOL    HW112053   1.263   6.556   6.634
 3718SOL    HW212054   1.152   6.469   6.553
 3719SOL     OW12055   4.987   5.014   0.801
 3719SOL    HW112056   4.891   5.010   0.773
 3719SOL    HW212057   5.004   4.943   0.870
 3720SOL     OW12058   6.413   1.949   6.265
 3720SOL    HW112059   6.390   1.867   6.316
 3720SOL    HW212060   6.424   1.927   6.168
 3721SOL     OW12061   5.648   4.920   6.837
 3721SOL    HW112062   5.568   4.954   6.788
 3721SOL    HW212063   5.671   4.983   6.911
 3722SOL     OW12064   6.615   5.875   2.521
 3722SOL    HW112065   6.688   5.864   2.454
 3722SOL    HW212066   6.597   5.787   2.566
 3723SOL     OW12067   5.663   6.741   1.968
 3723SOL    HW112068   5.643   6.719   1.872
 3723SOL    HW212069   5.740   6.804   1.972
 3724SOL     OW12070   1.765   4.896   6.823
 3724SOL    HW112071   1.680   4.944   6.801
 3724SOL    HW212072   1.793   4.919   6.916
 3725SOL     OW12073   6.585   6.361   6.784
 3725SOL    HW112074   6.552   6.307   6.861
 3725SOL    HW212075   6.600   6.301   6.705
 3726SOL     OW12076   6.538   3.996   1.881
 3726SOL    HW112077   6.612   3.984   1.816
 3726SOL    HW212078   6.569   4.053   1.957
 3727SOL     OW12079   0.566   3.432   5.619
 3727SOL    HW112080   0.566   3.336   5.646
 3727SOL    HW212081   0.540   3.440   5.522
 3728SOL     OW12082   2.232   3.427   0.724
 3728SOL    HW112083   2.174   3.353   0.759
 3728SOL    HW212084   2.221   3.434   0.625
 3729SOL     OW12085   0.889   2.009   2.831
 3729SOL    HW112086   0.799   2.051   2.817
 3729SOL    HW212087   0.920   2.028   2.924
 3730SOL     OW12088   2.554   0.578   0.349
 3730SOL    HW112089   2.484   0.571   0.420
 3730SOL    HW212090   2.510   0.592   0.261
 3731SOL     OW12091   5.281   1.892   0.505
 3731SOL    HW112092   5.181   1.891   0.512
 3731SOL    HW212093   5.316   1.982   0.531
 3732SOL     OW12094   2.335   3.399   5.754
 3732SOL    HW112095   2.328   3.498   5.742
 3732SOL    HW212096   2.250   3.356   5.726
 3733SOL     OW12097   2.515   4.142   1.708
 3733SOL    HW112098   2.605   4.102   1.691
 3733SOL    HW212099   2.447   4.069   1.711
 3734SOL     OW12100   4.756   1.315   2.215
 3734SOL    HW112101   4.663   1.325   2.179
 3734SOL    HW212102   4.817   1.286   2.141
 3735SOL     OW12103   1.463   2.413   2.499
 3735SOL    HW112104   1.371   2.387   2.528
 3735SOL    HW212105   1.501   2.479   2.564
 3736SOL     OW12106   0.445   2.887   0.960
 3736SOL    HW112107   0.457   2.971   0.907
 3736SOL    HW212108   0.348   2.863   0.963
 3737SOL     OW12109   5.015   0.268   3.489
 3737SOL    HW112110   5.056   0.357   3.471
 3737SOL    HW212111   5.074   0.216   3.551
 3738SOL     OW12112   6.270   5.779   2.947
 3738SOL    HW112113   6.200   5.790   3.017
 3738SOL    HW212114   6.281   5.865   2.897
 3739SOL     OW12115   1.693   4.008   2.564
 3739SOL    HW112116   1.666   4.104   2.561
 3739SOL    HW212117   1.787   3.998   2.532
 3740SOL     OW12118   4.357   1.011   6.441
 3740SOL    HW112119   4.373   0.912   6.440
 3740SOL    HW212120   4.261   1.029   6.420
 3741SOL     OW12121   4.372   3.681   0.891
 3741SOL    HW112122   4.332   3.613   0.829
 3741SOL    HW212123   4.309   3.758   0.900
 3742SOL     OW12124   2.919   2.194   5.956
 3742SOL    HW112125   2.846   2.260   5.972
 3742SOL    HW212126   3.007   2.235   5.979
 3743SOL     OW12127   6.205   5.066   0.328
 3743SOL    HW112128   6.125   5.026   0.283
 3743SOL    HW212129   6.253   4.994   0.379
 3744SOL     OW12130   0.771   5.094   4.291
 3744SOL    HW112131   0.787   5.147   4.208
 3744SOL    HW212132   0.778   4.996   4.271
 3745SOL     OW12133   3.719   5.154   2.702
 3745SOL    HW112134   3.740   5.195   2.790
 3745SOL    HW212135   3.628   5.184   2.671
 3746SOL     OW12136   4.500   1.491   1.288
 3746SOL    HW112137   4.474   1.563   1.353
 3746SOL    HW212138   4.595   1.504   1.260
 3747SOL     OW12139   3.205   6.547   6.464
 3747SOL    HW112140   3.190   6.471   6.401
 3747SOL    HW212141   3.138   6.619   6.447
 3748SOL     OW12142   5.734   1.320   1.398
 3748SOL    HW112143   5.722   1.389   1.469
 3748SOL    HW212144   5.775   1.238   1.438
 3749SOL     OW12145   1.993   6.789   4.491
 3749SOL    HW112146   2.010   6.816   4.396
 3749SOL    HW212147   1.896   6.765   4.502
 3750SOL     OW12148   1.032   4.021   0.120
 3750SOL    HW112149   1.108   4.079   0.147
 3750SOL    HW212150   1.009   3.960   0.196
 3751SOL     OW12151   0.357   3.872   3.012
 3751SOL    HW112152   0.407   3.958   3.025
 3751SOL    HW212153   0.410   3.796   3.049
 3752SOL     OW12154   5.435   0.859   5.611
 3752SOL    HW112155   5.535   0.857   5.602
 3752SOL    HW212156   5.406   0.793   5.680
 3753SOL     OW12157   6.556   1.032   4.584
 3753SOL    HW112158   6.459   1.028   4.604
 3753SOL    HW212159   6.569   1.040   4.485
 3754SOL     OW12160   2.283   1.110   2.139
 3754SOL    HW112161   2.348   1.109   2.063
 3754SOL    HW212162   2.210   1.175   2.119
 3755SOL     OW12163   3.168   4.891   4.541
 3755SOL    HW112164   3.070   4.892   4.560
 3755SOL    HW212165   3.182   4.872   4.443
 3756SOL     OW12166   2.567   5.975   0.571
 3756SOL    HW112167   2.533   6.027   0.493
 3756SOL    HW212168   2.500   5.904   0.595
 3757SOL     OW12169   6.458   4.649   2.011
 3757SOL    HW112170   6.426   4.671   1.919
 3757SOL    HW212171   6.381   4.649   2.074
 3758SOL     OW12172   1.914   0.848   3.893
 3758SOL    HW112173   1.841   0.787   3.926
 3758SOL    HW212174   2.002   0.819   3.931
 3759SOL     OW12175   5.376   1.105   4.126
 3759SOL    HW112176   5.315   1.167   4.176
 3759SOL    HW212177   5.463   1.098   4.175
 3760SOL     OW12178   6.904   0.484   4.104
 3760SOL    HW112179   6.969   0.420   4.063
 3760SOL    HW212180   6.951   0.570   4.126
 3761SOL     OW12181   5.337   1.388   4.668
 3761SOL    HW112182   5.348   1.455   4.595
 3761SOL    HW212183   5.317   1.434   4.754
 3762SOL     OW12184   1.397   4.347   2.435
 3762SOL    HW112185   1.328   4.275   2.436
 3762SOL    HW212186   1.488   4.307   2.444
 3763SOL     OW12187   0.050   4.094   0.535
 3763SOL    HW112188   7.017   4.074   0.615
 3763SOL    HW212189   7.018   4.093   0.453
 3764SOL     OW12190   1.900   6.942   3.465
 3764SOL    HW112191   1.851   6.890   3.536
 3764SOL    HW212192   1.889   6.897   3.377
 3765SOL     OW12193   6.360   1.811   1.248
 3765SOL    HW112194   6.303   1.766   1.180
 3765SOL    HW212195   6.455   1.813   1.216
 3766SOL     OW12196   1.977   2.814   3.574
 3766SOL    HW112197   1.926   2.734   3.541
 3766SOL    HW212198   1.929   2.898   3.547
 3767SOL     OW12199   3.176   4.567   5.913
 3767SOL    HW112200   3.256   4.580   5.854
 3767SOL    HW212201   3.097   4.541   5.857
 3768SOL     OW12202   1.408   0.832   4.623
 3768SOL    HW112203   1.310   0.817   4.616
 3768SOL    HW212204   1.426   0.907   4.686
 3769SOL     OW12205   5.216   5.808   4.508
 3769SOL    HW112206   5.217   5.806   4.608
 3769SOL    HW212207   5.248   5.720   4.472
 3770SOL     OW12208   1.327   1.481   0.895
 3770SOL    HW112209   1.400   1.518   0.838
 3770SOL    HW212210   1.299   1.549   0.963
 3771SOL     OW12211   6.632   5.322   0.609
 3771SOL    HW112212   6.716   5.278   0.579
 3771SOL    HW212213   6.588   5.367   0.531
 3772SOL     OW12214   1.072   6.182   0.879
 3772SOL    HW112215   1.128   6.128   0.817
 3772SOL    HW212216   1.015   6.122   0.935
 3773SOL     OW12217   5.449   3.522   6.162
 3773SOL    HW112218   5.523   3.493   6.101
 3773SOL    HW212219   5.431   3.449   6.228
 3774SOL     OW12220   5.444   5.767   1.416
 3774SOL    HW112221   5.378   5.819   1.362
 3774SOL    HW212222   5.463   5.815   1.501
 3775SOL     OW12223   4.073   4.852   3.345
 3775SOL    HW112224   3.976   4.842   3.370
 3775SOL    HW212225   4.081   4.860   3.246
 3776SOL     OW12226   3.624   2.745   6.219
 3776SOL    HW112227   3.634   2.686   6.299
 3776SOL    HW212228   3.713   2.783   6.194
 3777SOL     OW12229   2.824   6.502   4.406
 3777SOL    HW112230   2.878   6.442   4.347
 3777SOL    HW212231   2.730   6.467   4.412
 3778SOL     OW12232   2.743   6.068   5.161
 3778SOL    HW112233   2.775   6.013   5.085
 3778SOL    HW212234   2.646   6.051   5.176
 3779SOL     OW12235   6.741   5.374   0.297
 3779SOL    HW112236   6.759   5.456   0.242
 3779SOL    HW212237   6.822   5.353   0.352
 3780SOL     OW12238   0.078   2.388   1.856
 3780SOL    HW112239   0.059   2.443   1.774
 3780SOL    HW212240   0.035   2.298   1.846
 3781SOL     OW12241   1.909   6.730   5.182
 3781SOL    HW112242   1.857   6.650   5.209
 3781SOL    HW212243   1.912   6.796   5.258
 3782SOL     OW12244   4.418   6.244   1.534
 3782SOL    HW112245   4.513   6.243   1.504
 3782SOL    HW212246   4.414   6.222   1.632
 3783SOL     OW12247   5.525   5.219   5.759
 3783SOL    HW112248   5.538   5.134   5.811
 3783SOL    HW212249   5.614   5.252   5.726
 3784SOL     OW12250   5.199   2.727   2.812
 3784SOL    HW112251   5.272   2.730   2.743
 3784SOL    HW212252   5.143   2.645   2.797
 3785SOL     OW12253   0.756   2.945   4.198
 3785SOL    HW112254   0.673   2.963   4.145
 3785SOL    HW212255   0.749   2.990   4.287
 3786SOL     OW12256   2.779   2.260   4.356
 3786SOL    HW112257   2.702   2.204   4.323
 3786SOL    HW212258   2.749   2.354   4.368
 3787SOL     OW12259   4.157   0.334   2.962
 3787SOL    HW112260   4.240   0.389   2.972
 3787SOL    HW212261   4.077   0.395   2.961
 3788SOL     OW12262   0.575   3.603   5.064
 3788SOL    HW112263   0.537   3.627   4.974
 3788SOL    HW212264   0.509   3.627   5.135
 3789SOL     OW12265   1.253   2.282   3.079
 3789SOL    HW112266   1.254   2.347   3.155
 3789SOL    HW212267   1.178   2.217   3.093
 3790SOL     OW12268   0.746   5.951   0.397
 3790SOL    HW112269   0.783   5.858   0.392
 3790SOL    HW212270   0.819   6.014   0.424
 3791SOL     OW12271   5.667   1.114   5.834
 3791SOL    HW112272   5.668   1.037   5.770
 3791SOL    HW212273   5.579   1.161   5.829
 3792SOL     OW12274   0.680   0.711   4.318
 3792SOL    HW112275   0.670   0.785   4.251
 3792SOL    HW212276   0.660   0.623   4.273
 3793SOL     OW12277   6.301   6.202   0.414
 3793SOL    HW112278   6.294   6.261   0.494
 3793SOL    HW212279   6.324   6.109   0.443
 3794SOL     OW12280   1.986   4.129   0.817
 3794SOL    HW112281   2.008   4.147   0.913
 3794SOL    HW212282   2.050   4.178   0.758
 3795SOL     OW12283   3.008   5.908   1.123
 3795SOL    HW112284   2.994   5.983   1.188
 3795SOL    HW212285   2.972   5.823   1.161
 3796SOL     OW12286   4.109   1.851   1.134
 3796SOL    HW112287   4.116   1.937   1.084
 3796SOL    HW212288   4.197   1.803   1.129
 3797SOL     OW12289   0.901   4.285   2.802
 3797SOL    HW112290   0.890   4.186   2.813
 3797SOL    HW212291   0.813   4.330   2.817
 3798SOL     OW12292   2.595   6.780   3.218
 3798SOL    HW112293   2.694   6.784   3.210
 3798SOL    HW212294   2.553   6.808   3.131
 3799SOL     OW12295   6.836   2.470   3.261
 3799SOL    HW112296   6.832   2.395   3.327
 3799SOL    HW212297   6.857   2.433   3.170
 3800SOL     OW12298   5.731   1.705   3.346
 3800SOL    HW112299   5.645   1.736   3.388
 3800SOL    HW212300   5.748   1.757   3.262
 3801SOL     OW12301   5.519   6.754   2.563
 3801SOL    HW112302   5.539   6.670   2.514
 3801SOL    HW212303   5.448   6.737   2.631
 3802SOL     OW12304   6.878   1.763   2.228
 3802SOL    HW112305   6.796   1.812   2.197
 3802SOL    HW212306   6.952   1.777   2.162
 3803SOL     OW12307   2.905   3.703   3.995
 3803SOL    HW112308   2.954   3.636   3.939
 3803SOL    HW212309   2.958   3.788   3.999
 3804SOL     OW12310   3.608   0.204   4.867
 3804SOL    HW112311   3.578   0.132   4.929
 3804SOL    HW212312   3.564   0.290   4.893
 3805SOL     OW12313   2.157   3.048   0.374
 3805SOL    HW112314   2.116   2.986   0.307
 3805SOL    HW212315   2.222   2.997   0.431
 3806SOL     OW12316   4.355   4.557   6.809
 3806SOL    HW112317   4.317   4.468   6.836
 3806SOL    HW212318   4.454   4.557   6.824
 3807SOL     OW12319   1.660   5.131   3.985
 3807SOL    HW112320   1.691   5.160   4.076
 3807SOL    HW212321   1.606   5.204   3.943
 3808SOL     OW12322   4.676   0.437   6.118
 3808SOL    HW112323   4.773   0.451   6.139
 3808SOL    HW212324   4.667   0.382   6.035
 3809SOL     OW12325   5.548   2.133   1.011
 3809SOL    HW112326   5.636   2.160   1.051
 3809SOL    HW212327   5.474   2.163   1.072
 3810SOL     OW12328   6.552   2.355   2.978
 3810SOL    HW112329   6.537   2.426   3.047
 3810SOL    HW212330   6.604   2.393   2.902
 3811SOL     OW12331   0.124   4.947   4.734
 3811SOL    HW112332   0.035   4.912   4.704
 3811SOL    HW212333   0.166   4.999   4.660
 3812SOL     OW12334   3.876   6.025   6.886
 3812SOL    HW112335   3.788   5.982   6.907
 3812SOL    HW212336   3.911   6.073   6.966
 3813SOL     OW12337   6.210   3.573   1.244
 3813SOL    HW112338   6.177   3.653   1.195
 3813SOL    HW212339   6.242   3.600   1.335
 3814SOL     OW12340   6.946   6.821   4.360
 3814SOL    HW112341   6.977   6.769   4.280
 3814SOL    HW212342   7.023   6.836   4.422
 3815SOL     OW12343   5.184   3.109   0.577
 3815SOL    HW112344   5.272   3.156   0.578
 3815SOL    HW212345   5.169   3.064   0.665
 3816SOL     OW12346   1.206   6.536   5.309
 3816SOL    HW112347   1.279   6.548   5.242
 3816SOL    HW212348   1.166   6.445   5.300
 3817SOL     OW12349   4.864   3.870   2.687
 3817SOL    HW112350   4.774   3.904   2.715
 3817SOL    HW212351   4.926   3.948   2.672
 3818SOL     OW12352   0.471   0.335   1.460
 3818SOL    HW112353   0.458   0.432   1.440
 3818SOL    HW212354   0.568   0.312   1.455
 3819SOL     OW12355   6.729   4.714   3.244
 3819SOL    HW112356   6.807   4.691   3.302
 3819SOL    HW212357   6.707   4.637   3.185
 3820SOL     OW12358   5.342   6.759   4.099
 3820SOL    HW112359   5.394   6.692   4.152
 3820SOL    HW212360   5.283   6.811   4.160
 3821SOL     OW12361   0.585   6.839   6.781
 3821SOL    HW112362   0.564   6.779   6.859
 3821SOL    HW212363   0.536   6.925   6.793
 3822SOL     OW12364   3.508   0.547   0.227
 3822SOL    HW112365   3.518   0.447   0.231
 3822SOL    HW212366   3.550   0.582   0.144
 3823SOL     OW12367   4.968   4.626   6.017
 3823SOL    HW112368   5.060   4.610   6.052
 3823SOL    HW212369   4.901   4.580   6.075
 3824SOL     OW12370   1.178   3.040   0.454
 3824SOL    HW112371   1.234   2.957   0.447
 3824SOL    HW212372   1.145   3.066   0.363
 3825SOL     OW12373   0.839   4.285   0.766
 3825SOL    HW112374   0.791   4.367   0.799
 3825SOL    HW212375   0.906   4.312   0.697
 3826SOL     OW12376   6.418   4.386   2.668
 3826SOL    HW112377   6.448   4.470   2.714
 3826SOL    HW212378   6.495   4.323   2.661
 3827SOL     OW12379   0.822   0.898   1.117
 3827SOL    HW112380   0.876   0.835   1.173
 3827SOL    HW212381   0.817   0.987   1.163
 3828SOL     OW12382   3.709   4.153   4.501
 3828SOL    HW112383   3.701   4.251   4.486
 3828SOL    HW212384   3.759   4.136   4.586
 3829SOL     OW12385   0.703   5.257   2.294
 3829SOL    HW112386   0.722   5.253   2.196
 3829SOL    HW212387   0.741   5.176   2.338
 3830SOL     OW12388   0.419   0.398   5.153
 3830SOL    HW112389   0.490   0.465   5.132
 3830SOL    HW212390   0.372   0.425   5.237
 3831SOL     OW12391   4.166   1.783   3.243
 3831SOL    HW112392   4.138   1.878   3.237
 3831SOL    HW212393   4.249   1.768   3.188
 3832SOL     OW12394   0.689   6.985   1.754
 3832SOL    HW112395   0.722   6.970   1.661
 3832SOL    HW212396   0.602   0.009   1.751
 3833SOL     OW12397   1.377   6.959   6.323
 3833SOL    HW112398   1.354   6.864   6.300
 3833SOL    HW212399   1.332   6.985   6.409
 3834SOL     OW12400   4.297   4.422   1.274
 3834SOL    HW112401   4.248   4.435   1.188
 3834SOL    HW212402   4.241   4.454   1.350
 3835SOL     OW12403   3.845   5.804   5.339
 3835SOL    HW112404   3.747   5.805   5.320
 3835SOL    HW212405   3.876   5.709   5.349
 3836SOL     OW12406   0.477   4.914   6.273
 3836SOL    HW112407   0.493   4.992   6.212
 3836SOL    HW212408   0.409   4.939   6.342
 3837SOL     OW12409   3.800   5.147   5.254
 3837SOL    HW112410   3.775   5.232   5.208
 3837SOL    HW212411   3.752   5.141   5.341
 3838SOL     OW12412   1.839   1.234   3.682
 3838SOL    HW112413   1.936   1.213   3.673
 3838SOL    HW212414   1.789   1.195   3.604
 3839SOL     OW12415   4.597   0.251   3.120
 3839SOL    HW112416   4.578   0.263   3.218
 3839SOL    HW212417   4.685   0.204   3.109
 3840SOL     OW12418   2.387   0.898   6.193
 3840SOL    HW112419   2.438   0.892   6.107
 3840SOL    HW212420   2.301   0.848   6.184
 3841SOL     OW12421   0.353   4.499   4.076
 3841SOL    HW112422   0.300   4.504   4.161
 3841SOL    HW212423   0.291   4.491   3.998
 3842SOL     OW12424   2.473   2.697   4.456
 3842SOL    HW112425   2.416   2.651   4.524
 3842SOL    HW212426   2.445   2.792   4.448
 3843SOL     OW12427   5.254   3.292   1.327
 3843SOL    HW112428   5.337   3.241   1.305
 3843SOL    HW212429   5.203   3.309   1.242
 3844SOL     OW12430   1.303   4.962   0.169
 3844SOL    HW112431   1.238   4.958   0.093
 3844SOL    HW212432   1.395   4.940   0.134
 3845SOL     OW12433   2.116   6.361   7.017
 3845SOL    HW112434   2.180   6.355   0.069
 3845SOL    HW212435   2.080   6.269   6.997
 3846SOL     OW12436   0.341   2.953   4.274
 3846SOL    HW112437   0.346   2.857   4.246
 3846SOL    HW212438   0.250   2.972   4.309
 3847SOL     OW12439   5.386   1.880   4.601
 3847SOL    HW112440   5.324   1.958   4.602
 3847SOL    HW212441   5.363   1.817   4.676
 3848SOL     OW12442   4.656   2.681   2.828
 3848SOL    HW112443   4.635   2.603   2.887
 3848SOL    HW212444   4.578   2.700   2.769
 3849SOL     OW12445   0.590   6.683   6.513
 3849SOL    HW112446   0.586   6.745   6.591
 3849SOL    HW212447   0.538   6.722   6.437
 3850SOL     OW12448   2.905   3.118   1.326
 3850SOL    HW112449   2.919   3.029   1.369
 3850SOL    HW212450   2.933   3.191   1.388
 3851SOL     OW12451   6.870   4.721   3.826
 3851SOL    HW112452   6.964   4.744   3.848
 3851SOL    HW212453   6.817   4.805   3.812
 3852SOL     OW12454   3.566   0.100   4.158
 3852SOL    HW112455   3.529   0.181   4.111
 3852SOL    HW212456   3.644   0.127   4.214
 3853SOL     OW12457   2.042   1.602   3.657
 3853SOL    HW112458   1.958   1.548   3.653
 3853SOL    HW212459   2.038   1.664   3.736
 3854SOL     OW12460   1.437   3.161   2.915
 3854SOL    HW112461   1.529   3.190   2.888
 3854SOL    HW212462   1.402   3.096   2.848
 3855SOL     OW12463   4.072   6.357   0.680
 3855SOL    HW112464   4.084   6.444   0.631
 3855SOL    HW212465   4.050   6.285   0.615
 3856SOL     OW12466   1.095   1.984   6.337
 3856SOL    HW112467   1.084   1.889   6.365
 3856SOL    HW212468   1.042   2.043   6.397
 3857SOL     OW12469   1.964   6.444   5.490
 3857SOL    HW112470   1.947   6.462   5.587
 3857SOL    HW212471   2.027   6.366   5.482
 3858SOL     OW12472   3.446   1.494   5.899
 3858SOL    HW112473   3.369   1.490   5.962
 3858SOL    HW212474   3.523   1.539   5.944
 3859SOL     OW12475   5.912   1.079   1.040
 3859SOL    HW112476   5.977   1.095   0.966
 3859SOL    HW212477   5.951   1.111   1.126
 3860SOL     OW12478   1.944   0.616   4.460
 3860SOL    HW112479   2.027   0.561   4.453
 3860SOL    HW212480   1.938   0.678   4.382
 3861SOL     OW12481   4.415   6.043   2.501
 3861SOL    HW112482   4.496   5.990   2.478
 3861SOL    HW212483   4.421   6.134   2.460
 3862SOL     OW12484   0.670   0.470   4.219
 3862SOL    HW112485   0.575   0.479   4.191
 3862SOL    HW212486   0.722   0.422   4.149
 3863SOL     OW12487   5.555   1.055   0.301
 3863SOL    HW112488   5.531   1.009   0.216
 3863SOL    HW212489   5.480   1.116   0.327
 3864SOL     OW12490   2.644   0.466   4.746
 3864SOL    HW112491   2.593   0.521   4.812
 3864SOL    HW212492   2.675   0.524   4.671
 3865SOL     OW12493   4.513   1.208   0.674
 3865SOL    HW112494   4.466   1.218   0.586
 3865SOL    HW212495   4.445   1.201   0.747
 3866SOL     OW12496   3.863   1.249   0.044
 3866SOL    HW112497   3.906   1.159   0.051
 3866SOL    HW212498   3.766   1.238   0.021
 3867SOL     OW12499   1.381   4.378   3.188
 3867SOL    HW112500   1.476   4.350   3.199
 3867SOL    HW212501   1.375   4.452   3.122
 3868SOL     OW12502   4.046   0.312   6.815
 3868SOL    HW112503   4.061   0.214   6.804
 3868SOL    HW212504   3.972   0.341   6.755
 3869SOL     OW12505   6.448   2.959   3.847
 3869SOL    HW112506   6.449   2.904   3.764
 3869SOL    HW212507   6.360   3.005   3.857
 3870SOL     OW12508   6.826   6.652   2.186
 3870SOL    HW112509   6.733   6.664   2.153
 3870SOL    HW212510   6.825   6.618   2.280
 3871SOL     OW12511   3.557   6.924   3.528
 3871SOL    HW112512   3.573   6.960   3.620
 3871SOL    HW212513   3.458   6.917   3.512
 3872SOL     OW12514   3.372   2.895   3.972
 3872SOL    HW112515   3.410   2.929   4.058
 3872SOL    HW212516   3.440   2.840   3.924
 3873SOL     OW12517   5.058   3.832   1.158
 3873SOL    HW112518   5.118   3.759   1.125
 3873SOL    HW212519   5.000   3.798   1.232
 3874SOL     OW12520   4.297   0.639   0.655
 3874SOL    HW112521   4.200   0.617   0.649
 3874SOL    HW212522   4.344   0.605   0.573
 3875SOL     OW12523   1.665   3.351   3.878
 3875SOL    HW112524   1.643   3.347   3.780
 3875SOL    HW212525   1.724   3.431   3.895
 3876SOL     OW12526   3.251   5.383   1.035
 3876SOL    HW112527   3.170   5.440   1.047
 3876SOL    HW212528   3.242   5.327   0.953
 3877SOL     OW12529   6.663   2.492   0.773
 3877SOL    HW112530   6.638   2.506   0.869
 3877SOL    HW212531   6.761   2.507   0.762
 3878SOL     OW12532   4.765   6.363   4.621
 3878SOL    HW112533   4.826   6.421   4.675
 3878SOL    HW212534   4.762   6.272   4.660
 3879SOL     OW12535   6.043   5.306   0.573
 3879SOL    HW112536   5.997   5.379   0.522
 3879SOL    HW212537   6.139   5.330   0.587
 3880SOL     OW12538   4.866   3.877   4.542
 3880SOL    HW112539   4.963   3.873   4.518
 3880SOL    HW212540   4.820   3.947   4.487
 3881SOL     OW12541   1.814   3.703   1.611
 3881SOL    HW112542   1.854   3.619   1.647
 3881SOL    HW212543   1.814   3.774   1.682
 3882SOL     OW12544   1.048   1.393   0.307
 3882SOL    HW112545   1.085   1.452   0.235
 3882SOL    HW212546   1.122   1.338   0.346
 3883SOL     OW12547   4.538   1.035   2.484
 3883SOL    HW112548   4.599   1.049   2.562
 3883SOL    HW212549   4.477   1.113   2.475
 3884SOL     OW12550   0.651   5.452   2.480
 3884SOL    HW112551   0.690   5.386   2.417
 3884SOL    HW212552   0.723   5.513   2.514
 3885SOL     OW12553   6.231   6.001   3.591
 3885SOL    HW112554   6.268   5.911   3.616
 3885SOL    HW212555   6.133   6.003   3.609
 3886SOL     OW12556   4.456   5.545   5.245
 3886SOL    HW112557   4.363   5.544   5.283
 3886SOL    HW212558   4.450   5.555   5.145
 3887SOL     OW12559   0.926   0.002   0.117
 3887SOL    HW112560   0.929   0.028   0.021
 3887SOL    HW212561   0.939   6.927   0.125
 3888SOL     OW12562   6.566   6.720   5.123
 3888SOL    HW112563   6.565   6.728   5.023
 3888SOL    HW212564   6.660   6.708   5.155
 3889SOL     OW12565   6.912   2.561   0.259
 3889SOL    HW112566   6.898   2.654   0.224
 3889SOL    HW212567   6.984   2.564   0.329
 3890SOL     OW12568   6.085   5.000   3.500
 3890SOL    HW112569   6.094   4.967   3.594
 3890SOL    HW212570   5.996   4.973   3.463
 3891SOL     OW12571   4.908   3.871   3.950
 3891SOL    HW112572   4.894   3.794   3.887
 3891SOL    HW212573   4.936   3.951   3.898
 3892SOL     OW12574   1.101   2.961   1.084
 3892SOL    HW112575   1.078   2.866   1.103
 3892SOL    HW212576   1.154   2.966   0.999
 3893SOL     OW12577   4.134   3.958   0.594
 3893SOL    HW112578   4.188   4.025   0.543
 3893SOL    HW212579   4.037   3.975   0.579
 3894SOL     OW12580   4.890   0.820   6.713
 3894SOL    HW112581   4.933   0.895   6.663
 3894SOL    HW212582   4.853   0.753   6.648
 3895SOL     OW12583   0.889   0.049   5.501
 3895SOL    HW112584   0.921   0.144   5.491
 3895SOL    HW212585   0.961   7.011   5.470
 3896SOL     OW12586   1.012   1.340   6.435
 3896SOL    HW112587   1.030   1.243   6.449
 3896SOL    HW212588   0.972   1.380   6.517
 3897SOL     OW12589   4.262   5.859   2.608
 3897SOL    HW112590   4.182   5.896   2.561
 3897SOL    HW212591   4.344   5.906   2.577
 3898SOL     OW12592   2.802   2.252   6.844
 3898SOL    HW112593   2.752   2.227   6.927
 3898SOL    HW212594   2.738   2.277   6.772
 3899SOL     OW12595   4.495   6.655   6.031
 3899SOL    HW112596   4.421   6.713   6.065
 3899SOL    HW212597   4.478   6.560   6.057
 3900SOL     OW12598   4.583   2.674   3.877
 3900SOL    HW112599   4.588   2.743   3.949
 3900SOL    HW212600   4.619   2.711   3.792
 3901SOL     OW12601   3.231   0.790   6.116
 3901SOL    HW112602   3.287   0.873   6.112
 3901SOL    HW212603   3.260   0.727   6.045
 3902SOL     OW12604   6.422   2.885   2.453
 3902SOL    HW112605   6.440   2.949   2.378
 3902SOL    HW212606   6.350   2.923   2.512
 3903SOL     OW12607   3.768   6.853   0.313
 3903SOL    HW112608   3.772   6.769   0.366
 3903SOL    HW212609   3.778   6.932   0.374
 3904SOL     OW12610   2.110   0.835   6.149
 3904SOL    HW112611   2.060   0.777   6.213
 3904SOL    HW212612   2.114   0.929   6.185
 3905SOL     OW12613   6.473   6.516   5.965
 3905SOL    HW112614   6.411   6.593   5.982
 3905SOL    HW212615   6.509   6.523   5.872
 3906SOL     OW12616   5.917   6.389   5.214
 3906SOL    HW112617   5.858   6.466   5.191
 3906SOL    HW212618   5.869   6.328   5.277
 3907SOL     OW12619   6.096   0.821   4.078
 3907SOL    HW112620   6.102   0.729   4.118
 3907SOL    HW212621   6.151   0.884   4.133
 3908SOL     OW12622   0.465   2.553   6.582
 3908SOL    HW112623   0.451   2.495   6.662
 3908SOL    HW212624   0.382   2.553   6.526
 3909SOL     OW12625   6.102   6.053   4.860
 3909SOL    HW112626   6.068   6.142   4.891
 3909SOL    HW212627   6.166   6.017   4.928
 3910SOL     OW12628   3.528   3.783   2.674
 3910SOL    HW112629   3.530   3.757   2.770
 3910SOL    HW212630   3.437   3.764   2.636
 3911SOL     OW12631   5.712   1.692   5.602
 3911SOL    HW112632   5.724   1.685   5.503
 3911SOL    HW212633   5.638   1.633   5.631
 3912SOL     OW12634   5.321   0.703   5.114
 3912SOL    HW112635   5.318   0.749   5.026
 3912SOL    HW212636   5.416   0.678   5.135
 3913SOL     OW12637   2.234   6.594   5.803
 3913SOL    HW112638   2.301   6.624   5.871
 3913SOL    HW212639   2.176   6.672   5.776
 3914SOL     OW12640   2.784   0.640   1.660
 3914SOL    HW112641   2.878   0.651   1.627
 3914SOL    HW212642   2.735   0.578   1.598
 3915SOL     OW12643   5.163   6.055   0.842
 3915SOL    HW112644   5.158   6.128   0.774
 3915SOL    HW212645   5.072   6.036   0.877
 3916SOL     OW12646   1.253   0.066   3.968
 3916SOL    HW112647   1.156   0.057   3.944
 3916SOL    HW212648   1.301   0.114   3.895
 3917SOL     OW12649   6.512   6.083   6.857
 3917SOL    HW112650   6.513   6.007   6.922
 3917SOL    HW212651   6.434   6.073   6.795
 3918SOL     OW12652   5.667   5.310   1.333
 3918SOL    HW112653   5.658   5.368   1.251
 3918SOL    HW212654   5.733   5.352   1.395
 3919SOL     OW12655   4.126   6.739   0.249
 3919SOL    HW112656   4.220   6.741   0.215
 3919SOL    HW212657   4.086   6.830   0.239
 3920SOL     OW12658   3.278   3.490   0.730
 3920SOL    HW112659   3.230   3.548   0.797
 3920SOL    HW212660   3.293   3.542   0.646
 3921SOL     OW12661   0.084   3.347   1.852
 3921SOL    HW112662   0.106   3.412   1.779
 3921SOL    HW212663   0.122   3.257   1.828
 3922SOL     OW12664   6.763   3.765   2.322
 3922SOL    HW112665   6.770   3.681   2.269
 3922SOL    HW212666   6.675   3.809   2.303
 3923SOL     OW12667   0.288   1.315   0.460
 3923SOL    HW112668   0.376   1.361   0.473
 3923SOL    HW212669   0.217   1.383   0.443
 3924SOL     OW12670   5.915   4.883   3.815
 3924SOL    HW112671   5.932   4.792   3.780
 3924SOL    HW212672   5.822   4.912   3.789
 3925SOL     OW12673   2.338   5.484   1.157
 3925SOL    HW112674   2.363   5.559   1.218
 3925SOL    HW212675   2.378   5.500   1.067
 3926SOL     OW12676   6.186   4.876   2.600
 3926SOL    HW112677   6.170   4.843   2.507
 3926SOL    HW212678   6.154   4.971   2.607
 3927SOL     OW12679   6.197   2.467   5.001
 3927SOL    HW112680   6.130   2.407   5.045
 3927SOL    HW212681   6.215   2.546   5.060
 3928SOL     OW12682   4.041   6.007   6.286
 3928SOL    HW112683   3.995   5.922   6.310
 3928SOL    HW212684   4.099   6.036   6.362
 3929SOL     OW12685   0.507   0.461   4.841
 3929SOL    HW112686   0.565   0.392   4.883
 3929SOL    HW212687   0.446   0.417   4.774
 3930SOL     OW12688   2.990   2.036   3.936
 3930SOL    HW112689   2.984   2.083   4.024
 3930SOL    HW212690   3.028   2.098   3.868
 3931SOL     OW12691   1.398   1.157   1.117
 3931SOL    HW112692   1.339   1.185   1.041
 3931SOL    HW212693   1.362   1.073   1.158
 3932SOL     OW12694   1.879   3.951   3.841
 3932SOL    HW112695   1.825   3.871   3.868
 3932SOL    HW212696   1.959   3.922   3.789
 3933SOL     OW12697   1.673   5.932   6.949
 3933SOL    HW112698   1.715   5.995   6.884
 3933SOL    HW212699   1.706   5.953   0.017
 3934SOL     OW12700   0.334   1.008   6.739
 3934SOL    HW112701   0.298   1.101   6.735
 3934SOL    HW212702   0.258   0.944   6.747
 3935SOL     OW12703   2.875   6.897   6.882
 3935SOL    HW112704   2.804   6.826   6.889
 3935SOL    HW212705   2.898   6.910   6.786
 3936SOL     OW12706   6.931   5.288   5.553
 3936SOL    HW112707   6.928   5.369   5.611
 3936SOL    HW212708   6.986   5.217   5.596
 3937SOL     OW12709   0.033   1.656   3.308
 3937SOL    HW112710   0.062   1.727   3.372
 3937SOL    HW212711   0.076   1.570   3.333
 3938SOL     OW12712   0.208   2.417   3.894
 3938SOL    HW112713   0.284   2.351   3.894
 3938SOL    HW212714   0.223   2.484   3.821
 3939SOL     OW12715   1.830   2.975   2.779
 3939SOL    HW112716   1.925   3.007   2.776
 3939SOL    HW212717   1.809   2.942   2.871
 3940SOL     OW12718   5.428   4.280   1.272
 3940SOL    HW112719   5.339   4.238   1.293
 3940SOL    HW212720   5.441   4.361   1.329
 3941SOL     OW12721   5.314   3.574   5.687
 3941SOL    HW112722   5.293   3.539   5.778
 3941SOL    HW212723   5.370   3.508   5.638
 3942SOL     OW12724   0.603   6.447   6.367
 3942SOL    HW112725   0.582   6.537   6.405
 3942SOL    HW212726   0.691   6.450   6.319
 3943SOL     OW12727   6.814   2.909   2.774
 3943SOL    HW112728   6.854   2.953   2.855
 3943SOL    HW212729   6.738   2.851   2.802
 3944SOL     OW12730   4.595   2.591   4.841
 3944SOL    HW112731   4.678   2.545   4.808
 3944SOL    HW212732   4.600   2.688   4.818
 3945SOL     OW12733   0.937   1.813   0.328
 3945SOL    HW112734   0.916   1.911   0.326
 3945SOL    HW212735   0.989   1.788   0.246
 3946SOL     OW12736   5.383   4.822   4.703
 3946SOL    HW112737   5.412   4.885   4.630
 3946SOL    HW212738   5.453   4.821   4.775
 3947SOL     OW12739   5.313   6.501   0.132
 3947SOL    HW112740   5.346   6.408   0.117
 3947SOL    HW212741   5.378   6.566   0.092
 3948SOL     OW12742   0.486   4.896   2.532
 3948SOL    HW112743   0.480   4.905   2.433
 3948SOL    HW212744   0.556   4.828   2.555
 3949SOL     OW12745   4.837   0.579   3.112
 3949SOL    HW112746   4.862   0.482   3.113
 3949SOL    HW212747   4.867   0.621   3.198
 3950SOL     OW12748   1.772   4.484   0.341
 3950SOL    HW112749   1.837   4.434   0.283
 3950SOL    HW212750   1.735   4.422   0.410
 3951SOL     OW12751   4.963   0.049   1.553
 3951SOL    HW112752   4.905   6.997   1.523
 3951SOL    HW212753   4.914   0.101   1.623
 3952SOL     OW12754   6.704   2.358   2.287
 3952SOL    HW112755   6.772   2.420   2.247
 3952SOL    HW212756   6.650   2.407   2.355
 3953SOL     OW12757   3.840   5.098   1.471
 3953SOL    HW112758   3.933   5.070   1.497
 3953SOL    HW212759   3.777   5.021   1.485
 3954SOL     OW12760   4.072   5.288   4.949
 3954SOL    HW112761   4.051   5.196   4.916
 3954SOL    HW212762   4.122   5.282   5.036
 3955SOL     OW12763   3.012   6.723   6.345
 3955SOL    HW112764   3.020   6.700   6.248
 3955SOL    HW212765   2.975   6.815   6.354
 3956SOL     OW12766   0.953   0.945   2.771
 3956SOL    HW112767   0.939   1.038   2.802
 3956SOL    HW212768   0.923   0.936   2.676
 3957SOL     OW12769   4.866   6.573   4.040
 3957SOL    HW112770   4.965   6.575   4.028
 3957SOL    HW212771   4.825   6.516   3.969
 3958SOL     OW12772   5.592   1.430   4.900
 3958SOL    HW112773   5.603   1.525   4.932
 3958SOL    HW212774   5.678   1.399   4.859
 3959SOL     OW12775   3.899   6.584   0.297
 3959SOL    HW112776   3.951   6.646   0.239
 3959SOL    HW212777   3.812   6.561   0.253
 3960SOL     OW12778   4.941   1.312   6.318
 3960SOL    HW112779   4.846   1.281   6.323
 3960SOL    HW212780   4.977   1.322   6.411
 3961SOL     OW12781   5.585   1.270   2.273
 3961SOL    HW112782   5.589   1.367   2.299
 3961SOL    HW212783   5.521   1.222   2.332
 3962SOL     OW12784   2.206   4.322   6.717
 3962SOL    HW112785   2.222   4.281   6.627
 3962SOL    HW212786   2.287   4.308   6.775
 3963SOL     OW12787   5.055   5.273   2.841
 3963SOL    HW112788   5.029   5.358   2.888
 3963SOL    HW212789   5.075   5.202   2.908
 3964SOL     OW12790   4.428   5.193   3.925
 3964SOL    HW112791   4.516   5.235   3.948
 3964SOL    HW212792   4.408   5.120   3.989
 3965SOL     OW12793   5.202   2.813   4.363
 3965SOL    HW112794   5.276   2.746   4.360
 3965SOL    HW212795   5.240   2.904   4.347
 3966SOL     OW12796   4.680   6.244   6.238
 3966SOL    HW112797   4.702   6.317   6.173
 3966SOL    HW212798   4.708   6.156   6.201
 3967SOL     OW12799   2.116   3.779   2.367
 3967SOL    HW112800   2.146   3.874   2.369
 3967SOL    HW212801   2.118   3.741   2.460
 3968SOL     OW12802   4.483   0.525   0.958
 3968SOL    HW112803   4.573   0.543   0.919
 3968SOL    HW212804   4.479   0.431   0.993
 3969SOL     OW12805   1.256   4.236   2.159
 3969SOL    HW112806   1.223   4.266   2.070
 3969SOL    HW212807   1.180   4.235   2.225
 3970SOL     OW12808   5.880   6.029   3.337
 3970SOL    HW112809   5.837   6.110   3.377
 3970SOL    HW212810   5.979   6.044   3.329
 3971SOL     OW12811   3.587   5.403   3.578
 3971SOL    HW112812   3.514   5.470   3.566
 3971SOL    HW212813   3.588   5.372   3.673
 3972SOL     OW12814   1.315   3.858   0.767
 3972SOL    HW112815   1.397   3.844   0.712
 3972SOL    HW212816   1.245   3.793   0.740
 3973SOL     OW12817   1.405   6.027   6.095
 3973SOL    HW112818   1.493   5.987   6.067
 3973SOL    HW212819   1.365   6.075   6.017
 3974SOL     OW12820   2.189   0.339   5.301
 3974SOL    HW112821   2.127   0.336   5.222
 3974SOL    HW212822   2.147   0.292   5.378
 3975SOL     OW12823   5.141   1.862   6.000
 3975SOL    HW112824   5.232   1.899   6.019
 3975SOL    HW212825   5.148   1.763   5.983
 3976SOL     OW12826   1.489   6.431   1.799
 3976SOL    HW112827   1.461   6.390   1.886
 3976SOL    HW212828   1.407   6.454   1.746
 3977SOL     OW12829   2.153   3.178   5.904
 3977SOL    HW112830   2.093   3.134   5.970
 3977SOL    HW212831   2.201   3.255   5.948
 3978SOL     OW12832   5.905   5.397   3.915
 3978SOL    HW112833   5.991   5.447   3.921
 3978SOL    HW212834   5.889   5.347   4.000
 3979SOL     OW12835   3.683   0.619   7.012
 3979SOL    HW112836   3.656   0.600   6.917
 3979SOL    HW212837   3.654   0.711   0.013
 3980SOL     OW12838   5.638   5.900   6.887
 3980SOL    HW112839   5.541   5.916   6.869
 3980SOL    HW212840   5.693   5.960   6.829
 3981SOL     OW12841   3.064   0.202   0.565
 3981SOL    HW112842   3.095   0.114   0.530
 3981SOL    HW212843   3.142   0.266   0.567
 3982SOL     OW12844   2.428   6.553   3.549
 3982SOL    HW112845   2.423   6.624   3.479
 3982SOL    HW212846   2.516   6.506   3.544
 3983SOL     OW12847   4.959   4.773   4.086
 3983SOL    HW112848   4.970   4.843   4.016
 3983SOL    HW212849   4.863   4.744   4.089
 3984SOL     OW12850   6.623   0.849   2.405
 3984SOL    HW112851   6.637   0.927   2.343
 3984SOL    HW212852   6.652   0.874   2.497
 3985SOL     OW12853   2.437   4.928   6.523
 3985SOL    HW112854   2.483   4.921   6.611
 3985SOL    HW212855   2.389   4.843   6.502
 3986SOL     OW12856   5.320   1.627   2.727
 3986SOL    HW112857   5.234   1.656   2.769
 3986SOL    HW212858   5.334   1.529   2.742
 3987SOL     OW12859   3.772   4.849   3.340
 3987SOL    HW112860   3.728   4.881   3.424
 3987SOL    HW212861   3.706   4.850   3.265
 3988SOL     OW12862   3.043   5.139   6.784
 3988SOL    HW112863   3.120   5.123   6.846
 3988SOL    HW212864   3.058   5.089   6.698
 3989SOL     OW12865   6.754   2.671   6.958
 3989SOL    HW112866   6.683   2.689   0.002
 3989SOL    HW212867   6.762   2.572   6.945
 3990SOL     OW12868   4.418   2.093   2.463
 3990SOL    HW112869   4.355   2.168   2.444
 3990SOL    HW212870   4.415   2.071   2.561
 3991SOL     OW12871   6.367   0.806   2.442
 3991SOL    HW112872   6.328   0.897   2.428
 3991SOL    HW212873   6.464   0.807   2.418
 3992SOL     OW12874   3.230   1.420   0.177
 3992SOL    HW112875   3.131   1.402   0.178
 3992SOL    HW212876   3.254   1.480   0.252
 3993SOL     OW12877   1.155   2.521   2.212
 3993SOL    HW112878   1.114   2.536   2.302
 3993SOL    HW212879   1.253   2.506   2.223
 3994SOL     OW12880   1.818   6.827   6.513
 3994SOL    HW112881   1.877   6.907   6.502
 3994SOL    HW212882   1.759   6.817   6.433
 3995SOL     OW12883   2.055   3.642   6.198
 3995SOL    HW112884   2.051   3.717   6.264
 3995SOL    HW212885   2.108   3.669   6.119
 3996SOL     OW12886   0.518   6.469   4.619
 3996SOL    HW112887   0.552   6.544   4.676
 3996SOL    HW212888   0.430   6.495   4.580
 3997SOL     OW12889   5.660   1.177   2.997
 3997SOL    HW112890   5.654   1.276   2.993
 3997SOL    HW212891   5.618   1.137   2.915
 3998SOL     OW12892   3.851   1.088   3.723
 3998SOL    HW112893   3.773   1.139   3.761
 3998SOL    HW212894   3.876   1.128   3.635
 3999SOL     OW12895   5.681   2.651   4.039
 3999SOL    HW112896   5.738   2.733   4.034
 3999SOL    HW212897   5.585   2.677   4.037
 4000SOL     OW12898   3.138   0.034   3.762
 4000SOL    HW112899   3.212   7.013   3.810
 4000SOL    HW212900   3.172   0.073   3.676
 4001SOL     OW12901   2.545   1.686   3.795
 4001SOL    HW112902   2.586   1.595   3.797
 4001SOL    HW212903   2.589   1.741   3.725
 4002SOL     OW12904   3.257   4.261   0.797
 4002SOL    HW112905   3.356   4.274   0.787
 4002SOL    HW212906   3.211   4.291   0.714
 4003SOL     OW12907   3.403   0.179   3.839
 4003SOL    HW112908   3.330   0.235   3.801
 4003SOL    HW212909   3.454   0.232   3.906
 4004SOL     OW12910   5.379   2.071   4.084
 4004SOL    HW112911   5.394   2.002   4.013
 4004SOL    HW212912   5.449   2.141   4.079
 4005SOL     OW12913   4.851   5.721   6.766
 4005SOL    HW112914   4.942   5.729   6.805
 4005SOL    HW212915   4.783   5.760   6.828
 4006SOL     OW12916   4.587   5.361   2.287
 4006SOL    HW112917   4.610   5.342   2.382
 4006SOL    HW212918   4.619   5.453   2.263
 4007SOL     OW12919   0.004   2.324   6.573
 4007SOL    HW112920   0.044   2.347   6.662
 4007SOL    HW212921   0.052   2.373   6.501
 4008SOL     OW12922   2.742   1.984   4.817
 4008SOL    HW112923   2.835   2.012   4.840
 4008SOL    HW212924   2.684   2.066   4.809
 4009SOL     OW12925   4.500   3.341   1.586
 4009SOL    HW112926   4.468   3.255   1.624
 4009SOL    HW212927   4.495   3.413   1.656
 4010SOL     OW12928   2.289   2.670   1.263
 4010SOL    HW112929   2.252   2.644   1.174
 4010SOL    HW212930   2.388   2.683   1.255
 4011SOL     OW12931   0.723   1.148   2.246
 4011SOL    HW112932   0.733   1.195   2.158
 4011SOL    HW212933   0.716   1.215   2.319
 4012SOL     OW12934   6.665   4.659   1.809
 4012SOL    HW112935   6.701   4.696   1.723
 4012SOL    HW212936   6.601   4.725   1.849
 4013SOL     OW12937   3.393   1.397   4.931
 4013SOL    HW112938   3.344   1.341   4.998
 4013SOL    HW212939   3.491   1.385   4.943
 4014SOL     OW12940   5.684   6.551   2.420
 4014SOL    HW112941   5.731   6.607   2.487
 4014SOL    HW212942   5.727   6.461   2.416
 4015SOL     OW12943   4.735   4.735   6.561
 4015SOL    HW112944   4.817   4.757   6.508
 4015SOL    HW212945   4.654   4.765   6.511
 4016SOL     OW12946   2.207   6.284   6.163
 4016SOL    HW112947   2.137   6.223   6.203
 4016SOL    HW212948   2.227   6.358   6.227
 4017SOL     OW12949   6.962   6.215   0.524
 4017SOL    HW112950   6.996   6.244   0.435
 4017SOL    HW212951   6.973   6.116   0.533
 4018SOL     OW12952   3.968   5.728   2.279
 4018SOL    HW112953   3.883   5.766   2.316
 4018SOL    HW212954   4.031   5.710   2.355
 4019SOL     OW12955   5.008   4.352   3.372
 4019SOL    HW112956   4.969   4.442   3.388
 4019SOL    HW212957   5.040   4.345   3.278
 4020SOL     OW12958   4.754   2.034   5.262
 4020SOL    HW112959   4.757   1.936   5.281
 4020SOL    HW212960   4.844   2.074   5.278
 4021SOL     OW12961   3.989   4.918   6.422
 4021SOL    HW112962   4.087   4.932   6.410
 4021SOL    HW212963   3.965   4.927   6.519
 4022SOL     OW12964   5.036   1.545   6.984
 4022SOL    HW112965   5.078   1.535   0.049
 4022SOL    HW212966   5.075   1.625   6.938
 4023SOL     OW12967   6.141   1.778   4.710
 4023SOL    HW112968   6.177   1.822   4.628
 4023SOL    HW212969   6.217   1.751   4.770
 4024SOL     OW12970   3.557   6.493   4.728
 4024SOL    HW112971   3.628   6.439   4.682
 4024SOL    HW212972   3.533   6.571   4.671
 4025SOL     OW12973   0.670   3.607   3.081
 4025SOL    HW112974   0.692   3.601   2.984
 4025SOL    HW212975   0.738   3.557   3.135
 4026SOL     OW12976   5.860   5.775   4.297
 4026SOL    HW112977   5.779   5.813   4.343
 4026SOL    HW212978   5.937   5.838   4.306
 4027SOL     OW12979   3.567   4.189   1.938
 4027SOL    HW112980   3.481   4.202   1.889
 4027SOL    HW212981   3.603   4.278   1.966
 4028SOL     OW12982   1.877   2.155   4.380
 4028SOL    HW112983   1.868   2.108   4.293
 4028SOL    HW212984   1.802   2.127   4.441
 4029SOL     OW12985   2.283   4.049   5.676
 4029SOL    HW112986   2.370   4.002   5.661
 4029SOL    HW212987   2.209   3.998   5.632
 4030SOL     OW12988   0.656   2.013   5.752
 4030SOL    HW112989   0.719   1.949   5.709
 4030SOL    HW212990   0.674   2.105   5.717
 4031SOL     OW12991   4.443   5.556   3.714
 4031SOL    HW112992   4.361   5.501   3.732
 4031SOL    HW212993   4.422   5.622   3.641
 4032SOL     OW12994   5.819   6.459   4.133
 4032SOL    HW112995   5.789   6.551   4.107
 4032SOL    HW212996   5.795   6.394   4.060
 4033SOL     OW12997   2.982   3.876   4.394
 4033SOL    HW112998   2.950   3.789   4.356
 4033SOL    HW212999   2.951   3.951   4.335
 4034SOL     OW13000   6.449   1.357   4.670
 4034SOL    HW113001   6.460   1.265   4.631
 4034SOL    HW213002   6.452   1.424   4.596
 4035SOL     OW13003   0.507   4.608   6.772
 4035SOL    HW113004   0.537   4.545   6.844
 4035SOL    HW213005   0.501   4.560   6.685
 4036SOL     OW13006   6.071   6.031   2.667
 4036SOL    HW113007   6.164   6.021   2.703
 4036SOL    HW213008   6.023   5.944   2.676
 4037SOL     OW13009   0.894   3.701   6.323
 4037SOL    HW113010   0.982   3.658   6.344
 4037SOL    HW213011   0.831   3.686   6.399
 4038SOL     OW13012   5.412   4.499   2.969
 4038SOL    HW113013   5.416   4.511   2.870
 4038SOL    HW213014   5.505   4.494   3.005
 4039SOL     OW13015   5.390   6.308   0.395
 4039SOL    HW113016   5.448   6.383   0.426
 4039SOL    HW213017   5.393   6.234   0.461
 4040SOL     OW13018   3.022   6.808   1.337
 4040SOL    HW113019   3.113   6.817   1.375
 4040SOL    HW213020   2.986   6.717   1.357
 4041SOL     OW13021   1.085   6.396   3.314
 4041SOL    HW113022   1.071   6.477   3.371
 4041SOL    HW213023   1.020   6.325   3.340
 4042SOL     OW13024   5.628   5.209   2.111
 4042SOL    HW113025   5.562   5.237   2.181
 4042SOL    HW213026   5.579   5.177   2.030
 4043SOL     OW13027   5.305   2.034   2.433
 4043SOL    HW113028   5.240   2.101   2.469
 4043SOL    HW213029   5.313   2.046   2.334
 4044SOL     OW13030   5.884   7.020   3.388
 4044SOL    HW113031   5.939   6.984   3.312
 4044SOL    HW213032   5.829   6.947   3.427
 4045SOL     OW13033   2.057   5.067   6.726
 4045SOL    HW113034   2.010   4.981   6.705
 4045SOL    HW213035   2.155   5.052   6.731
 4046SOL     OW13036   1.104   2.527   1.765
 4046SOL    HW113037   1.007   2.547   1.767
 4046SOL    HW213038   1.155   2.610   1.740
 4047SOL     OW13039   3.189   3.555   1.902
 4047SOL    HW113040   3.139   3.527   1.984
 4047SOL    HW213041   3.257   3.485   1.879
 4048SOL     OW13042   5.483   0.670   0.502
 4048SOL    HW113043   5.432   0.720   0.433
 4048SOL    HW213044   5.572   0.714   0.517
 4049SOL     OW13045   5.685   6.683   5.681
 4049SOL    HW113046   5.710   6.620   5.755
 4049SOL    HW213047   5.606   6.737   5.708
 4050SOL     OW13048   1.733   6.284   0.771
 4050SOL    HW113049   1.719   6.353   0.699
 4050SOL    HW213050   1.786   6.208   0.734
 4051SOL     OW13051   3.000   4.769   0.798
 4051SOL    HW113052   2.999   4.848   0.858
 4051SOL    HW213053   3.014   4.686   0.852
 4052SOL     OW13054   0.673   0.512   6.893
 4052SOL    HW113055   0.587   0.462   6.880
 4052SOL    HW213056   0.741   0.452   6.934
 4053SOL     OW13057   3.327   4.920   3.846
 4053SOL    HW113058   3.340   4.846   3.912
 4053SOL    HW213059   3.404   4.923   3.783
 4054SOL     OW13060   3.867   2.122   1.023
 4054SOL    HW113061   3.835   2.208   0.983
 4054SOL    HW213062   3.967   2.125   1.031
 4055SOL     OW13063   3.546   1.914   6.003
 4055SOL    HW113064   3.498   1.931   6.089
 4055SOL    HW213065   3.634   1.961   6.004
 4056SOL     OW13066   3.628   2.633   6.814
 4056SOL    HW113067   3.622   2.705   6.745
 4056SOL    HW213068   3.720   2.630   6.852
 4057SOL     OW13069   4.375   2.850   6.545
 4057SOL    HW113070   4.332   2.765   6.516
 4057SOL    HW213071   4.307   2.910   6.587
 4058SOL     OW13072   2.285   1.037   5.319
 4058SOL    HW113073   2.199   1.046   5.370
 4058SOL    HW213074   2.358   1.012   5.382
 4059SOL     OW13075   1.323   1.931   5.208
 4059SOL    HW113076   1.290   1.855   5.264
 4059SOL    HW213077   1.310   1.908   5.111
 4060SOL     OW13078   3.902   4.899   4.267
 4060SOL    HW113079   3.968   4.881   4.340
 4060SOL    HW213080   3.809   4.894   4.303
 4061SOL     OW13081   3.168   3.951   2.281
 4061SOL    HW113082   3.216   3.970   2.367
 4061SOL    HW213083   3.151   3.852   2.273
 4062SOL     OW13084   3.367   0.888   2.993
 4062SOL    HW113085   3.281   0.841   3.013
 4062SOL    HW213086   3.347   0.981   2.960
 4063SOL     OW13087   3.268   5.160   6.057
 4063SOL    HW113088   3.200   5.197   5.993
 4063SOL    HW213089   3.226   5.088   6.112
 4064SOL     OW13090   6.992   0.745   3.549
 4064SOL    HW113091   6.921   0.700   3.494
 4064SOL    HW213092   0.034   0.678   3.580
 4065SOL     OW13093   6.815   0.025   0.569
 4065SOL    HW113094   6.751   0.061   0.637
 4065SOL    HW213095   6.781   6.961   0.535
 4066SOL     OW13096   5.904   4.295   1.579
 4066SOL    HW113097   5.976   4.328   1.518
 4066SOL    HW213098   5.839   4.369   1.597
 4067SOL     OW13099   6.291   1.319   2.671
 4067SOL    HW113100   6.326   1.301   2.579
 4067SOL    HW213101   6.227   1.396   2.668
 4068SOL     OW13102   5.732   0.300   4.037
 4068SOL    HW113103   5.704   0.205   4.022
 4068SOL    HW213104   5.818   0.317   3.991
 4069SOL     OW13105   5.685   5.541   0.849
 4069SOL    HW113106   5.737   5.581   0.924
 4069SOL    HW213107   5.664   5.611   0.782
 4070SOL     OW13108   1.882   3.987   3.420
 4070SOL    HW113109   1.811   4.011   3.354
 4070SOL    HW213110   1.972   4.008   3.382
 4071SOL     OW13111   1.909   0.352   3.966
 4071SOL    HW113112   1.951   0.359   3.875
 4071SOL    HW213113   1.933   0.265   4.008
 4072SOL     OW13114   1.661   0.212   4.954
 4072SOL    HW113115   1.576   0.265   4.959
 4072SOL    HW213116   1.663   0.145   5.027
 4073SOL     OW13117   2.755   5.986   6.999
 4073SOL    HW113118   2.823   5.922   6.963
 4073SOL    HW213119   2.759   6.072   6.948
 4074SOL     OW13120   1.490   2.412   0.975
 4074SOL    HW113121   1.587   2.391   0.985
 4074SOL    HW213122   1.435   2.336   1.009
 4075SOL     OW13123   5.066   1.735   3.304
 4075SOL    HW113124   5.073   1.772   3.211
 4075SOL    HW213125   4.980   1.764   3.345
 4076SOL     OW13126   1.806   3.501   4.441
 4076SOL    HW113127   1.743   3.541   4.507
 4076SOL    HW213128   1.762   3.495   4.352
 4077SOL     OW13129   3.470   0.920   0.835
 4077SOL    HW113130   3.532   0.886   0.906
 4077SOL    HW213131   3.454   0.848   0.768
 4078SOL     OW13132   6.282   3.652   1.491
 4078SOL    HW113133   6.249   3.747   1.492
 4078SOL    HW213134   6.343   3.637   1.569
 4079SOL     OW13135   0.356   0.501   3.693
 4079SOL    HW113136   0.440   0.451   3.714
 4079SOL    HW213137   0.366   0.596   3.726
 4080SOL     OW13138   3.586   3.813   1.580
 4080SOL    HW113139   3.513   3.806   1.647
 4080SOL    HW213140   3.671   3.842   1.625
 4081SOL     OW13141   1.510   2.175   5.531
 4081SOL    HW113142   1.478   2.222   5.613
 4081SOL    HW213143   1.609   2.183   5.524
 4082SOL     OW13144   0.881   2.803   4.627
 4082SOL    HW113145   0.959   2.758   4.672
 4082SOL    HW213146   0.862   2.757   4.540
 4083SOL     OW13147   5.453   4.785   3.494
 4083SOL    HW113148   5.378   4.850   3.479
 4083SOL    HW213149   5.527   4.832   3.543
 4084SOL     OW13150   4.241   1.040   3.178
 4084SOL    HW113151   4.309   1.016   3.108
 4084SOL    HW213152   4.149   1.033   3.139
 4085SOL     OW13153   3.123   5.106   2.250
 4085SOL    HW113154   3.043   5.066   2.295
 4085SOL    HW213155   3.180   5.034   2.212
 4086SOL     OW13156   6.471   5.606   6.268
 4086SOL    HW113157   6.434   5.591   6.176
 4086SOL    HW213158   6.517   5.523   6.300
 4087SOL     OW13159   2.324   6.953   2.596
 4087SOL    HW113160   2.322   6.878   2.662
 4087SOL    HW213161   2.281   0.009   2.637
 4088SOL     OW13162   0.432   1.185   5.381
 4088SOL    HW113163   0.421   1.272   5.429
 4088SOL    HW213164   0.497   1.128   5.431
 4089SOL     OW13165   0.432   0.131   3.643
 4089SOL    HW113166   0.377   0.186   3.580
 4089SOL    HW213167   0.381   0.050   3.671
 4090SOL     OW13168   2.764   0.207   5.510
 4090SOL    HW113169   2.788   0.156   5.593
 4090SOL    HW213170   2.822   0.288   5.503
 4091SOL     OW13171   2.105   5.344   1.181
 4091SOL    HW113172   2.185   5.403   1.189
 4091SOL    HW213173   2.092   5.317   1.085
 4092SOL     OW13174   5.009   3.040   4.167
 4092SOL    HW113175   4.982   3.136   4.158
 4092SOL    HW213176   5.004   3.013   4.264
 4093SOL     OW13177   5.124   6.013   3.054
 4093SOL    HW113178   5.143   6.000   3.151
 4093SOL    HW213179   5.165   5.938   3.002
 4094SOL     OW13180   0.070   5.690   6.903
 4094SOL    HW113181   0.088   5.697   6.805
 4094SOL    HW213182   0.041   5.597   6.926
 4095SOL     OW13183   6.928   5.007   6.961
 4095SOL    HW113184   6.869   5.084   6.985
 4095SOL    HW213185   6.940   5.003   6.862
 4096SOL     OW13186   1.650   2.125   6.729
 4096SOL    HW113187   1.719   2.054   6.714
 4096SOL    HW213188   1.686   2.214   6.700
 4097SOL     OW13189   0.073   4.498   5.013
 4097SOL    HW113190   0.149   4.564   5.007
 4097SOL    HW213191   0.009   4.516   4.938
 4098SOL     OW13192   2.298   4.815   3.304
 4098SOL    HW113193   2.285   4.757   3.385
 4098SOL    HW213194   2.385   4.792   3.261
 4099SOL     OW13195   4.475   4.824   6.032
 4099SOL    HW113196   4.499   4.845   5.938
 4099SOL    HW213197   4.529   4.746   6.064
 4100SOL     OW13198   1.494   0.637   3.556
 4100SOL    HW113199   1.431   0.567   3.522
 4100SOL    HW213200   1.500   0.711   3.490
 4101SOL     OW13201   6.357   0.505   0.208
 4101SOL    HW113202   6.407   0.438   0.263
 4101SOL    HW213203   6.260   0.480   0.205
 4102SOL     OW13204   1.633   0.827   0.034
 4102SOL    HW113205   1.670   0.916   0.060
 4102SOL    HW213206   1.705   0.772   7.016
 4103SOL     OW13207   1.466   6.459   2.489
 4103SOL    HW113208   1.399   6.532   2.483
 4103SOL    HW213209   1.502   6.438   2.398
 4104SOL     OW13210   0.381   5.776   3.880
 4104SOL    HW113211   0.440   5.702   3.848
 4104SOL    HW213212   0.307   5.791   3.815
 4105SOL     OW13213   4.787   1.044   0.967
 4105SOL    HW113214   4.689   1.045   0.987
 4105SOL    HW213215   4.802   1.077   0.874
 4106SOL     OW13216   0.102   2.285   3.598
 4106SOL    HW113217   0.069   2.368   3.644
 4106SOL    HW213218   0.047   2.269   3.516
 4107SOL     OW13219   0.136   6.440   6.374
 4107SOL    HW113220   0.176   6.355   6.409
 4107SOL    HW213221   0.062   6.469   6.434
 4108SOL     OW13222   6.562   5.183   3.870
 4108SOL    HW113223   6.612   5.269   3.865
 4108SOL    HW213224   6.613   5.111   3.823
 4109SOL     OW13225   5.951   6.466   3.321
 4109SOL    HW113226   5.962   6.431   3.228
 4109SOL    HW213227   6.016   6.421   3.382
 4110SOL     OW13228   4.829   4.210   0.426
 4110SOL    HW113229   4.772   4.179   0.502
 4110SOL    HW213230   4.837   4.137   0.358
 4111SOL     OW13231   6.958   4.026   3.943
 4111SOL    HW113232   0.021   4.026   3.992
 4111SOL    HW213233   6.904   4.104   3.972
 4112SOL     OW13234   4.793   6.951   4.928
 4112SOL    HW113235   4.792   6.851   4.929
 4112SOL    HW213236   4.828   6.985   5.016
 4113SOL     OW13237   4.592   4.594   4.639
 4113SOL    HW113238   4.655   4.570   4.565
 4113SOL    HW213239   4.645   4.609   4.723
 4114SOL     OW13240   6.867   1.370   2.583
 4114SOL    HW113241   6.779   1.324   2.571
 4114SOL    HW213242   6.881   1.434   2.507
 4115SOL     OW13243   3.502   5.004   4.095
 4115SOL    HW113244   3.558   4.951   4.033
 4115SOL    HW213245   3.452   5.074   4.044
 4116SOL     OW13246   5.162   2.696   3.384
 4116SOL    HW113247   5.085   2.756   3.361
 4116SOL    HW213248   5.167   2.622   3.316
 4117SOL     OW13249   1.078   2.318   2.806
 4117SOL    HW113250   1.096   2.318   2.905
 4117SOL    HW213251   1.148   2.372   2.760
 4118SOL     OW13252   6.806   6.847   6.078
 4118SOL    HW113253   6.708   6.865   6.076
 4118SOL    HW213254   6.826   6.775   6.145
 4119SOL     OW13255   2.168   1.390   3.536
 4119SOL    HW113256   2.136   1.480   3.565
 4119SOL    HW213257   2.232   1.354   3.604
 4120SOL     OW13258   2.069   1.253   6.313
 4120SOL    HW113259   2.089   1.201   6.230
 4120SOL    HW213260   2.016   1.334   6.290
 4121SOL     OW13261   6.990   6.804   1.751
 4121SOL    HW113262   6.972   6.902   1.739
 4121SOL    HW213263   6.905   6.756   1.771
 4122SOL     OW13264   6.814   4.691   4.283
 4122SOL    HW113265   6.889   4.673   4.219
 4122SOL    HW213266   6.743   4.744   4.236
 4123SOL     OW13267   3.985   4.795   2.457
 4123SOL    HW113268   3.963   4.869   2.394
 4123SOL    HW213269   3.930   4.714   2.435
 4124SOL     OW13270   6.745   5.929   0.287
 4124SOL    HW113271   6.819   5.877   0.245
 4124SOL    HW213272   6.766   6.027   0.280
 4125SOL     OW13273   5.690   2.006   2.138
 4125SOL    HW113274   5.788   1.985   2.138
 4125SOL    HW213275   5.638   1.920   2.146
 4126SOL     OW13276   1.077   3.254   2.016
 4126SOL    HW113277   1.076   3.190   1.939
 4126SOL    HW213278   1.138   3.220   2.087
 4127SOL     OW13279   3.867   1.856   4.240
 4127SOL    HW113280   3.958   1.822   4.217
 4127SOL    HW213281   3.851   1.942   4.191
 4128SOL     OW13282   0.131   3.280   1.006
 4128SOL    HW113283   0.157   3.375   1.022
 4128SOL    HW213284   0.034   3.276   0.982
 4129SOL     OW13285   2.607   2.928   0.740
 4129SOL    HW113286   2.624   2.830   0.747
 4129SOL    HW213287   2.667   2.977   0.803
 4130SOL     OW13288   6.055   2.868   1.389
 4130SOL    HW113289   6.081   2.957   1.428
 4130SOL    HW213290   6.002   2.882   1.306
 4131SOL     OW13291   4.440   0.791   2.533
 4131SOL    HW113292   4.478   0.883   2.523
 4131SOL    HW213293   4.488   0.743   2.606
 4132SOL     OW13294   0.002   4.103   4.392
 4132SOL    HW113295   6.981   4.134   4.309
 4132SOL    HW213296   6.983   4.019   4.425
 4133SOL     OW13297   5.817   0.036   2.199
 4133SOL    HW113298   5.832   0.071   2.291
 4133SOL    HW213299   5.885   6.990   2.178
 4134SOL     OW13300   2.315   3.263   1.206
 4134SOL    HW113301   2.272   3.208   1.135
 4134SOL    HW213302   2.364   3.203   1.269
 4135SOL     OW13303   6.945   1.074   2.386
 4135SOL    HW113304   6.967   1.146   2.320
 4135SOL    HW213305   6.948   0.985   2.339
 4136SOL     OW13306   1.708   4.723   2.051
 4136SOL    HW113307   1.701   4.778   2.134
 4136SOL    HW213308   1.661   4.636   2.065
 4137SOL     OW13309   1.451   3.155   0.331
 4137SOL    HW113310   1.459   3.111   0.242
 4137SOL    HW213311   1.541   3.187   0.361
 4138SOL     OW13312   4.579   6.585   0.695
 4138SOL    HW113313   4.566   6.504   0.752
 4138SOL    HW213314   4.638   6.650   0.742
 4139SOL     OW13315   2.248   2.386   3.066
 4139SOL    HW113316   2.292   2.306   3.108
 4139SOL    HW213317   2.192   2.432   3.134
 4140SOL     OW13318   2.560   2.195   4.800
 4140SOL    HW113319   2.480   2.203   4.859
 4140SOL    HW213320   2.604   2.284   4.791
 4141SOL     OW13321   4.284   0.095   6.929
 4141SOL    HW113322   4.219   0.075   6.855
 4141SOL    HW213323   4.370   0.127   6.890
 4142SOL     OW13324   0.482   4.538   2.985
 4142SOL    HW113325   0.503   4.614   2.923
 4142SOL    HW213326   0.471   4.574   3.078
 4143SOL     OW13327   5.860   2.911   0.719
 4143SOL    HW113328   5.833   2.821   0.752
 4143SOL    HW213329   5.942   2.941   0.768
 4144SOL     OW13330   5.698   1.911   0.584
 4144SOL    HW113331   5.612   1.863   0.604
 4144SOL    HW213332   5.703   1.993   0.641
 4145SOL     OW13333   0.247   6.643   1.490
 4145SOL    HW113334   0.202   6.603   1.570
 4145SOL    HW213335   0.189   6.633   1.410
 4146SOL     OW13336   5.246   6.883   3.727
 4146SOL    HW113337   5.345   6.881   3.713
 4146SOL    HW213338   5.225   6.870   3.824
 4147SOL     OW13339   4.993   4.139   5.458
 4147SOL    HW113340   4.942   4.143   5.372
 4147SOL    HW213341   5.024   4.230   5.483
 4148SOL     OW13342   2.991   1.577   5.949
 4148SOL    HW113343   2.968   1.504   6.014
 4148SOL    HW213344   3.018   1.536   5.862
 4149SOL     OW13345   1.736   2.901   0.292
 4149SOL    HW113346   1.708   2.997   0.288
 4149SOL    HW213347   1.708   2.862   0.380
 4150SOL     OW13348   5.658   2.443   6.136
 4150SOL    HW113349   5.610   2.480   6.216
 4150SOL    HW213350   5.732   2.384   6.167
 4151SOL     OW13351   2.448   6.639   4.744
 4151SOL    HW113352   2.442   6.727   4.698
 4151SOL    HW213353   2.504   6.577   4.690
 4152SOL     OW13354   3.185   5.586   1.661
 4152SOL    HW113355   3.206   5.511   1.598
 4152SOL    HW213356   3.086   5.591   1.675
 4153SOL     OW13357   0.101   4.816   1.856
 4153SOL    HW113358   0.136   4.902   1.894
 4153SOL    HW213359   0.079   4.829   1.759
 4154SOL     OW13360   1.211   5.866   4.652
 4154SOL    HW113361   1.227   5.958   4.616
 4154SOL    HW213362   1.113   5.855   4.672
 4155SOL     OW13363   1.012   2.226   1.895
 4155SOL    HW113364   1.034   2.219   1.992
 4155SOL    HW213365   0.961   2.310   1.878
 4156SOL     OW13366   6.977   5.121   5.084
 4156SOL    HW113367   0.018   5.058   5.043
 4156SOL    HW213368   6.950   5.191   5.016
 4157SOL     OW13369   6.964   5.955   1.872
 4157SOL    HW113370   0.012   5.887   1.880
 4157SOL    HW213371   6.899   5.944   1.946
 4158SOL     OW13372   1.464   2.479   2.229
 4158SOL    HW113373   1.511   2.410   2.175
 4158SOL    HW213374   1.465   2.452   2.325
 4159SOL     OW13375   2.857   1.470   3.545
 4159SOL    HW113376   2.901   1.537   3.605
 4159SOL    HW213377   2.841   1.386   3.596
 4160SOL     OW13378   6.433   0.208   6.379
 4160SOL    HW113379   6.505   0.139   6.380
 4160SOL    HW213380   6.463   0.287   6.325
 4161SOL     OW13381   2.676   2.490   1.510
 4161SOL    HW113382   2.612   2.414   1.506
 4161SOL    HW213383   2.754   2.472   1.449
 4162SOL     OW13384   6.543   6.537   1.495
 4162SOL    HW113385   6.590   6.593   1.427
 4162SOL    HW213386   6.456   6.504   1.459
 4163SOL     OW13387   3.892   6.296   1.154
 4163SOL    HW113388   3.899   6.324   1.058
 4163SOL    HW213389   3.801   6.318   1.188
 4164SOL     OW13390   0.173   6.942   4.975
 4164SOL    HW113391   0.265   6.980   4.962
 4164SOL    HW213392   0.181   6.845   5.001
 4165SOL     OW13393   4.350   1.218   5.673
 4165SOL    HW113394   4.443   1.255   5.671
 4165SOL    HW213395   4.351   1.125   5.638
 4166SOL     OW13396   6.121   0.710   2.718
 4166SOL    HW113397   6.169   0.646   2.658
 4166SOL    HW213398   6.045   0.662   2.764
 4167SOL     OW13399   4.061   4.942   5.511
 4167SOL    HW113400   3.995   4.915   5.442
 4167SOL    HW213401   4.054   5.040   5.528
 4168SOL     OW13402   5.986   4.377   0.395
 4168SOL    HW113403   6.011   4.308   0.463
 4168SOL    HW213404   6.068   4.430   0.371
 4169SOL     OW13405   4.913   3.856   5.092
 4169SOL    HW113406   4.852   3.791   5.048
 4169SOL    HW213407   4.946   3.922   5.024
 4170SOL     OW13408   5.643   3.213   4.583
 4170SOL    HW113409   5.606   3.303   4.561
 4170SOL    HW213410   5.611   3.185   4.673
 4171SOL     OW13411   1.354   3.955   1.026
 4171SOL    HW113412   1.343   3.905   0.940
 4171SOL    HW213413   1.420   4.030   1.014
 4172SOL     OW13414   2.961   3.786   0.883
 4172SOL    HW113415   2.946   3.824   0.974
 4172SOL    HW213416   2.899   3.829   0.818
 4173SOL     OW13417   4.553   2.881   5.294
 4173SOL    HW113418   4.589   2.828   5.217
 4173SOL    HW213419   4.518   2.819   5.364
 4174SOL     OW13420   4.577   0.752   4.523
 4174SOL    HW113421   4.625   0.770   4.609
 4174SOL    HW213422   4.580   0.654   4.502
 4175SOL     OW13423   1.782   4.376   6.784
 4175SOL    HW113424   1.791   4.314   6.862
 4175SOL    HW213425   1.814   4.467   6.810
 4176SOL     OW13426   4.646   6.503   6.637
 4176SOL    HW113427   4.649   6.478   6.734
 4176SOL    HW213428   4.571   6.454   6.592
 4177SOL     OW13429   4.528   4.790   4.246
 4177SOL    HW113430   4.589   4.859   4.285
 4177SOL    HW213431   4.529   4.709   4.305
 4178SOL     OW13432   3.153   5.787   2.175
 4178SOL    HW113433   3.238   5.750   2.139
 4178SOL    HW213434   3.093   5.712   2.204
 4179SOL     OW13435   5.238   2.955   4.040
 4179SOL    HW113436   5.169   3.006   4.091
 4179SOL    HW213437   5.197   2.914   3.959
 4180SOL     OW13438   5.438   3.193   0.597
 4180SOL    HW113439   5.479   3.272   0.644
 4180SOL    HW213440   5.454   3.111   0.652
 4181SOL     OW13441   5.366   0.301   5.416
 4181SOL    HW113442   5.326   0.226   5.469
 4181SOL    HW213443   5.465   0.286   5.406
 4182SOL     OW13444   0.262   6.094   4.145
 4182SOL    HW113445   0.240   6.026   4.215
 4182SOL    HW213446   0.249   6.186   4.183
 4183SOL     OW13447   2.605   1.441   2.095
 4183SOL    HW113448   2.638   1.524   2.049
 4183SOL    HW213449   2.651   1.361   2.056
 4184SOL     OW13450   3.314   6.197   3.180
 4184SOL    HW113451   3.255   6.212   3.101
 4184SOL    HW213452   3.260   6.158   3.255
 4185SOL     OW13453   0.035   3.581   3.184
 4185SOL    HW113454   6.965   3.568   3.153
 4185SOL    HW213455   0.037   3.646   3.260
 4186SOL     OW13456   1.535   5.923   6.610
 4186SOL    HW113457   1.530   5.824   6.619
 4186SOL    HW213458   1.622   5.948   6.568
 4187SOL     OW13459   1.636   3.653   6.583
 4187SOL    HW113460   1.667   3.562   6.555
 4187SOL    HW213461   1.564   3.644   6.652
 4188SOL     OW13462   4.868   0.425   6.768
 4188SOL    HW113463   4.876   0.506   6.709
 4188SOL    HW213464   4.935   0.356   6.739
 4189SOL     OW13465   4.818   5.902   2.732
 4189SOL    HW113466   4.877   5.839   2.783
 4189SOL    HW213467   4.821   5.878   2.635
 4190SOL     OW13468   0.451   0.000   0.812
 4190SOL    HW113469   0.472   6.948   0.873
 4190SOL    HW213470   0.368   7.004   0.761
 4191SOL     OW13471   4.959   4.212   6.039
 4191SOL    HW113472   4.884   4.239   5.979
 4191SOL    HW213473   4.947   4.117   6.067
 4192SOL     OW13474   1.346   1.906   2.339
 4192SOL    HW113475   1.389   1.996   2.333
 4192SOL    HW213476   1.414   1.836   2.320
 4193SOL     OW13477   6.076   0.669   0.964
 4193SOL    HW113478   6.166   0.714   0.962
 4193SOL    HW213479   6.058   0.627   0.876
 4194SOL     OW13480   4.519   0.894   5.365
 4194SOL    HW113481   4.543   0.833   5.441
 4194SOL    HW213482   4.603   0.933   5.326
 4195SOL     OW13483   4.566   6.248   1.787
 4195SOL    HW113484   4.608   6.195   1.860
 4195SOL    HW213485   4.637   6.298   1.738
 4196SOL     OW13486   6.584   2.088   3.453
 4196SOL    HW113487   6.584   2.032   3.536
 4196SOL    HW213488   6.677   2.118   3.433
 4197SOL     OW13489   3.453   6.254   6.195
 4197SOL    HW113490   3.473   6.226   6.289
 4197SOL    HW213491   3.448   6.173   6.136
 4198SOL     OW13492   6.667   0.358   2.301
 4198SOL    HW113493   6.578   0.378   2.259
 4198SOL    HW213494   6.716   0.443   2.318
 4199SOL     OW13495   1.547   4.265   6.341
 4199SOL    HW113496   1.452   4.295   6.332
 4199SOL    HW213497   1.558   4.212   6.425
 4200SOL     OW13498   4.298   0.632   5.402
 4200SOL    HW113499   4.226   0.701   5.418
 4200SOL    HW213500   4.329   0.639   5.307
 4201SOL     OW13501   6.214   6.577   4.020
 4201SOL    HW113502   6.177   6.621   4.102
 4201SOL    HW213503   6.276   6.640   3.973
 4202SOL     OW13504   3.679   5.915   0.411
 4202SOL    HW113505   3.742   5.853   0.459
 4202SOL    HW213506   3.709   5.925   0.316
 4203SOL     OW13507   5.717   5.233   0.297
 4203SOL    HW113508   5.631   5.275   0.327
 4203SOL    HW213509   5.726   5.143   0.339
 4204SOL     OW13510   3.426   3.573   5.738
 4204SOL    HW113511   3.395   3.483   5.771
 4204SOL    HW213512   3.508   3.601   5.789
 4205SOL     OW13513   3.701   5.693   5.017
 4205SOL    HW113514   3.788   5.738   4.999
 4205SOL    HW213515   3.660   5.663   4.931
 4206SOL     OW13516   1.790   1.805   4.918
 4206SOL    HW113517   1.823   1.876   4.855
 4206SOL    HW213518   1.867   1.767   4.968
 4207SOL     OW13519   2.346   2.206   1.382
 4207SOL    HW113520   2.277   2.239   1.318
 4207SOL    HW213521   2.367   2.278   1.448
 4208SOL     OW13522   1.947   4.169   5.110
 4208SOL    HW113523   2.041   4.151   5.135
 4208SOL    HW213524   1.927   4.126   5.021
 4209SOL     OW13525   0.184   5.816   2.603
 4209SOL    HW113526   0.203   5.754   2.678
 4209SOL    HW213527   0.197   5.768   2.516
 4210SOL     OW13528   4.026   3.522   4.957
 4210SOL    HW113529   3.932   3.556   4.952
 4210SOL    HW213530   4.050   3.476   4.872
 4211SOL     OW13531   3.628   2.114   5.152
 4211SOL    HW113532   3.668   2.098   5.062
 4211SOL    HW213533   3.534   2.081   5.153
 4212SOL     OW13534   0.012   1.191   3.681
 4212SOL    HW113535   0.033   1.095   3.700
 4212SOL    HW213536   6.990   1.198   3.593
 4213SOL     OW13537   2.918   1.064   2.845
 4213SOL    HW113538   2.837   1.079   2.902
 4213SOL    HW213539   2.891   1.026   2.757
 4214SOL     OW13540   0.767   5.248   4.044
 4214SOL    HW113541   0.679   5.288   4.017
 4214SOL    HW213542   0.838   5.319   4.039
 4215SOL     OW13543   4.818   6.205   4.934
 4215SOL    HW113544   4.773   6.170   4.852
 4215SOL    HW213545   4.898   6.148   4.955
 4216SOL     OW13546   1.511   0.644   3.127
 4216SOL    HW113547   1.477   0.553   3.149
 4216SOL    HW213548   1.520   0.652   3.027
 4217SOL     OW13549   1.151   6.760   1.894
 4217SOL    HW113550   1.230   6.700   1.880
 4217SOL    HW213551   1.136   6.815   1.812
 4218SOL     OW13552   3.549   1.516   1.236
 4218SOL    HW113553   3.558   1.466   1.149
 4218SOL    HW213554   3.636   1.560   1.259
 4219SOL     OW13555   4.223   6.105   4.427
 4219SOL    HW113556   4.294   6.037   4.410
 4219SOL    HW213557   4.200   6.106   4.524
 4220SOL     OW13558   5.148   2.180   1.728
 4220SOL    HW113559   5.091   2.107   1.767
 4220SOL    HW213560   5.100   2.268   1.738
 4221SOL     OW13561   6.446   5.441   6.646
 4221SOL    HW113562   6.515   5.512   6.635
 4221SOL    HW213563   6.394   5.430   6.561
 4222SOL     OW13564   5.453   1.927   3.870
 4222SOL    HW113565   5.408   1.840   3.849
 4222SOL    HW213566   5.459   1.982   3.786
 4223SOL     OW13567   4.095   3.953   1.374
 4223SOL    HW113568   4.194   3.936   1.373
 4223SOL    HW213569   4.047   3.866   1.390
 4224SOL     OW13570   5.110   4.010   4.904
 4224SOL    HW113571   5.195   4.036   4.951
 4224SOL    HW213572   5.069   4.091   4.863
 4225SOL     OW13573   0.755   2.219   5.399
 4225SOL    HW113574   0.767   2.250   5.493
 4225SOL    HW213575   0.844   2.215   5.353
 4226SOL     OW13576   0.311   5.708   4.834
 4226SOL    HW113577   0.381   5.730   4.902
 4226SOL    HW213578   0.302   5.609   4.826
 4227SOL     OW13579   5.064   5.981   1.677
 4227SOL    HW113580   5.010   6.044   1.732
 4227SOL    HW213581   5.157   5.976   1.712
 4228SOL     OW13582   0.953   5.887   4.732
 4228SOL    HW113583   0.921   5.832   4.809
 4228SOL    HW213584   0.911   5.854   4.648
 4229SOL     OW13585   5.731   5.753   5.836
 4229SOL    HW113586   5.752   5.722   5.929
 4229SOL    HW213587   5.651   5.704   5.801
 4230SOL     OW13588   1.397   7.002   2.888
 4230SOL    HW113589   1.435   0.049   2.830
 4230SOL    HW213590   1.300   6.990   2.867
 4231SOL     OW13591   5.271   0.791   5.367
 4231SOL    HW113592   5.290   0.738   5.285
 4231SOL    HW213593   5.358   0.813   5.413
 4232SOL     OW13594   2.331   5.279   3.323
 4232SOL    HW113595   2.303   5.298   3.229
 4232SOL    HW213596   2.271   5.209   3.363
 4233SOL     OW13597   6.885   6.420   4.385
 4233SOL    HW113598   6.985   6.417   4.380
 4233SOL    HW213599   6.846   6.360   4.315
 4234SOL     OW13600   2.102   5.486   5.452
 4234SOL    HW113601   2.063   5.394   5.448
 4234SOL    HW213602   2.114   5.513   5.547
 4235SOL     OW13603   6.705   4.558   5.588
 4235SOL    HW113604   6.743   4.578   5.679
 4235SOL    HW213605   6.688   4.644   5.540
 4236SOL     OW13606   0.435   5.298   2.514
 4236SOL    HW113607   0.510   5.363   2.508
 4236SOL    HW213608   0.469   5.210   2.548
 4237SOL     OW13609   6.519   3.769   3.997
 4237SOL    HW113610   6.459   3.724   3.931
 4237SOL    HW213611   6.605   3.793   3.954
 4238SOL     OW13612   1.493   0.863   3.289
 4238SOL    HW113613   1.394   0.852   3.292
 4238SOL    HW213614   1.532   0.799   3.223
 4239SOL     OW13615   4.462   0.954   2.994
 4239SOL    HW113616   4.503   1.029   2.943
 4239SOL    HW213617   4.382   0.919   2.943
 4240SOL     OW13618   1.567   5.237   7.022
 4240SOL    HW113619   1.664   5.260   7.011
 4240SOL    HW213620   1.550   5.215   0.094
 4241SOL     OW13621   6.874   1.625   0.786
 4241SOL    HW113622   6.804   1.646   0.855
 4241SOL    HW213623   6.834   1.632   0.695
 4242SOL     OW13624   2.485   2.389   4.113
 4242SOL    HW113625   2.396   2.345   4.114
 4242SOL    HW213626   2.547   2.339   4.052
 4243SOL     OW13627   5.075   1.018   2.666
 4243SOL    HW113628   5.077   1.002   2.567
 4243SOL    HW213629   4.999   0.968   2.707
 4244SOL     OW13630   3.752   3.625   1.987
 4244SOL    HW113631   3.797   3.543   2.022
 4244SOL    HW213632   3.778   3.704   2.042
 4245SOL     OW13633   6.728   1.891   6.107
 4245SOL    HW113634   6.723   1.917   6.203
 4245SOL    HW213635   6.724   1.974   6.050
 4246SOL     OW13636   6.630   4.016   3.121
 4246SOL    HW113637   6.667   4.103   3.153
 4246SOL    HW213638   6.702   3.946   3.125
 4247SOL     OW13639   0.165   6.340   4.581
 4247SOL    HW113640   0.163   6.440   4.585
 4247SOL    HW213641   0.144   6.302   4.671
 4248SOL     OW13642   1.401   2.201   5.147
 4248SOL    HW113643   1.371   2.121   5.199
 4248SOL    HW213644   1.488   2.181   5.101
 4249SOL     OW13645   6.532   2.964   5.642
 4249SOL    HW113646   6.628   2.986   5.627
 4249SOL    HW213647   6.499   2.907   5.567
 4250SOL     OW13648   0.223   4.702   3.626
 4250SOL    HW113649   0.319   4.703   3.654
 4250SOL    HW213650   0.213   4.748   3.538
 4251SOL     OW13651   5.983   4.178   0.607
 4251SOL    HW113652   6.044   4.190   0.686
 4251SOL    HW213653   5.967   4.081   0.591
 4252SOL     OW13654   6.472   6.095   4.919
 4252SOL    HW113655   6.565   6.132   4.905
 4252SOL    HW213656   6.407   6.147   4.864
 4253SOL     OW13657   3.871   0.567   2.023
 4253SOL    HW113658   3.882   0.469   2.003
 4253SOL    HW213659   3.777   0.594   2.004
 4254SOL     OW13660   1.644   3.039   1.729
 4254SOL    HW113661   1.611   3.059   1.822
 4254SOL    HW213662   1.638   3.122   1.673
 4255SOL     OW13663   6.296   2.403   3.630
 4255SOL    HW113664   6.341   2.357   3.707
 4255SOL    HW213665   6.330   2.365   3.544
 4256SOL     OW13666   1.447   6.623   1.039
 4256SOL    HW113667   1.384   6.579   1.103
 4256SOL    HW213668   1.442   6.722   1.051
 4257SOL     OW13669   3.348   1.440   5.638
 4257SOL    HW113670   3.420   1.374   5.620
 4257SOL    HW213671   3.357   1.475   5.731
 4258SOL     OW13672   6.089   6.688   2.190
 4258SOL    HW113673   6.072   6.714   2.286
 4258SOL    HW213674   6.055   6.596   2.174
 4259SOL     OW13675   2.330   1.228   6.740
 4259SOL    HW113676   2.422   1.191   6.734
 4259SOL    HW213677   2.283   1.216   6.653
 4260SOL     OW13678   4.172   6.069   3.700
 4260SOL    HW113679   4.264   6.032   3.710
 4260SOL    HW213680   4.170   6.135   3.625
 4261SOL     OW13681   2.627   6.932   1.591
 4261SOL    HW113682   2.591   6.997   1.658
 4261SOL    HW213683   2.720   6.960   1.566
 4262SOL     OW13684   1.511   5.211   5.628
 4262SOL    HW113685   1.417   5.178   5.632
 4262SOL    HW213686   1.512   5.311   5.628
 4263SOL     OW13687   2.589   6.455   4.608
 4263SOL    HW113688   2.526   6.409   4.546
 4263SOL    HW213689   2.668   6.395   4.625
 4264SOL     OW13690   0.126   1.713   0.793
 4264SOL    HW113691   0.152   1.785   0.728
 4264SOL    HW213692   0.034   1.680   0.771
 4265SOL     OW13693   6.460   1.882   6.994
 4265SOL    HW113694   6.510   1.853   6.913
 4265SOL    HW213695   6.476   1.818   0.045
 4266SOL     OW13696   2.925   5.142   0.166
 4266SOL    HW113697   2.895   5.048   0.151
 4266SOL    HW213698   2.849   5.197   0.199
 4267SOL     OW13699   2.147   3.758   4.946
 4267SOL    HW113700   2.198   3.843   4.934
 4267SOL    HW213701   2.204   3.691   4.993
 4268SOL     OW13702   1.507   6.580   0.121
 4268SOL    HW113703   1.581   6.646   0.133
 4268SOL    HW213704   1.521   6.529   0.036
 4269SOL     OW13705   2.267   2.152   0.388
 4269SOL    HW113706   2.290   2.086   0.317
 4269SOL    HW213707   2.205   2.110   0.454
 4270SOL     OW13708   4.055   3.148   4.704
 4270SOL    HW113709   4.062   3.094   4.788
 4270SOL    HW213710   3.963   3.136   4.665
 4271SOL     OW13711   0.177   0.170   5.485
 4271SOL    HW113712   0.112   0.168   5.561
 4271SOL    HW213713   0.183   0.263   5.449
 4272SOL     OW13714   6.912   4.865   4.602
 4272SOL    HW113715   6.824   4.910   4.615
 4272SOL    HW213716   6.945   4.882   4.510
 4273SOL     OW13717   4.394   6.380   4.384
 4273SOL    HW113718   4.491   6.393   4.364
 4273SOL    HW213719   4.356   6.311   4.323
 4274SOL     OW13720   0.568   6.977   3.276
 4274SOL    HW113721   0.523   0.034   3.238
 4274SOL    HW213722   0.611   6.926   3.201
 4275SOL     OW13723   6.832   0.714   5.888
 4275SOL    HW113724   6.793   0.641   5.832
 4275SOL    HW213725   6.758   0.760   5.937
 4276SOL     OW13726   1.652   5.405   2.725
 4276SOL    HW113727   1.684   5.500   2.729
 4276SOL    HW213728   1.563   5.403   2.680
 4277SOL     OW13729   6.983   4.341   3.817
 4277SOL    HW113730   6.983   4.251   3.773
 4277SOL    HW213731   6.901   4.391   3.790
 4278SOL     OW13732   6.938   6.911   5.101
 4278SOL    HW113733   0.005   6.935   5.067
 4278SOL    HW213734   6.873   6.982   5.075
 4279SOL     OW13735   3.518   6.508   5.620
 4279SOL    HW113736   3.432   6.522   5.571
 4279SOL    HW213737   3.517   6.561   5.705
 4280SOL     OW13738   5.795   1.379   5.477
 4280SOL    HW113739   5.705   1.422   5.470
 4280SOL    HW213740   5.864   1.437   5.434
 4281SOL     OW13741   1.652   4.882   4.727
 4281SOL    HW113742   1.645   4.785   4.704
 4281SOL    HW213743   1.591   4.935   4.668
 4282SOL     OW13744   2.597   2.141   0.027
 4282SOL    HW113745   2.543   2.065   7.016
 4282SOL    HW213746   2.549   2.227   0.010
 4283SOL     OW13747   1.632   0.347   3.876
 4283SOL    HW113748   1.552   0.351   3.936
 4283SOL    HW213749   1.715   0.339   3.931
 4284SOL     OW13750   5.625   0.078   2.537
 4284SOL    HW113751   5.618   0.106   2.441
 4284SOL    HW213752   5.570   7.021   2.552
 4285SOL     OW13753   0.503   7.000   5.964
 4285SOL    HW113754   0.502   6.942   5.882
 4285SOL    HW213755   0.545   6.950   6.040
 4286SOL     OW13756   5.235   5.295   6.169
 4286SOL    HW113757   5.289   5.213   6.150
 4286SOL    HW213758   5.222   5.346   6.084
 4287SOL     OW13759   5.837   0.675   5.000
 4287SOL    HW113760   5.878   0.692   4.910
 4287SOL    HW213761   5.901   0.622   5.056
 4288SOL     OW13762   0.815   6.542   3.185
 4288SOL    HW113763   0.805   6.543   3.285
 4288SOL    HW213764   0.889   6.480   3.160
 4289SOL     OW13765   5.571   2.487   2.083
 4289SOL    HW113766   5.530   2.577   2.072
 4289SOL    HW213767   5.665   2.497   2.117
 4290SOL     OW13768   2.232   6.762   1.249
 4290SOL    HW113769   2.240   6.688   1.183
 4290SOL    HW213770   2.316   6.817   1.247
 4291SOL     OW13771   4.874   3.313   1.345
 4291SOL    HW113772   4.915   3.353   1.427
 4291SOL    HW213773   4.779   3.289   1.364
 4292SOL     OW13774   6.028   4.621   5.621
 4292SOL    HW113775   6.093   4.691   5.590
 4292SOL    HW213776   5.960   4.664   5.681
 4293SOL     OW13777   6.611   3.952   6.519
 4293SOL    HW113778   6.667   3.891   6.575
 4293SOL    HW213779   6.670   4.006   6.458
 4294SOL     OW13780   4.483   3.052   6.807
 4294SOL    HW113781   4.408   3.086   6.864
 4294SOL    HW213782   4.505   2.958   6.835
 4295SOL     OW13783   3.993   0.358   4.767
 4295SOL    HW113784   4.023   0.394   4.856
 4295SOL    HW213785   4.050   0.279   4.743
 4296SOL     OW13786   2.326   1.961   0.199
 4296SOL    HW113787   2.317   1.868   0.236
 4296SOL    HW213788   2.391   1.960   0.123
 4297SOL     OW13789   4.955   6.858   5.424
 4297SOL    HW113790   5.008   6.819   5.500
 4297SOL    HW213791   4.936   6.786   5.357
 4298SOL     OW13792   1.568   5.190   0.274
 4298SOL    HW113793   1.582   5.093   0.298
 4298SOL    HW213794   1.478   5.220   0.307
 4299SOL     OW13795   1.500   3.326   6.133
 4299SOL    HW113796   1.554   3.324   6.217
 4299SOL    HW213797   1.428   3.256   6.138
 4300SOL     OW13798   2.782   1.114   5.964
 4300SOL    HW113799   2.741   1.170   5.892
 4300SOL    HW213800   2.711   1.087   6.029
 4301SOL     OW13801   2.846   1.390   0.550
 4301SOL    HW113802   2.792   1.445   0.486
 4301SOL    HW213803   2.900   1.323   0.498
 4302SOL     OW13804   1.461   6.365   5.955
 4302SOL    HW113805   1.398   6.358   5.878
 4302SOL    HW213806   1.436   6.444   6.011
 4303SOL     OW13807   6.368   4.511   2.931
 4303SOL    HW113808   6.401   4.441   2.994
 4303SOL    HW213809   6.273   4.533   2.953
 4304SOL     OW13810   3.338   3.562   4.375
 4304SOL    HW113811   3.278   3.613   4.314
 4304SOL    HW213812   3.353   3.470   4.338
 4305SOL     OW13813   6.145   1.447   3.650
 4305SOL    HW113814   6.194   1.365   3.679
 4305SOL    HW213815   6.173   1.472   3.558
 4306SOL     OW13816   0.358   3.715   6.689
 4306SOL    HW113817   0.282   3.770   6.655
 4306SOL    HW213818   0.354   3.710   6.789
 4307SOL     OW13819   4.673   4.287   5.490
 4307SOL    HW113820   4.702   4.230   5.414
 4307SOL    HW213821   4.576   4.270   5.509
 4308SOL     OW13822   5.154   6.099   5.700
 4308SOL    HW113823   5.109   6.010   5.696
 4308SOL    HW213824   5.129   6.146   5.785
 4309SOL     OW13825   1.028   0.233   0.274
 4309SOL    HW113826   0.941   0.280   0.288
 4309SOL    HW213827   1.011   0.146   0.228
 4310SOL     OW13828   1.596   2.498   4.218
 4310SOL    HW113829   1.666   2.551   4.170
 4310SOL    HW213830   1.530   2.560   4.259
 4311SOL     OW13831   1.359   6.433   3.300
 4311SOL    HW113832   1.269   6.400   3.331
 4311SOL    HW213833   1.346   6.507   3.233
 4312SOL     OW13834   1.053   5.877   1.520
 4312SOL    HW113835   0.969   5.831   1.548
 4312SOL    HW213836   1.129   5.811   1.520
 4313SOL     OW13837   5.644   1.458   1.614
 4313SOL    HW113838   5.576   1.415   1.673
 4313SOL    HW213839   5.627   1.557   1.610
 4314SOL     OW13840   4.766   2.886   3.062
 4314SOL    HW113841   4.864   2.875   3.042
 4314SOL    HW213842   4.713   2.850   2.986
 4315SOL     OW13843   2.331   0.363   2.297
 4315SOL    HW113844   2.297   0.443   2.248
 4315SOL    HW213845   2.362   0.294   2.231
 4316SOL     OW13846   4.970   0.289   1.086
 4316SOL    HW113847   4.979   0.214   1.152
 4316SOL    HW213848   5.061   0.311   1.049
 4317SOL     OW13849   3.032   1.044   5.407
 4317SOL    HW113850   3.067   0.958   5.370
 4317SOL    HW213851   2.983   1.026   5.492
 4318SOL     OW13852   0.842   3.572   3.717
 4318SOL    HW113853   0.846   3.478   3.682
 4318SOL    HW213854   0.888   3.576   3.806
 4319SOL     OW13855   2.394   3.397   6.735
 4319SOL    HW113856   2.345   3.399   6.647
 4319SOL    HW213857   2.468   3.464   6.733
 4320SOL     OW13858   1.482   6.314   2.047
 4320SOL    HW113859   1.413   6.283   2.113
 4320SOL    HW213860   1.551   6.368   2.096
 4321SOL     OW13861   6.006   0.768   4.774
 4321SOL    HW113862   5.958   0.850   4.804
 4321SOL    HW213863   6.063   0.790   4.695
 4322SOL     OW13864   6.589   1.327   6.462
 4322SOL    HW113865   6.594   1.397   6.533
 4322SOL    HW213866   6.499   1.330   6.418
 4323SOL     OW13867   5.576   3.250   2.182
 4323SOL    HW113868   5.552   3.336   2.137
 4323SOL    HW213869   5.500   3.185   2.172
 4324SOL     OW13870   5.671   4.458   6.960
 4324SOL    HW113871   5.696   4.499   0.023
 4324SOL    HW213872   5.684   4.359   6.966
 4325SOL     OW13873   1.456   0.923   0.499
 4325SOL    HW113874   1.527   0.875   0.549
 4325SOL    HW213875   1.371   0.870   0.502
 4326SOL     OW13876   6.747   2.893   5.186
 4326SOL    HW113877   6.801   2.973   5.209
 4326SOL    HW213878   6.758   2.824   5.257
 4327SOL     OW13879   5.766   5.412   2.261
 4327SOL    HW113880   5.707   5.393   2.182
 4327SOL    HW213881   5.732   5.493   2.309
 4328SOL     OW13882   4.373   4.704   5.649
 4328SOL    HW113883   4.415   4.785   5.691
 4328SOL    HW213884   4.277   4.723   5.631
 4329SOL     OW13885   3.293   1.544   6.122
 4329SOL    HW113886   3.230   1.512   6.192
 4329SOL    HW213887   3.281   1.643   6.108
 4330SOL     OW13888   2.497   0.349   5.521
 4330SOL    HW113889   2.476   0.377   5.428
 4330SOL    HW213890   2.586   0.304   5.524
 4331SOL     OW13891   5.240   3.377   1.578
 4331SOL    HW113892   5.146   3.406   1.592
 4331SOL    HW213893   5.245   3.319   1.496
 4332SOL     OW13894   5.192   3.841   1.998
 4332SOL    HW113895   5.259   3.790   2.051
 4332SOL    HW213896   5.101   3.827   2.037
 4333SOL     OW13897   5.029   1.535   5.388
 4333SOL    HW113898   4.933   1.515   5.408
 4333SOL    HW213899   5.039   1.564   5.293
 4334SOL     OW13900   2.735   2.110   2.025
 4334SOL    HW113901   2.657   2.130   1.966
 4334SOL    HW213902   2.797   2.189   2.026
 4335SOL     OW13903   2.872   3.401   3.722
 4335SOL    HW113904   2.862   3.454   3.637
 4335SOL    HW213905   2.799   3.333   3.726
 4336SOL     OW13906   1.402   6.863   5.245
 4336SOL    HW113907   1.475   6.869   5.313
 4336SOL    HW213908   1.414   6.780   5.191
 4337SOL     OW13909   0.906   4.833   0.264
 4337SOL    HW113910   0.926   4.884   0.180
 4337SOL    HW213911   0.886   4.898   0.338
 4338SOL     OW13912   5.023   5.370   4.895
 4338SOL    HW113913   4.982   5.281   4.912
 4338SOL    HW213914   5.082   5.396   4.972
 4339SOL     OW13915   5.890   2.615   5.109
 4339SOL    HW113916   5.842   2.626   5.021
 4339SOL    HW213917   5.906   2.518   5.125
 4340SOL     OW13918   6.361   3.606   2.333
 4340SOL    HW113919   6.279   3.651   2.298
 4340SOL    HW213920   6.377   3.522   2.281
 4341SOL     OW13921   1.332   3.842   2.071
 4341SOL    HW113922   1.259   3.864   2.006
 4341SOL    HW213923   1.385   3.924   2.091
 4342SOL     OW13924   6.537   2.841   3.587
 4342SOL    HW113925   6.505   2.764   3.642
 4342SOL    HW213926   6.487   2.844   3.501
 4343SOL     OW13927   3.353   0.280   6.950
 4343SOL    HW113928   3.289   0.264   0.000
 4343SOL    HW213929   3.319   0.355   6.892
 4344SOL     OW13930   1.571   5.378   3.404
 4344SOL    HW113931   1.663   5.404   3.375
 4344SOL    HW213932   1.547   5.289   3.365
 4345SOL     OW13933   1.642   3.380   5.468
 4345SOL    HW113934   1.703   3.309   5.503
 4345SOL    HW213935   1.687   3.429   5.393
 4346SOL     OW13936   2.298   2.997   1.565
 4346SOL    HW113937   2.345   3.070   1.615
 4346SOL    HW213938   2.200   3.017   1.560
 4347SOL     OW13939   6.940   1.006   1.624
 4347SOL    HW113940   7.008   0.970   1.560
 4347SOL    HW213941   6.849   0.978   1.594
 4348SOL     OW13942   0.099   3.247   2.526
 4348SOL    HW113943   0.120   3.298   2.609
 4348SOL    HW213944   0.039   3.170   2.548
 4349SOL     OW13945   0.372   1.723   2.811
 4349SOL    HW113946   0.311   1.700   2.734
 4349SOL    HW213947   0.324   1.708   2.897
 4350SOL     OW13948   4.695   2.217   4.390
 4350SOL    HW113949   4.638   2.284   4.438
 4350SOL    HW213950   4.791   2.242   4.399
 4351SOL     OW13951   2.201   6.599   1.750
 4351SOL    HW113952   2.253   6.516   1.770
 4351SOL    HW213953   2.238   6.644   1.669
 4352SOL     OW13954   0.505   2.374   1.748
 4352SOL    HW113955   0.502   2.466   1.785
 4352SOL    HW213956   0.433   2.362   1.680
 4353SOL     OW13957   2.700   5.565   1.047
 4353SOL    HW113958   2.638   5.619   1.104
 4353SOL    HW213959   2.708   5.473   1.084
 4354SOL     OW13960   1.928   6.583   6.447
 4354SOL    HW113961   1.893   6.677   6.449
 4354SOL    HW213962   1.909   6.538   6.534
 4355SOL     OW13963   3.658   0.273   1.948
 4355SOL    HW113964   3.750   0.272   1.910
 4355SOL    HW213965   3.594   0.309   1.880
 4356SOL     OW13966   4.632   4.331   1.713
 4356SOL    HW113967   4.595   4.385   1.638
 4356SOL    HW213968   4.557   4.292   1.766
 4357SOL     OW13969   5.782   0.261   6.736
 4357SOL    HW113970   5.729   0.200   6.795
 4357SOL    HW213971   5.839   0.207   6.674
 4358SOL     OW13972   6.729   6.436   0.512
 4358SOL    HW113973   6.780   6.377   0.574
 4358SOL    HW213974   6.704   6.386   0.430
 4359SOL     OW13975   1.377   2.203   4.466
 4359SOL    HW113976   1.327   2.226   4.549
 4359SOL    HW213977   1.396   2.105   4.464
 4360SOL     OW13978   1.224   4.133   2.450
 4360SOL    HW113979   1.134   4.103   2.480
 4360SOL    HW213980   1.283   4.052   2.437
 4361SOL     OW13981   3.275   2.785   1.879
 4361SOL    HW113982   3.261   2.831   1.791
 4361SOL    HW213983   3.307   2.692   1.863
 4362SOL     OW13984   6.074   3.936   5.764
 4362SOL    HW113985   5.987   3.918   5.718
 4362SOL    HW213986   6.058   3.950   5.862
 4363SOL     OW13987   4.663   2.062   5.915
 4363SOL    HW113988   4.729   2.009   5.968
 4363SOL    HW213989   4.573   2.056   5.958
 4364SOL     OW13990   3.005   3.731   5.573
 4364SOL    HW113991   3.101   3.745   5.594
 4364SOL    HW213992   2.995   3.711   5.475
 4365SOL     OW13993   2.905   1.497   2.558
 4365SOL    HW113994   2.864   1.562   2.494
 4365SOL    HW213995   2.837   1.432   2.590
 4366SOL     OW13996   6.007   6.657   1.054
 4366SOL    HW113997   6.073   6.647   1.128
 4366SOL    HW213998   5.952   6.573   1.047
 4367SOL     OW13999   0.877   4.857   5.067
 4367SOL    HW114000   0.824   4.776   5.092
 4367SOL    HW214001   0.971   4.847   5.100
 4368SOL     OW14002   4.509   5.192   1.186
 4368SOL    HW114003   4.562   5.277   1.190
 4368SOL    HW214004   4.411   5.214   1.188
 4369SOL     OW14005   5.095   5.735   2.557
 4369SOL    HW114006   5.046   5.648   2.560
 4369SOL    HW214007   5.128   5.751   2.464
 4370SOL     OW14008   5.729   4.762   3.148
 4370SOL    HW114009   5.822   4.782   3.178
 4370SOL    HW214010   5.678   4.719   3.223
 4371SOL     OW14011   6.136   0.438   1.681
 4371SOL    HW114012   6.065   0.374   1.653
 4371SOL    HW214013   6.226   0.405   1.652
 4372SOL     OW14014   4.702   1.118   2.697
 4372SOL    HW114015   4.658   1.159   2.777
 4372SOL    HW214016   4.740   1.189   2.639
 4373SOL     OW14017   6.962   2.837   6.860
 4373SOL    HW114018   0.022   2.784   6.860
 4373SOL    HW214019   6.884   2.777   6.880
 4374SOL     OW14020   1.248   2.085   1.765
 4374SOL    HW114021   1.180   2.148   1.802
 4374SOL    HW214022   1.272   2.112   1.671
 4375SOL     OW14023   2.582   6.945   4.145
 4375SOL    HW114024   2.663   6.969   4.199
 4375SOL    HW214025   2.593   6.852   4.110
 4376SOL     OW14026   6.511   6.999   2.171
 4376SOL    HW114027   6.601   0.018   2.173
 4376SOL    HW214028   6.517   6.909   2.129
 4377SOL     OW14029   5.443   3.761   0.470
 4377SOL    HW114030   5.526   3.757   0.525
 4377SOL    HW214031   5.421   3.669   0.438
 4378SOL     OW14032   2.078   0.498   3.113
 4378SOL    HW114033   2.073   0.593   3.142
 4378SOL    HW214034   2.079   0.492   3.013
 4379SOL     OW14035   2.630   1.165   4.223
 4379SOL    HW114036   2.546   1.144   4.273
 4379SOL    HW214037   2.701   1.100   4.247
 4380SOL     OW14038   1.290   1.005   1.543
 4380SOL    HW114039   1.356   1.025   1.615
 4380SOL    HW214040   1.307   0.913   1.507
 4381SOL     OW14041   1.581   5.667   5.070
 4381SOL    HW114042   1.525   5.613   5.132
 4381SOL    HW214043   1.665   5.618   5.049
 4382SOL     OW14044   6.712   3.189   6.246
 4382SOL    HW114045   6.724   3.281   6.285
 4382SOL    HW214046   6.798   3.159   6.206
 4383SOL     OW14047   5.936   3.407   6.207
 4383SOL    HW114048   5.921   3.487   6.265
 4383SOL    HW214049   5.901   3.425   6.116
 4384SOL     OW14050   6.595   0.876   3.396
 4384SOL    HW114051   6.663   0.910   3.460
 4384SOL    HW214052   6.527   0.948   3.378
 4385SOL     OW14053   4.557   2.146   4.705
 4385SOL    HW114054   4.523   2.185   4.619
 4385SOL    HW214055   4.559   2.216   4.776
 4386SOL     OW14056   1.094   3.828   5.916
 4386SOL    HW114057   1.138   3.907   5.874
 4386SOL    HW214058   1.115   3.826   6.014
 4387SOL     OW14059   6.203   2.658   1.495
 4387SOL    HW114060   6.125   2.641   1.555
 4387SOL    HW214061   6.181   2.732   1.432
 4388SOL     OW14062   5.552   2.062   6.185
 4388SOL    HW114063   5.561   1.967   6.213
 4388SOL    HW214064   5.599   2.077   6.098
 4389SOL     OW14065   6.757   3.556   1.730
 4389SOL    HW114066   6.779   3.630   1.793
 4389SOL    HW214067   6.818   3.560   1.651
 4390SOL     OW14068   5.589   6.999   0.713
 4390SOL    HW114069   5.584   0.071   0.740
 4390SOL    HW214070   5.684   6.968   0.718
 4391SOL     OW14071   1.849   4.895   6.552
 4391SOL    HW114072   1.791   4.871   6.629
 4391SOL    HW214073   1.915   4.822   6.535
 4392SOL     OW14074   0.698   1.794   4.137
 4392SOL    HW114075   0.768   1.724   4.152
 4392SOL    HW214076   0.626   1.757   4.078
 4393SOL     OW14077   6.216   0.267   1.910
 4393SOL    HW114078   6.161   0.347   1.885
 4393SOL    HW214079   6.204   0.246   2.007
 4394SOL     OW14080   1.189   0.077   1.313
 4394SOL    HW114081   1.207   0.129   1.229
 4394SOL    HW214082   1.269   0.079   1.372
 4395SOL     OW14083   1.692   0.181   1.819
 4395SOL    HW114084   1.739   0.268   1.832
 4395SOL    HW214085   1.684   0.163   1.721
 4396SOL     OW14086   1.458   1.649   3.860
 4396SOL    HW114087   1.451   1.630   3.958
 4396SOL    HW214088   1.473   1.563   3.811
 4397SOL     OW14089   2.080   3.168   3.866
 4397SOL    HW114090   2.098   3.222   3.783
 4397SOL    HW214091   2.159   3.110   3.887
 4398SOL     OW14092   1.787   3.482   6.079
 4398SOL    HW114093   1.807   3.489   5.982
 4398SOL    HW214094   1.872   3.495   6.131
 4399SOL     OW14095   1.840   5.851   1.726
 4399SOL    HW114096   1.880   5.862   1.635
 4399SOL    HW214097   1.891   5.906   1.792
 4400SOL     OW14098   1.445   6.610   3.843
 4400SOL    HW114099   1.362   6.663   3.829
 4400SOL    HW214100   1.435   6.520   3.801
 4401SOL     OW14101   3.730   6.469   5.333
 4401SOL    HW114102   3.674   6.529   5.276
 4401SOL    HW214103   3.760   6.391   5.279
 4402SOL     OW14104   1.195   0.331   1.998
 4402SOL    HW114105   1.177   0.428   1.982
 4402SOL    HW214106   1.172   0.308   2.092
 4403SOL     OW14107   0.565   5.479   0.996
 4403SOL    HW114108   0.476   5.522   1.010
 4403SOL    HW214109   0.555   5.380   1.004
 4404SOL     OW14110   1.059   5.561   5.327
 4404SOL    HW114111   1.118   5.641   5.333
 4404SOL    HW214112   1.104   5.483   5.370
 4405SOL     OW14113   2.710   5.240   3.088
 4405SOL    HW114114   2.665   5.181   3.022
 4405SOL    HW214115   2.665   5.232   3.177
 4406SOL     OW14116   6.740   3.293   1.550
 4406SOL    HW114117   6.748   3.285   1.450
 4406SOL    HW214118   6.759   3.387   1.578
 4407SOL     OW14119   0.271   5.778   1.486
 4407SOL    HW114120   0.339   5.839   1.445
 4407SOL    HW214121   0.190   5.831   1.512
 4408SOL     OW14122   3.320   6.117   6.976
 4408SOL    HW114123   3.230   6.089   6.943
 4408SOL    HW214124   3.309   6.169   0.036
 4409SOL     OW14125   3.932   0.774   2.188
 4409SOL    HW114126   3.904   0.692   2.137
 4409SOL    HW214127   3.880   0.853   2.156
 4410SOL     OW14128   0.050   6.445   0.654
 4410SOL    HW114129   0.036   6.447   0.753
 4410SOL    HW214130   0.016   6.358   0.617
 4411SOL     OW14131   3.458   4.839   5.564
 4411SOL    HW114132   3.555   4.837   5.589
 4411SOL    HW214133   3.436   4.760   5.508
 4412SOL     OW14134   5.204   6.918   4.264
 4412SOL    HW114135   5.275   6.941   4.331
 4412SOL    HW214136   5.117   6.958   4.292
 4413SOL     OW14137   3.903   6.530   4.259
 4413SOL    HW114138   3.909   6.444   4.209
 4413SOL    HW214139   3.808   6.562   4.258
 4414SOL     OW14140   4.879   5.399   1.636
 4414SOL    HW114141   4.836   5.429   1.720
 4414SOL    HW214142   4.814   5.407   1.560
 4415SOL     OW14143   3.603   3.938   1.345
 4415SOL    HW114144   3.524   3.913   1.289
 4415SOL    HW214145   3.608   3.878   1.424
 4416SOL     OW14146   3.847   1.412   4.404
 4416SOL    HW114147   3.876   1.413   4.308
 4416SOL    HW214148   3.825   1.505   4.433
 4417SOL     OW14149   6.346   2.677   4.379
 4417SOL    HW114150   6.412   2.613   4.339
 4417SOL    HW214151   6.385   2.769   4.380
 4418SOL     OW14152   6.343   1.349   1.478
 4418SOL    HW114153   6.439   1.373   1.460
 4418SOL    HW214154   6.309   1.404   1.555
 4419SOL     OW14155   6.143   5.969   6.219
 4419SOL    HW114156   6.099   6.041   6.271
 4419SOL    HW214157   6.082   5.939   6.145
 4420SOL     OW14158   3.879   2.213   1.531
 4420SOL    HW114159   3.827   2.195   1.614
 4420SOL    HW214160   3.869   2.136   1.467
 4421SOL     OW14161   0.887   3.194   4.997
 4421SOL    HW114162   0.797   3.215   5.035
 4421SOL    HW214163   0.953   3.180   5.072
 4422SOL     OW14164   1.238   4.955   6.918
 4422SOL    HW114165   1.311   5.023   6.908
 4422SOL    HW214166   1.262   4.872   6.869
 4423SOL     OW14167   6.325   4.540   5.603
 4423SOL    HW114168   6.241   4.498   5.568
 4423SOL    HW214169   6.392   4.468   5.622
 4424SOL     OW14170   4.813   5.550   4.098
 4424SOL    HW114171   4.843   5.627   4.041
 4424SOL    HW214172   4.813   5.578   4.194
 4425SOL     OW14173   1.787   5.487   0.960
 4425SOL    HW114174   1.773   5.462   1.056
 4425SOL    HW214175   1.775   5.586   0.949
 4426SOL     OW14176   0.679   0.589   3.900
 4426SOL    HW114177   0.607   0.648   3.864
 4426SOL    HW214178   0.659   0.494   3.876
 4427SOL     OW14179   3.738   6.551   2.737
 4427SOL    HW114180   3.749   6.612   2.659
 4427SOL    HW214181   3.720   6.458   2.704
 4428SOL     OW14182   5.117   0.819   4.580
 4428SOL    HW114183   5.110   0.728   4.621
 4428SOL    HW214184   5.211   0.836   4.553
 4429SOL     OW14185   3.290   6.902   3.526
 4429SOL    HW114186   3.220   6.847   3.570
 4429SOL    HW214187   3.250   6.955   3.452
 4430SOL     OW14188   5.888   4.605   4.002
 4430SOL    HW114189   5.928   4.515   4.017
 4430SOL    HW214190   5.959   4.669   3.971
 4431SOL     OW14191   3.270   0.420   3.710
 4431SOL    HW114192   3.251   0.354   3.637
 4431SOL    HW214193   3.258   0.512   3.674
 4432SOL     OW14194   2.255   3.729   6.442
 4432SOL    HW114195   2.297   3.743   6.531
 4432SOL    HW214196   2.190   3.803   6.424
 4433SOL     OW14197   0.873   1.732   4.824
 4433SOL    HW114198   0.778   1.719   4.797
 4433SOL    HW214199   0.934   1.713   4.747
 4434SOL     OW14200   6.988   1.347   1.831
 4434SOL    HW114201   6.992   1.372   1.735
 4434SOL    HW214202   6.924   1.272   1.844
 4435SOL     OW14203   3.235   3.872   0.733
 4435SOL    HW114204   3.218   3.802   0.801
 4435SOL    HW214205   3.327   3.859   0.694
 4436SOL     OW14206   4.555   2.511   1.466
 4436SOL    HW114207   4.630   2.461   1.511
 4436SOL    HW214208   4.580   2.529   1.371
 4437SOL     OW14209   0.470   3.547   2.695
 4437SOL    HW114210   0.548   3.494   2.664
 4437SOL    HW214211   0.501   3.622   2.753
 4438SOL     OW14212   4.364   6.479   5.487
 4438SOL    HW114213   4.431   6.532   5.538
 4438SOL    HW214214   4.361   6.511   5.392
 4439SOL     OW14215   1.027   6.511   3.025
 4439SOL    HW114216   1.068   6.477   3.110
 4439SOL    HW214217   1.097   6.559   2.971
 4440SOL     OW14218   2.277   4.475   1.117
 4440SOL    HW114219   2.271   4.553   1.056
 4440SOL    HW214220   2.363   4.427   1.101
 4441SOL     OW14221   1.270   1.862   1.168
 4441SOL    HW114222   1.197   1.850   1.101
 4441SOL    HW214223   1.229   1.881   1.258
 4442SOL     OW14224   1.259   5.178   5.725
 4442SOL    HW114225   1.282   5.092   5.769
 4442SOL    HW214226   1.160   5.184   5.713
 4443SOL     OW14227   0.754   4.702   6.672
 4443SOL    HW114228   0.815   4.626   6.695
 4443SOL    HW214229   0.666   4.688   6.716
 4444SOL     OW14230   4.395   4.215   1.010
 4444SOL    HW114231   4.329   4.157   1.057
 4444SOL    HW214232   4.487   4.195   1.044
 4445SOL     OW14233   0.051   5.261   6.514
 4445SOL    HW114234   0.015   5.211   6.436
 4445SOL    HW214235   0.140   5.301   6.491
 4446SOL     OW14236   5.405   1.616   0.008
 4446SOL    HW114237   5.436   1.524   0.029
 4446SOL    HW214238   5.414   1.674   0.089
 4447SOL     OW14239   5.425   4.421   5.378
 4447SOL    HW114240   5.370   4.343   5.408
 4447SOL    HW214241   5.464   4.402   5.288
 4448SOL     OW14242   2.920   6.410   1.203
 4448SOL    HW114243   2.837   6.460   1.227
 4448SOL    HW214244   2.953   6.441   1.114
 4449SOL     OW14245   4.261   1.348   6.371
 4449SOL    HW114246   4.299   1.347   6.464
 4449SOL    HW214247   4.328   1.388   6.309
 4450SOL     OW14248   3.650   0.891   0.041
 4450SOL    HW114249   3.571   0.952   0.049
 4450SOL    HW214250   3.721   0.920   0.105
 4451SOL     OW14251   4.875   4.945   3.676
 4451SOL    HW114252   4.805   4.881   3.708
 4451SOL    HW214253   4.836   5.005   3.606
 4452SOL     OW14254   5.569   5.800   4.360
 4452SOL    HW114255   5.516   5.715   4.350
 4452SOL    HW214256   5.529   5.871   4.303
 4453SOL     OW14257   0.499   3.267   1.848
 4453SOL    HW114258   0.567   3.201   1.818
 4453SOL    HW214259   0.408   3.236   1.818
 4454SOL     OW14260   0.844   1.449   0.007
 4454SOL    HW114261   0.896   1.510   6.972
 4454SOL    HW214262   0.809   1.500   0.086
 4455SOL     OW14263   5.856   5.776   4.999
 4455SOL    HW114264   5.854   5.678   4.979
 4455SOL    HW214265   5.918   5.822   4.936
 4456SOL     OW14266   2.086   6.435   3.436
 4456SOL    HW114267   2.084   6.503   3.509
 4456SOL    HW214268   2.178   6.397   3.427
 4457SOL     OW14269   1.306   2.131   4.722
 4457SOL    HW114270   1.383   2.158   4.779
 4457SOL    HW214271   1.224   2.121   4.779
 4458SOL     OW14272   2.093   3.551   1.778
 4458SOL    HW114273   2.009   3.495   1.784
 4458SOL    HW214274   2.166   3.506   1.828
 4459SOL     OW14275   1.538   2.149   4.868
 4459SOL    HW114276   1.568   2.074   4.926
 4459SOL    HW214277   1.608   2.221   4.868
 4460SOL     OW14278   6.785   2.828   4.154
 4460SOL    HW114279   6.884   2.825   4.141
 4460SOL    HW214280   6.742   2.867   4.072
 4461SOL     OW14281   2.438   0.626   1.784
 4461SOL    HW114282   2.361   0.603   1.843
 4461SOL    HW214283   2.475   0.715   1.810
 4462SOL     OW14284   6.115   3.710   2.244
 4462SOL    HW114285   6.079   3.803   2.254
 4462SOL    HW214286   6.047   3.645   2.277
 4463SOL     OW14287   5.545   0.910   0.852
 4463SOL    HW114288   5.527   0.974   0.777
 4463SOL    HW214289   5.585   0.960   0.929
 4464SOL     OW14290   0.478   5.030   0.587
 4464SOL    HW114291   0.550   5.056   0.651
 4464SOL    HW214292   0.394   5.080   0.609
 4465SOL     OW14293   2.529   5.975   0.154
 4465SOL    HW114294   2.619   5.931   0.152
 4465SOL    HW214295   2.521   6.031   0.236
 4466SOL     OW14296   2.343   2.081   3.883
 4466SOL    HW114297   2.342   1.993   3.931
 4466SOL    HW214298   2.299   2.151   3.940
 4467SOL     OW14299   2.711   6.156   3.768
 4467SOL    HW114300   2.720   6.122   3.861
 4467SOL    HW214301   2.783   6.223   3.750
 4468SOL     OW14302   0.809   2.986   0.455
 4468SOL    HW114303   0.825   2.960   0.550
 4468SOL    HW214304   0.812   2.904   0.397
 4469SOL     OW14305   2.882   6.925   1.545
 4469SOL    HW114306   2.922   6.936   1.454
 4469SOL    HW214307   2.895   6.831   1.576
 4470SOL     OW14308   1.008   0.781   2.359
 4470SOL    HW114309   0.947   0.825   2.426
 4470SOL    HW214310   1.049   0.851   2.301
 4471SOL     OW14311   2.261   2.732   6.264
 4471SOL    HW114312   2.207   2.719   6.347
 4471SOL    HW214313   2.208   2.786   6.199
 4472SOL     OW14314   1.571   2.774   1.100
 4472SOL    HW114315   1.587   2.863   1.141
 4472SOL    HW214316   1.473   2.763   1.082
 4473SOL     OW14317   6.521   2.532   4.199
 4473SOL    HW114318   6.519   2.470   4.278
 4473SOL    HW214319   6.612   2.529   4.157
 4474SOL     OW14320   3.104   0.700   2.091
 4474SOL    HW114321   3.147   0.763   2.026
 4474SOL    HW214322   3.031   0.747   2.140
 4475SOL     OW14323   1.044   3.799   2.426
 4475SOL    HW114324   0.981   3.873   2.402
 4475SOL    HW214325   1.073   3.751   2.343
 4476SOL     OW14326   5.626   1.147   4.289
 4476SOL    HW114327   5.664   1.239   4.300
 4476SOL    HW214328   5.675   1.083   4.348
 4477SOL     OW14329   2.568   0.096   5.362
 4477SOL    HW114330   2.639   0.131   5.423
 4477SOL    HW214331   2.569   0.147   5.277
 4478SOL     OW14332   1.169   0.272   1.126
 4478SOL    HW114333   1.146   0.369   1.129
 4478SOL    HW214334   1.254   0.260   1.075
 4479SOL     OW14335   1.121   2.306   0.099
 4479SOL    HW114336   1.134   2.223   0.154
 4479SOL    HW214337   1.160   2.384   0.148
 4480SOL     OW14338   0.214   4.589   4.628
 4480SOL    HW114339   0.261   4.510   4.669
 4480SOL    HW214340   0.115   4.581   4.645
 4481SOL     OW14341   2.494   4.888   5.596
 4481SOL    HW114342   2.592   4.903   5.582
 4481SOL    HW214343   2.481   4.808   5.654
 4482SOL     OW14344   3.012   4.729   6.081
 4482SOL    HW114345   3.034   4.632   6.081
 4482SOL    HW214346   2.927   4.744   6.132
 4483SOL     OW14347   0.774   2.945   2.063
 4483SOL    HW114348   0.772   3.045   2.070
 4483SOL    HW214349   0.794   2.920   1.968
 4484SOL     OW14350   2.307   3.334   0.444
 4484SOL    HW114351   2.372   3.265   0.476
 4484SOL    HW214352   2.276   3.310   0.351
 4485SOL     OW14353   4.666   2.862   4.867
 4485SOL    HW114354   4.738   2.895   4.805
 4485SOL    HW214355   4.610   2.939   4.897
 4486SOL     OW14356   5.403   4.653   5.611
 4486SOL    HW114357   5.405   4.752   5.625
 4486SOL    HW214358   5.494   4.622   5.581
 4487SOL     OW14359   1.841   3.122   6.957
 4487SOL    HW114360   1.857   3.060   0.009
 4487SOL    HW214361   1.746   3.151   6.956
 4488SOL     OW14362   1.011   3.935   3.826
 4488SOL    HW114363   1.068   3.901   3.901
 4488SOL    HW214364   1.068   3.948   3.745
 4489SOL     OW14365   4.915   5.375   5.324
 4489SOL    HW114366   4.891   5.450   5.262
 4489SOL    HW214367   4.834   5.317   5.338
 4490SOL     OW14368   5.098   1.776   0.758
 4490SOL    HW114369   5.033   1.824   0.817
 4490SOL    HW214370   5.160   1.843   0.715
 4491SOL     OW14371   1.027   3.048   2.961
 4491SOL    HW114372   1.062   2.957   2.939
 4491SOL    HW214373   1.101   3.105   2.997
 4492SOL     OW14374   5.802   1.051   1.475
 4492SOL    HW114375   5.893   1.042   1.436
 4492SOL    HW214376   5.806   1.035   1.574
 4493SOL     OW14377   5.433   6.747   4.986
 4493SOL    HW114378   5.430   6.847   4.978
 4493SOL    HW214379   5.507   6.711   4.930
 4494SOL     OW14380   1.231   0.693   6.073
 4494SOL    HW114381   1.304   0.625   6.078
 4494SOL    HW214382   1.142   0.647   6.068
 4495SOL     OW14383   3.645   5.904   1.988
 4495SOL    HW114384   3.579   5.942   2.053
 4495SOL    HW214385   3.673   5.813   2.018
 4496SOL     OW14386   4.483   6.275   6.427
 4496SOL    HW114387   4.422   6.345   6.391
 4496SOL    HW214388   4.566   6.271   6.371
 4497SOL     OW14389   3.694   2.219   0.089
 4497SOL    HW114390   3.731   2.300   0.134
 4497SOL    HW214391   3.758   2.187   0.019
 4498SOL     OW14392   6.815   5.114   5.860
 4498SOL    HW114393   6.852   5.206   5.850
 4498SOL    HW214394   6.862   5.052   5.797
 4499SOL     OW14395   6.732   1.769   2.973
 4499SOL    HW114396   6.698   1.818   2.893
 4499SOL    HW214397   6.832   1.779   2.978
 4500SOL     OW14398   3.893   5.249   0.021
 4500SOL    HW114399   3.806   5.264   6.999
 4500SOL    HW214400   3.968   5.254   6.979
 4501SOL     OW14401   6.185   1.850   1.923
 4501SOL    HW114402   6.177   1.790   1.844
 4501SOL    HW214403   6.133   1.813   1.999
 4502SOL     OW14404   0.974   3.404   6.761
 4502SOL    HW114405   0.914   3.474   6.800
 4502SOL    HW214406   0.990   3.332   6.829
 4503SOL     OW14407   2.756   6.995   2.383
 4503SOL    HW114408   2.727   6.899   2.384
 4503SOL    HW214409   2.849   7.001   2.347
 4504SOL     OW14410   6.900   1.822   3.610
 4504SOL    HW114411   6.833   1.800   3.539
 4504SOL    HW214412   6.896   1.752   3.682
 4505SOL     OW14413   6.687   4.604   2.576
 4505SOL    HW114414   6.746   4.667   2.525
 4505SOL    HW214415   6.706   4.510   2.546
 4506SOL     OW14416   4.712   2.861   4.050
 4506SOL    HW114417   4.747   2.912   4.129
 4506SOL    HW214418   4.772   2.874   3.972
 4507SOL     OW14419   6.585   3.102   3.609
 4507SOL    HW114420   6.592   3.008   3.640
 4507SOL    HW214421   6.558   3.104   3.513
 4508SOL     OW14422   0.452   4.045   0.867
 4508SOL    HW114423   0.407   4.080   0.785
 4508SOL    HW214424   0.530   3.988   0.841
 4509SOL     OW14425   4.629   1.865   2.412
 4509SOL    HW114426   4.561   1.929   2.448
 4509SOL    HW214427   4.625   1.866   2.312
 4510SOL     OW14428   4.646   1.318   3.869
 4510SOL    HW114429   4.678   1.411   3.885
 4510SOL    HW214430   4.590   1.288   3.947
 4511SOL     OW14431   6.960   4.305   1.138
 4511SOL    HW114432   6.888   4.237   1.150
 4511SOL    HW214433   6.920   4.390   1.103
 4512SOL     OW14434   3.782   2.203   5.579
 4512SOL    HW114435   3.828   2.190   5.667
 4512SOL    HW214436   3.685   2.219   5.595
 4513SOL     OW14437   0.875   6.198   6.572
 4513SOL    HW114438   0.869   6.099   6.560
 4513SOL    HW214439   0.784   6.235   6.591
 4514SOL     OW14440   3.208   3.265   6.751
 4514SOL    HW114441   3.278   3.194   6.753
 4514SOL    HW214442   3.172   3.273   6.658
 4515SOL     OW14443   5.639   0.197   4.811
 4515SOL    HW114444   5.621   0.103   4.837
 4515SOL    HW214445   5.589   0.259   4.871
 4516SOL     OW14446   2.670   1.772   5.913
 4516SOL    HW114447   2.725   1.755   5.832
 4516SOL    HW214448   2.699   1.858   5.956
 4517SOL     OW14449   4.182   0.486   6.449
 4517SOL    HW114450   4.247   0.437   6.391
 4517SOL    HW214451   4.231   0.540   6.517
 4518SOL     OW14452   1.737   6.605   1.109
 4518SOL    HW114453   1.646   6.566   1.098
 4518SOL    HW214454   1.790   6.548   1.172
 4519SOL     OW14455   5.347   6.882   0.162
 4519SOL    HW114456   5.427   6.894   0.222
 4519SOL    HW214457   5.324   6.785   0.157
 4520SOL     OW14458   4.127   6.510   5.234
 4520SOL    HW114459   4.055   6.578   5.248
 4520SOL    HW214460   4.195   6.546   5.169
 4521SOL     OW14461   5.003   2.146   5.304
 4521SOL    HW114462   5.024   2.174   5.397
 4521SOL    HW214463   5.073   2.180   5.242
 4522SOL     OW14464   5.172   3.569   3.767
 4522SOL    HW114465   5.246   3.547   3.705
 4522SOL    HW214466   5.194   3.537   3.859
 4523SOL     OW14467   0.474   3.761   6.447
 4523SOL    HW114468   0.570   3.790   6.447
 4523SOL    HW214469   0.449   3.727   6.538
 4524SOL     OW14470   0.698   3.243   3.195
 4524SOL    HW114471   0.719   3.154   3.154
 4524SOL    HW214472   0.626   3.287   3.142
 4525SOL     OW14473   2.097   2.785   5.869
 4525SOL    HW114474   2.070   2.691   5.892
 4525SOL    HW214475   2.062   2.847   5.939
 4526SOL     OW14476   0.793   0.574   6.414
 4526SOL    HW114477   0.866   0.507   6.423
 4526SOL    HW214478   0.778   0.619   6.502
 4527SOL     OW14479   6.754   0.122   2.796
 4527SOL    HW114480   6.676   0.117   2.734
 4527SOL    HW214481   6.839   0.128   2.744
 4528SOL     OW14482   4.082   0.824   5.438
 4528SOL    HW114483   4.040   0.882   5.508
 4528SOL    HW214484   4.022   0.747   5.418
 4529SOL     OW14485   2.881   1.024   5.624
 4529SOL    HW114486   2.955   0.986   5.678
 4529SOL    HW214487   2.794   1.012   5.673
 4530SOL     OW14488   2.164   6.636   4.790
 4530SOL    HW114489   2.123   6.724   4.767
 4530SOL    HW214490   2.263   6.640   4.776
 4531SOL     OW14491   1.441   4.892   6.563
 4531SOL    HW114492   1.371   4.927   6.501
 4531SOL    HW214493   1.504   4.832   6.513
 4532SOL     OW14494   5.044   0.715   2.869
 4532SOL    HW114495   4.957   0.759   2.848
 4532SOL    HW214496   5.034   0.657   2.950
 4533SOL     OW14497   1.760   0.625   2.709
 4533SOL    HW114498   1.681   0.672   2.746
 4533SOL    HW214499   1.758   0.631   2.609
 4534SOL     OW14500   4.470   1.877   4.491
 4534SOL    HW114501   4.432   1.958   4.535
 4534SOL    HW214502   4.397   1.812   4.471
 4535SOL     OW14503   3.493   1.918   1.030
 4535SOL    HW114504   3.484   2.016   1.050
 4535SOL    HW214505   3.495   1.904   0.931
 4536SOL     OW14506   2.227   2.119   5.701
 4536SOL    HW114507   2.306   2.172   5.730
 4536SOL    HW214508   2.218   2.123   5.601
 4537SOL     OW14509   3.158   3.684   3.708
 4537SOL    HW114510   3.081   3.747   3.715
 4537SOL    HW214511   3.220   3.698   3.785
 4538SOL     OW14512   0.316   2.628   1.819
 4538SOL    HW114513   0.246   2.592   1.757
 4538SOL    HW214514   0.285   2.617   1.914
 4539SOL     OW14515   1.847   5.037   5.194
 4539SOL    HW114516   1.839   5.046   5.095
 4539SOL    HW214517   1.780   5.097   5.239
 4540SOL     OW14518   0.308   1.106   0.667
 4540SOL    HW114519   0.265   1.026   0.626
 4540SOL    HW214520   0.305   1.182   0.602
 4541SOL     OW14521   3.880   1.635   6.689
 4541SOL    HW114522   3.927   1.553   6.724
 4541SOL    HW214523   3.823   1.610   6.611
 4542SOL     OW14524   0.279   2.350   0.720
 4542SOL    HW114525   0.268   2.273   0.657
 4542SOL    HW214526   0.229   2.331   0.804
 4543SOL     OW14527   4.336   2.401   0.652
 4543SOL    HW114528   4.305   2.331   0.587
 4543SOL    HW214529   4.293   2.488   0.630
 4544SOL     OW14530   4.987   5.115   0.462
 4544SOL    HW114531   4.924   5.145   0.534
 4544SOL    HW214532   5.068   5.075   0.505
 4545SOL     OW14533   0.769   4.212   4.921
 4545SOL    HW114534   0.703   4.233   4.993
 4545SOL    HW214535   0.850   4.168   4.961
 4546SOL     OW14536   2.658   1.529   5.642
 4546SOL    HW114537   2.725   1.454   5.652
 4546SOL    HW214538   2.705   1.617   5.649
 4547SOL     OW14539   6.423   0.751   0.359
 4547SOL    HW114540   6.356   0.824   0.350
 4547SOL    HW214541   6.383   0.665   0.328
 4548SOL     OW14542   2.158   2.857   2.819
 4548SOL    HW114543   2.192   2.832   2.729
 4548SOL    HW214544   2.145   2.957   2.824
 4549SOL     OW14545   5.521   4.463   2.465
 4549SOL    HW114546   5.531   4.534   2.535
 4549SOL    HW214547   5.528   4.504   2.374
 4550SOL     OW14548   0.968   4.618   3.125
 4550SOL    HW114549   1.031   4.573   3.188
 4550SOL    HW214550   1.009   4.620   3.033
 4551SOL     OW14551   1.594   3.674   5.012
 4551SOL    HW114552   1.690   3.649   5.026
 4551SOL    HW214553   1.542   3.594   4.984
 4552SOL     OW14554   5.944   1.480   1.260
 4552SOL    HW114555   6.027   1.426   1.273
 4552SOL    HW214556   5.864   1.421   1.268
 4553SOL     OW14557   5.197   4.588   6.164
 4553SOL    HW114558   5.234   4.671   6.205
 4553SOL    HW214559   5.273   4.531   6.131
 4554SOL     OW14560   0.319   6.006   1.078
 4554SOL    HW114561   0.406   5.958   1.062
 4554SOL    HW214562   0.288   6.047   0.992
 4555SOL     OW14563   1.446   1.538   6.844
 4555SOL    HW114564   1.380   1.504   6.778
 4555SOL    HW214565   1.498   1.462   6.882
 4556SOL     OW14566   6.365   3.173   6.029
 4556SOL    HW114567   6.417   3.255   6.005
 4556SOL    HW214568   6.275   3.199   6.064
 4557SOL     OW14569   6.250   4.891   4.115
 4557SOL    HW114570   6.229   4.794   4.120
 4557SOL    HW214571   6.235   4.933   4.204
 4558SOL     OW14572   6.002   3.017   5.500
 4558SOL    HW114573   5.956   3.041   5.415
 4558SOL    HW214574   5.934   3.013   5.574
 4559SOL     OW14575   0.785   2.998   3.099
 4559SOL    HW114576   0.705   2.977   3.044
 4559SOL    HW214577   0.861   3.024   3.039
 4560SOL     OW14578   0.069   4.465   1.744
 4560SOL    HW114579   0.053   4.487   1.648
 4560SOL    HW214580   0.001   4.513   1.800
 4561SOL     OW14581   3.235   2.069   4.180
 4561SOL    HW114582   3.314   2.007   4.182
 4561SOL    HW214583   3.256   2.148   4.122
 4562SOL     OW14584   2.184   6.741   0.418
 4562SOL    HW114585   2.112   6.793   0.464
 4562SOL    HW214586   2.200   6.656   0.468
 4563SOL     OW14587   0.216   2.791   1.538
 4563SOL    HW114588   0.153   2.734   1.592
 4563SOL    HW214589   0.306   2.792   1.582
 4564SOL     OW14590   0.483   4.336   2.031
 4564SOL    HW114591   0.399   4.375   1.991
 4564SOL    HW214592   0.486   4.238   2.012
 4565SOL     OW14593   1.769   0.409   5.116
 4565SOL    HW114594   1.741   0.331   5.060
 4565SOL    HW214595   1.864   0.432   5.096
 4566SOL     OW14596   0.230   4.120   1.469
 4566SOL    HW114597   0.207   4.164   1.383
 4566SOL    HW214598   0.196   4.026   1.469
 4567SOL     OW14599   0.053   6.884   6.194
 4567SOL    HW114600   0.141   6.930   6.184
 4567SOL    HW214601   7.014   6.915   6.123
 4568SOL     OW14602   0.827   4.405   3.970
 4568SOL    HW114603   0.859   4.336   3.905
 4568SOL    HW214604   0.903   4.431   4.030
 4569SOL     OW14605   3.127   0.910   3.289
 4569SOL    HW114606   3.220   0.873   3.287
 4569SOL    HW214607   3.114   0.974   3.214
 4570SOL     OW14608   6.167   5.480   1.470
 4570SOL    HW114609   6.142   5.497   1.565
 4570SOL    HW214610   6.265   5.465   1.463
 4571SOL     OW14611   4.120   2.773   6.688
 4571SOL    HW114612   4.106   2.850   6.626
 4571SOL    HW214613   4.183   2.708   6.647
 4572SOL     OW14614   2.607   2.329   6.620
 4572SOL    HW114615   2.671   2.405   6.606
 4572SOL    HW214616   2.580   2.291   6.532
 4573SOL     OW14617   0.947   6.423   0.965
 4573SOL    HW114618   1.022   6.366   0.931
 4573SOL    HW214619   0.962   6.444   1.062
 4574SOL     OW14620   6.002   3.532   0.073
 4574SOL    HW114621   6.066   3.520   7.022
 4574SOL    HW214622   5.908   3.532   0.037
 4575SOL     OW14623   6.132   0.883   4.545
 4575SOL    HW114624   6.188   0.940   4.605
 4575SOL    HW214625   6.065   0.941   4.498
 4576SOL     OW14626   3.175   4.800   5.169
 4576SOL    HW114627   3.231   4.723   5.139
 4576SOL    HW214628   3.107   4.768   5.235
 4577SOL     OW14629   1.620   2.118   3.126
 4577SOL    HW114630   1.686   2.043   3.114
 4577SOL    HW214631   1.574   2.135   3.039
 4578SOL     OW14632   1.490   0.728   2.639
 4578SOL    HW114633   1.399   0.695   2.663
 4578SOL    HW214634   1.511   0.700   2.545
 4579SOL     OW14635   4.626   7.007   1.948
 4579SOL    HW114636   4.610   0.081   1.941
 4579SOL    HW214637   4.722   6.991   1.970
 4580SOL     OW14638   5.661   3.290   0.329
 4580SOL    HW114639   5.566   3.259   0.331
 4580SOL    HW214640   5.721   3.216   0.362
 4581SOL     OW14641   3.233   6.547   2.174
 4581SOL    HW114642   3.141   6.511   2.192
 4581SOL    HW214643   3.296   6.514   2.244
 4582SOL     OW14644   5.249   0.830   2.737
 4582SOL    HW114645   5.205   0.920   2.729
 4582SOL    HW214646   5.202   0.776   2.807
 4583SOL     OW14647   1.973   0.433   6.634
 4583SOL    HW114648   2.054   0.439   6.576
 4583SOL    HW214649   1.999   0.397   6.724
 4584SOL     OW14650   1.473   0.104   5.984
 4584SOL    HW114651   1.548   0.039   5.991
 4584SOL    HW214652   1.396   0.073   6.039
 4585SOL     OW14653   1.675   4.057   3.664
 4585SOL    HW114654   1.747   4.028   3.727
 4585SOL    HW214655   1.693   4.018   3.573
 4586SOL     OW14656   5.118   4.268   0.521
 4586SOL    HW114657   5.018   4.277   0.515
 4586SOL    HW214658   5.146   4.276   0.617
 4587SOL     OW14659   3.042   3.601   5.032
 4587SOL    HW114660   3.103   3.660   5.085
 4587SOL    HW214661   3.001   3.533   5.093
 4588SOL     OW14662   3.081   3.798   6.230
 4588SOL    HW114663   3.076   3.859   6.309
 4588SOL    HW214664   3.175   3.796   6.195
 4589SOL     OW14665   5.483   5.829   2.103
 4589SOL    HW114666   5.401   5.836   2.046
 4589SOL    HW214667   5.535   5.914   2.095
 4590SOL     OW14668   3.635   5.682   1.614
 4590SOL    HW114669   3.547   5.710   1.576
 4590SOL    HW214670   3.639   5.583   1.620
 4591SOL     OW14671   2.519   6.780   5.392
 4591SOL    HW114672   2.502   6.708   5.460
 4591SOL    HW214673   2.442   6.785   5.329
 4592SOL     OW14674   2.676   1.333   4.588
 4592SOL    HW114675   2.648   1.253   4.641
 4592SOL    HW214676   2.744   1.306   4.520
 4593SOL     OW14677   0.196   5.750   3.285
 4593SOL    HW114678   0.238   5.659   3.279
 4593SOL    HW214679   0.154   5.773   3.197
 4594SOL     OW14680   2.747   0.109   3.168
 4594SOL    HW114681   2.774   0.070   3.080
 4594SOL    HW214682   2.721   0.205   3.156
 4595SOL     OW14683   4.936   1.791   6.283
 4595SOL    HW114684   4.858   1.851   6.268
 4595SOL    HW214685   4.955   1.740   6.200
 4596SOL     OW14686   0.927   0.662   2.051
 4596SOL    HW114687   1.026   0.657   2.064
 4596SOL    HW214688   0.907   0.683   1.955
 4597SOL     OW14689   2.583   5.298   6.785
 4597SOL    HW114690   2.676   5.289   6.821
 4597SOL    HW214691   2.575   5.242   6.702
 4598SOL     OW14692   2.373   5.280   7.001
 4598SOL    HW114693   2.438   5.281   6.925
 4598SOL    HW214694   2.409   5.224   0.051
 4599SOL     OW14695   1.797   4.168   2.843
 4599SOL    HW114696   1.741   4.086   2.855
 4599SOL    HW214697   1.838   4.167   2.752
 4600SOL     OW14698   6.944   6.283   5.988
 4600SOL    HW114699   6.956   6.202   5.930
 4600SOL    HW214700   7.017   6.285   6.057
 4601SOL     OW14701   0.535   0.962   4.646
 4601SOL    HW114702   0.513   0.975   4.550
 4601SOL    HW214703   0.630   0.987   4.663
 4602SOL     OW14704   2.536   0.560   6.577
 4602SOL    HW114705   2.565   0.530   6.668
 4602SOL    HW214706   2.540   0.660   6.572
 4603SOL     OW14707   4.501   6.070   1.259
 4603SOL    HW114708   4.449   5.998   1.306
 4603SOL    HW214709   4.443   6.150   1.246
 4604SOL     OW14710   4.963   0.184   6.001
 4604SOL    HW114711   4.879   0.210   5.953
 4604SOL    HW214712   5.025   0.139   5.936
 4605SOL     OW14713   2.327   6.842   1.941
 4605SOL    HW114714   2.259   6.891   1.887
 4605SOL    HW214715   2.287   6.759   1.979
 4606SOL     OW14716   0.063   6.728   2.733
 4606SOL    HW114717   6.996   6.755   2.762
 4606SOL    HW214718   0.059   6.689   2.641
 4607SOL     OW14719   2.100   4.041   3.206
 4607SOL    HW114720   2.098   4.141   3.206
 4607SOL    HW214721   2.095   4.008   3.112
 4608SOL     OW14722   0.119   3.463   5.009
 4608SOL    HW114723   0.123   3.481   5.108
 4608SOL    HW214724   0.122   3.365   4.993
 4609SOL     OW14725   4.057   6.293   6.353
 4609SOL    HW114726   4.125   6.226   6.323
 4609SOL    HW214727   4.059   6.301   6.452
 4610SOL     OW14728   5.484   2.249   6.775
 4610SOL    HW114729   5.490   2.348   6.791
 4610SOL    HW214730   5.527   2.201   6.851
 4611SOL     OW14731   0.516   1.012   5.847
 4611SOL    HW114732   0.547   0.918   5.837
 4611SOL    HW214733   0.452   1.034   5.773
 4612SOL     OW14734   2.265   6.201   2.433
 4612SOL    HW114735   2.278   6.281   2.491
 4612SOL    HW214736   2.245   6.231   2.339
 4613SOL     OW14737   2.123   4.563   2.358
 4613SOL    HW114738   2.164   4.639   2.408
 4613SOL    HW214739   2.163   4.558   2.266
 4614SOL     OW14740   6.140   2.981   3.823
 4614SOL    HW114741   6.145   2.911   3.895
 4614SOL    HW214742   6.130   3.071   3.865
 4615SOL     OW14743   0.759   1.156   1.169
 4615SOL    HW114744   0.712   1.204   1.243
 4615SOL    HW214745   0.853   1.190   1.163
 4616SOL     OW14746   6.457   2.657   5.213
 4616SOL    HW114747   6.391   2.693   5.147
 4616SOL    HW214748   6.542   2.634   5.166
 4617SOL     OW14749   0.309   2.678   2.105
 4617SOL    HW114750   0.396   2.725   2.091
 4617SOL    HW214751   0.243   2.742   2.143
 4618SOL     OW14752   2.538   3.909   5.652
 4618SOL    HW114753   2.558   3.906   5.750
 4618SOL    HW214754   2.617   3.948   5.604
 4619SOL     OW14755   3.081   5.974   4.316
 4619SOL    HW114756   3.003   5.942   4.262
 4619SOL    HW214757   3.054   5.984   4.411
 4620SOL     OW14758   0.761   5.470   1.387
 4620SOL    HW114759   0.783   5.454   1.291
 4620SOL    HW214760   0.843   5.499   1.436
 4621SOL     OW14761   5.047   0.514   2.302
 4621SOL    HW114762   5.142   0.492   2.327
 4621SOL    HW214763   4.985   0.456   2.355
 4622SOL     OW14764   4.281   5.590   0.943
 4622SOL    HW114765   4.280   5.491   0.930
 4622SOL    HW214766   4.372   5.618   0.974
 4623SOL     OW14767   3.321   5.053   0.779
 4623SOL    HW114768   3.392   4.997   0.738
 4623SOL    HW214769   3.275   5.106   0.707
 4624SOL     OW14770   3.782   1.373   3.530
 4624SOL    HW114771   3.719   1.450   3.519
 4624SOL    HW214772   3.860   1.402   3.586
 4625SOL     OW14773   2.020   5.362   1.975
 4625SOL    HW114774   1.945   5.303   1.946
 4625SOL    HW214775   1.983   5.445   2.016
 4626SOL     OW14776   4.082   3.947   1.763
 4626SOL    HW114777   3.982   3.948   1.762
 4626SOL    HW214778   4.117   4.034   1.727
 4627SOL     OW14779   0.126   5.898   4.720
 4627SOL    HW114780   0.186   5.838   4.771
 4627SOL    HW214781   0.180   5.960   4.663
 4628SOL     OW14782   4.552   4.936   3.564
 4628SOL    HW114783   4.635   4.985   3.535
 4628SOL    HW214784   4.493   4.998   3.615
 4629SOL     OW14785   1.909   5.704   6.467
 4629SOL    HW114786   1.851   5.737   6.542
 4629SOL    HW214787   1.960   5.781   6.429
 4630SOL     OW14788   1.382   5.396   2.635
 4630SOL    HW114789   1.328   5.404   2.719
 4630SOL    HW214790   1.355   5.469   2.572
 4631SOL     OW14791   0.045   0.332   3.947
 4631SOL    HW114792   0.017   0.251   3.894
 4631SOL    HW214793   0.125   0.309   4.002
 4632SOL     OW14794   3.230   5.435   2.575
 4632SOL    HW114795   3.183   5.412   2.489
 4632SOL    HW214796   3.210   5.364   2.643
 4633SOL     OW14797   5.424   1.588   4.512
 4633SOL    HW114798   5.520   1.593   4.537
 4633SOL    HW214799   5.385   1.680   4.512
 4634SOL     OW14800   2.920   3.717   4.781
 4634SOL    HW114801   2.968   3.801   4.756
 4634SOL    HW214802   2.876   3.729   4.869
 4635SOL     OW14803   4.830   5.301   0.881
 4635SOL    HW114804   4.797   5.388   0.845
 4635SOL    HW214805   4.925   5.312   0.912
 4636SOL     OW14806   1.969   5.237   0.766
 4636SOL    HW114807   1.950   5.155   0.821
 4636SOL    HW214808   1.893   5.301   0.776
 4637SOL     OW14809   1.354   0.062   1.536
 4637SOL    HW114810   1.318   6.994   1.523
 4637SOL    HW214811   1.309   0.104   1.615
 4638SOL     OW14812   3.839   5.182   0.631
 4638SOL    HW114813   3.817   5.203   0.726
 4638SOL    HW214814   3.808   5.090   0.608
 4639SOL     OW14815   2.348   2.647   0.318
 4639SOL    HW114816   2.411   2.574   0.345
 4639SOL    HW214817   2.378   2.688   0.233
 4640SOL     OW14818   5.818   3.262   5.676
 4640SOL    HW114819   5.859   3.306   5.596
 4640SOL    HW214820   5.854   3.304   5.759
 4641SOL     OW14821   0.924   6.320   3.750
 4641SOL    HW114822   0.869   6.388   3.799
 4641SOL    HW214823   0.938   6.240   3.808
 4642SOL     OW14824   1.530   1.908   3.846
 4642SOL    HW114825   1.506   1.951   3.932
 4642SOL    HW214826   1.500   1.812   3.847
 4643SOL     OW14827   6.852   2.222   7.015
 4643SOL    HW114828   6.762   2.189   0.017
 4643SOL    HW214829   6.847   2.321   7.000
 4644SOL     OW14830   1.282   1.393   6.661
 4644SOL    HW114831   1.320   1.440   6.580
 4644SOL    HW214832   1.286   1.294   6.647
 4645SOL     OW14833   1.456   0.821   3.770
 4645SOL    HW114834   1.458   0.771   3.684
 4645SOL    HW214835   1.368   0.807   3.815
 4646SOL     OW14836   2.576   5.419   4.214
 4646SOL    HW114837   2.628   5.474   4.279
 4646SOL    HW214838   2.618   5.426   4.123
 4647SOL     OW14839   1.923   6.639   3.017
 4647SOL    HW114840   2.008   6.593   3.037
 4647SOL    HW214841   1.873   6.589   2.946
 4648SOL     OW14842   2.974   1.158   4.026
 4648SOL    HW114843   3.029   1.134   3.946
 4648SOL    HW214844   2.959   1.076   4.082
 4649SOL     OW14845   6.173   0.885   0.719
 4649SOL    HW114846   6.088   0.854   0.675
 4649SOL    HW214847   6.232   0.806   0.736
 4650SOL     OW14848   5.363   6.131   1.676
 4650SOL    HW114849   5.428   6.066   1.637
 4650SOL    HW214850   5.411   6.191   1.740
 4651SOL     OW14851   6.839   3.842   6.230
 4651SOL    HW114852   6.750   3.796   6.223
 4651SOL    HW214853   6.847   3.908   6.155
 4652SOL     OW14854   0.201   5.884   4.327
 4652SOL    HW114855   0.206   5.881   4.427
 4652SOL    HW214856   0.275   5.830   4.289
 4653SOL     OW14857   4.720   5.943   0.345
 4653SOL    HW114858   4.734   5.988   0.433
 4653SOL    HW214859   4.779   5.987   0.276
 4654SOL     OW14860   6.755   6.542   4.628
 4654SOL    HW114861   6.826   6.506   4.568
 4654SOL    HW214862   6.681   6.475   4.636
 4655SOL     OW14863   5.436   2.733   1.702
 4655SOL    HW114864   5.350   2.761   1.745
 4655SOL    HW214865   5.512   2.761   1.760
 4656SOL     OW14866   0.610   0.483   1.816
 4656SOL    HW114867   0.519   0.519   1.797
 4656SOL    HW214868   0.679   0.551   1.792
 4657SOL     OW14869   5.067   6.702   2.125
 4657SOL    HW114870   5.128   6.718   2.203
 4657SOL    HW214871   5.077   6.776   2.059
 4658SOL     OW14872   2.462   2.551   5.431
 4658SOL    HW114873   2.402   2.511   5.362
 4658SOL    HW214874   2.458   2.650   5.426
 4659SOL     OW14875   3.685   4.435   1.152
 4659SOL    HW114876   3.686   4.491   1.235
 4659SOL    HW214877   3.610   4.465   1.093
 4660SOL     OW14878   1.207   6.920   3.704
 4660SOL    HW114879   1.155   6.999   3.671
 4660SOL    HW214880   1.149   6.839   3.702
 4661SOL     OW14881   2.055   3.900   5.564
 4661SOL    HW114882   1.978   3.963   5.554
 4661SOL    HW214883   2.022   3.806   5.562
 4662SOL     OW14884   3.001   6.574   5.021
 4662SOL    HW114885   2.964   6.491   4.981
 4662SOL    HW214886   2.960   6.588   5.112
 4663SOL     OW14887   1.278   0.314   0.364
 4663SOL    HW114888   1.276   0.373   0.444
 4663SOL    HW214889   1.186   0.279   0.346
 4664SOL     OW14890   6.595   0.053   0.745
 4664SOL    HW114891   6.598   0.013   0.836
 4664SOL    HW214892   6.570   7.007   0.679
 4665SOL     OW14893   1.894   0.679   5.540
 4665SOL    HW114894   1.911   0.764   5.589
 4665SOL    HW214895   1.822   0.693   5.472
 4666SOL     OW14896   2.118   2.531   6.914
 4666SOL    HW114897   2.027   2.503   6.946
 4666SOL    HW214898   2.185   2.520   6.987
 4667SOL     OW14899   6.560   3.760   2.057
 4667SOL    HW114900   6.638   3.721   2.010
 4667SOL    HW214901   6.554   3.858   2.037
 4668SOL     OW14902   3.953   2.134   4.948
 4668SOL    HW114903   3.945   2.048   4.998
 4668SOL    HW214904   3.882   2.139   4.878
 4669SOL     OW14905   4.999   0.263   0.397
 4669SOL    HW114906   4.943   0.328   0.346
 4669SOL    HW214907   5.087   0.306   0.419
 4670SOL     OW14908   1.569   3.655   6.937
 4670SOL    HW114909   1.514   3.661   6.853
 4670SOL    HW214910   1.603   3.746   6.961
 4671SOL     OW14911   0.597   3.240   0.111
 4671SOL    HW114912   0.618   3.156   0.062
 4671SOL    HW214913   0.673   3.264   0.171
 4672SOL     OW14914   3.695   4.497   5.607
 4672SOL    HW114915   3.657   4.435   5.675
 4672SOL    HW214916   3.690   4.454   5.516
 4673SOL     OW14917   4.844   0.336   0.011
 4673SOL    HW114918   4.749   0.322   0.041
 4673SOL    HW214919   4.845   0.379   6.945
 4674SOL     OW14920   0.094   1.510   0.478
 4674SOL    HW114921   0.105   1.607   0.500
 4674SOL    HW214922   0.055   1.462   0.556
 4675SOL     OW14923   3.484   6.129   6.765
 4675SOL    HW114924   3.523   6.222   6.765
 4675SOL    HW214925   3.423   6.119   6.843
 4676SOL     OW14926   1.137   6.261   4.957
 4676SOL    HW114927   1.064   6.276   4.890
 4676SOL    HW214928   1.206   6.332   4.948
 4677SOL     OW14929   3.135   0.171   6.666
 4677SOL    HW114930   3.226   0.137   6.691
 4677SOL    HW214931   3.074   0.093   6.650
 4678SOL     OW14932   1.958   5.069   1.559
 4678SOL    HW114933   1.978   5.166   1.549
 4678SOL    HW214934   2.039   5.021   1.593
 4679SOL     OW14935   2.607   1.190   6.184
 4679SOL    HW114936   2.531   1.254   6.172
 4679SOL    HW214937   2.599   1.145   6.273
 4680SOL     OW14938   2.070   5.312   1.463
 4680SOL    HW114939   2.096   5.326   1.368
 4680SOL    HW214940   2.024   5.394   1.498
 4681SOL     OW14941   0.583   5.451   5.112
 4681SOL    HW114942   0.596   5.519   5.184
 4681SOL    HW214943   0.665   5.449   5.055
 4682SOL     OW14944   3.862   6.265   0.356
 4682SOL    HW114945   3.918   6.203   0.410
 4682SOL    HW214946   3.881   6.359   0.383
 4683SOL     OW14947   6.498   3.839   2.429
 4683SOL    HW114948   6.431   3.913   2.433
 4683SOL    HW214949   6.452   3.753   2.406
 4684SOL     OW14950   1.609   2.735   4.669
 4684SOL    HW114951   1.569   2.682   4.594
 4684SOL    HW214952   1.676   2.799   4.632
 4685SOL     OW14953   6.211   5.316   4.208
 4685SOL    HW114954   6.122   5.276   4.188
 4685SOL    HW214955   6.283   5.257   4.173
 4686SOL     OW14956   4.920   6.320   6.810
 4686SOL    HW114957   4.994   6.349   6.749
 4686SOL    HW214958   4.948   6.335   6.905
 4687SOL     OW14959   6.542   3.975   4.381
 4687SOL    HW114960   6.496   3.971   4.469
 4687SOL    HW214961   6.539   4.069   4.346
 4688SOL     OW14962   0.427   3.254   6.565
 4688SOL    HW114963   0.356   3.186   6.580
 4688SOL    HW214964   0.516   3.214   6.584
 4689SOL     OW14965   0.054   0.283   5.724
 4689SOL    HW114966   0.124   0.218   5.753
 4689SOL    HW214967   0.083   0.376   5.746
 4690SOL     OW14968   1.688   1.386   0.329
 4690SOL    HW114969   1.605   1.437   0.350
 4690SOL    HW214970   1.664   1.291   0.306
 4691SOL     OW14971   2.711   4.155   1.067
 4691SOL    HW114972   2.617   4.135   1.041
 4691SOL    HW214973   2.717   4.163   1.166
 4692SOL     OW14974   0.070   5.200   2.965
 4692SOL    HW114975   0.019   5.223   3.048
 4692SOL    HW214976   0.103   5.105   2.971
 4693SOL     OW14977   0.455   1.414   4.518
 4693SOL    HW114978   0.535   1.396   4.576
 4693SOL    HW214979   0.376   1.433   4.576
 4694SOL     OW14980   2.421   1.083   0.053
 4694SOL    HW114981   2.343   1.108   7.020
 4694SOL    HW214982   2.491   1.155   0.047
 4695SOL     OW14983   3.903   2.720   1.759
 4695SOL    HW114984   3.997   2.689   1.768
 4695SOL    HW214985   3.902   2.812   1.719
 4696SOL     OW14986   0.374   3.582   6.277
 4696SOL    HW114987   0.446   3.563   6.212
 4696SOL    HW214988   0.412   3.585   6.370
 4697SOL     OW14989   1.573   3.883   0.211
 4697SOL    HW114990   1.575   3.784   0.195
 4697SOL    HW214991   1.589   3.931   0.125
 4698SOL     OW14992   5.645   4.830   1.271
 4698SOL    HW114993   5.612   4.889   1.198
 4698SOL    HW214994   5.598   4.853   1.356
 4699SOL     OW14995   0.145   0.067   2.055
 4699SOL    HW114996   0.072   0.131   2.081
 4699SOL    HW214997   0.161   0.073   1.956
 4700SOL     OW14998   5.080   1.601   0.987
 4700SOL    HW114999   5.081   1.678   1.050
 4700SOL    HW215000   5.067   1.635   0.894
 4701SOL     OW15001   1.123   1.548   0.668
 4701SOL    HW115002   1.120   1.510   0.761
 4701SOL    HW215003   1.057   1.499   0.610
 4702SOL     OW15004   4.024   3.688   6.475
 4702SOL    HW115005   4.080   3.754   6.525
 4702SOL    HW215006   4.041   3.697   6.377
 4703SOL     OW15007   1.670   1.486   3.197
 4703SOL    HW115008   1.677   1.495   3.296
 4703SOL    HW215009   1.761   1.494   3.156
 4704SOL     OW15010   0.159   6.891   0.888
 4704SOL    HW115011   0.213   6.823   0.937
 4704SOL    HW215012   0.190   6.983   0.914
 4705SOL     OW15013   3.522   2.949   4.463
 4705SOL    HW115014   3.487   2.960   4.556
 4705SOL    HW215015   3.583   2.870   4.460
 4706SOL     OW15016   3.364   5.865   6.932
 4706SOL    HW115017   3.375   5.964   6.944
 4706SOL    HW215018   3.298   5.848   6.859
 4707SOL     OW15019   1.725   5.570   1.386
 4707SOL    HW115020   1.713   5.669   1.393
 4707SOL    HW215021   1.651   5.532   1.330
 4708SOL     OW15022   3.187   2.199   0.685
 4708SOL    HW115023   3.236   2.208   0.598
 4708SOL    HW215024   3.202   2.281   0.740
 4709SOL     OW15025   3.842   4.838   5.353
 4709SOL    HW115026   3.813   4.885   5.269
 4709SOL    HW215027   3.858   4.742   5.333
 4710SOL     OW15028   4.769   1.460   6.919
 4710SOL    HW115029   4.748   1.382   6.861
 4710SOL    HW215030   4.863   1.490   6.903
 4711SOL     OW15031   3.036   0.263   2.406
 4711SOL    HW115032   3.054   0.360   2.386
 4711SOL    HW215033   3.031   0.212   2.320
 4712SOL     OW15034   1.796   4.621   1.086
 4712SOL    HW115035   1.752   4.676   1.015
 4712SOL    HW215036   1.857   4.678   1.141
 4713SOL     OW15037   2.761   5.289   1.431
 4713SOL    HW115038   2.789   5.234   1.510
 4713SOL    HW215039   2.661   5.293   1.428
 4714SOL     OW15040   2.703   1.361   1.616
 4714SOL    HW115041   2.652   1.416   1.549
 4714SOL    HW215042   2.747   1.422   1.683
 4715SOL     OW15043   6.963   3.058   2.583
 4715SOL    HW115044   6.881   3.050   2.526
 4715SOL    HW215045   6.947   3.011   2.671
 4716SOL     OW15046   3.854   4.951   6.653
 4716SOL    HW115047   3.760   4.985   6.643
 4716SOL    HW215048   3.861   4.898   6.737
 4717SOL     OW15049   1.131   5.888   2.640
 4717SOL    HW115050   1.230   5.886   2.632
 4717SOL    HW215051   1.104   5.870   2.734
 4718SOL     OW15052   5.121   1.618   6.386
 4718SOL    HW115053   5.092   1.546   6.448
 4718SOL    HW215054   5.042   1.672   6.356
 4719SOL     OW15055   5.913   3.696   2.673
 4719SOL    HW115056   5.938   3.600   2.687
 4719SOL    HW215057   5.823   3.701   2.628
 4720SOL     OW15058   2.631   6.437   5.588
 4720SOL    HW115059   2.550   6.495   5.599
 4720SOL    HW215060   2.646   6.418   5.491
 4721SOL     OW15061   1.306   2.246   1.105
 4721SOL    HW115062   1.372   2.253   1.179
 4721SOL    HW215063   1.308   2.154   1.066
 4722SOL     OW15064   1.805   6.840   0.287
 4722SOL    HW115065   1.797   6.872   0.193
 4722SOL    HW215066   1.715   6.838   0.329
 4723SOL     OW15067   2.679   6.644   6.557
 4723SOL    HW115068   2.774   6.615   6.548
 4723SOL    HW215069   2.621   6.563   6.569
 4724SOL     OW15070   3.846   6.544   2.345
 4724SOL    HW115071   3.860   6.579   2.253
 4724SOL    HW215072   3.933   6.517   2.385
 4725SOL     OW15073   4.898   6.651   3.265
 4725SOL    HW115074   4.959   6.605   3.329
 4725SOL    HW215075   4.874   6.588   3.190
 4726SOL     OW15076   1.416   3.980   6.528
 4726SOL    HW115077   1.496   3.947   6.478
 4726SOL    HW215078   1.335   3.931   6.498
 4727SOL     OW15079   6.762   5.611   0.182
 4727SOL    HW115080   6.729   5.671   0.256
 4727SOL    HW215081   6.753   5.659   0.095
 4728SOL     OW15082   6.358   1.410   0.184
 4728SOL    HW115083   6.301   1.354   0.125
 4728SOL    HW215084   6.314   1.423   0.272
 4729SOL     OW15085   2.326   6.988   2.320
 4729SOL    HW115086   2.333   6.975   2.419
 4729SOL    HW215087   2.382   0.042   2.292
 4730SOL     OW15088   2.238   6.099   5.606
 4730SOL    HW115089   2.307   6.056   5.664
 4730SOL    HW215090   2.152   6.106   5.656
 4731SOL     OW15091   5.521   1.261   5.086
 4731SOL    HW115092   5.536   1.329   5.015
 4731SOL    HW215093   5.423   1.241   5.094
 4732SOL     OW15094   0.148   3.467   6.911
 4732SOL    HW115095   0.188   3.459   7.002
 4732SOL    HW215096   0.131   3.564   6.891
 4733SOL     OW15097   0.187   3.406   2.742
 4733SOL    HW115098   0.259   3.471   2.764
 4733SOL    HW215099   0.115   3.451   2.689
 4734SOL     OW15100   4.742   3.266   6.986
 4734SOL    HW115101   4.676   3.231   0.028
 4734SOL    HW215102   4.805   3.329   0.008
 4735SOL     OW15103   0.556   4.146   4.221
 4735SOL    HW115104   0.573   4.244   4.231
 4735SOL    HW215105   0.498   4.130   4.141
 4736SOL     OW15106   0.647   1.284   6.892
 4736SOL    HW115107   0.557   1.273   6.934
 4736SOL    HW215108   0.702   1.348   6.945
 4737SOL     OW15109   2.767   4.879   1.913
 4737SOL    HW115110   2.775   4.782   1.934
 4737SOL    HW215111   2.702   4.922   1.976
 4738SOL     OW15112   6.814   6.156   1.762
 4738SOL    HW115113   6.883   6.091   1.796
 4738SOL    HW215114   6.855   6.247   1.755
 4739SOL     OW15115   4.023   0.652   2.418
 4739SOL    HW115116   4.011   0.710   2.337
 4739SOL    HW215117   3.965   0.571   2.410
 4740SOL     OW15118   1.118   1.992   2.451
 4740SOL    HW115119   1.203   1.954   2.415
 4740SOL    HW215120   1.129   2.014   2.548
 4741SOL     OW15121   4.179   2.651   1.683
 4741SOL    HW115122   4.247   2.578   1.676
 4741SOL    HW215123   4.121   2.650   1.601
 4742SOL     OW15124   2.864   7.012   0.391
 4742SOL    HW115125   2.875   0.075   0.345
 4742SOL    HW215126   2.882   6.938   0.326
 4743SOL     OW15127   1.964   4.165   1.677
 4743SOL    HW115128   2.052   4.206   1.700
 4743SOL    HW215129   1.902   4.235   1.641
 4744SOL     OW15130   2.204   6.339   0.934
 4744SOL    HW115131   2.239   6.294   0.852
 4744SOL    HW215132   2.111   6.371   0.917
 4745SOL     OW15133   1.927   4.414   0.620
 4745SOL    HW115134   1.915   4.503   0.574
 4745SOL    HW215135   2.015   4.413   0.668
 4746SOL     OW15136   4.370   5.222   4.258
 4746SOL    HW115137   4.383   5.170   4.343
 4746SOL    HW215138   4.409   5.313   4.268
 4747SOL     OW15139   1.699   3.014   0.899
 4747SOL    HW115140   1.739   2.923   0.886
 4747SOL    HW215141   1.664   3.048   0.812
 4748SOL     OW15142   1.769   6.433   2.850
 4748SOL    HW115143   1.685   6.473   2.886
 4748SOL    HW215144   1.762   6.333   2.853
 4749SOL     OW15145   2.022   0.307   0.393
 4749SOL    HW115146   1.993   0.236   0.330
 4749SOL    HW215147   2.119   0.326   0.381
 4750SOL     OW15148   5.653   3.390   4.917
 4750SOL    HW115149   5.669   3.453   4.994
 4750SOL    HW215150   5.721   3.408   4.846
 4751SOL     OW15151   4.771   1.050   2.298
 4751SOL    HW115152   4.709   1.029   2.374
 4751SOL    HW215153   4.779   1.149   2.289
 4752SOL     OW15154   4.422   2.136   6.967
 4752SOL    HW115155   4.472   2.133   0.029
 4752SOL    HW215156   4.409   2.231   6.940
 4753SOL     OW15157   2.169   6.617   5.361
 4753SOL    HW115158   2.187   6.636   5.265
 4753SOL    HW215159   2.117   6.532   5.369
 4754SOL     OW15160   4.187   4.287   6.865
 4754SOL    HW115161   4.098   4.314   6.828
 4754SOL    HW215162   4.198   4.327   6.956
 4755SOL     OW15163   1.579   0.449   1.785
 4755SOL    HW115164   1.495   0.463   1.836
 4755SOL    HW215165   1.600   0.351   1.782
 4756SOL     OW15166   5.877   4.099   6.682
 4756SOL    HW115167   5.921   4.155   6.752
 4756SOL    HW215168   5.936   4.022   6.659
 4757SOL     OW15169   1.819   2.953   1.499
 4757SOL    HW115170   1.735   2.961   1.444
 4757SOL    HW215171   1.884   3.024   1.471
 4758SOL     OW15172   1.713   0.229   3.112
 4758SOL    HW115173   1.648   0.252   3.039
 4758SOL    HW215174   1.753   0.313   3.149
 4759SOL     OW15175   0.849   4.957   0.918
 4759SOL    HW115176   0.946   4.971   0.899
 4759SOL    HW215177   0.826   4.996   1.008
 4760SOL     OW15178   1.740   6.804   0.725
 4760SOL    HW115179   1.749   6.898   0.760
 4760SOL    HW215180   1.645   6.785   0.704
 4761SOL     OW15181   0.479   6.661   0.519
 4761SOL    HW115182   0.412   6.587   0.514
 4761SOL    HW215183   0.437   6.742   0.558
 4762SOL     OW15184   1.962   5.698   2.371
 4762SOL    HW115185   1.995   5.618   2.423
 4762SOL    HW215186   2.040   5.757   2.349
 4763SOL     OW15187   4.666   5.576   1.938
 4763SOL    HW115188   4.691   5.501   1.877
 4763SOL    HW215189   4.725   5.574   2.019
 4764SOL     OW15190   4.512   4.065   5.965
 4764SOL    HW115191   4.437   4.115   6.007
 4764SOL    HW215192   4.548   3.997   6.030
 4765SOL     OW15193   3.843   1.677   5.303
 4765SOL    HW115194   3.921   1.662   5.242
 4765SOL    HW215195   3.767   1.619   5.275
 4766SOL     OW15196   6.680   6.765   3.950
 4766SOL    HW115197   6.743   6.692   3.975
 4766SOL    HW215198   6.728   6.834   3.895
 4767SOL     OW15199   2.026   5.221   4.620
 4767SOL    HW115200   1.984   5.162   4.551
 4767SOL    HW215201   2.124   5.228   4.603
 4768SOL     OW15202   4.650   2.447   6.752
 4768SOL    HW115203   4.639   2.533   6.703
 4768SOL    HW215204   4.713   2.388   6.702
 4769SOL     OW15205   3.413   5.734   1.480
 4769SOL    HW115206   3.420   5.800   1.405
 4769SOL    HW215207   3.317   5.722   1.504
 4770SOL     OW15208   6.978   1.813   5.349
 4770SOL    HW115209   6.982   1.860   5.260
 4770SOL    HW215210   0.045   1.812   5.390
 4771SOL     OW15211   2.721   0.133   5.093
 4771SOL    HW115212   2.657   0.168   5.025
 4771SOL    HW215213   2.800   0.092   5.048
 4772SOL     OW15214   2.664   5.599   0.776
 4772SOL    HW115215   2.569   5.629   0.775
 4772SOL    HW215216   2.689   5.571   0.868
 4773SOL     OW15217   2.218   5.786   4.684
 4773SOL    HW115218   2.248   5.702   4.640
 4773SOL    HW215219   2.280   5.808   4.759
 4774SOL     OW15220   1.656   3.928   6.967
 4774SOL    HW115221   1.640   4.017   6.922
 4774SOL    HW215222   1.750   3.900   6.952
 4775SOL     OW15223   5.655   6.694   4.843
 4775SOL    HW115224   5.720   6.625   4.874
 4775SOL    HW215225   5.705   6.768   4.797
 4776SOL     OW15226   1.554   0.698   5.970
 4776SOL    HW115227   1.519   0.770   6.029
 4776SOL    HW215228   1.549   0.609   6.017
 4777SOL     OW15229   0.965   5.792   0.608
 4777SOL    HW115230   0.912   5.748   0.535
 4777SOL    HW215231   1.002   5.879   0.575
 4778SOL     OW15232   0.805   2.046   4.893
 4778SOL    HW115233   0.799   2.110   4.970
 4778SOL    HW215234   0.732   1.978   4.901
 4779SOL     OW15235   5.662   1.299   3.760
 4779SOL    HW115236   5.681   1.226   3.825
 4779SOL    HW215237   5.737   1.365   3.762
 4780SOL     OW15238   5.731   2.506   5.341
 4780SOL    HW115239   5.776   2.447   5.274
 4780SOL    HW215240   5.747   2.469   5.433
 4781SOL     OW15241   1.757   5.859   2.276
 4781SOL    HW115242   1.835   5.805   2.308
 4781SOL    HW215243   1.672   5.817   2.307
 4782SOL     OW15244   5.534   4.950   4.979
 4782SOL    HW115245   5.506   5.042   4.951
 4782SOL    HW215246   5.606   4.957   5.047
 4783SOL     OW15247   6.011   3.004   0.925
 4783SOL    HW115248   6.095   2.953   0.907
 4783SOL    HW215249   6.028   3.102   0.911
 4784SOL     OW15250   5.524   2.607   6.310
 4784SOL    HW115251   5.563   2.556   6.387
 4784SOL    HW215252   5.507   2.701   6.338
 4785SOL     OW15253   0.688   6.025   3.464
 4785SOL    HW115254   0.640   5.941   3.486
 4785SOL    HW215255   0.622   6.097   3.442
 4786SOL     OW15256   2.859   6.628   0.563
 4786SOL    HW115257   2.763   6.628   0.534
 4786SOL    HW215258   2.886   6.536   0.592
 4787SOL     OW15259   4.212   1.776   4.459
 4787SOL    HW115260   4.129   1.800   4.509
 4787SOL    HW215261   4.191   1.766   4.362
 4788SOL     OW15262   6.301   6.108   6.702
 4788SOL    HW115263   6.260   6.178   6.760
 4788SOL    HW215264   6.288   6.132   6.606
 4789SOL     OW15265   4.831   0.768   2.246
 4789SOL    HW115266   4.829   0.710   2.328
 4789SOL    HW215267   4.739   0.802   2.227
 4790SOL     OW15268   5.881   1.880   5.230
 4790SOL    HW115269   5.893   1.839   5.139
 4790SOL    HW215270   5.942   1.958   5.240
 4791SOL     OW15271   0.079   2.751   0.504
 4791SOL    HW115272   0.110   2.665   0.463
 4791SOL    HW215273   0.122   2.828   0.458
 4792SOL     OW15274   2.046   3.674   4.151
 4792SOL    HW115275   2.111   3.695   4.077
 4792SOL    HW215276   2.004   3.759   4.184
 4793SOL     OW15277   1.217   3.861   6.178
 4793SOL    HW115278   1.289   3.796   6.152
 4793SOL    HW215279   1.195   3.849   6.275
 4794SOL     OW15280   4.927   0.740   4.390
 4794SOL    HW115281   4.990   0.764   4.464
 4794SOL    HW215282   4.847   0.800   4.393
 4795SOL     OW15283   0.676   0.273   4.948
 4795SOL    HW115284   0.659   0.306   5.040
 4795SOL    HW215285   0.763   0.224   4.945
 4796SOL     OW15286   3.656   1.196   5.626
 4796SOL    HW115287   3.700   1.218   5.539
 4796SOL    HW215288   3.656   1.276   5.685
 4797SOL     OW15289   1.018   5.228   4.611
 4797SOL    HW115290   0.999   5.262   4.520
 4797SOL    HW215291   1.049   5.304   4.669
 4798SOL     OW15292   4.973   4.870   6.482
 4798SOL    HW115293   4.973   4.956   6.431
 4798SOL    HW215294   5.037   4.807   6.439
 4799SOL     OW15295   3.571   2.832   6.639
 4799SOL    HW115296   3.613   2.914   6.599
 4799SOL    HW215297   3.524   2.857   6.723
 4800SOL     OW15298   1.530   4.922   0.042
 4800SOL    HW115299   1.534   4.956   6.972
 4800SOL    HW215300   1.622   4.919   0.080
 4801SOL     OW15301   4.836   2.685   1.718
 4801SOL    HW115302   4.854   2.619   1.645
 4801SOL    HW215303   4.737   2.694   1.731
 4802SOL     OW15304   6.978   6.115   2.376
 4802SOL    HW115305   6.942   6.156   2.460
 4802SOL    HW215306   0.044   6.076   2.393
 4803SOL     OW15307   5.392   4.188   6.844
 4803SOL    HW115308   5.470   4.125   6.844
 4803SOL    HW215309   5.426   4.282   6.838
 4804SOL     OW15310   5.385   2.242   0.255
 4804SOL    HW115311   5.299   2.198   0.280
 4804SOL    HW215312   5.369   2.338   0.235
 4805SOL     OW15313   5.922   1.999   0.970
 4805SOL    HW115314   5.941   1.966   1.062
 4805SOL    HW215315   6.004   2.046   0.934
 4806SOL     OW15316   1.364   2.777   2.865
 4806SOL    HW115317   1.322   2.809   2.951
 4806SOL    HW215318   1.346   2.843   2.793
 4807SOL     OW15319   1.477   2.822   6.778
 4807SOL    HW115320   1.483   2.877   6.695
 4807SOL    HW215321   1.565   2.824   6.825
 4808SOL     OW15322   3.571   5.782   0.723
 4808SOL    HW115323   3.613   5.832   0.648
 4808SOL    HW215324   3.640   5.725   0.769
 4809SOL     OW15325   3.549   5.011   1.660
 4809SOL    HW115326   3.514   5.102   1.642
 4809SOL    HW215327   3.523   4.949   1.585
 4810SOL     OW15328   1.253   4.153   3.798
 4810SOL    HW115329   1.253   4.132   3.700
 4810SOL    HW215330   1.174   4.109   3.841
 4811SOL     OW15331   3.046   3.930   4.676
 4811SOL    HW115332   3.132   3.980   4.682
 4811SOL    HW215333   3.013   3.933   4.581
 4812SOL     OW15334   0.232   6.584   2.275
 4812SOL    HW115335   0.174   6.549   2.201
 4812SOL    HW215336   0.328   6.562   2.255
 4813SOL     OW15337   6.227   1.499   0.411
 4813SOL    HW115338   6.213   1.518   0.508
 4813SOL    HW215339   6.195   1.577   0.357
 4814SOL     OW15340   6.926   3.841   1.548
 4814SOL    HW115341   6.865   3.904   1.595
 4814SOL    HW215342   6.901   3.747   1.572
 4815SOL     OW15343   5.794   4.610   2.413
 4815SOL    HW115344   5.829   4.587   2.504
 4815SOL    HW215345   5.751   4.701   2.417
 4816SOL     OW15346   1.176   6.955   2.128
 4816SOL    HW115347   1.253   7.020   2.133
 4816SOL    HW215348   1.185   6.899   2.046
 4817SOL     OW15349   3.698   1.549   1.595
 4817SOL    HW115350   3.673   1.626   1.654
 4817SOL    HW215351   3.628   1.478   1.602
 4818SOL     OW15352   3.080   0.478   4.487
 4818SOL    HW115353   3.127   0.547   4.431
 4818SOL    HW215354   3.010   0.523   4.543
 4819SOL     OW15355   3.169   1.009   1.590
 4819SOL    HW115356   3.197   1.032   1.683
 4819SOL    HW215357   3.243   1.031   1.527
 4820SOL     OW15358   0.024   4.438   2.409
 4820SOL    HW115359   0.077   4.389   2.339
 4820SOL    HW215360   7.002   4.372   2.467
 4821SOL     OW15361   6.398   5.253   1.706
 4821SOL    HW115362   6.481   5.300   1.677
 4821SOL    HW215363   6.364   5.196   1.631
 4822SOL     OW15364   2.172   3.943   4.076
 4822SOL    HW115365   2.105   4.013   4.054
 4822SOL    HW215366   2.167   3.869   4.008
 4823SOL     OW15367   0.875   0.133   4.133
 4823SOL    HW115368   0.849   0.047   4.177
 4823SOL    HW215369   0.885   0.204   4.203
 4824SOL     OW15370   5.478   2.329   2.532
 4824SOL    HW115371   5.480   2.323   2.432
 4824SOL    HW215372   5.538   2.258   2.571
 4825SOL     OW15373   1.827   3.499   3.649
 4825SOL    HW115374   1.821   3.568   3.576
 4825SOL    HW215375   1.840   3.545   3.737
 4826SOL     OW15376   0.308   6.448   0.583
 4826SOL    HW115377   0.347   6.364   0.622
 4826SOL    HW215378   0.209   6.448   0.597
 4827SOL     OW15379   4.411   1.038   1.390
 4827SOL    HW115380   4.319   1.036   1.431
 4827SOL    HW215381   4.405   1.010   1.294
 4828SOL     OW15382   5.114   3.390   1.949
 4828SOL    HW115383   5.196   3.433   1.911
 4828SOL    HW215384   5.046   3.459   1.969
 4829SOL     OW15385   2.970   0.323   6.104
 4829SOL    HW115386   2.913   0.304   6.024
 4829SOL    HW215387   2.991   0.421   6.108
 4830SOL     OW15388   4.794   6.074   3.732
 4830SOL    HW115389   4.849   6.032   3.803
 4830SOL    HW215390   4.849   6.139   3.680
 4831SOL     OW15391   6.383   4.596   5.304
 4831SOL    HW115392   6.415   4.555   5.390
 4831SOL    HW215393   6.441   4.674   5.281
 4832SOL     OW15394   3.296   3.098   5.915
 4832SOL    HW115395   3.241   3.139   5.987
 4832SOL    HW215396   3.238   3.043   5.855
 4833SOL     OW15397   4.167   1.309   3.269
 4833SOL    HW115398   4.070   1.292   3.285
 4833SOL    HW215399   4.201   1.242   3.202
 4834SOL     OW15400   4.033   1.106   1.245
 4834SOL    HW115401   4.000   1.124   1.338
 4834SOL    HW215402   3.992   1.021   1.211
 4835SOL     OW15403   1.937   0.055   6.487
 4835SOL    HW115404   1.943   0.091   6.580
 4835SOL    HW215405   2.028   0.060   6.444
 4836SOL     OW15406   5.110   1.932   4.091
 4836SOL    HW115407   5.141   1.926   4.186
 4836SOL    HW215408   5.143   1.853   4.040
 4837SOL     OW15409   2.889   2.432   1.327
 4837SOL    HW115410   2.854   2.486   1.250
 4837SOL    HW215411   2.883   2.335   1.304
 4838SOL     OW15412   3.815   4.822   2.203
 4838SOL    HW115413   3.778   4.750   2.144
 4838SOL    HW215414   3.758   4.904   2.193
 4839SOL     OW15415   0.310   5.449   5.662
 4839SOL    HW115416   0.276   5.517   5.727
 4839SOL    HW215417   0.372   5.493   5.597
 4840SOL     OW15418   6.012   6.798   0.487
 4840SOL    HW115419   5.993   6.892   0.517
 4840SOL    HW215420   5.933   6.762   0.438
 4841SOL     OW15421   3.324   5.940   1.693
 4841SOL    HW115422   3.423   5.951   1.684
 4841SOL    HW215423   3.295   5.974   1.782
 4842SOL     OW15424   3.826   5.837   1.494
 4842SOL    HW115425   3.910   5.790   1.469
 4842SOL    HW215426   3.762   5.773   1.537
 4843SOL     OW15427   0.134   3.825   0.509
 4843SOL    HW115428   0.218   3.833   0.456
 4843SOL    HW215429   0.101   3.916   0.534
 4844SOL     OW15430   6.787   3.086   0.087
 4844SOL    HW115431   6.797   3.183   0.109
 4844SOL    HW215432   6.765   3.075   7.015
 4845SOL     OW15433   6.161   5.493   3.956
 4845SOL    HW115434   6.169   5.487   4.056
 4845SOL    HW215435   6.222   5.565   3.923
 4846SOL     OW15436   1.343   3.040   0.920
 4846SOL    HW115437   1.378   2.972   0.855
 4846SOL    HW215438   1.386   3.026   1.009
 4847SOL     OW15439   3.809   1.903   5.054
 4847SOL    HW115440   3.828   1.813   5.014
 4847SOL    HW215441   3.732   1.895   5.117
 4848SOL     OW15442   1.683   1.547   3.502
 4848SOL    HW115443   1.589   1.525   3.530
 4848SOL    HW215444   1.746   1.524   3.576
 4849SOL     OW15445   1.518   0.242   0.284
 4849SOL    HW115446   1.559   0.318   0.234
 4849SOL    HW215447   1.433   0.272   0.327
 4850SOL     OW15448   3.949   0.309   1.940
 4850SOL    HW115449   3.975   0.235   1.879
 4850SOL    HW215450   3.968   0.283   2.035
 4851SOL     OW15451   4.068   5.888   5.623
 4851SOL    HW115452   3.982   5.839   5.635
 4851SOL    HW215453   4.078   5.913   5.526
 4852SOL     OW15454   1.694   1.136   0.206
 4852SOL    HW115455   1.718   1.178   0.119
 4852SOL    HW215456   1.597   1.110   0.205
 4853SOL     OW15457   3.483   1.469   2.942
 4853SOL    HW115458   3.449   1.382   2.909
 4853SOL    HW215459   3.408   1.534   2.951
 4854SOL     OW15460   4.768   5.572   2.204
 4854SOL    HW115461   4.794   5.563   2.300
 4854SOL    HW215462   4.850   5.578   2.147
 4855SOL     OW15463   6.003   1.689   2.094
 4855SOL    HW115464   5.925   1.662   2.038
 4855SOL    HW215465   5.978   1.769   2.150
 4856SOL     OW15466   2.957   4.888   3.832
 4856SOL    HW115467   3.022   4.960   3.856
 4856SOL    HW215468   2.923   4.844   3.916
 4857SOL     OW15469   0.975   2.033   6.042
 4857SOL    HW115470   0.914   2.049   6.119
 4857SOL    HW215471   1.043   1.964   6.068
 4858SOL     OW15472   1.787   2.009   4.715
 4858SOL    HW115473   1.732   1.967   4.643
 4858SOL    HW215474   1.784   2.108   4.706
 4859SOL     OW15475   1.607   5.786   4.786
 4859SOL    HW115476   1.689   5.831   4.750
 4859SOL    HW215477   1.623   5.760   4.881
 4860SOL     OW15478   4.661   5.465   1.457
 4860SOL    HW115479   4.630   5.455   1.551
 4860SOL    HW215480   4.591   5.428   1.395
 4861SOL     OW15481   5.043   5.030   6.967
 4861SOL    HW115482   4.980   5.104   6.943
 4861SOL    HW215483   5.045   4.962   6.894
 4862SOL     OW15484   1.331   5.229   3.005
 4862SOL    HW115485   1.351   5.165   2.931
 4862SOL    HW215486   1.375   5.317   2.985
 4863SOL     OW15487   5.584   4.074   0.839
 4863SOL    HW115488   5.558   4.002   0.775
 4863SOL    HW215489   5.518   4.078   0.914
 4864SOL     OW15490   2.935   0.641   3.193
 4864SOL    HW115491   2.866   0.685   3.135
 4864SOL    HW215492   3.022   0.690   3.184
 4865SOL     OW15493   2.423   6.317   4.228
 4865SOL    HW115494   2.461   6.405   4.258
 4865SOL    HW215495   2.332   6.306   4.266
 4866SOL     OW15496   6.966   3.577   1.544
 4866SOL    HW115497   0.020   3.536   1.590
 4866SOL    HW215498   6.993   3.608   1.453
 4867SOL     OW15499   4.517   5.694   2.237
 4867SOL    HW115500   4.458   5.735   2.167
 4867SOL    HW215501   4.603   5.666   2.195
 4868SOL     OW15502   6.324   4.324   1.872
 4868SOL    HW115503   6.260   4.386   1.827
 4868SOL    HW215504   6.417   4.357   1.859
 4869SOL     OW15505   1.563   1.818   0.478
 4869SOL    HW115506   1.536   1.734   0.524
 4869SOL    HW215507   1.658   1.810   0.447
 4870SOL     OW15508   0.569   6.310   2.045
 4870SOL    HW115509   0.577   6.399   2.001
 4870SOL    HW215510   0.481   6.303   2.092
 4871SOL     OW15511   1.507   0.683   4.345
 4871SOL    HW115512   1.479   0.661   4.439
 4871SOL    HW215513   1.592   0.737   4.348
 4872SOL     OW15514   0.164   6.581   3.099
 4872SOL    HW115515   0.168   6.505   3.163
 4872SOL    HW215516   0.133   6.548   3.010
 4873SOL     OW15517   6.703   5.693   4.431
 4873SOL    HW115518   6.783   5.705   4.372
 4873SOL    HW215519   6.696   5.772   4.493
 4874SOL     OW15520   4.903   2.460   3.074
 4874SOL    HW115521   4.918   2.431   3.169
 4874SOL    HW215522   4.805   2.478   3.060
 4875SOL     OW15523   4.904   6.820   0.087
 4875SOL    HW115524   4.954   6.734   0.077
 4875SOL    HW215525   4.881   6.857   7.022
 4876SOL     OW15526   0.857   1.660   3.107
 4876SOL    HW115527   0.836   1.725   3.033
 4876SOL    HW215528   0.894   1.576   3.067
 4877SOL     OW15529   0.674   1.962   5.263
 4877SOL    HW115530   0.772   1.957   5.280
 4877SOL    HW215531   0.625   1.974   5.350
 4878SOL     OW15532   6.942   1.796   1.852
 4878SOL    HW115533   6.849   1.832   1.859
 4878SOL    HW215534   6.955   1.758   1.760
 4879SOL     OW15535   4.792   1.792   2.603
 4879SOL    HW115536   4.725   1.833   2.541
 4879SOL    HW215537   4.861   1.860   2.628
 4880SOL     OW15538   6.661   2.995   6.840
 4880SOL    HW115539   6.622   2.903   6.834
 4880SOL    HW215540   6.743   3.001   6.784
 4881SOL     OW15541   1.658   2.510   1.196
 4881SOL    HW115542   1.723   2.516   1.271
 4881SOL    HW215543   1.652   2.598   1.149
 4882SOL     OW15544   4.312   2.123   4.957
 4882SOL    HW115545   4.353   2.212   4.935
 4882SOL    HW215546   4.375   2.071   5.015
 4883SOL     OW15547   5.109   4.229   1.642
 4883SOL    HW115548   5.160   4.180   1.572
 4883SOL    HW215549   5.153   4.216   1.731
 4884SOL     OW15550   2.361   5.596   0.804
 4884SOL    HW115551   2.351   5.674   0.865
 4884SOL    HW215552   2.272   5.571   0.766
 4885SOL     OW15553   2.355   4.794   1.963
 4885SOL    HW115554   2.398   4.885   1.959
 4885SOL    HW215555   2.417   4.727   1.922
 4886SOL     OW15556   3.376   0.017   2.023
 4886SOL    HW115557   3.326   6.956   2.039
 4886SOL    HW215558   3.409   0.053   2.110
 4887SOL     OW15559   1.204   6.657   1.646
 4887SOL    HW115560   1.229   6.560   1.642
 4887SOL    HW215561   1.268   6.710   1.590
 4888SOL     OW15562   2.877   6.803   3.230
 4888SOL    HW115563   2.924   6.768   3.149
 4888SOL    HW215564   2.941   6.857   3.285
 4889SOL     OW15565   6.664   1.836   4.452
 4889SOL    HW115566   6.728   1.906   4.421
 4889SOL    HW215567   6.661   1.835   4.552
 4890SOL     OW15568   0.893   0.904   5.341
 4890SOL    HW115569   0.891   0.807   5.316
 4890SOL    HW215570   0.879   0.959   5.260
 4891SOL     OW15571   2.255   4.857   6.119
 4891SOL    HW115572   2.261   4.757   6.122
 4891SOL    HW215573   2.229   4.892   6.209
 4892SOL     OW15574   5.928   6.348   2.398
 4892SOL    HW115575   5.931   6.431   2.454
 4892SOL    HW215576   6.009   6.293   2.416
 4893SOL     OW15577   0.405   3.255   2.135
 4893SOL    HW115578   0.486   3.215   2.178
 4893SOL    HW215579   0.403   3.230   2.038
 4894SOL     OW15580   3.757   7.010   2.012
 4894SOL    HW115581   3.733   6.913   2.001
 4894SOL    HW215582   3.688   0.031   2.067
 4895SOL     OW15583   0.362   4.911   3.221
 4895SOL    HW115584   0.431   4.970   3.180
 4895SOL    HW215585   0.391   4.815   3.213
 4896SOL     OW15586   2.202   5.234   3.685
 4896SOL    HW115587   2.204   5.308   3.617
 4896SOL    HW215588   2.275   5.169   3.664
 4897SOL     OW15589   1.737   5.622   5.332
 4897SOL    HW115590   1.781   5.567   5.261
 4897SOL    HW215591   1.777   5.714   5.332
 4898SOL     OW15592   4.361   0.932   5.118
 4898SOL    HW115593   4.413   0.930   5.204
 4898SOL    HW215594   4.285   0.995   5.127
 4899SOL     OW15595   6.295   5.611   2.377
 4899SOL    HW115596   6.334   5.698   2.347
 4899SOL    HW215597   6.196   5.619   2.383
 4900SOL     OW15598   4.397   5.957   5.536
 4900SOL    HW115599   4.384   6.042   5.485
 4900SOL    HW215600   4.491   5.952   5.569
 4901SOL     OW15601   1.169   2.625   5.103
 4901SOL    HW115602   1.185   2.617   5.201
 4901SOL    HW215603   1.240   2.574   5.053
 4902SOL     OW15604   2.230   0.434   6.112
 4902SOL    HW115605   2.155   0.452   6.176
 4902SOL    HW215606   2.254   0.337   6.115
 4903SOL     OW15607   4.593   5.965   0.870
 4903SOL    HW115608   4.517   5.995   0.813
 4903SOL    HW215609   4.668   5.934   0.813
 4904SOL     OW15610   2.277   0.715   5.885
 4904SOL    HW115611   2.330   0.667   5.955
 4904SOL    HW215612   2.188   0.669   5.874
 4905SOL     OW15613   3.078   0.084   3.099
 4905SOL    HW115614   2.993   0.061   3.052
 4905SOL    HW215615   3.125   0.157   3.049
 4906SOL     OW15616   4.840   3.306   5.204
 4906SOL    HW115617   4.856   3.300   5.106
 4906SOL    HW215618   4.782   3.386   5.223
 4907SOL     OW15619   4.860   1.359   0.587
 4907SOL    HW115620   4.930   1.400   0.528
 4907SOL    HW215621   4.800   1.431   0.623
 4908SOL     OW15622   4.711   0.526   0.821
 4908SOL    HW115623   4.766   0.445   0.802
 4908SOL    HW215624   4.772   0.603   0.841
 4909SOL     OW15625   6.404   4.021   3.331
 4909SOL    HW115626   6.460   4.039   3.250
 4909SOL    HW215627   6.460   3.975   3.400
 4910SOL     OW15628   5.659   1.161   4.714
 4910SOL    HW115629   5.681   1.258   4.711
 4910SOL    HW215630   5.576   1.147   4.768
 4911SOL     OW15631   1.986   2.153   2.889
 4911SOL    HW115632   2.081   2.183   2.876
 4911SOL    HW215633   1.942   2.210   2.957
 4912SOL     OW15634   5.282   1.787   5.591
 4912SOL    HW115635   5.324   1.715   5.646
 4912SOL    HW215636   5.330   1.793   5.504
 4913SOL     OW15637   5.440   2.884   5.728
 4913SOL    HW115638   5.423   2.895   5.826
 4913SOL    HW215639   5.372   2.823   5.688
 4914SOL     OW15640   4.478   0.328   5.297
 4914SOL    HW115641   4.492   0.238   5.339
 4914SOL    HW215642   4.389   0.365   5.326
 4915SOL     OW15643   3.039   6.278   5.429
 4915SOL    HW115644   3.022   6.244   5.337
 4915SOL    HW215645   2.976   6.353   5.449
 4916SOL     OW15646   6.692   0.534   4.316
 4916SOL    HW115647   6.665   0.443   4.285
 4916SOL    HW215648   6.738   0.582   4.242
 4917SOL     OW15649   3.380   5.971   0.766
 4917SOL    HW115650   3.418   5.908   0.698
 4917SOL    HW215651   3.302   5.928   0.811
 4918SOL     OW15652   6.337   5.388   2.083
 4918SOL    HW115653   6.423   5.405   2.035
 4918SOL    HW215654   6.354   5.333   2.165
 4919SOL     OW15655   3.924   3.053   2.222
 4919SOL    HW115656   3.841   3.098   2.187
 4919SOL    HW215657   3.901   2.960   2.252
 4920SOL     OW15658   5.691   0.383   5.151
 4920SOL    HW115659   5.718   0.344   5.239
 4920SOL    HW215660   5.773   0.404   5.098
 4921SOL     OW15661   1.045   6.002   0.463
 4921SOL    HW115662   1.055   6.101   0.475
 4921SOL    HW215663   1.070   5.977   0.369
 4922SOL     OW15664   3.337   2.096   5.119
 4922SOL    HW115665   3.272   2.166   5.088
 4922SOL    HW215666   3.287   2.012   5.140
 4923SOL     OW15667   3.309   1.898   2.961
 4923SOL    HW115668   3.383   1.964   2.945
 4923SOL    HW215669   3.227   1.947   2.993
 4924SOL     OW15670   2.510   1.561   5.898
 4924SOL    HW115671   2.568   1.638   5.873
 4924SOL    HW215672   2.427   1.594   5.943
 4925SOL     OW15673   4.269   6.922   3.205
 4925SOL    HW115674   4.326   6.899   3.127
 4925SOL    HW215675   4.184   6.963   3.173
 4926SOL     OW15676   5.550   1.744   1.517
 4926SOL    HW115677   5.642   1.764   1.550
 4926SOL    HW215678   5.554   1.719   1.420
 4927SOL     OW15679   3.088   2.274   6.300
 4927SOL    HW115680   2.997   2.297   6.267
 4927SOL    HW215681   3.135   2.218   6.232
 4928SOL     OW15682   1.180   1.519   1.156
 4928SOL    HW115683   1.151   1.550   1.247
 4928SOL    HW215684   1.274   1.488   1.160
 4929SOL     OW15685   0.021   0.291   3.554
 4929SOL    HW115686   0.108   0.323   3.517
 4929SOL    HW215687   6.981   0.275   3.479
 4930SOL     OW15688   6.055   6.946   2.085
 4930SOL    HW115689   6.016   6.943   1.993
 4930SOL    HW215690   6.074   6.853   2.116
 4931SOL     OW15691   6.061   6.401   1.647
 4931SOL    HW115692   6.130   6.418   1.718
 4931SOL    HW215693   6.021   6.311   1.660
 4932SOL     OW15694   3.482   4.156   3.229
 4932SOL    HW115695   3.522   4.079   3.280
 4932SOL    HW215696   3.384   4.161   3.249
 4933SOL     OW15697   2.500   6.555   4.355
 4933SOL    HW115698   2.507   6.641   4.406
 4933SOL    HW215699   2.432   6.496   4.398
 4934SOL     OW15700   3.496   6.122   2.412
 4934SOL    HW115701   3.536   6.204   2.371
 4934SOL    HW215702   3.563   6.081   2.474
 4935SOL     OW15703   1.440   2.109   6.886
 4935SOL    HW115704   1.468   2.178   6.953
 4935SOL    HW215705   1.518   2.086   6.827
 4936SOL     OW15706   2.577   4.421   1.200
 4936SOL    HW115707   2.621   4.356   1.262
 4936SOL    HW215708   2.638   4.439   1.122
 4937SOL     OW15709   4.944   3.071   4.939
 4937SOL    HW115710   4.940   3.122   5.024
 4937SOL    HW215711   4.934   2.973   4.958
 4938SOL     OW15712   3.727   5.526   5.561
 4938SOL    HW115713   3.645   5.568   5.523
 4938SOL    HW215714   3.807   5.554   5.507
 4939SOL     OW15715   4.655   3.214   5.523
 4939SOL    HW115716   4.701   3.301   5.544
 4939SOL    HW215717   4.564   3.233   5.485
 4940SOL     OW15718   1.956   0.174   5.230
 4940SOL    HW115719   1.993   0.102   5.289
 4940SOL    HW215720   1.856   0.171   5.233
 4941SOL     OW15721   4.286   1.465   0.143
 4941SOL    HW115722   4.303   1.534   0.213
 4941SOL    HW215723   4.370   1.448   0.091
 4942SOL     OW15724   5.178   3.631   5.430
 4942SOL    HW115725   5.232   3.579   5.363
 4942SOL    HW215726   5.178   3.584   5.518
 4943SOL     OW15727   4.590   2.335   0.734
 4943SOL    HW115728   4.495   2.353   0.707
 4943SOL    HW215729   4.644   2.418   0.721
 4944SOL     OW15730   2.298   4.263   2.890
 4944SOL    HW115731   2.210   4.220   2.911
 4944SOL    HW215732   2.370   4.215   2.939
 4945SOL     OW15733   0.851   6.884   3.916
 4945SOL    HW115734   0.901   6.801   3.891
 4945SOL    HW215735   0.905   6.964   3.890
 4946SOL     OW15736   1.536   3.054   1.984
 4946SOL    HW115737   1.495   3.145   1.987
 4946SOL    HW215738   1.590   3.040   2.068
 4947SOL     OW15739   0.793   7.022   0.771
 4947SOL    HW115740   0.755   6.983   0.688
 4947SOL    HW215741   0.768   6.965   0.849
 4948SOL     OW15742   2.213   0.997   2.511
 4948SOL    HW115743   2.222   0.939   2.592
 4948SOL    HW215744   2.213   0.939   2.429
 4949SOL     OW15745   5.178   0.455   5.244
 4949SOL    HW115746   5.253   0.437   5.180
 4949SOL    HW215747   5.199   0.417   5.333
 4950SOL     OW15748   2.424   6.075   4.616
 4950SOL    HW115749   2.439   6.048   4.521
 4950SOL    HW215750   2.501   6.046   4.672
 4951SOL     OW15751   4.318   1.496   4.381
 4951SOL    HW115752   4.317   1.397   4.395
 4951SOL    HW215753   4.226   1.532   4.394
 4952SOL     OW15754   0.330   6.508   5.144
 4952SOL    HW115755   0.306   6.480   5.051
 4952SOL    HW215756   0.430   6.510   5.153
 4953SOL     OW15757   2.244   5.217   0.841
 4953SOL    HW115758   2.160   5.265   0.817
 4953SOL    HW215759   2.321   5.256   0.789
 4954SOL     OW15760   5.356   4.944   0.320
 4954SOL    HW115761   5.390   4.906   0.406
 4954SOL    HW215762   5.422   4.927   0.247
 4955SOL     OW15763   1.895   6.715   0.923
 4955SOL    HW115764   1.840   6.756   0.851
 4955SOL    HW215765   1.836   6.664   0.985
 4956SOL     OW15766   4.262   6.744   5.438
 4956SOL    HW115767   4.358   6.771   5.435
 4956SOL    HW215768   4.251   6.664   5.497
 4957SOL     OW15769   0.499   1.219   4.312
 4957SOL    HW115770   0.578   1.159   4.327
 4957SOL    HW215771   0.495   1.287   4.385
 4958SOL     OW15772   0.225   6.150   6.446
 4958SOL    HW115773   0.297   6.219   6.457
 4958SOL    HW215774   0.212   6.102   6.533
 4959SOL     OW15775   0.776   0.987   0.242
 4959SOL    HW115776   0.774   1.085   0.227
 4959SOL    HW215777   0.871   0.957   0.257
 4960SOL     OW15778   3.643   6.770   4.194
 4960SOL    HW115779   3.591   6.688   4.171
 4960SOL    HW215780   3.679   6.811   4.111
 4961SOL     OW15781   5.500   7.001   4.898
 4961SOL    HW115782   5.427   0.021   4.847
 4961SOL    HW215783   5.506   0.017   4.990
 4962SOL     OW15784   5.856   2.507   2.073
 4962SOL    HW115785   5.912   2.425   2.080
 4962SOL    HW215786   5.848   2.534   1.977
 4963SOL     OW15787   0.324   5.318   1.246
 4963SOL    HW115788   0.405   5.302   1.190
 4963SOL    HW215789   0.296   5.232   1.290
 4964SOL     OW15790   3.553   6.085   3.490
 4964SOL    HW115791   3.633   6.068   3.548
 4964SOL    HW215792   3.582   6.125   3.403
 4965SOL     OW15793   0.408   6.730   4.761
 4965SOL    HW115794   0.399   6.715   4.663
 4965SOL    HW215795   0.505   6.732   4.786
 4966SOL     OW15796   2.894   6.310   5.174
 4966SOL    HW115797   2.989   6.305   5.142
 4966SOL    HW215798   2.839   6.242   5.127
 4967SOL     OW15799   3.714   2.781   0.087
 4967SOL    HW115800   3.700   2.797   0.185
 4967SOL    HW215801   3.707   2.684   0.068
 4968SOL     OW15802   4.699   2.798   3.340
 4968SOL    HW115803   4.688   2.861   3.263
 4968SOL    HW215804   4.639   2.719   3.328
 4969SOL     OW15805   1.689   1.336   1.554
 4969SOL    HW115806   1.678   1.381   1.643
 4969SOL    HW215807   1.779   1.358   1.517
 4970SOL     OW15808   1.089   2.095   4.887
 4970SOL    HW115809   1.125   2.025   4.949
 4970SOL    HW215810   0.991   2.083   4.876
 4971SOL     OW15811   5.831   6.179   2.978
 4971SOL    HW115812   5.826   6.104   3.044
 4971SOL    HW215813   5.784   6.260   3.015
 4972SOL     OW15814   1.850   3.555   1.031
 4972SOL    HW115815   1.895   3.502   1.103
 4972SOL    HW215816   1.766   3.507   1.002
 4973SOL     OW15817   6.205   6.014   2.255
 4973SOL    HW115818   6.191   6.060   2.168
 4973SOL    HW215819   6.148   5.932   2.258
 4974SOL     OW15820   5.286   6.134   2.627
 4974SOL    HW115821   5.229   6.159   2.549
 4974SOL    HW215822   5.355   6.068   2.599
 4975SOL     OW15823   6.293   6.399   0.606
 4975SOL    HW115824   6.260   6.493   0.613
 4975SOL    HW215825   6.275   6.350   0.692
 4976SOL     OW15826   3.272   0.485   5.072
 4976SOL    HW115827   3.198   0.483   5.005
 4976SOL    HW215828   3.293   0.579   5.096
 4977SOL     OW15829   4.396   3.805   0.299
 4977SOL    HW115830   4.371   3.754   0.381
 4977SOL    HW215831   4.463   3.876   0.322
 4978SOL     OW15832   5.897   3.811   5.395
 4978SOL    HW115833   5.810   3.842   5.356
 4978SOL    HW215834   5.893   3.820   5.495
 4979SOL     OW15835   0.425   0.727   5.824
 4979SOL    HW115836   0.433   0.639   5.777
 4979SOL    HW215837   0.351   0.781   5.783
 4980SOL     OW15838   3.999   5.042   2.280
 4980SOL    HW115839   3.915   5.029   2.227
 4980SOL    HW215840   4.002   5.135   2.316
 4981SOL     OW15841   4.542   6.810   5.546
 4981SOL    HW115842   4.547   6.712   5.566
 4981SOL    HW215843   4.608   6.860   5.602
 4982SOL     OW15844   2.129   2.306   0.224
 4982SOL    HW115845   2.188   2.324   0.145
 4982SOL    HW215846   2.181   2.258   0.294
 4983SOL     OW15847   5.368   2.671   3.785
 4983SOL    HW115848   5.454   2.688   3.738
 4983SOL    HW215849   5.370   2.712   3.876
 4984SOL     OW15850   5.114   3.849   4.458
 4984SOL    HW115851   5.117   3.816   4.364
 4984SOL    HW215852   5.131   3.774   4.521
 4985SOL     OW15853   5.011   5.501   3.038
 4985SOL    HW115854   5.092   5.477   3.093
 4985SOL    HW215855   4.929   5.465   3.083
 4986SOL     OW15856   5.636   4.424   3.117
 4986SOL    HW115857   5.719   4.457   3.071
 4986SOL    HW215858   5.613   4.485   3.192
 4987SOL     OW15859   0.033   3.112   1.203
 4987SOL    HW115860   0.073   3.044   1.141
 4987SOL    HW215861   0.046   3.204   1.164
 4988SOL     OW15862   0.317   1.601   4.348
 4988SOL    HW115863   0.235   1.561   4.388
 4988SOL    HW215864   0.397   1.552   4.380
 4989SOL     OW15865   0.036   1.369   0.714
 4989SOL    HW115866   0.003   1.306   0.644
 4989SOL    HW215867   6.986   1.429   0.744
 4990SOL     OW15868   0.749   2.923   5.179
 4990SOL    HW115869   0.830   2.936   5.123
 4990SOL    HW215870   0.668   2.919   5.121
 4991SOL     OW15871   0.045   2.871   4.110
 4991SOL    HW115872   0.073   2.907   4.021
 4991SOL    HW215873   0.054   2.943   4.179
 4992SOL     OW15874   3.157   0.810   5.327
 4992SOL    HW115875   3.250   0.790   5.297
 4992SOL    HW215876   3.092   0.771   5.263
 4993SOL     OW15877   3.259   6.114   3.828
 4993SOL    HW115878   3.275   6.173   3.749
 4993SOL    HW215879   3.176   6.060   3.813
 4994SOL     OW15880   0.645   0.076   3.012
 4994SOL    HW115881   0.674   0.101   2.920
 4994SOL    HW215882   0.586   0.147   3.049
 4995SOL     OW15883   6.759   2.523   6.324
 4995SOL    HW115884   6.712   2.598   6.277
 4995SOL    HW215885   6.810   2.559   6.402
 4996SOL     OW15886   0.277   2.252   2.032
 4996SOL    HW115887   0.219   2.302   1.967
 4996SOL    HW215888   0.223   2.181   2.076
 4997SOL     OW15889   6.853   2.102   2.889
 4997SOL    HW115890   6.878   2.112   2.985
 4997SOL    HW215891   6.811   2.187   2.857
 4998SOL     OW15892   1.478   5.386   4.790
 4998SOL    HW115893   1.384   5.420   4.796
 4998SOL    HW215894   1.523   5.427   4.711
 4999SOL     OW15895   5.638   5.781   0.637
 4999SOL    HW115896   5.714   5.801   0.575
 4999SOL    HW215897   5.605   5.867   0.677
 5000SOL     OW15898   0.958   0.430   4.482
 5000SOL    HW115899   0.896   0.438   4.559
 5000SOL    HW215900   0.978   0.521   4.446
 5001SOL     OW15901   2.742   3.983   5.474
 5001SOL    HW115902   2.740   3.946   5.381
 5001SOL    HW215903   2.835   4.010   5.498
 5002SOL     OW15904   2.152   0.861   2.275
 5002SOL    HW115905   2.194   0.933   2.220
 5002SOL    HW215906   2.053   0.874   2.278
 5003SOL     OW15907   6.666   6.347   2.634
 5003SOL    HW115908   6.729   6.361   2.711
 5003SOL    HW215909   6.604   6.425   2.627
 5004SOL     OW15910   2.261   5.841   6.579
 5004SOL    HW115911   2.320   5.781   6.524
 5004SOL    HW215912   2.175   5.857   6.531
 5005SOL     OW15913   4.514   3.033   0.641
 5005SOL    HW115914   4.504   2.955   0.704
 5005SOL    HW215915   4.450   3.105   0.668
 5006SOL     OW15916   5.462   6.545   5.166
 5006SOL    HW115917   5.383   6.486   5.150
 5006SOL    HW215918   5.452   6.630   5.115
 5007SOL     OW15919   4.100   0.979   5.886
 5007SOL    HW115920   4.052   0.997   5.972
 5007SOL    HW215921   4.171   1.048   5.872
 5008SOL     OW15922   5.533   1.360   3.506
 5008SOL    HW115923   5.572   1.321   3.423
 5008SOL    HW215924   5.580   1.322   3.586
 5009SOL     OW15925   0.846   6.353   2.051
 5009SOL    HW115926   0.752   6.320   2.041
 5009SOL    HW215927   0.878   6.335   2.144
 5010SOL     OW15928   3.809   3.955   3.567
 5010SOL    HW115929   3.851   3.986   3.652
 5010SOL    HW215930   3.874   3.897   3.517
 5011SOL     OW15931   0.624   3.179   2.295
 5011SOL    HW115932   0.611   3.246   2.369
 5011SOL    HW215933   0.690   3.216   2.229
 5012SOL     OW15934   6.989   2.895   6.177
 5012SOL    HW115935   6.968   2.986   6.142
 5012SOL    HW215936   6.950   2.825   6.116
 5013SOL     OW15937   4.011   0.865   6.358
 5013SOL    HW115938   4.044   0.947   6.310
 5013SOL    HW215939   4.049   0.863   6.451
 5014SOL     OW15940   6.336   6.284   0.902
 5014SOL    HW115941   6.239   6.265   0.914
 5014SOL    HW215942   6.385   6.199   0.882
 5015SOL     OW15943   4.369   2.213   3.779
 5015SOL    HW115944   4.466   2.237   3.777
 5015SOL    HW215945   4.324   2.260   3.855
 5016SOL     OW15946   1.761   0.412   2.853
 5016SOL    HW115947   1.768   0.488   2.789
 5016SOL    HW215948   1.671   0.414   2.897
 5017SOL     OW15949   2.450   1.988   0.924
 5017SOL    HW115950   2.470   1.959   0.830
 5017SOL    HW215951   2.352   1.982   0.941
 5018SOL     OW15952   0.126   4.461   3.106
 5018SOL    HW115953   0.126   4.511   3.019
 5018SOL    HW215954   0.044   4.485   3.158
 5019SOL     OW15955   2.245   4.225   0.716
 5019SOL    HW115956   2.220   4.178   0.631
 5019SOL    HW215957   2.251   4.159   0.790
 5020SOL     OW15958   4.544   5.292   6.312
 5020SOL    HW115959   4.578   5.206   6.272
 5020SOL    HW215960   4.488   5.340   6.244
 5021SOL     OW15961   1.874   4.771   5.757
 5021SOL    HW115962   1.912   4.829   5.830
 5021SOL    HW215963   1.944   4.709   5.723
 5022SOL     OW15964   2.012   6.459   0.835
 5022SOL    HW115965   2.018   6.558   0.852
 5022SOL    HW215966   1.917   6.433   0.819
 5023SOL     OW15967   6.234   2.817   0.939
 5023SOL    HW115968   6.182   2.731   0.934
 5023SOL    HW215969   6.324   2.799   0.978
 5024SOL     OW15970   6.532   3.887   3.543
 5024SOL    HW115971   6.601   3.953   3.572
 5024SOL    HW215972   6.573   3.797   3.535
 5025SOL     OW15973   5.027   1.952   3.064
 5025SOL    HW115974   4.929   1.968   3.052
 5025SOL    HW215975   5.074   2.039   3.073
 5026SOL     OW15976   6.196   5.563   4.349
 5026SOL    HW115977   6.109   5.565   4.398
 5026SOL    HW215978   6.207   5.475   4.304
 5027SOL     OW15979   0.123   0.001   3.312
 5027SOL    HW115980   0.179   6.952   3.273
 5027SOL    HW215981   0.152   0.089   3.273
 5028SOL     OW15982   0.328   6.383   2.570
 5028SOL    HW115983   0.276   6.307   2.610
 5028SOL    HW215984   0.267   6.461   2.555
 5029SOL     OW15985   0.335   2.318   1.521
 5029SOL    HW115986   0.397   2.291   1.447
 5029SOL    HW215987   0.319   2.240   1.581
 5030SOL     OW15988   6.715   0.460   6.624
 5030SOL    HW115989   6.737   0.362   6.633
 5030SOL    HW215990   6.658   0.488   6.700
 5031SOL     OW15991   5.807   0.532   4.245
 5031SOL    HW115992   5.773   0.458   4.187
 5031SOL    HW215993   5.732   0.569   4.300
 5032SOL     OW15994   1.462   5.190   0.664
 5032SOL    HW115995   1.509   5.264   0.710
 5032SOL    HW215996   1.517   5.107   0.668
 5033SOL     OW15997   2.533   4.412   5.569
 5033SOL    HW115998   2.595   4.377   5.498
 5033SOL    HW215999   2.453   4.452   5.526
 5034SOL     OW16000   6.125   2.131   2.190
 5034SOL    HW116001   6.082   2.196   2.128
 5034SOL    HW216002   6.210   2.096   2.149
 5035SOL     OW16003   4.905   5.491   0.498
 5035SOL    HW116004   4.929   5.439   0.416
 5035SOL    HW216005   4.891   5.429   0.574
 5036SOL     OW16006   0.816   6.172   0.722
 5036SOL    HW116007   0.884   6.171   0.795
 5036SOL    HW216008   0.862   6.162   0.634
 5037SOL     OW16009   4.343   1.595   3.582
 5037SOL    HW116010   4.309   1.640   3.665
 5037SOL    HW216011   4.407   1.523   3.607
 5038SOL     OW16012   1.080   5.646   5.725
 5038SOL    HW116013   1.084   5.563   5.781
 5038SOL    HW216014   1.172   5.682   5.713
 5039SOL     OW16015   2.406   2.836   5.353
 5039SOL    HW116016   2.343   2.811   5.280
 5039SOL    HW216017   2.462   2.914   5.323
 5040SOL     OW16018   3.333   3.832   6.133
 5040SOL    HW116019   3.342   3.921   6.178
 5040SOL    HW216020   3.369   3.838   6.040
 5041SOL     OW16021   1.099   3.370   1.609
 5041SOL    HW116022   1.091   3.409   1.701
 5041SOL    HW216023   1.125   3.274   1.616
 5042SOL     OW16024   5.749   3.246   6.377
 5042SOL    HW116025   5.806   3.293   6.309
 5042SOL    HW216026   5.753   3.297   6.463
 5043SOL     OW16027   3.907   0.571   3.280
 5043SOL    HW116028   3.928   0.490   3.226
 5043SOL    HW216029   3.894   0.546   3.376
 5044SOL     OW16030   5.561   5.525   3.419
 5044SOL    HW116031   5.593   5.553   3.510
 5044SOL    HW216032   5.639   5.498   3.363
 5045SOL     OW16033   6.190   3.046   6.981
 5045SOL    HW116034   6.274   3.020   0.003
 5045SOL    HW216035   6.119   2.977   7.000
 5046SOL     OW16036   3.458   3.193   5.184
 5046SOL    HW116037   3.548   3.159   5.154
 5046SOL    HW216038   3.426   3.137   5.260
 5047SOL     OW16039   6.234   0.256   2.752
 5047SOL    HW116040   6.244   0.273   2.850
 5047SOL    HW216041   6.324   0.245   2.711
 5048SOL     OW16042   0.092   2.203   1.343
 5048SOL    HW116043   0.064   2.275   1.279
 5048SOL    HW216044   0.118   2.244   1.430
 5049SOL     OW16045   0.711   2.050   2.323
 5049SOL    HW116046   0.767   2.017   2.398
 5049SOL    HW216047   0.705   1.980   2.252
 5050SOL     OW16048   0.819   2.518   1.840
 5050SOL    HW116049   0.768   2.529   1.755
 5050SOL    HW216050   0.755   2.513   1.917
 5051SOL     OW16051   2.782   4.403   0.810
 5051SOL    HW116052   2.812   4.451   0.892
 5051SOL    HW216053   2.816   4.309   0.812
 5052SOL     OW16054   4.517   5.429   0.862
 5052SOL    HW116055   4.557   5.373   0.934
 5052SOL    HW216056   4.584   5.495   0.829
 5053SOL     OW16057   2.598   3.974   1.339
 5053SOL    HW116058   2.581   3.921   1.423
 5053SOL    HW216059   2.516   4.025   1.315
 5054SOL     OW16060   3.482   5.902   4.899
 5054SOL    HW116061   3.568   5.913   4.948
 5054SOL    HW216062   3.446   5.810   4.915
 5055SOL     OW16063   1.048   1.531   5.323
 5055SOL    HW116064   0.966   1.485   5.357
 5055SOL    HW216065   1.026   1.580   5.239
 5056SOL     OW16066   0.089   3.729   5.884
 5056SOL    HW116067   7.020   3.765   5.889
 5056SOL    HW216068   0.128   3.724   5.976
 5057SOL     OW16069   0.600   5.832   3.664
 5057SOL    HW116070   0.525   5.776   3.629
 5057SOL    HW216071   0.655   5.778   3.728
 5058SOL     OW16072   4.297   4.250   6.607
 5058SOL    HW116073   4.248   4.231   6.692
 5058SOL    HW216074   4.387   4.208   6.610
 5059SOL     OW16075   3.501   2.036   4.890
 5059SOL    HW116076   3.500   1.937   4.880
 5059SOL    HW216077   3.441   2.063   4.966
 5060SOL     OW16078   0.423   3.362   5.117
 5060SOL    HW116079   0.448   3.452   5.080
 5060SOL    HW216080   0.357   3.318   5.057
 5061SOL     OW16081   3.736   3.532   4.648
 5061SOL    HW116082   3.655   3.588   4.635
 5061SOL    HW216083   3.755   3.481   4.564
 5062SOL     OW16084   5.072   1.003   2.975
 5062SOL    HW116085   5.048   0.932   2.909
 5062SOL    HW216086   4.988   1.047   3.008
 5063SOL     OW16087   1.419   6.799   2.322
 5063SOL    HW116088   1.431   6.880   2.265
 5063SOL    HW216089   1.345   6.815   2.388
 5064SOL     OW16090   4.660   5.683   0.430
 5064SOL    HW116091   4.743   5.633   0.456
 5064SOL    HW216092   4.680   5.781   0.426
 5065SOL     OW16093   2.464   0.003   3.320
 5065SOL    HW116094   2.461   6.993   3.414
 5065SOL    HW216095   2.543   6.990   3.273
 5066SOL     OW16096   2.160   4.901   1.651
 5066SOL    HW116097   2.256   4.913   1.624
 5066SOL    HW216098   2.142   4.804   1.664
 5067SOL     OW16099   4.076   2.373   1.419
 5067SOL    HW116100   4.003   2.314   1.455
 5067SOL    HW216101   4.047   2.412   1.332
 5068SOL     OW16102   3.910   6.378   0.887
 5068SOL    HW116103   3.869   6.467   0.868
 5068SOL    HW216104   3.975   6.355   0.815
 5069SOL     OW16105   3.287   4.588   6.165
 5069SOL    HW116106   3.257   4.586   6.070
 5069SOL    HW216107   3.384   4.613   6.169
 5070SOL     OW16108   5.680   3.425   4.370
 5070SOL    HW116109   5.748   3.492   4.342
 5070SOL    HW216110   5.724   3.336   4.385
 5071SOL     OW16111   3.662   1.148   3.432
 5071SOL    HW116112   3.568   1.154   3.466
 5071SOL    HW216113   3.711   1.232   3.455
 5072SOL     OW16114   1.958   1.032   0.896
 5072SOL    HW116115   2.046   1.065   0.931
 5072SOL    HW216116   1.925   0.958   0.954
 5073SOL     OW16117   2.787   6.478   2.522
 5073SOL    HW116118   2.729   6.492   2.602
 5073SOL    HW216119   2.791   6.381   2.499
 5074SOL     OW16120   3.688   2.137   1.710
 5074SOL    HW116121   3.694   2.056   1.767
 5074SOL    HW216122   3.678   2.218   1.767
 5075SOL     OW16123   1.741   3.454   6.887
 5075SOL    HW116124   1.696   3.372   6.923
 5075SOL    HW216125   1.677   3.531   6.888
 5076SOL     OW16126   5.326   1.022   0.506
 5076SOL    HW116127   5.398   1.072   0.553
 5076SOL    HW216128   5.239   1.036   0.554
 5077SOL     OW16129   1.100   4.976   3.901
 5077SOL    HW116130   1.060   4.889   3.929
 5077SOL    HW216131   1.154   4.963   3.818
 5078SOL     OW16132   0.553   1.000   3.933
 5078SOL    HW116133   0.622   1.035   3.870
 5078SOL    HW216134   0.598   0.962   4.014
 5079SOL     OW16135   2.071   2.505   5.892
 5079SOL    HW116136   2.123   2.507   5.806
 5079SOL    HW216137   1.981   2.464   5.876
 5080SOL     OW16138   6.516   5.218   5.896
 5080SOL    HW116139   6.487   5.135   5.848
 5080SOL    HW216140   6.606   5.245   5.863
 5081SOL     OW16141   3.623   5.958   5.769
 5081SOL    HW116142   3.547   6.004   5.724
 5081SOL    HW216143   3.589   5.901   5.844
 5082SOL     OW16144   4.777   6.493   1.298
 5082SOL    HW116145   4.808   6.547   1.376
 5082SOL    HW216146   4.694   6.533   1.260
 5083SOL     OW16147   2.476   0.517   2.680
 5083SOL    HW116148   2.458   0.601   2.630
 5083SOL    HW216149   2.471   0.439   2.617
 5084SOL     OW16150   0.795   5.049   4.881
 5084SOL    HW116151   0.711   5.097   4.906
 5084SOL    HW216152   0.808   4.970   4.941
 5085SOL     OW16153   1.126   3.565   6.380
 5085SOL    HW116154   1.213   3.575   6.332
 5085SOL    HW216155   1.129   3.483   6.437
 5086SOL     OW16156   1.144   4.535   2.354
 5086SOL    HW116157   1.232   4.486   2.358
 5086SOL    HW216158   1.106   4.525   2.262
 5087SOL     OW16159   6.773   5.150   2.675
 5087SOL    HW116160   6.857   5.101   2.652
 5087SOL    HW216161   6.787   5.248   2.664
 5088SOL     OW16162   4.439   5.881   2.040
 5088SOL    HW116163   4.373   5.893   1.965
 5088SOL    HW216164   4.532   5.886   2.003
 5089SOL     OW16165   5.188   4.289   4.622
 5089SOL    HW116166   5.264   4.228   4.641
 5089SOL    HW216167   5.210   4.381   4.654
 5090SOL     OW16168   2.121   0.127   3.585
 5090SOL    HW116169   2.158   0.065   3.654
 5090SOL    HW216170   2.033   0.092   3.553
 5091SOL     OW16171   6.581   0.284   0.341
 5091SOL    HW116172   6.596   0.276   0.439
 5091SOL    HW216173   6.603   0.197   0.296
 5092SOL     OW16174   3.495   3.743   4.181
 5092SOL    HW116175   3.573   3.722   4.239
 5092SOL    HW216176   3.410   3.724   4.231
 5093SOL     OW16177   1.645   1.466   2.894
 5093SOL    HW116178   1.558   1.487   2.849
 5093SOL    HW216179   1.627   1.418   2.980
 5094SOL     OW16180   2.458   5.719   6.398
 5094SOL    HW116181   2.470   5.763   6.310
 5094SOL    HW216182   2.515   5.636   6.403
 5095SOL     OW16183   0.357   1.158   3.474
 5095SOL    HW116184   0.309   1.152   3.387
 5095SOL    HW216185   0.294   1.136   3.549
 5096SOL     OW16186   5.199   3.778   6.423
 5096SOL    HW116187   5.131   3.705   6.413
 5096SOL    HW216188   5.162   3.863   6.385
 5097SOL     OW16189   6.339   0.040   5.934
 5097SOL    HW116190   6.243   0.070   5.935
 5097SOL    HW216191   6.391   0.099   5.871
 5098SOL     OW16192   3.674   1.966   1.932
 5098SOL    HW116193   3.603   1.932   1.992
 5098SOL    HW216194   3.702   2.058   1.962
 5099SOL     OW16195   0.482   5.552   1.695
 5099SOL    HW116196   0.401   5.511   1.734
 5099SOL    HW216197   0.483   5.537   1.596
 5100SOL     OW16198   4.978   4.510   2.759
 5100SOL    HW116199   5.064   4.460   2.771
 5100SOL    HW216200   4.906   4.465   2.811
 5101SOL     OW16201   4.259   0.184   5.660
 5101SOL    HW116202   4.208   0.256   5.707
 5101SOL    HW216203   4.298   0.220   5.576
 5102SOL     OW16204   4.840   5.282   4.065
 5102SOL    HW116205   4.765   5.232   4.109
 5102SOL    HW216206   4.840   5.377   4.096
 5103SOL     OW16207   1.031   0.889   5.575
 5103SOL    HW116208   0.986   0.815   5.625
 5103SOL    HW216209   0.979   0.909   5.491
 5104SOL     OW16210   3.609   5.399   1.785
 5104SOL    HW116211   3.625   5.361   1.876
 5104SOL    HW216212   3.532   5.351   1.743
 5105SOL     OW16213   3.526   3.438   6.875
 5105SOL    HW116214   3.547   3.400   6.966
 5105SOL    HW216215   3.446   3.498   6.882
 5106SOL     OW16216   4.097   2.623   0.953
 5106SOL    HW116217   4.042   2.561   0.896
 5106SOL    HW216218   4.156   2.569   1.013
 5107SOL     OW16219   5.258   2.429   1.274
 5107SOL    HW116220   5.268   2.338   1.315
 5107SOL    HW216221   5.177   2.430   1.215
 5108SOL     OW16222   4.335   3.977   6.392
 5108SOL    HW116223   4.397   4.014   6.462
 5108SOL    HW216224   4.313   3.883   6.415
 5109SOL     OW16225   2.110   3.091   1.100
 5109SOL    HW116226   2.111   2.993   1.080
 5109SOL    HW216227   2.017   3.126   1.095
 5110SOL     OW16228   5.638   6.993   6.334
 5110SOL    HW116229   5.672   6.994   6.429
 5110SOL    HW216230   5.539   7.005   6.334
 5111SOL     OW16231   1.181   5.830   5.073
 5111SOL    HW116232   1.259   5.853   5.014
 5111SOL    HW216233   1.144   5.741   5.044
 5112SOL     OW16234   0.066   0.528   3.657
 5112SOL    HW116235   0.164   0.521   3.676
 5112SOL    HW216236   0.031   0.439   3.628
 5113SOL     OW16237   1.816   5.062   0.921
 5113SOL    HW116238   1.814   5.087   1.017
 5113SOL    HW216239   1.727   5.023   0.894
 5114SOL     OW16240   3.932   6.986   0.519
 5114SOL    HW116241   3.980   7.013   0.603
 5114SOL    HW216242   3.885   6.899   0.534
 5115SOL     OW16243   2.138   3.809   1.909
 5115SOL    HW116244   2.044   3.831   1.884
 5115SOL    HW216245   2.143   3.716   1.944
 5116SOL     OW16246   2.528   0.122   6.617
 5116SOL    HW116247   2.621   0.134   6.652
 5116SOL    HW216248   2.514   0.026   6.592
 5117SOL     OW16249   1.160   2.652   4.678
 5117SOL    HW116250   1.187   2.730   4.621
 5117SOL    HW216251   1.226   2.578   4.666
 5118SOL     OW16252   6.129   0.038   0.137
 5118SOL    HW116253   6.161   0.004   0.049
 5118SOL    HW216254   6.030   0.030   0.143
 5119SOL     OW16255   5.522   2.095   6.996
 5119SOL    HW116256   5.487   2.018   6.942
 5119SOL    HW216257   5.584   2.060   0.042
 5120SOL     OW16258   5.331   0.960   4.922
 5120SOL    HW116259   5.368   0.912   4.843
 5120SOL    HW216260   5.402   0.970   4.992
 5121SOL     OW16261   3.106   3.632   0.132
 5121SOL    HW116262   3.114   3.707   0.198
 5121SOL    HW216263   3.022   3.581   0.150
 5122SOL     OW16264   4.259   5.451   3.057
 5122SOL    HW116265   4.312   5.516   3.003
 5122SOL    HW216266   4.309   5.430   3.142
 5123SOL     OW16267   5.074   1.724   1.861
 5123SOL    HW116268   5.010   1.655   1.895
 5123SOL    HW216269   5.035   1.815   1.873
 5124SOL     OW16270   1.778   6.255   3.989
 5124SOL    HW116271   1.773   6.340   4.041
 5124SOL    HW216272   1.854   6.260   3.924
 5125SOL     OW16273   0.366   2.056   4.035
 5125SOL    HW116274   0.448   2.092   4.080
 5125SOL    HW216275   0.383   1.964   4.002
 5126SOL     OW16276   1.943   6.822   0.543
 5126SOL    HW116277   1.911   6.848   0.452
 5126SOL    HW216278   1.865   6.808   0.604
 5127SOL     OW16279   1.871   5.556   0.636
 5127SOL    HW116280   1.781   5.530   0.601
 5127SOL    HW216281   1.859   5.614   0.717
 5128SOL     OW16282   6.908   6.104   1.428
 5128SOL    HW116283   6.970   6.026   1.413
 5128SOL    HW216284   6.960   6.183   1.460
 5129SOL     OW16285   4.731   6.289   1.483
 5129SOL    HW116286   4.763   6.321   1.572
 5129SOL    HW216287   4.781   6.337   1.410
 5130SOL     OW16288   6.678   4.456   3.099
 5130SOL    HW116289   6.584   4.425   3.093
 5130SOL    HW216290   6.731   4.419   3.023
 5131SOL     OW16291   0.815   2.803   3.307
 5131SOL    HW116292   0.853   2.729   3.251
 5131SOL    HW216293   0.813   2.887   3.254
 5132SOL     OW16294   3.954   4.388   6.751
 5132SOL    HW116295   3.948   4.368   6.654
 5132SOL    HW216296   3.872   4.355   6.798
 5133SOL     OW16297   3.648   5.940   6.624
 5133SOL    HW116298   3.745   5.964   6.611
 5133SOL    HW216299   3.606   6.006   6.686
 5134SOL     OW16300   0.552   3.403   1.578
 5134SOL    HW116301   0.601   3.357   1.504
 5134SOL    HW216302   0.589   3.373   1.666
 5135SOL     OW16303   6.990   2.025   5.111
 5135SOL    HW116304   6.986   2.065   5.203
 5135SOL    HW216305   7.021   2.095   5.046
 5136SOL     OW16306   5.049   0.566   4.664
 5136SOL    HW116307   4.976   0.597   4.725
 5136SOL    HW216308   5.080   0.475   4.692
 5137SOL     OW16309   4.972   3.837   6.811
 5137SOL    HW116310   4.983   3.896   6.731
 5137SOL    HW216311   5.006   3.746   6.791
 5138SOL     OW16312   3.153   3.333   6.442
 5138SOL    HW116313   3.078   3.371   6.388
 5138SOL    HW216314   3.184   3.247   6.400
 5139SOL     OW16315   1.967   6.874   4.114
 5139SOL    HW116316   2.050   6.838   4.157
 5139SOL    HW216317   1.960   6.838   4.021
 5140SOL     OW16318   3.407   2.076   0.804
 5140SOL    HW116319   3.326   2.131   0.781
 5140SOL    HW216320   3.413   1.998   0.742
 5141SOL     OW16321   5.497   3.477   1.224
 5141SOL    HW116322   5.567   3.461   1.293
 5141SOL    HW216323   5.484   3.575   1.210
 5142SOL     OW16324   5.971   3.011   4.232
 5142SOL    HW116325   6.056   2.987   4.185
 5142SOL    HW216326   5.953   2.946   4.305
 5143SOL     OW16327   0.505   4.997   4.119
 5143SOL    HW116328   0.562   4.922   4.153
 5143SOL    HW216329   0.560   5.054   4.058
 5144SOL     OW16330   1.634   6.875   6.284
 5144SOL    HW116331   1.552   6.911   6.330
 5144SOL    HW216332   1.663   6.940   6.214
 5145SOL     OW16333   2.041   5.361   5.932
 5145SOL    HW116334   2.074   5.268   5.916
 5145SOL    HW216335   2.080   5.396   6.017
 5146SOL     OW16336   3.594   3.943   6.921
 5146SOL    HW116337   3.617   3.867   6.861
 5146SOL    HW216338   3.595   4.028   6.869
 5147SOL     OW16339   6.880   4.366   0.396
 5147SOL    HW116340   6.892   4.267   0.394
 5147SOL    HW216341   6.963   4.411   0.363
 5148SOL     OW16342   0.054   6.048   1.202
 5148SOL    HW116343   0.118   6.026   1.129
 5148SOL    HW216344   0.090   6.123   1.258
 5149SOL     OW16345   6.181   0.853   3.410
 5149SOL    HW116346   6.184   0.815   3.317
 5149SOL    HW216347   6.173   0.779   3.476
 5150SOL     OW16348   1.552   6.171   3.830
 5150SOL    HW116349   1.631   6.218   3.869
 5150SOL    HW216350   1.507   6.229   3.763
 5151SOL     OW16351   5.324   1.440   6.589
 5151SOL    HW116352   5.409   1.483   6.559
 5151SOL    HW216353   5.285   1.493   6.665
 5152SOL     OW16354   1.532   4.713   0.221
 5152SOL    HW116355   1.618   4.744   0.180
 5152SOL    HW216356   1.461   4.708   0.151
 5153SOL     OW16357   2.439   2.415   0.576
 5153SOL    HW116358   2.374   2.454   0.511
 5153SOL    HW216359   2.391   2.359   0.643
 5154SOL     OW16360   1.806   3.214   6.143
 5154SOL    HW116361   1.863   3.221   6.225
 5154SOL    HW216362   1.787   3.306   6.108
 5155SOL     OW16363   4.240   6.205   2.036
 5155SOL    HW116364   4.295   6.287   2.050
 5155SOL    HW216365   4.284   6.127   2.080
 5156SOL     OW16366   6.729   2.123   5.939
 5156SOL    HW116367   6.664   2.070   5.884
 5156SOL    HW216368   6.729   2.218   5.909
 5157SOL     OW16369   4.720   2.733   3.617
 5157SOL    HW116370   4.770   2.649   3.595
 5157SOL    HW216371   4.685   2.774   3.533
 5158SOL     OW16372   3.413   1.785   1.470
 5158SOL    HW116373   3.446   1.743   1.554
 5158SOL    HW216374   3.346   1.726   1.426
 5159SOL     OW16375   0.404   2.620   4.041
 5159SOL    HW116376   0.425   2.627   3.943
 5159SOL    HW216377   0.456   2.544   4.080
 5160SOL     OW16378   1.321   3.773   4.364
 5160SOL    HW116379   1.371   3.740   4.445
 5160SOL    HW216380   1.225   3.784   4.386
 5161SOL     OW16381   1.291   3.958   5.472
 5161SOL    HW116382   1.381   3.914   5.480
 5161SOL    HW216383   1.267   3.966   5.375
 5162SOL     OW16384   6.672   5.452   4.077
 5162SOL    HW116385   6.614   5.495   4.146
 5162SOL    HW216386   6.716   5.371   4.116
 5163SOL     OW16387   5.260   5.267   0.845
 5163SOL    HW116388   5.354   5.277   0.877
 5163SOL    HW216389   5.246   5.175   0.810
 5164SOL     OW16390   5.370   2.745   5.284
 5164SOL    HW116391   5.328   2.835   5.273
 5164SOL    HW216392   5.379   2.724   5.381
 5165SOL     OW16393   6.373   4.567   4.668
 5165SOL    HW116394   6.369   4.606   4.760
 5165SOL    HW216395   6.392   4.639   4.602
 5166SOL     OW16396   1.432   4.841   1.572
 5166SOL    HW116397   1.406   4.765   1.514
 5166SOL    HW216398   1.487   4.808   1.649
 5167SOL     OW16399   5.986   6.486   5.666
 5167SOL    HW116400   5.892   6.465   5.692
 5167SOL    HW216401   6.047   6.474   5.744
 5168SOL     OW16402   4.157   2.051   3.141
 5168SOL    HW116403   4.228   2.108   3.182
 5168SOL    HW216404   4.163   2.057   3.041
 5169SOL     OW16405   3.326   4.073   6.248
 5169SOL    HW116406   3.238   4.106   6.214
 5169SOL    HW216407   3.389   4.150   6.257
 5170SOL     OW16408   6.593   4.272   5.233
 5170SOL    HW116409   6.666   4.340   5.242
 5170SOL    HW216410   6.531   4.279   5.311
 5171SOL     OW16411   2.497   4.977   4.340
 5171SOL    HW116412   2.555   5.022   4.407
 5171SOL    HW216413   2.510   4.878   4.347
 5172SOL     OW16414   0.351   3.720   1.736
 5172SOL    HW116415   0.319   3.811   1.762
 5172SOL    HW216416   0.420   3.729   1.664
 5173SOL     OW16417   5.957   4.015   6.025
 5173SOL    HW116418   6.018   4.088   6.056
 5173SOL    HW216419   5.881   4.055   5.975
 5174SOL     OW16420   1.403   5.090   5.084
 5174SOL    HW116421   1.487   5.137   5.058
 5174SOL    HW216422   1.425   5.002   5.126
 5175SOL     OW16423   1.884   4.595   0.072
 5175SOL    HW116424   1.909   4.646   0.154
 5175SOL    HW216425   1.812   4.529   0.094
 5176SOL     OW16426   4.278   3.693   0.536
 5176SOL    HW116427   4.265   3.633   0.615
 5176SOL    HW216428   4.231   3.780   0.551
 5177SOL     OW16429   4.612   6.564   5.593
 5177SOL    HW116430   4.683   6.551   5.523
 5177SOL    HW216431   4.648   6.538   5.682
 5178SOL     OW16432   2.792   2.852   1.641
 5178SOL    HW116433   2.700   2.835   1.674
 5178SOL    HW216434   2.848   2.771   1.654
 5179SOL     OW16435   4.172   6.524   5.688
 5179SOL    HW116436   4.253   6.508   5.632
 5179SOL    HW216437   4.185   6.607   5.742
 5180SOL     OW16438   3.570   1.846   6.873
 5180SOL    HW116439   3.535   1.897   6.795
 5180SOL    HW216440   3.555   1.749   6.859
 5181SOL     OW16441   3.994   0.201   2.485
 5181SOL    HW116442   4.092   0.206   2.470
 5181SOL    HW216443   3.973   0.236   2.577
 5182SOL     OW16444   5.764   4.931   1.630
 5182SOL    HW116445   5.863   4.919   1.630
 5182SOL    HW216446   5.722   4.868   1.695
 5183SOL     OW16447   4.464   6.810   2.047
 5183SOL    HW116448   4.555   6.784   2.080
 5183SOL    HW216449   4.470   6.892   1.990
 5184SOL     OW16450   0.690   1.408   3.184
 5184SOL    HW116451   0.682   1.485   3.121
 5184SOL    HW216452   0.785   1.378   3.188
 5185SOL     OW16453   3.506   6.741   2.646
 5185SOL    HW116454   3.596   6.712   2.615
 5185SOL    HW216455   3.509   6.837   2.674
 5186SOL     OW16456   6.796   3.913   1.106
 5186SOL    HW116457   6.895   3.923   1.114
 5186SOL    HW216458   6.774   3.850   1.032
 5187SOL     OW16459   6.397   1.805   3.452
 5187SOL    HW116460   6.310   1.836   3.490
 5187SOL    HW216461   6.443   1.882   3.407
 5188SOL     OW16462   0.438   5.225   6.881
 5188SOL    HW116463   0.511   5.267   6.935
 5188SOL    HW216464   0.393   5.154   6.936
 5189SOL     OW16465   5.058   4.853   6.762
 5189SOL    HW116466   5.011   4.869   6.676
 5189SOL    HW216467   5.114   4.770   6.755
 5190SOL     OW16468   0.605   2.134   4.143
 5190SOL    HW116469   0.689   2.156   4.094
 5190SOL    HW216470   0.624   2.134   4.242
 5191SOL     OW16471   3.391   1.417   2.236
 5191SOL    HW116472   3.309   1.394   2.289
 5191SOL    HW216473   3.377   1.505   2.191
 5192SOL     OW16474   5.630   5.593   2.475
 5192SOL    HW116475   5.558   5.612   2.408
 5192SOL    HW216476   5.679   5.677   2.497
 5193SOL     OW16477   5.044   4.393   3.809
 5193SOL    HW116478   4.968   4.449   3.774
 5193SOL    HW216479   5.024   4.365   3.902
 5194SOL     OW16480   5.169   0.905   5.784
 5194SOL    HW116481   5.244   0.902   5.850
 5194SOL    HW216482   5.173   0.990   5.731
 5195SOL     OW16483   6.381   6.750   4.842
 5195SOL    HW116484   6.316   6.680   4.871
 5195SOL    HW216485   6.472   6.710   4.834
 5196SOL     OW16486   0.728   4.279   1.657
 5196SOL    HW116487   0.652   4.237   1.608
 5196SOL    HW216488   0.702   4.370   1.687
 5197SOL     OW16489   2.120   6.348   4.723
 5197SOL    HW116490   2.161   6.439   4.733
 5197SOL    HW216491   2.024   6.351   4.751
 5198SOL     OW16492   3.333   6.244   5.439
 5198SOL    HW116493   3.235   6.246   5.462
 5198SOL    HW216494   3.357   6.325   5.386
 5199SOL     OW16495   2.460   5.878   1.582
 5199SOL    HW116496   2.482   5.780   1.582
 5199SOL    HW216497   2.506   5.922   1.659
 5200SOL     OW16498   0.657   1.664   4.640
 5200SOL    HW116499   0.674   1.567   4.627
 5200SOL    HW216500   0.672   1.712   4.553
 5201SOL     OW16501   5.676   4.784   4.059
 5201SOL    HW116502   5.734   4.707   4.033
 5201SOL    HW216503   5.593   4.784   4.003
 5202SOL     OW16504   4.473   3.396   6.492
 5202SOL    HW116505   4.534   3.343   6.552
 5202SOL    HW216506   4.525   3.470   6.449
 5203SOL     OW16507   1.933   0.511   0.220
 5203SOL    HW116508   2.020   0.547   0.187
 5203SOL    HW216509   1.941   0.413   0.234
 5204SOL     OW16510   3.148   0.419   6.552
 5204SOL    HW116511   3.156   0.324   6.582
 5204SOL    HW216512   3.194   0.431   6.464
 5205SOL     OW16513   0.131   6.310   1.062
 5205SOL    HW116514   0.151   6.267   0.973
 5205SOL    HW216515   0.040   6.352   1.058
 5206SOL     OW16516   0.515   4.497   4.988
 5206SOL    HW116517   0.595   4.499   4.928
 5206SOL    HW216518   0.499   4.403   5.019
 5207SOL     OW16519   0.002   0.109   4.619
 5207SOL    HW116520   0.003   0.170   4.698
 5207SOL    HW216521   6.993   0.019   4.647
 5208SOL     OW16522   4.953   2.337   0.411
 5208SOL    HW116523   5.019   2.266   0.435
 5208SOL    HW216524   4.923   2.324   0.316
 5209SOL     OW16525   4.718   6.791   3.463
 5209SOL    HW116526   4.812   6.776   3.495
 5209SOL    HW216527   4.709   6.756   3.370
 5210SOL     OW16528   5.134   4.191   0.904
 5210SOL    HW116529   5.155   4.107   0.853
 5210SOL    HW216530   5.035   4.205   0.905
 5211SOL     OW16531   4.548   2.250   4.127
 5211SOL    HW116532   4.531   2.259   4.225
 5211SOL    HW216533   4.605   2.326   4.096
 5212SOL     OW16534   1.564   3.089   0.637
 5212SOL    HW116535   1.511   3.173   0.652
 5212SOL    HW216536   1.514   3.011   0.674
 5213SOL     OW16537   3.759   2.854   2.444
 5213SOL    HW116538   3.805   2.780   2.394
 5213SOL    HW216539   3.819   2.888   2.516
 5214SOL     OW16540   5.574   3.929   6.458
 5214SOL    HW116541   5.519   3.942   6.540
 5214SOL    HW216542   5.535   3.855   6.403
 5215SOL     OW16543   6.510   3.540   4.785
 5215SOL    HW116544   6.486   3.464   4.724
 5215SOL    HW216545   6.502   3.510   4.880
 5216SOL     OW16546   5.627   4.599   0.885
 5216SOL    HW116547   5.532   4.627   0.873
 5216SOL    HW216548   5.637   4.502   0.860
 5217SOL     OW16549   3.964   5.879   4.156
 5217SOL    HW116550   4.021   5.800   4.178
 5217SOL    HW216551   3.904   5.856   4.080
 5218SOL     OW16552   0.874   0.722   0.907
 5218SOL    HW116553   0.816   0.744   0.829
 5218SOL    HW216554   0.835   0.763   0.990
 5219SOL     OW16555   2.072   2.125   4.963
 5219SOL    HW116556   1.978   2.094   4.982
 5219SOL    HW216557   2.088   2.123   4.864
 5220SOL     OW16558   2.137   4.810   3.023
 5220SOL    HW116559   2.118   4.883   2.957
 5220SOL    HW216560   2.233   4.814   3.051
 5221SOL     OW16561   0.014   0.585   1.679
 5221SOL    HW116562   7.000   0.510   1.626
 5221SOL    HW216563   0.012   0.562   1.776
 5222SOL     OW16564   4.539   4.658   1.620
 5222SOL    HW116565   4.611   4.601   1.659
 5222SOL    HW216566   4.570   4.699   1.535
 5223SOL     OW16567   0.572   3.083   0.765
 5223SOL    HW116568   0.618   3.168   0.740
 5223SOL    HW216569   0.636   3.006   0.754
 5224SOL     OW16570   0.797   2.013   3.956
 5224SOL    HW116571   0.864   1.969   3.896
 5224SOL    HW216572   0.738   1.943   3.996
 5225SOL     OW16573   0.108   1.392   4.835
 5225SOL    HW116574   0.186   1.337   4.865
 5225SOL    HW216575   0.132   1.440   4.751
 5226SOL     OW16576   0.445   6.021   3.954
 5226SOL    HW116577   0.384   6.029   4.033
 5226SOL    HW216578   0.445   5.926   3.921
 5227SOL     OW16579   6.858   3.136   5.258
 5227SOL    HW116580   6.813   3.200   5.196
 5227SOL    HW216581   6.918   3.186   5.320
 5228SOL     OW16582   1.819   3.140   5.501
 5228SOL    HW116583   1.837   3.075   5.575
 5228SOL    HW216584   1.778   3.091   5.424
 5229SOL     OW16585   3.287   0.416   6.254
 5229SOL    HW116586   3.385   0.426   6.267
 5229SOL    HW216587   3.242   0.504   6.269
 5230SOL     OW16588   6.685   0.351   1.594
 5230SOL    HW116589   6.637   0.433   1.562
 5230SOL    HW216590   6.765   0.335   1.535
 5231SOL     OW16591   5.841   1.430   2.599
 5231SOL    HW116592   5.919   1.451   2.658
 5231SOL    HW216593   5.772   1.502   2.608
 5232SOL     OW16594   1.868   3.565   5.833
 5232SOL    HW116595   1.906   3.506   5.762
 5232SOL    HW216596   1.836   3.651   5.791
 5233SOL     OW16597   2.799   0.312   2.599
 5233SOL    HW116598   2.814   0.261   2.514
 5233SOL    HW216599   2.887   0.348   2.632
 5234SOL     OW16600   2.129   2.189   0.967
 5234SOL    HW116601   2.141   2.240   1.052
 5234SOL    HW216602   2.166   2.097   0.977
 5235SOL     OW16603   2.607   1.860   1.111
 5235SOL    HW116604   2.582   1.894   1.202
 5235SOL    HW216605   2.551   1.905   1.042
 5236SOL     OW16606   3.529   5.217   1.973
 5236SOL    HW116607   3.450   5.266   1.936
 5236SOL    HW216608   3.498   5.134   2.019
 5237SOL     OW16609   2.271   2.512   4.646
 5237SOL    HW116610   2.363   2.477   4.624
 5237SOL    HW216611   2.255   2.502   4.744
 5238SOL     OW16612   1.254   5.650   2.893
 5238SOL    HW116613   1.205   5.563   2.895
 5238SOL    HW216614   1.189   5.725   2.879
 5239SOL     OW16615   2.864   3.553   1.472
 5239SOL    HW116616   2.822   3.600   1.550
 5239SOL    HW216617   2.960   3.536   1.492
 5240SOL     OW16618   2.533   2.633   6.244
 5240SOL    HW116619   2.440   2.663   6.264
 5240SOL    HW216620   2.584   2.621   6.329
 5241SOL     OW16621   0.997   6.135   2.727
 5241SOL    HW116622   1.051   6.055   2.699
 5241SOL    HW216623   0.980   6.193   2.648
 5242SOL     OW16624   4.893   0.836   0.429
 5242SOL    HW116625   4.970   0.899   0.416
 5242SOL    HW216626   4.862   0.842   0.524
 5243SOL     OW16627   1.658   6.336   1.580
 5243SOL    HW116628   1.750   6.363   1.608
 5243SOL    HW216629   1.598   6.334   1.661
 5244SOL     OW16630   5.144   3.488   0.460
 5244SOL    HW116631   5.148   3.459   0.555
 5244SOL    HW216632   5.236   3.485   0.420
 5245SOL     OW16633   4.213   4.042   0.279
 5245SOL    HW116634   4.190   4.134   0.313
 5245SOL    HW216635   4.292   4.007   0.329
 5246SOL     OW16636   6.447   2.602   1.547
 5246SOL    HW116637   6.495   2.690   1.548
 5246SOL    HW216638   6.349   2.618   1.548
 5247SOL     OW16639   4.098   2.224   6.013
 5247SOL    HW116640   4.120   2.168   6.092
 5247SOL    HW216641   4.100   2.167   5.930
 5248SOL     OW16642   6.387   1.601   2.523
 5248SOL    HW116643   6.364   1.621   2.618
 5248SOL    HW216644   6.485   1.617   2.508
 5249SOL     OW16645   0.383   4.937   6.595
 5249SOL    HW116646   0.308   4.873   6.576
 5249SOL    HW216647   0.406   4.933   6.693
 5250SOL     OW16648   2.252   5.883   0.290
 5250SOL    HW116649   2.318   5.956   0.273
 5250SOL    HW216650   2.277   5.803   0.236
 5251SOL     OW16651   0.793   4.010   0.724
 5251SOL    HW116652   0.762   4.023   0.630
 5251SOL    HW216653   0.801   4.099   0.769
 5252SOL     OW16654   3.227   6.918   2.369
 5252SOL    HW116655   3.286   6.839   2.385
 5252SOL    HW216656   3.281   6.991   2.327
 5253SOL     OW16657   5.695   4.754   4.594
 5253SOL    HW116658   5.685   4.695   4.673
 5253SOL    HW216659   5.792   4.758   4.568
 5254SOL     OW16660   6.077   0.046   3.153
 5254SOL    HW116661   6.138   7.010   3.102
 5254SOL    HW216662   6.001   0.074   3.094
 5255SOL     OW16663   5.945   1.728   5.000
 5255SOL    HW116664   6.028   1.675   5.019
 5255SOL    HW216665   5.934   1.739   4.902
 5256SOL     OW16666   5.383   0.643   3.075
 5256SOL    HW116667   5.454   0.583   3.113
 5256SOL    HW216668   5.423   0.734   3.057
 5257SOL     OW16669   4.083   0.777   6.609
 5257SOL    HW116670   4.004   0.716   6.614
 5257SOL    HW216671   4.166   0.727   6.634
 5258SOL     OW16672   5.249   1.510   2.257
 5258SOL    HW116673   5.240   1.410   2.261
 5258SOL    HW216674   5.275   1.537   2.165
 5259SOL     OW16675   4.758   5.104   3.215
 5259SOL    HW116676   4.718   5.189   3.181
 5259SOL    HW216677   4.696   5.028   3.197
 5260SOL     OW16678   2.189   0.097   0.109
 5260SOL    HW116679   2.282   0.084   0.144
 5260SOL    HW216680   2.160   0.015   0.061
 5261SOL     OW16681   6.507   4.535   0.335
 5261SOL    HW116682   6.481   4.628   0.308
 5261SOL    HW216683   6.598   4.514   0.298
 5262SOL     OW16684   2.067   0.506   2.550
 5262SOL    HW116685   2.021   0.490   2.463
 5262SOL    HW216686   2.165   0.512   2.535
 5263SOL     OW16687   1.819   1.492   3.760
 5263SOL    HW116688   1.809   1.393   3.747
 5263SOL    HW216689   1.800   1.515   3.855
 5264SOL     OW16690   6.695   1.711   1.510
 5264SOL    HW116691   6.778   1.690   1.561
 5264SOL    HW216692   6.656   1.796   1.544
 5265SOL     OW16693   5.671   2.880   4.715
 5265SOL    HW116694   5.606   2.955   4.726
 5265SOL    HW216695   5.718   2.891   4.627
 5266SOL     OW16696   2.442   6.732   0.240
 5266SOL    HW116697   2.380   6.663   0.276
 5266SOL    HW216698   2.461   6.800   0.311
 5267SOL     OW16699   4.550   2.400   4.556
 5267SOL    HW116700   4.519   2.447   4.473
 5267SOL    HW216701   4.617   2.456   4.603
 5268SOL     OW16702   5.420   0.896   6.361
 5268SOL    HW116703   5.484   0.963   6.397
 5268SOL    HW216704   5.344   0.943   6.317
 5269SOL     OW16705   0.108   6.547   2.508
 5269SOL    HW116706   0.160   6.562   2.424
 5269SOL    HW216707   0.021   6.502   2.485
 5270SOL     OW16708   0.011   1.840   6.828
 5270SOL    HW116709   0.089   1.854   6.767
 5270SOL    HW216710   6.973   1.917   6.819
 5271SOL     OW16711   6.216   5.837   4.362
 5271SOL    HW116712   6.217   5.747   4.318
 5271SOL    HW216713   6.310   5.868   4.377
 5272SOL     OW16714   4.048   7.005   0.268
 5272SOL    HW116715   4.025   0.006   0.361
 5272SOL    HW216716   4.098   0.055   0.224
 5273SOL     OW16717   1.149   3.199   2.482
 5273SOL    HW116718   1.087   3.266   2.441
 5273SOL    HW216719   1.099   3.115   2.502
 5274SOL     OW16720   4.856   6.116   2.385
 5274SOL    HW116721   4.946   6.151   2.412
 5274SOL    HW216722   4.791   6.131   2.460
 5275SOL     OW16723   3.128   0.658   0.629
 5275SOL    HW116724   3.062   0.599   0.676
 5275SOL    HW216725   3.079   0.727   0.575
 5276SOL     OW16726   2.565   6.250   1.746
 5276SOL    HW116727   2.625   6.175   1.716
 5276SOL    HW216728   2.567   6.256   1.846
 5277SOL     OW16729   1.702   1.136   2.399
 5277SOL    HW116730   1.620   1.083   2.378
 5277SOL    HW216731   1.712   1.145   2.498
 5278SOL     OW16732   4.469   5.108   2.214
 5278SOL    HW116733   4.515   5.186   2.256
 5278SOL    HW216734   4.392   5.079   2.272
 5279SOL     OW16735   2.711   5.288   1.153
 5279SOL    HW116736   2.709   5.249   1.244
 5279SOL    HW216737   2.645   5.241   1.094
 5280SOL     OW16738   3.507   6.198   5.093
 5280SOL    HW116739   3.445   6.143   5.037
 5280SOL    HW216740   3.466   6.212   5.183
 5281SOL     OW16741   0.455   2.067   2.194
 5281SOL    HW116742   0.439   2.166   2.186
 5281SOL    HW216743   0.452   2.025   2.104
 5282SOL     OW16744   2.904   1.925   3.657
 5282SOL    HW116745   2.962   2.006   3.664
 5282SOL    HW216746   2.839   1.923   3.733
 5283SOL     OW16747   4.990   5.984   0.215
 5283SOL    HW116748   5.045   5.901   0.202
 5283SOL    HW216749   5.031   6.040   0.287
 5284SOL     OW16750   5.734   3.514   2.830
 5284SOL    HW116751   5.666   3.444   2.810
 5284SOL    HW216752   5.735   3.532   2.929
 5285SOL     OW16753   3.473   5.173   3.773
 5285SOL    HW116754   3.376   5.198   3.776
 5285SOL    HW216755   3.526   5.242   3.823
 5286SOL     OW16756   1.441   4.543   1.631
 5286SOL    HW116757   1.438   4.594   1.717
 5286SOL    HW216758   1.348   4.517   1.605
 5287SOL     OW16759   2.525   1.778   0.430
 5287SOL    HW116760   2.540   1.796   0.528
 5287SOL    HW216761   2.428   1.782   0.410
 5288SOL     OW16762   3.246   0.162   1.370
 5288SOL    HW116763   3.161   0.211   1.348
 5288SOL    HW216764   3.231   0.105   1.450
 5289SOL     OW16765   0.702   5.084   0.744
 5289SOL    HW116766   0.746   5.023   0.810
 5289SOL    HW216767   0.772   5.142   0.701
 5290SOL     OW16768   3.850   5.701   0.551
 5290SOL    HW116769   3.850   5.675   0.454
 5290SOL    HW216770   3.841   5.618   0.607
 5291SOL     OW16771   1.999   5.236   5.406
 5291SOL    HW116772   1.915   5.256   5.356
 5291SOL    HW216773   2.049   5.163   5.360
 5292SOL     OW16774   4.784   3.054   6.044
 5292SOL    HW116775   4.787   3.110   6.126
 5292SOL    HW216776   4.725   2.974   6.060
 5293SOL     OW16777   0.365   0.369   4.381
 5293SOL    HW116778   0.440   0.307   4.407
 5293SOL    HW216779   0.305   0.382   4.460
 5294SOL     OW16780   6.314   2.877   6.300
 5294SOL    HW116781   6.272   2.886   6.390
 5294SOL    HW216782   6.385   2.946   6.289
 5295SOL     OW16783   6.211   0.757   3.135
 5295SOL    HW116784   6.297   0.778   3.089
 5295SOL    HW216785   6.138   0.816   3.100
 5296SOL     OW16786   0.475   4.451   0.941
 5296SOL    HW116787   0.562   4.442   0.893
 5296SOL    HW216788   0.418   4.519   0.895
 5297SOL     OW16789   2.261   1.627   1.323
 5297SOL    HW116790   2.188   1.611   1.256
 5297SOL    HW216791   2.277   1.725   1.332
 5298SOL     OW16792   0.086   5.338   1.092
 5298SOL    HW116793   0.182   5.340   1.122
 5298SOL    HW216794   0.063   5.424   1.048
 5299SOL     OW16795   2.986   0.493   1.830
 5299SOL    HW116796   3.010   0.474   1.925
 5299SOL    HW216797   2.912   0.561   1.828
 5300SOL     OW16798   6.798   5.898   3.764
 5300SOL    HW116799   6.883   5.944   3.791
 5300SOL    HW216800   6.799   5.884   3.665
 5301SOL     OW16801   4.266   1.104   0.007
 5301SOL    HW116802   4.238   1.142   6.943
 5301SOL    HW216803   4.304   1.013   7.018
 5302SOL     OW16804   6.159   4.284   2.790
 5302SOL    HW116805   6.145   4.203   2.847
 5302SOL    HW216806   6.254   4.316   2.800
 5303SOL     OW16807   6.240   4.175   3.628
 5303SOL    HW116808   6.256   4.174   3.529
 5303SOL    HW216809   6.327   4.189   3.675
 5304SOL     OW16810   5.549   1.796   6.255
 5304SOL    HW116811   5.519   1.770   6.164
 5304SOL    HW216812   5.468   1.814   6.312
 5305SOL     OW16813   2.515   1.027   3.195
 5305SOL    HW116814   2.586   1.071   3.250
 5305SOL    HW216815   2.450   1.097   3.163
 5306SOL     OW16816   3.265   0.060   5.610
 5306SOL    HW116817   3.282   6.986   5.602
 5306SOL    HW216818   3.352   0.108   5.622
 5307SOL     OW16819   4.522   6.783   6.929
 5307SOL    HW116820   4.430   6.822   6.931
 5307SOL    HW216821   4.568   6.801   7.016
 5308SOL     OW16822   6.954   1.415   3.065
 5308SOL    HW116823   6.893   1.494   3.055
 5308SOL    HW216824   7.003   1.420   3.152
 5309SOL     OW16825   3.648   3.741   3.753
 5309SOL    HW116826   3.682   3.705   3.840
 5309SOL    HW216827   3.691   3.829   3.734
 5310SOL     OW16828   5.001   2.206   1.021
 5310SOL    HW116829   4.937   2.269   0.977
 5310SOL    HW216830   5.095   2.237   1.006
 5311SOL     OW16831   2.101   5.555   6.929
 5311SOL    HW116832   2.101   5.462   6.891
 5311SOL    HW216833   2.168   5.610   6.879
 5312SOL     OW16834   0.522   3.981   3.312
 5312SOL    HW116835   0.528   3.938   3.402
 5312SOL    HW216836   0.609   4.024   3.290
 5313SOL     OW16837   1.172   5.825   6.744
 5313SOL    HW116838   1.160   5.896   6.674
 5313SOL    HW216839   1.089   5.770   6.749
 5314SOL     OW16840   3.464   5.389   0.533
 5314SOL    HW116841   3.547   5.416   0.581
 5314SOL    HW216842   3.485   5.312   0.472
 5315SOL     OW16843   5.757   2.766   2.154
 5315SOL    HW116844   5.824   2.700   2.121
 5315SOL    HW216845   5.790   2.859   2.135
 5316SOL     OW16846   6.974   4.119   3.629
 5316SOL    HW116847   6.931   4.079   3.548
 5316SOL    HW216848   0.048   4.126   3.614
 5317SOL     OW16849   5.419   6.857   3.018
 5317SOL    HW116850   5.499   6.915   3.001
 5317SOL    HW216851   5.447   6.761   3.020
 5318SOL     OW16852   0.484   2.451   4.269
 5318SOL    HW116853   0.449   2.368   4.312
 5318SOL    HW216854   0.438   2.531   4.308
 5319SOL     OW16855   5.131   0.564   0.427
 5319SOL    HW116856   5.172   0.653   0.413
 5319SOL    HW216857   5.031   0.571   0.417
 5320SOL     OW16858   5.961   3.026   6.172
 5320SOL    HW116859   6.029   3.012   6.100
 5320SOL    HW216860   5.879   3.068   6.134
 5321SOL     OW16861   1.819   5.499   5.828
 5321SOL    HW116862   1.885   5.479   5.900
 5321SOL    HW216863   1.825   5.428   5.757
 5322SOL     OW16864   3.252   5.798   6.410
 5322SOL    HW116865   3.328   5.770   6.469
 5322SOL    HW216866   3.166   5.790   6.460
 5323SOL     OW16867   5.211   2.688   1.000
 5323SOL    HW116868   5.238   2.754   0.929
 5323SOL    HW216869   5.222   2.731   1.090
 5324SOL     OW16870   3.588   3.124   1.472
 5324SOL    HW116871   3.525   3.047   1.470
 5324SOL    HW216872   3.560   3.188   1.544
 5325SOL     OW16873   5.183   6.295   2.819
 5325SOL    HW116874   5.098   6.322   2.773
 5325SOL    HW216875   5.229   6.224   2.765
 5326SOL     OW16876   0.015   6.315   1.515
 5326SOL    HW116877   0.099   6.321   1.461
 5326SOL    HW216878   6.975   6.385   1.483
 5327SOL     OW16879   6.273   0.358   3.897
 5327SOL    HW116880   6.278   0.339   3.995
 5327SOL    HW216881   6.248   0.275   3.848
 5328SOL     OW16882   3.771   4.236   0.261
 5328SOL    HW116883   3.823   4.157   0.293
 5328SOL    HW216884   3.708   4.266   0.332
 5329SOL     OW16885   6.974   4.775   0.090
 5329SOL    HW116886   7.020   4.700   0.042
 5329SOL    HW216887   6.967   4.854   0.029
 5330SOL     OW16888   4.467   4.215   1.349
 5330SOL    HW116889   4.442   4.118   1.359
 5330SOL    HW216890   4.385   4.268   1.327
 5331SOL     OW16891   4.554   3.373   0.381
 5331SOL    HW116892   4.586   3.288   0.422
 5331SOL    HW216893   4.565   3.448   0.447
 5332SOL     OW16894   5.748   3.932   0.397
 5332SOL    HW116895   5.787   3.925   0.489
 5332SOL    HW216896   5.780   4.017   0.354
 5333SOL     OW16897   2.129   1.070   4.013
 5333SOL    HW116898   2.192   1.021   4.073
 5333SOL    HW216899   2.052   1.105   4.067
 5334SOL     OW16900   4.639   4.853   2.275
 5334SOL    HW116901   4.592   4.911   2.208
 5334SOL    HW216902   4.668   4.769   2.230
 5335SOL     OW16903   0.437   4.611   1.720
 5335SOL    HW116904   0.464   4.688   1.663
 5335SOL    HW216905   0.375   4.552   1.669
 5336SOL     OW16906   1.161   2.739   3.953
 5336SOL    HW116907   1.075   2.765   3.996
 5336SOL    HW216908   1.158   2.643   3.927
 5337SOL     OW16909   6.732   4.497   0.589
 5337SOL    HW116910   6.660   4.429   0.600
 5337SOL    HW216911   6.808   4.458   0.536
 5338SOL     OW16912   6.494   3.392   0.982
 5338SOL    HW116913   6.476   3.423   1.075
 5338SOL    HW216914   6.435   3.314   0.960
 5339SOL     OW16915   5.798   2.262   2.738
 5339SOL    HW116916   5.881   2.318   2.747
 5339SOL    HW216917   5.718   2.318   2.758
 5340SOL     OW16918   5.392   2.678   2.576
 5340SOL    HW116919   5.350   2.759   2.536
 5340SOL    HW216920   5.407   2.609   2.505
 5341SOL     OW16921   4.425   5.736   3.508
 5341SOL    HW116922   4.343   5.753   3.453
 5341SOL    HW216923   4.471   5.822   3.528
 5342SOL     OW16924   5.958   6.656   4.531
 5342SOL    HW116925   5.939   6.749   4.501
 5342SOL    HW216926   5.981   6.599   4.452
 5343SOL     OW16927   3.956   3.560   5.842
 5343SOL    HW116928   4.035   3.609   5.877
 5343SOL    HW216929   3.954   3.568   5.742
 5344SOL     OW16930   1.151   1.802   6.032
 5344SOL    HW116931   1.202   1.763   6.109
 5344SOL    HW216932   1.100   1.730   5.986
 5345SOL     OW16933   5.487   2.415   0.038
 5345SOL    HW116934   5.541   2.333   0.055
 5345SOL    HW216935   5.406   2.391   7.008
 5346SOL     OW16936   3.182   5.696   3.828
 5346SOL    HW116937   3.166   5.621   3.763
 5346SOL    HW216938   3.275   5.730   3.815
 5347SOL     OW16939   5.655   1.820   4.035
 5347SOL    HW116940   5.616   1.757   4.102
 5347SOL    HW216941   5.581   1.866   3.985
 5348SOL     OW16942   5.091   1.490   3.409
 5348SOL    HW116943   5.144   1.475   3.493
 5348SOL    HW216944   5.093   1.587   3.385
 5349SOL     OW16945   0.312   3.970   2.564
 5349SOL    HW116946   0.224   3.954   2.607
 5349SOL    HW216947   0.351   3.882   2.535
 5350SOL     OW16948   1.879   6.523   6.779
 5350SOL    HW116949   1.832   6.610   6.790
 5350SOL    HW216950   1.876   6.473   6.866
 5351SOL     OW16951   0.144   5.531   1.576
 5351SOL    HW116952   0.158   5.498   1.670
 5351SOL    HW216953   0.223   5.585   1.548
 5352SOL     OW16954   1.686   3.459   4.192
 5352SOL    HW116955   1.597   3.479   4.150
 5352SOL    HW216956   1.728   3.382   4.145
 5353SOL     OW16957   4.180   5.755   3.260
 5353SOL    HW116958   4.169   5.658   3.282
 5353SOL    HW216959   4.276   5.773   3.240
 5354SOL     OW16960   3.976   5.919   0.682
 5354SOL    HW116961   3.921   5.862   0.621
 5354SOL    HW216962   3.921   5.945   0.762
 5355SOL     OW16963   5.023   4.839   5.397
 5355SOL    HW116964   4.951   4.859   5.464
 5355SOL    HW216965   5.066   4.752   5.421
 5356SOL     OW16966   0.282   5.140   1.440
 5356SOL    HW116967   0.183   5.134   1.455
 5356SOL    HW216968   0.323   5.194   1.513
 5357SOL     OW16969   5.778   4.316   2.407
 5357SOL    HW116970   5.844   4.288   2.477
 5357SOL    HW216971   5.758   4.413   2.418
 5358SOL     OW16972   4.579   2.149   0.484
 5358SOL    HW116973   4.571   2.056   0.520
 5358SOL    HW216974   4.600   2.212   0.559
 5359SOL     OW16975   2.596   1.844   6.555
 5359SOL    HW116976   2.634   1.914   6.615
 5359SOL    HW216977   2.589   1.880   6.462
 5360SOL     OW16978   5.308   4.504   3.335
 5360SOL    HW116979   5.344   4.556   3.413
 5360SOL    HW216980   5.337   4.409   3.342
 5361SOL     OW16981   2.814   6.176   2.138
 5361SOL    HW116982   2.889   6.141   2.194
 5361SOL    HW216983   2.802   6.274   2.156
 5362SOL     OW16984   5.860   0.267   2.042
 5362SOL    HW116985   5.832   0.183   2.088
 5362SOL    HW216986   5.890   0.334   2.110
 5363SOL     OW16987   5.853   5.192   4.084
 5363SOL    HW116988   5.806   5.129   4.145
 5363SOL    HW216989   5.924   5.144   4.033
 5364SOL     OW16990   4.820   1.294   2.533
 5364SOL    HW116991   4.916   1.299   2.560
 5364SOL    HW216992   4.807   1.343   2.446
 5365SOL     OW16993   3.695   3.022   3.980
 5365SOL    HW116994   3.704   2.971   3.895
 5365SOL    HW216995   3.785   3.054   4.009
 5366SOL     OW16996   6.561   6.133   2.322
 5366SOL    HW116997   6.643   6.077   2.316
 5366SOL    HW216998   6.521   6.143   2.230
 5367SOL     OW16999   6.235   6.155   1.472
 5367SOL    HW117000   6.246   6.056   1.486
 5367SOL    HW217001   6.278   6.204   1.548
 5368SOL     OW17002   6.653   5.598   3.639
 5368SOL    HW117003   6.562   5.591   3.599
 5368SOL    HW217004   6.651   5.557   3.731
 5369SOL     OW17005   2.362   6.135   2.116
 5369SOL    HW117006   2.285   6.199   2.119
 5369SOL    HW217007   2.326   6.041   2.109
 5370SOL     OW17008   2.532   3.773   1.512
 5370SOL    HW117009   2.617   3.773   1.566
 5370SOL    HW217010   2.546   3.719   1.429
 5371SOL     OW17011   5.481   5.539   4.781
 5371SOL    HW117012   5.425   5.479   4.724
 5371SOL    HW217013   5.426   5.617   4.810
 5372SOL     OW17014   0.734   0.576   3.071
 5372SOL    HW117015   0.737   0.500   3.007
 5372SOL    HW217016   0.773   0.548   3.159
 5373SOL     OW17017   3.535   0.633   6.781
 5373SOL    HW117018   3.464   0.583   6.831
 5373SOL    HW217019   3.495   0.718   6.744
 5374SOL     OW17020   2.570   5.007   2.065
 5374SOL    HW117021   2.502   5.051   2.007
 5374SOL    HW217022   2.566   5.046   2.157
 5375SOL     OW17023   1.174   5.173   4.067
 5375SOL    HW117024   1.233   5.152   4.146
 5375SOL    HW217025   1.149   5.088   4.021
 5376SOL     OW17026   0.088   0.988   6.142
 5376SOL    HW117027   0.085   0.895   6.107
 5376SOL    HW217028   7.019   1.020   6.161
 5377SOL     OW17029   2.388   0.762   3.048
 5377SOL    HW117030   2.459   0.817   3.003
 5377SOL    HW217031   2.310   0.821   3.071
 5378SOL     OW17032   5.522   1.299   1.863
 5378SOL    HW117033   5.593   1.296   1.933
 5378SOL    HW217034   5.465   1.217   1.869
 5379SOL     OW17035   1.556   2.602   6.334
 5379SOL    HW117036   1.652   2.581   6.351
 5379SOL    HW217037   1.529   2.566   6.244
 5380SOL     OW17038   4.768   6.855   1.465
 5380SOL    HW117039   4.844   6.793   1.449
 5380SOL    HW217040   4.699   6.843   1.394
 5381SOL     OW17041   4.821   6.380   3.847
 5381SOL    HW117042   4.821   6.430   3.760
 5381SOL    HW217043   4.849   6.286   3.831
 5382SOL     OW17044   4.346   1.975   1.697
 5382SOL    HW117045   4.403   1.896   1.717
 5382SOL    HW217046   4.325   2.023   1.782
 5383SOL     OW17047   2.294   2.924   4.442
 5383SOL    HW117048   2.214   2.868   4.465
 5383SOL    HW217049   2.279   3.018   4.475
 5384SOL     OW17050   5.381   5.348   4.608
 5384SOL    HW117051   5.353   5.410   4.535
 5384SOL    HW217052   5.339   5.259   4.593
 5385SOL     OW17053   4.277   2.529   5.644
 5385SOL    HW117054   4.203   2.525   5.577
 5385SOL    HW217055   4.297   2.437   5.677
 5386SOL     OW17056   6.020   4.384   4.048
 5386SOL    HW117057   6.054   4.366   3.955
 5386SOL    HW217058   6.092   4.362   4.114
 5387SOL     OW17059   1.240   1.149   3.340
 5387SOL    HW117060   1.219   1.240   3.305
 5387SOL    HW217061   1.287   1.096   3.270
 5388SOL     OW17062   1.212   6.432   2.287
 5388SOL    HW117063   1.144   6.459   2.219
 5388SOL    HW217064   1.237   6.511   2.342
 5389SOL     OW17065   4.198   1.283   4.130
 5389SOL    HW117066   4.168   1.232   4.050
 5389SOL    HW217067   4.278   1.238   4.170
 5390SOL     OW17068   0.159   2.790   3.216
 5390SOL    HW117069   0.215   2.873   3.207
 5390SOL    HW217070   0.194   2.734   3.291
 5391SOL     OW17071   2.408   3.601   0.831
 5391SOL    HW117072   2.461   3.534   0.884
 5391SOL    HW217073   2.337   3.553   0.780
 5392SOL     OW17074   5.777   1.905   3.578
 5392SOL    HW117075   5.831   1.846   3.517
 5392SOL    HW217076   5.826   1.991   3.593
 5393SOL     OW17077   3.922   1.986   5.390
 5393SOL    HW117078   3.871   1.905   5.360
 5393SOL    HW217079   3.861   2.065   5.394
 5394SOL     OW17080   1.343   0.901   1.217
 5394SOL    HW117081   1.355   0.829   1.285
 5394SOL    HW217082   1.297   0.863   1.136
 5395SOL     OW17083   6.390   1.449   1.025
 5395SOL    HW117084   6.372   1.413   0.933
 5395SOL    HW217085   6.325   1.407   1.089
 5396SOL     OW17086   5.460   5.285   2.305
 5396SOL    HW117087   5.391   5.357   2.308
 5396SOL    HW217088   5.419   5.199   2.336
 5397SOL     OW17089   0.218   0.883   2.380
 5397SOL    HW117090   0.218   0.925   2.289
 5397SOL    HW217091   0.157   0.935   2.440
 5398SOL     OW17092   5.175   2.167   3.127
 5398SOL    HW117093   5.153   2.264   3.127
 5398SOL    HW217094   5.189   2.135   3.221
 5399SOL     OW17095   2.445   0.601   6.060
 5399SOL    HW117096   2.374   0.543   6.100
 5399SOL    HW217097   2.518   0.614   6.126
 5400SOL     OW17098   4.413   3.109   1.717
 5400SOL    HW117099   4.319   3.107   1.750
 5400SOL    HW217100   4.476   3.094   1.793
 5401SOL     OW17101   5.949   3.756   1.682
 5401SOL    HW117102   5.986   3.760   1.775
 5401SOL    HW217103   6.023   3.772   1.617
 5402SOL     OW17104   0.977   6.447   1.255
 5402SOL    HW117105   0.938   6.375   1.312
 5402SOL    HW217106   1.075   6.435   1.248
 5403SOL     OW17107   5.164   2.599   0.105
 5403SOL    HW117108   5.251   2.646   0.118
 5403SOL    HW217109   5.110   2.606   0.188
 5404SOL     OW17110   6.571   1.238   0.787
 5404SOL    HW117111   6.653   1.289   0.814
 5404SOL    HW217112   6.553   1.165   0.853
 5405SOL     OW17113   5.457   5.541   6.993
 5405SOL    HW117114   5.444   5.441   6.996
 5405SOL    HW217115   5.533   5.562   6.932
 5406SOL     OW17116   2.939   0.516   4.172
 5406SOL    HW117117   2.991   0.435   4.146
 5406SOL    HW217118   2.848   0.488   4.205
 5407SOL     OW17119   1.470   6.719   2.865
 5407SOL    HW117120   1.481   6.808   2.908
 5407SOL    HW217121   1.521   6.718   2.778
 5408SOL     OW17122   3.550   2.048   4.448
 5408SOL    HW117123   3.518   2.024   4.356
 5408SOL    HW217124   3.536   1.972   4.510
 5409SOL     OW17125   1.140   2.914   0.726
 5409SOL    HW117126   1.144   3.014   0.731
 5409SOL    HW217127   1.045   2.886   0.710
 5410SOL     OW17128   1.273   2.573   0.664
 5410SOL    HW117129   1.350   2.537   0.611
 5410SOL    HW217130   1.255   2.512   0.742
 5411SOL     OW17131   3.437   4.831   6.673
 5411SOL    HW117132   3.358   4.801   6.619
 5411SOL    HW217133   3.430   4.929   6.690
 5412SOL     OW17134   0.169   2.097   6.209
 5412SOL    HW117135   0.237   2.168   6.190
 5412SOL    HW217136   0.150   2.046   6.125
 5413SOL     OW17137   7.018   6.620   4.796
 5413SOL    HW117138   7.014   6.710   4.752
 5413SOL    HW217139   6.926   6.582   4.800
 5414SOL     OW17140   5.624   3.896   4.959
 5414SOL    HW117141   5.701   3.946   4.921
 5414SOL    HW217142   5.605   3.816   4.902
 5415SOL     OW17143   3.737   0.335   6.981
 5415SOL    HW117144   3.720   0.434   6.975
 5415SOL    HW217145   3.770   0.313   0.049
 5416SOL     OW17146   3.118   5.526   6.220
 5416SOL    HW117147   3.182   5.520   6.143
 5416SOL    HW217148   3.086   5.435   6.244
 5417SOL     OW17149   4.676   5.950   4.022
 5417SOL    HW117150   4.595   5.995   3.986
 5417SOL    HW217151   4.693   5.980   4.116
 5418SOL     OW17152   6.378   3.476   4.324
 5418SOL    HW117153   6.432   3.554   4.291
 5418SOL    HW217154   6.420   3.440   4.408
 5419SOL     OW17155   4.436   0.084   6.241
 5419SOL    HW117156   4.499   0.105   6.316
 5419SOL    HW217157   4.471   0.006   6.189
 5420SOL     OW17158   1.295   0.659   1.822
 5420SOL    HW117159   1.259   0.575   1.780
 5420SOL    HW217160   1.271   0.660   1.919
 5421SOL     OW17161   4.271   4.678   2.044
 5421SOL    HW117162   4.318   4.620   1.978
 5421SOL    HW217163   4.272   4.635   2.134
 5422SOL     OW17164   2.561   5.948   3.708
 5422SOL    HW117165   2.525   5.932   3.799
 5422SOL    HW217166   2.615   6.033   3.708
 5423SOL     OW17167   5.725   5.675   1.749
 5423SOL    HW117168   5.742   5.663   1.846
 5423SOL    HW217169   5.626   5.680   1.732
 5424SOL     OW17170   4.239   3.919   5.520
 5424SOL    HW117171   4.312   3.899   5.585
 5424SOL    HW217172   4.214   4.016   5.527
 5425SOL     OW17173   1.219   4.047   5.738
 5425SOL    HW117174   1.201   4.145   5.730
 5425SOL    HW217175   1.245   4.011   5.649
 5426SOL     OW17176   5.354   5.173   1.613
 5426SOL    HW117177   5.343   5.237   1.537
 5426SOL    HW217178   5.266   5.132   1.635
 5427SOL     OW17179   4.623   2.414   6.395
 5427SOL    HW117180   4.623   2.347   6.468
 5427SOL    HW217181   4.679   2.381   6.319
 5428SOL     OW17182   6.260   6.325   3.232
 5428SOL    HW117183   6.221   6.238   3.264
 5428SOL    HW217184   6.299   6.374   3.310
 5429SOL     OW17185   3.500   0.260   4.431
 5429SOL    HW117186   3.472   0.218   4.345
 5429SOL    HW217187   3.463   0.208   4.507
 5430SOL     OW17188   2.783   3.754   6.008
 5430SOL    HW117189   2.849   3.680   6.024
 5430SOL    HW217190   2.793   3.788   5.915
 5431SOL     OW17191   3.233   4.498   6.609
 5431SOL    HW117192   3.198   4.580   6.655
 5431SOL    HW217193   3.284   4.442   6.675
 5432SOL     OW17194   5.826   5.656   0.120
 5432SOL    HW117195   5.830   5.753   0.097
 5432SOL    HW217196   5.823   5.602   0.036
 5433SOL     OW17197   1.660   0.526   1.519
 5433SOL    HW117198   1.660   0.624   1.502
 5433SOL    HW217199   1.595   0.505   1.592
 5434SOL     OW17200   5.489   0.346   4.975
 5434SOL    HW117201   5.567   0.357   5.037
 5434SOL    HW217202   5.457   0.437   4.946
 5435SOL     OW17203   6.978   3.946   0.735
 5435SOL    HW117204   6.939   3.854   0.732
 5435SOL    HW217205   6.938   3.996   0.812
 5436SOL     OW17206   1.106   5.084   2.679
 5436SOL    HW117207   1.059   4.999   2.654
 5436SOL    HW217208   1.040   5.151   2.712
 5437SOL     OW17209   3.688   5.635   1.296
 5437SOL    HW117210   3.611   5.608   1.237
 5437SOL    HW217211   3.697   5.569   1.371
 5438SOL     OW17212   4.843   5.025   2.397
 5438SOL    HW117213   4.895   5.060   2.475
 5438SOL    HW217214   4.750   5.003   2.426
 5439SOL     OW17215   1.165   4.949   1.227
 5439SOL    HW117216   1.253   4.962   1.274
 5439SOL    HW217217   1.100   4.908   1.290
 5440SOL     OW17218   6.459   6.389   3.799
 5440SOL    HW117219   6.462   6.300   3.753
 5440SOL    HW217220   6.368   6.428   3.792
 5441SOL     OW17221   5.137   2.639   3.641
 5441SOL    HW117222   5.210   2.651   3.708
 5441SOL    HW217223   5.166   2.676   3.553
 5442SOL     OW17224   4.195   6.739   5.849
 5442SOL    HW117225   4.198   6.709   5.945
 5442SOL    HW217226   4.208   6.838   5.845
 5443SOL     OW17227   4.383   0.716   4.277
 5443SOL    HW117228   4.383   0.685   4.182
 5443SOL    HW217229   4.413   0.642   4.337
 5444SOL     OW17230   6.098   1.302   5.165
 5444SOL    HW117231   6.081   1.227   5.101
 5444SOL    HW217232   6.097   1.266   5.259
 5445SOL     OW17233   5.604   5.103   5.421
 5445SOL    HW117234   5.602   5.134   5.516
 5445SOL    HW217235   5.582   5.181   5.361
 5446SOL     OW17236   0.651   4.381   6.171
 5446SOL    HW117237   0.675   4.293   6.130
 5446SOL    HW217238   0.554   4.381   6.196
 5447SOL     OW17239   1.343   2.093   0.857
 5447SOL    HW117240   1.440   2.118   0.863
 5447SOL    HW217241   1.333   2.014   0.798
 5448SOL     OW17242   4.554   5.165   3.011
 5448SOL    HW117243   4.542   5.085   2.953
 5448SOL    HW217244   4.508   5.151   3.098
 5449SOL     OW17245   3.019   1.311   1.757
 5449SOL    HW117246   3.029   1.300   1.658
 5449SOL    HW217247   2.972   1.398   1.776
 5450SOL     OW17248   4.314   5.492   1.571
 5450SOL    HW117249   4.348   5.586   1.568
 5450SOL    HW217250   4.264   5.472   1.486
 5451SOL     OW17251   0.225   6.817   3.206
 5451SOL    HW117252   0.190   6.736   3.160
 5451SOL    HW217253   0.300   6.855   3.153
 5452SOL     OW17254   2.405   4.315   1.882
 5452SOL    HW117255   2.453   4.258   1.815
 5452SOL    HW217256   2.459   4.397   1.900
 5453SOL     OW17257   5.958   3.898   3.129
 5453SOL    HW117258   6.041   3.952   3.142
 5453SOL    HW217259   5.965   3.848   3.042
 5454SOL     OW17260   5.207   5.385   2.599
 5454SOL    HW117261   5.150   5.359   2.677
 5454SOL    HW217262   5.301   5.397   2.630
 5455SOL     OW17263   1.515   1.401   3.772
 5455SOL    HW117264   1.559   1.313   3.752
 5455SOL    HW217265   1.452   1.424   3.698
 5456SOL     OW17266   6.462   0.844   0.072
 5456SOL    HW117267   6.437   0.937   0.044
 5456SOL    HW217268   6.416   0.823   0.158
 5457SOL     OW17269   5.642   2.475   6.540
 5457SOL    HW117270   5.568   2.487   6.606
 5457SOL    HW217271   5.693   2.392   6.563
 5458SOL     OW17272   6.046   3.840   0.017
 5458SOL    HW117273   6.054   3.768   0.086
 5458SOL    HW217274   6.111   3.822   6.967
 5459SOL     OW17275   1.977   3.725   5.236
 5459SOL    HW117276   2.039   3.755   5.164
 5459SOL    HW217277   2.029   3.705   5.319
 5460SOL     OW17278   1.868   0.306   0.898
 5460SOL    HW117279   1.864   0.345   0.806
 5460SOL    HW217280   1.964   0.298   0.927
 5461SOL     OW17281   6.460   0.951   5.636
 5461SOL    HW117282   6.408   0.899   5.703
 5461SOL    HW217283   6.552   0.914   5.628
 5462SOL     OW17284   4.769   5.496   6.580
 5462SOL    HW117285   4.811   5.512   6.491
 5462SOL    HW217286   4.763   5.583   6.630
 5463SOL     OW17287   0.685   3.167   6.659
 5463SOL    HW117288   0.693   3.071   6.687
 5463SOL    HW217289   0.765   3.193   6.605
 5464SOL     OW17290   0.148   6.287   5.660
 5464SOL    HW117291   0.066   6.267   5.606
 5464SOL    HW217292   0.121   6.327   5.748
 5465SOL     OW17293   6.626   6.061   3.908
 5465SOL    HW117294   6.692   5.996   3.869
 5465SOL    HW217295   6.665   6.153   3.905
 5466SOL     OW17296   5.991   2.650   5.926
 5466SOL    HW117297   6.055   2.705   5.980
 5466SOL    HW217298   5.899   2.659   5.963
 5467SOL     OW17299   5.446   3.365   4.032
 5467SOL    HW117300   5.513   3.401   3.968
 5467SOL    HW217301   5.434   3.429   4.108
 5468SOL     OW17302   0.435   1.545   1.466
 5468SOL    HW117303   0.401   1.612   1.401
 5468SOL    HW217304   0.529   1.568   1.492
 5469SOL     OW17305   2.849   0.351   4.898
 5469SOL    HW117306   2.833   0.382   4.992
 5469SOL    HW217307   2.761   0.336   4.852
 5470SOL     OW17308   3.688   5.443   4.411
 5470SOL    HW117309   3.623   5.394   4.353
 5470SOL    HW217310   3.638   5.507   4.470
 5471SOL     OW17311   4.684   0.750   2.964
 5471SOL    HW117312   4.653   0.837   3.002
 5471SOL    HW217313   4.752   0.710   3.026
 5472SOL     OW17314   2.453   2.375   6.850
 5472SOL    HW117315   2.372   2.316   6.841
 5472SOL    HW217316   2.521   2.350   6.781
 5473SOL     OW17317   2.912   3.895   1.158
 5473SOL    HW117318   2.916   3.809   1.209
 5473SOL    HW217319   2.867   3.965   1.213
 5474SOL     OW17320   0.274   5.231   3.696
 5474SOL    HW117321   0.368   5.207   3.672
 5474SOL    HW217322   0.261   5.330   3.687
 5475SOL     OW17323   6.537   1.735   5.244
 5475SOL    HW117324   6.592   1.665   5.198
 5475SOL    HW217325   6.506   1.701   5.333
 5476SOL     OW17326   2.607   6.666   6.191
 5476SOL    HW117327   2.625   6.752   6.240
 5476SOL    HW217328   2.551   6.685   6.110
 5477SOL     OW17329   2.161   4.836   3.775
 5477SOL    HW117330   2.124   4.929   3.779
 5477SOL    HW217331   2.088   4.772   3.751
 5478SOL     OW17332   5.606   5.015   5.895
 5478SOL    HW117333   5.585   5.009   5.992
 5478SOL    HW217334   5.705   5.009   5.881
 5479SOL     OW17335   3.399   1.772   4.937
 5479SOL    HW117336   3.323   1.748   4.997
 5479SOL    HW217337   3.394   1.719   4.853
 5480SOL     OW17338   6.682   3.487   4.388
 5480SOL    HW117339   6.671   3.568   4.329
 5480SOL    HW217340   6.695   3.516   4.483
 5481SOL     OW17341   4.456   1.205   6.629
 5481SOL    HW117342   4.525   1.160   6.686
 5481SOL    HW217343   4.428   1.143   6.555
 5482SOL     OW17344   4.624   3.220   1.343
 5482SOL    HW117345   4.594   3.272   1.423
 5482SOL    HW217346   4.623   3.122   1.365
 5483SOL     OW17347   6.938   3.490   6.000
 5483SOL    HW117348   7.019   3.453   5.955
 5483SOL    HW217349   6.890   3.416   6.048
 5484SOL     OW17350   6.733   6.302   3.892
 5484SOL    HW117351   6.643   6.347   3.891
 5484SOL    HW217352   6.799   6.358   3.841
 5485SOL     OW17353   3.766   6.858   5.474
 5485SOL    HW117354   3.811   6.862   5.563
 5485SOL    HW217355   3.694   6.927   5.470
 5486SOL     OW17356   1.041   0.968   3.342
 5486SOL    HW117357   0.993   1.005   3.262
 5486SOL    HW217358   1.120   1.024   3.363
 5487SOL     OW17359   6.182   4.528   0.244
 5487SOL    HW117360   6.276   4.512   0.273
 5487SOL    HW217361   6.180   4.552   0.147
 5488SOL     OW17362   5.305   2.134   6.307
 5488SOL    HW117363   5.297   2.223   6.262
 5488SOL    HW217364   5.386   2.086   6.271
 5489SOL     OW17365   1.498   4.338   2.781
 5489SOL    HW117366   1.522   4.411   2.845
 5489SOL    HW217367   1.464   4.259   2.832
 5490SOL     OW17368   2.677   1.567   0.761
 5490SOL    HW117369   2.724   1.479   0.757
 5490SOL    HW217370   2.708   1.624   0.685
 5491SOL     OW17371   1.557   4.947   0.732
 5491SOL    HW117372   1.552   4.880   0.658
 5491SOL    HW217373   1.559   4.900   0.820
 5492SOL     OW17374   0.748   1.663   6.486
 5492SOL    HW117375   0.759   1.599   6.411
 5492SOL    HW217376   0.698   1.619   6.560
 5493SOL     OW17377   3.628   3.118   6.501
 5493SOL    HW117378   3.649   3.191   6.435
 5493SOL    HW217379   3.588   3.158   6.583
 5494SOL     OW17380   5.877   3.369   1.455
 5494SOL    HW117381   5.860   3.271   1.463
 5494SOL    HW217382   5.816   3.419   1.516
 5495SOL     OW17383   4.049   3.386   2.805
 5495SOL    HW117384   4.048   3.293   2.842
 5495SOL    HW217385   4.065   3.451   2.880
 5496SOL     OW17386   3.588   5.966   1.706
 5496SOL    HW117387   3.606   5.975   1.804
 5496SOL    HW217388   3.602   5.871   1.678
 5497SOL     OW17389   6.762   0.993   2.590
 5497SOL    HW117390   6.818   0.975   2.670
 5497SOL    HW217391   6.819   1.030   2.516
 5498SOL     OW17392   4.717   1.607   6.018
 5498SOL    HW117393   4.645   1.644   6.077
 5498SOL    HW217394   4.690   1.615   5.923
 5499SOL     OW17395   6.650   1.601   3.168
 5499SOL    HW117396   6.649   1.674   3.236
 5499SOL    HW217397   6.687   1.636   3.082
 5500SOL     OW17398   2.066   6.209   0.516
 5500SOL    HW117399   2.129   6.263   0.460
 5500SOL    HW217400   1.978   6.256   0.522
 5501SOL     OW17401   2.804   0.285   2.145
 5501SOL    HW117402   2.854   0.201   2.167
 5501SOL    HW217403   2.706   0.267   2.154
 5502SOL     OW17404   6.252   4.127   5.680
 5502SOL    HW117405   6.186   4.054   5.698
 5502SOL    HW217406   6.307   4.144   5.761
 5503SOL     OW17407   1.108   4.373   3.310
 5503SOL    HW117408   1.103   4.365   3.409
 5503SOL    HW217409   1.204   4.366   3.281
 5504SOL     OW17410   3.459   1.820   4.587
 5504SOL    HW117411   3.383   1.826   4.523
 5504SOL    HW217412   3.448   1.739   4.644
 5505SOL     OW17413   3.448   5.613   5.454
 5505SOL    HW117414   3.478   5.686   5.392
 5505SOL    HW217415   3.412   5.654   5.538
 5506SOL     OW17416   6.310   0.979   5.372
 5506SOL    HW117417   6.307   0.893   5.321
 5506SOL    HW217418   6.370   0.969   5.452
 5507SOL     OW17419   2.868   6.639   3.975
 5507SOL    HW117420   2.832   6.673   3.889
 5507SOL    HW217421   2.933   6.705   4.013
 5508SOL     OW17422   2.683   0.344   6.240
 5508SOL    HW117423   2.779   0.328   6.259
 5508SOL    HW217424   2.661   0.440   6.256
 5509SOL     OW17425   5.736   6.748   0.396
 5509SOL    HW117426   5.669   6.821   0.381
 5509SOL    HW217427   5.780   6.725   0.309
 5510SOL     OW17428   5.089   0.739   5.565
 5510SOL    HW117429   5.121   0.792   5.643
 5510SOL    HW217430   5.156   0.744   5.490
 5511SOL     OW17431   0.740   0.676   2.594
 5511SOL    HW117432   0.780   0.620   2.521
 5511SOL    HW217433   0.700   0.616   2.664
 5512SOL     OW17434   1.398   1.103   6.951
 5512SOL    HW117435   1.398   1.132   6.855
 5512SOL    HW217436   1.321   1.042   6.968
 5513SOL     OW17437   4.776   4.159   4.431
 5513SOL    HW117438   4.778   4.196   4.524
 5513SOL    HW217439   4.869   4.159   4.394
 5514SOL     OW17440   4.937   5.012   2.133
 5514SOL    HW117441   4.868   4.984   2.067
 5514SOL    HW217442   4.896   5.019   2.224
 5515SOL     OW17443   6.581   2.215   2.032
 5515SOL    HW117444   6.505   2.150   2.039
 5515SOL    HW217445   6.595   2.259   2.121
 5516SOL     OW17446   1.221   3.797   6.509
 5516SOL    HW117447   1.206   3.712   6.458
 5516SOL    HW217448   1.134   3.841   6.529
 5517SOL     OW17449   2.820   1.692   1.213
 5517SOL    HW117450   2.761   1.739   1.146
 5517SOL    HW217451   2.890   1.639   1.165
 5518SOL     OW17452   5.835   4.980   5.740
 5518SOL    HW117453   5.785   4.960   5.656
 5518SOL    HW217454   5.909   5.044   5.720
 5519SOL     OW17455   5.865   3.630   3.786
 5519SOL    HW117456   5.890   3.541   3.824
 5519SOL    HW217457   5.828   3.618   3.694
 5520SOL     OW17458   0.960   3.972   1.919
 5520SOL    HW117459   0.889   3.928   1.864
 5520SOL    HW217460   1.050   3.943   1.887
 5521SOL     OW17461   5.745   6.312   1.249
 5521SOL    HW117462   5.769   6.333   1.154
 5521SOL    HW217463   5.820   6.262   1.292
 5522SOL     OW17464   2.557   3.574   1.736
 5522SOL    HW117465   2.541   3.672   1.749
 5522SOL    HW217466   2.475   3.523   1.764
 5523SOL     OW17467   3.118   0.152   2.626
 5523SOL    HW117468   3.104   0.186   2.534
 5523SOL    HW217469   3.039   0.098   2.655
 5524SOL     OW17470   0.714   4.830   5.517
 5524SOL    HW117471   0.759   4.877   5.441
 5524SOL    HW217472   0.616   4.821   5.497
 5525SOL     OW17473   6.732   5.163   6.402
 5525SOL    HW117474   6.821   5.153   6.357
 5525SOL    HW217475   6.745   5.162   6.502
 5526SOL     OW17476   6.176   3.118   3.550
 5526SOL    HW117477   6.138   3.055   3.619
 5526SOL    HW217478   6.242   3.179   3.594
 5527SOL     OW17479   1.710   2.713   1.723
 5527SOL    HW117480   1.684   2.708   1.627
 5527SOL    HW217481   1.629   2.726   1.780
 5528SOL     OW17482   0.170   2.379   4.573
 5528SOL    HW117483   0.146   2.299   4.628
 5528SOL    HW217484   0.160   2.462   4.629
 5529SOL     OW17485   2.459   0.771   4.671
 5529SOL    HW117486   2.390   0.844   4.671
 5529SOL    HW217487   2.544   0.807   4.709
 5530SOL     OW17488   0.434   2.146   0.269
 5530SOL    HW117489   0.524   2.174   0.301
 5530SOL    HW217490   0.433   2.048   0.251
 5531SOL     OW17491   4.140   3.075   5.373
 5531SOL    HW117492   4.114   2.980   5.358
 5531SOL    HW217493   4.060   3.134   5.356
 5532SOL     OW17494   2.250   1.772   0.385
 5532SOL    HW117495   2.163   1.815   0.408
 5532SOL    HW217496   2.232   1.682   0.343
 5533SOL     OW17497   3.610   0.650   1.985
 5533SOL    HW117498   3.536   0.584   1.997
 5533SOL    HW217499   3.583   0.738   2.025
 5534SOL     OW17500   0.980   3.870   6.588
 5534SOL    HW117501   0.922   3.789   6.589
 5534SOL    HW217502   0.980   3.912   6.678
 5535SOL     OW17503   6.250   3.241   2.994
 5535SOL    HW117504   6.271   3.165   2.932
 5535SOL    HW217505   6.320   3.246   3.066
 5536SOL     OW17506   2.439   0.627   4.436
 5536SOL    HW117507   2.451   0.702   4.501
 5536SOL    HW217508   2.422   0.542   4.486
 5537SOL     OW17509   3.911   0.312   5.111
 5537SOL    HW117510   3.895   0.402   5.069
 5537SOL    HW217511   3.846   0.299   5.186
 5538SOL     OW17512   3.665   1.226   5.943
 5538SOL    HW117513   3.659   1.296   5.872
 5538SOL    HW217514   3.658   1.270   6.033
 5539SOL     OW17515   1.604   1.024   2.048
 5539SOL    HW117516   1.653   1.000   2.131
 5539SOL    HW217517   1.508   1.044   2.071
 5540SOL     OW17518   5.262   2.852   0.405
 5540SOL    HW117519   5.212   2.857   0.318
 5540SOL    HW217520   5.223   2.918   0.469
 5541SOL     OW17521   5.019   3.742   5.942
 5541SOL    HW117522   5.075   3.690   6.006
 5541SOL    HW217523   4.970   3.678   5.882
 5542SOL     OW17524   5.273   4.658   6.695
 5542SOL    HW117525   5.334   4.645   6.617
 5542SOL    HW217526   5.226   4.572   6.716
 5543SOL     OW17527   1.809   6.517   0.295
 5543SOL    HW117528   1.812   6.614   0.317
 5543SOL    HW217529   1.818   6.505   0.196
 5544SOL     OW17530   4.667   5.059   6.218
 5544SOL    HW117531   4.746   5.060   6.157
 5544SOL    HW217532   4.651   4.966   6.252
 5545SOL     OW17533   4.310   1.210   2.776
 5545SOL    HW117534   4.215   1.227   2.803
 5545SOL    HW217535   4.330   1.256   2.690
 5546SOL     OW17536   0.843   6.207   5.278
 5546SOL    HW117537   0.765   6.156   5.313
 5546SOL    HW217538   0.886   6.156   5.204
 5547SOL     OW17539   5.062   1.902   5.748
 5547SOL    HW117540   5.081   1.897   5.846
 5547SOL    HW217541   5.128   1.845   5.699
 5548SOL     OW17542   6.807   3.706   5.929
 5548SOL    HW117543   6.854   3.624   5.963
 5548SOL    HW217544   6.723   3.679   5.883
 5549SOL     OW17545   4.166   3.491   1.966
 5549SOL    HW117546   4.142   3.586   1.944
 5549SOL    HW217547   4.185   3.441   1.882
 5550SOL     OW17548   2.377   4.534   2.830
 5550SOL    HW117549   2.319   4.454   2.840
 5550SOL    HW217550   2.458   4.525   2.887
 5551SOL     OW17551   1.996   5.353   2.700
 5551SOL    HW117552   1.959   5.446   2.696
 5551SOL    HW217553   2.042   5.340   2.788
 5552SOL     OW17554   6.564   6.994   6.085
 5552SOL    HW117555   6.491   6.943   6.039
 5552SOL    HW217556   6.558   0.066   6.059
 5553SOL     OW17557   4.163   0.495   6.969
 5553SOL    HW117558   4.082   0.540   7.006
 5553SOL    HW217559   4.135   0.422   6.907
 5554SOL     OW17560   4.954   3.011   1.342
 5554SOL    HW117561   4.946   3.110   1.339
 5554SOL    HW217562   4.911   2.976   1.426
 5555SOL     OW17563   0.913   3.757   3.223
 5555SOL    HW117564   0.945   3.669   3.257
 5555SOL    HW217565   0.914   3.755   3.123
 5556SOL     OW17566   5.975   1.033   4.363
 5556SOL    HW117567   5.966   1.036   4.264
 5556SOL    HW217568   5.890   0.999   4.404
 5557SOL     OW17569   3.152   5.872   1.501
 5557SOL    HW117570   3.199   5.908   1.421
 5557SOL    HW217571   3.211   5.882   1.582
 5558SOL     OW17572   3.402   4.620   0.568
 5558SOL    HW117573   3.465   4.627   0.490
 5558SOL    HW217574   3.308   4.631   0.536
 5559SOL     OW17575   1.001   0.323   2.676
 5559SOL    HW117576   0.939   0.355   2.605
 5559SOL    HW217577   1.006   0.223   2.674
 5560SOL     OW17578   6.650   5.948   2.910
 5560SOL    HW117579   6.639   5.849   2.916
 5560SOL    HW217580   6.604   5.982   2.828
 5561SOL     OW17581   3.020   0.678   4.694
 5561SOL    HW117582   3.047   0.774   4.696
 5561SOL    HW217583   2.924   0.670   4.666
 5562SOL     OW17584   4.443   4.445   0.296
 5562SOL    HW117585   4.411   4.363   0.248
 5562SOL    HW217586   4.407   4.445   0.389
 5563SOL     OW17587   3.163   5.274   2.807
 5563SOL    HW117588   3.102   5.195   2.807
 5563SOL    HW217589   3.240   5.257   2.868
 5564SOL     OW17590   4.809   6.857   6.382
 5564SOL    HW117591   4.791   6.817   6.292
 5564SOL    HW217592   4.738   6.827   6.446
 5565SOL     OW17593   4.294   3.241   0.380
 5565SOL    HW117594   4.387   3.269   0.359
 5565SOL    HW217595   4.239   3.322   0.402
 5566SOL     OW17596   1.679   4.339   0.775
 5566SOL    HW117597   1.759   4.375   0.823
 5566SOL    HW217598   1.706   4.308   0.684
 5567SOL     OW17599   6.789   3.727   1.935
 5567SOL    HW117600   6.829   3.652   1.988
 5567SOL    HW217601   6.836   3.812   1.958
 5568SOL     OW17602   4.518   6.842   3.089
 5568SOL    HW117603   4.497   6.926   3.038
 5568SOL    HW217604   4.616   6.826   3.086
 5569SOL     OW17605   2.651   1.684   3.173
 5569SOL    HW117606   2.639   1.636   3.260
 5569SOL    HW217607   2.748   1.702   3.158
 5570SOL     OW17608   6.011   3.521   3.425
 5570SOL    HW117609   6.031   3.604   3.373
 5570SOL    HW217610   6.078   3.510   3.498
 5571SOL     OW17611   6.671   5.106   2.108
 5571SOL    HW117612   6.647   5.009   2.100
 5571SOL    HW217613   6.767   5.119   2.082
 5572SOL     OW17614   1.587   4.398   4.951
 5572SOL    HW117615   1.561   4.358   5.039
 5572SOL    HW217616   1.520   4.372   4.882
 5573SOL     OW17617   1.559   5.410   5.281
 5573SOL    HW117618   1.584   5.489   5.337
 5573SOL    HW217619   1.482   5.434   5.222
 5574SOL     OW17620   0.459   2.860   6.937
 5574SOL    HW117621   0.524   2.925   6.976
 5574SOL    HW217622   0.368   2.875   6.975
 5575SOL     OW17623   0.243   6.930   1.229
 5575SOL    HW117624   0.208   6.837   1.216
 5575SOL    HW217625   0.260   6.972   1.140
 5576SOL     OW17626   1.804   4.353   3.049
 5576SOL    HW117627   1.795   4.297   2.967
 5576SOL    HW217628   1.821   4.448   3.022
 5577SOL     OW17629   2.008   3.013   0.609
 5577SOL    HW117630   2.041   3.034   0.517
 5577SOL    HW217631   2.062   3.064   0.676
 5578SOL     OW17632   3.982   3.887   2.377
 5578SOL    HW117633   3.924   3.959   2.339
 5578SOL    HW217634   3.992   3.901   2.476
 5579SOL     OW17635   0.514   3.515   1.226
 5579SOL    HW117636   0.554   3.559   1.146
 5579SOL    HW217637   0.437   3.570   1.259
 5580SOL     OW17638   4.745   1.966   6.185
 5580SOL    HW117639   4.838   2.003   6.172
 5580SOL    HW217640   4.693   2.029   6.243
 5581SOL     OW17641   0.895   1.505   1.469
 5581SOL    HW117642   0.974   1.548   1.426
 5581SOL    HW217643   0.925   1.447   1.544
 5582SOL     OW17644   2.417   4.246   6.880
 5582SOL    HW117645   2.418   4.253   6.980
 5582SOL    HW217646   2.443   4.153   6.853
 5583SOL     OW17647   4.175   0.794   2.582
 5583SOL    HW117648   4.131   0.723   2.527
 5583SOL    HW217649   4.272   0.796   2.562
 5584SOL     OW17650   6.308   3.393   4.081
 5584SOL    HW117651   6.341   3.406   4.174
 5584SOL    HW217652   6.385   3.391   4.018
 5585SOL     OW17653   4.792   5.406   3.256
 5585SOL    HW117654   4.879   5.375   3.293
 5585SOL    HW217655   4.738   5.448   3.329
 5586SOL     OW17656   6.602   3.310   5.897
 5586SOL    HW117657   6.582   3.298   5.800
 5586SOL    HW217658   6.673   3.245   5.925
 5587SOL     OW17659   4.377   0.346   0.738
 5587SOL    HW117660   4.437   0.310   0.667
 5587SOL    HW217661   4.389   0.445   0.746
 5588SOL     OW17662   2.795   6.560   2.980
 5588SOL    HW117663   2.783   6.649   2.936
 5588SOL    HW217664   2.714   6.539   3.035
 5589SOL     OW17665   6.045   4.406   6.682
 5589SOL    HW117666   6.118   4.343   6.655
 5589SOL    HW217667   6.037   4.408   6.782
 5590SOL     OW17668   5.967   6.303   3.763
 5590SOL    HW117669   5.896   6.373   3.775
 5590SOL    HW217670   5.953   6.229   3.828
 5591SOL     OW17671   0.499   1.523   1.133
 5591SOL    HW117672   0.451   1.607   1.159
 5591SOL    HW217673   0.452   1.444   1.174
 5592SOL     OW17674   1.603   5.391   3.878
 5592SOL    HW117675   1.558   5.477   3.856
 5592SOL    HW217676   1.701   5.398   3.857
 5593SOL     OW17677   6.867   2.650   6.550
 5593SOL    HW117678   6.925   2.728   6.575
 5593SOL    HW217679   6.885   2.574   6.612
 5594SOL     OW17680   4.916   0.726   4.840
 5594SOL    HW117681   4.816   0.718   4.839
 5594SOL    HW217682   4.945   0.767   4.927
 5595SOL     OW17683   1.127   1.461   4.861
 5595SOL    HW117684   1.192   1.484   4.934
 5595SOL    HW217685   1.087   1.545   4.825
 5596SOL     OW17686   4.600   6.562   2.558
 5596SOL    HW117687   4.539   6.551   2.479
 5596SOL    HW217688   4.564   6.510   2.635
 5597SOL     OW17689   4.958   2.288   4.434
 5597SOL    HW117690   4.988   2.379   4.405
 5597SOL    HW217691   4.981   2.274   4.531
 5598SOL     OW17692   4.889   3.295   4.164
 5598SOL    HW117693   4.909   3.390   4.139
 5598SOL    HW217694   4.850   3.292   4.256
 5599SOL     OW17695   0.991   0.964   3.959
 5599SOL    HW117696   1.062   0.957   4.029
 5599SOL    HW217697   1.033   0.962   3.868
 5600SOL     OW17698   0.686   1.330   2.554
 5600SOL    HW117699   0.732   1.345   2.642
 5600SOL    HW217700   0.601   1.382   2.551
 5601SOL     OW17701   2.898   0.029   5.799
 5601SOL    HW117702   2.866   0.121   5.822
 5601SOL    HW217703   2.969   0.001   5.863
 5602SOL     OW17704   0.494   1.432   0.650
 5602SOL    HW117705   0.565   1.363   0.668
 5602SOL    HW217706   0.430   1.434   0.727
 5603SOL     OW17707   4.924   2.594   6.733
 5603SOL    HW117708   4.884   2.506   6.709
 5603SOL    HW217709   5.022   2.592   6.715
 5604SOL     OW17710   6.453   2.111   5.607
 5604SOL    HW117711   6.493   2.052   5.678
 5604SOL    HW217712   6.386   2.173   5.648
 5605SOL     OW17713   0.719   0.720   4.591
 5605SOL    HW117714   0.702   0.732   4.494
 5605SOL    HW217715   0.661   0.782   4.643
 5606SOL     OW17716   5.219   6.984   0.947
 5606SOL    HW117717   5.287   6.923   0.907
 5606SOL    HW217718   5.238   6.994   1.045
 5607SOL     OW17719   5.802   0.444   2.604
 5607SOL    HW117720   5.706   0.426   2.582
 5607SOL    HW217721   5.823   0.540   2.588
 5608SOL     OW17722   4.467   7.003   5.011
 5608SOL    HW117723   4.425   0.041   4.946
 5608SOL    HW217724   4.554   6.971   4.974
 5609SOL     OW17725   2.441   4.726   0.798
 5609SOL    HW117726   2.418   4.629   0.788
 5609SOL    HW217727   2.401   4.777   0.721
 5610SOL     OW17728   4.775   6.901   0.584
 5610SOL    HW117729   4.763   6.851   0.670
 5610SOL    HW217730   4.848   6.969   0.595
 5611SOL     OW17731   1.709   5.433   2.308
 5611SOL    HW117732   1.711   5.516   2.363
 5611SOL    HW217733   1.792   5.380   2.323
 5612SOL     OW17734   3.864   2.236   6.868
 5612SOL    HW117735   3.867   2.137   6.854
 5612SOL    HW217736   3.857   2.282   6.779
 5613SOL     OW17737   5.145   3.840   3.261
 5613SOL    HW117738   5.124   3.797   3.174
 5613SOL    HW217739   5.178   3.933   3.246
 5614SOL     OW17740   4.531   2.556   4.331
 5614SOL    HW117741   4.618   2.593   4.298
 5614SOL    HW217742   4.464   2.556   4.256
 5615SOL     OW17743   0.780   0.834   5.889
 5615SOL    HW117744   0.776   0.781   5.973
 5615SOL    HW217745   0.796   0.774   5.811
 5616SOL     OW17746   2.064   1.238   5.179
 5616SOL    HW117747   1.989   1.254   5.243
 5616SOL    HW217748   2.138   1.190   5.226
 5617SOL     OW17749   2.280   6.782   6.468
 5617SOL    HW117750   2.240   6.773   6.376
 5617SOL    HW217751   2.210   6.761   6.536
 5618SOL     OW17752   6.390   3.286   3.665
 5618SOL    HW117753   6.406   3.340   3.748
 5618SOL    HW217754   6.462   3.217   3.656
 5619SOL     OW17755   3.091   3.975   6.493
 5619SOL    HW117756   3.005   4.022   6.475
 5619SOL    HW217757   3.091   3.940   6.587
 5620SOL     OW17758   3.991   3.639   0.904
 5620SOL    HW117759   3.898   3.674   0.910
 5620SOL    HW217760   4.015   3.594   0.990
 5621SOL     OW17761   1.184   2.292   5.643
 5621SOL    HW117762   1.267   2.340   5.612
 5621SOL    HW217763   1.209   2.202   5.679
 5622SOL     OW17764   4.525   0.132   5.848
 5622SOL    HW117765   4.481   0.216   5.880
 5622SOL    HW217766   4.484   0.104   5.761
 5623SOL     OW17767   2.079   5.927   6.405
 5623SOL    HW117768   2.060   6.023   6.424
 5623SOL    HW217769   2.127   5.919   6.317
 5624SOL     OW17770   0.915   4.604   3.603
 5624SOL    HW117771   0.873   4.606   3.694
 5624SOL    HW217772   0.969   4.521   3.593
 5625SOL     OW17773   5.692   1.861   4.348
 5625SOL    HW117774   5.682   1.765   4.320
 5625SOL    HW217775   5.678   1.920   4.269
 5626SOL     OW17776   2.931   6.865   4.839
 5626SOL    HW117777   2.834   6.857   4.862
 5626SOL    HW217778   2.972   6.773   4.838
 5627SOL     OW17779   1.215   5.996   0.213
 5627SOL    HW117780   1.178   5.986   0.121
 5627SOL    HW217781   1.284   5.926   0.229
 5628SOL     OW17782   1.426   2.963   5.656
 5628SOL    HW117783   1.418   3.038   5.590
 5628SOL    HW217784   1.489   2.989   5.729
 5629SOL     OW17785   3.428   3.663   2.190
 5629SOL    HW117786   3.478   3.629   2.269
 5629SOL    HW217787   3.470   3.748   2.158
 5630SOL     OW17788   1.252   4.917   0.417
 5630SOL    HW117789   1.268   4.820   0.398
 5630SOL    HW217790   1.281   4.971   0.338
 5631SOL     OW17791   4.440   1.604   6.833
 5631SOL    HW117792   4.473   1.522   6.879
 5631SOL    HW217793   4.464   1.684   6.888
 5632SOL     OW17794   4.063   2.675   6.164
 5632SOL    HW117795   3.969   2.710   6.164
 5632SOL    HW217796   4.072   2.604   6.094
 5633SOL     OW17797   6.008   2.128   3.522
 5633SOL    HW117798   6.037   2.102   3.430
 5633SOL    HW217799   6.077   2.187   3.563
 5634SOL     OW17800   2.211   6.306   5.416
 5634SOL    HW117801   2.182   6.247   5.341
 5634SOL    HW217802   2.221   6.251   5.499
 5635SOL     OW17803   2.159   3.935   5.255
 5635SOL    HW117804   2.152   4.018   5.310
 5635SOL    HW217805   2.243   3.939   5.200
 5636SOL     OW17806   3.402   6.486   2.370
 5636SOL    HW117807   3.383   6.509   2.466
 5636SOL    HW217808   3.469   6.412   2.367
 5637SOL     OW17809   5.185   0.239   4.351
 5637SOL    HW117810   5.100   0.190   4.329
 5637SOL    HW217811   5.163   0.334   4.375
 5638SOL     OW17812   5.509   3.465   1.525
 5638SOL    HW117813   5.502   3.562   1.549
 5638SOL    HW217814   5.421   3.433   1.491
 5639SOL     OW17815   0.487   0.692   0.316
 5639SOL    HW117816   0.533   0.678   0.229
 5639SOL    HW217817   0.508   0.783   0.351
 5640SOL     OW17818   2.928   0.676   3.965
 5640SOL    HW117819   2.905   0.598   3.907
 5640SOL    HW217820   2.940   0.645   4.059
 5641SOL     OW17821   0.570   4.767   6.074
 5641SOL    HW117822   0.621   4.836   6.022
 5641SOL    HW217823   0.561   4.798   6.169
 5642SOL     OW17824   2.319   6.535   6.712
 5642SOL    HW117825   2.380   6.495   6.643
 5642SOL    HW217826   2.373   6.564   6.791
 5643SOL     OW17827   4.613   1.500   5.011
 5643SOL    HW117828   4.593   1.523   4.915
 5643SOL    HW217829   4.692   1.553   5.042
 5644SOL     OW17830   2.912   6.663   5.259
 5644SOL    HW117831   2.876   6.639   5.350
 5644SOL    HW217832   2.899   6.761   5.243
 5645SOL     OW17833   6.401   3.659   3.790
 5645SOL    HW117834   6.449   3.676   3.703
 5645SOL    HW217835   6.310   3.698   3.786
 5646SOL     OW17836   2.128   5.286   2.930
 5646SOL    HW117837   2.211   5.342   2.935
 5646SOL    HW217838   2.087   5.278   3.021
 5647SOL     OW17839   5.740   6.400   1.694
 5647SOL    HW117840   5.760   6.498   1.700
 5647SOL    HW217841   5.668   6.377   1.759
 5648SOL     OW17842   2.400   5.782   2.701
 5648SOL    HW117843   2.461   5.800   2.779
 5648SOL    HW217844   2.419   5.848   2.628
 5649SOL     OW17845   0.827   6.838   4.199
 5649SOL    HW117846   0.817   6.851   4.100
 5649SOL    HW217847   0.914   6.792   4.217
 5650SOL     OW17848   0.450   4.545   0.279
 5650SOL    HW117849   0.452   4.491   0.362
 5650SOL    HW217850   0.507   4.627   0.291
 5651SOL     OW17851   2.012   0.882   0.465
 5651SOL    HW117852   1.961   0.797   0.464
 5651SOL    HW217853   1.952   0.958   0.439
 5652SOL     OW17854   0.256   5.444   1.800
 5652SOL    HW117855   0.277   5.346   1.800
 5652SOL    HW217856   0.211   5.469   1.886
 5653SOL     OW17857   0.436   6.114   0.187
 5653SOL    HW117858   0.375   6.075   0.255
 5653SOL    HW217859   0.429   6.214   0.189
 5654SOL     OW17860   1.197   5.460   4.448
 5654SOL    HW117861   1.211   5.383   4.387
 5654SOL    HW217862   1.131   5.435   4.519
 5655SOL     OW17863   6.495   2.694   3.993
 5655SOL    HW117864   6.504   2.619   4.059
 5655SOL    HW217865   6.572   2.757   4.004
 5656SOL     OW17866   6.591   3.634   6.502
 5656SOL    HW117867   6.539   3.550   6.520
 5656SOL    HW217868   6.614   3.678   6.588
 5657SOL     OW17869   4.621   4.367   4.905
 5657SOL    HW117870   4.621   4.275   4.945
 5657SOL    HW217871   4.539   4.416   4.934
 5658SOL     OW17872   2.414   2.979   6.440
 5658SOL    HW117873   2.438   2.981   6.537
 5658SOL    HW217874   2.363   2.896   6.420
 5659SOL     OW17875   3.501   3.878   5.916
 5659SOL    HW117876   3.554   3.942   5.972
 5659SOL    HW217877   3.526   3.784   5.941
 5660SOL     OW17878   4.357   0.199   6.567
 5660SOL    HW117879   4.363   0.298   6.562
 5660SOL    HW217880   4.376   0.160   6.477
 5661SOL     OW17881   1.067   5.447   5.919
 5661SOL    HW117882   0.980   5.486   5.948
 5661SOL    HW217883   1.120   5.419   5.999
 5662SOL     OW17884   2.068   6.818   2.680
 5662SOL    HW117885   2.047   6.727   2.715
 5662SOL    HW217886   2.088   6.812   2.582
 5663SOL     OW17887   1.429   2.852   0.712
 5663SOL    HW117888   1.465   2.759   0.722
 5663SOL    HW217889   1.331   2.848   0.694
 5664SOL     OW17890   5.322   4.046   4.659
 5664SOL    HW117891   5.260   4.017   4.732
 5664SOL    HW217892   5.344   3.967   4.601
 5665SOL     OW17893   1.415   6.180   0.291
 5665SOL    HW117894   1.512   6.156   0.299
 5665SOL    HW217895   1.362   6.097   0.277
 5666SOL     OW17896   6.123   0.823   3.799
 5666SOL    HW117897   6.101   0.855   3.892
 5666SOL    HW217898   6.181   0.742   3.805
 5667SOL     OW17899   1.838   4.698   4.007
 5667SOL    HW117900   1.739   4.709   3.997
 5667SOL    HW217901   1.882   4.786   3.990
 5668SOL     OW17902   6.202   2.944   2.584
 5668SOL    HW117903   6.136   2.870   2.572
 5668SOL    HW217904   6.190   2.984   2.675
 5669SOL     OW17905   6.455   4.326   0.086
 5669SOL    HW117906   6.388   4.252   0.089
 5669SOL    HW217907   6.526   4.310   0.155
 5670SOL     OW17908   1.539   3.592   2.913
 5670SOL    HW117909   1.560   3.606   2.816
 5670SOL    HW217910   1.523   3.681   2.957
 5671SOL     OW17911   6.001   5.580   4.575
 5671SOL    HW117912   5.916   5.630   4.591
 5671SOL    HW217913   6.070   5.610   4.642
 5672SOL     OW17914   4.805   3.764   5.658
 5672SOL    HW117915   4.879   3.761   5.591
 5672SOL    HW217916   4.786   3.859   5.683
 5673SOL     OW17917   0.672   6.687   1.602
 5673SOL    HW117918   0.646   6.771   1.555
 5673SOL    HW217919   0.764   6.698   1.640
 5674SOL     OW17920   2.234   4.912   4.489
 5674SOL    HW117921   2.296   4.980   4.450
 5674SOL    HW217922   2.273   4.875   4.573
 5675SOL     OW17923   3.683   1.493   0.313
 5675SOL    HW117924   3.680   1.507   0.214
 5675SOL    HW217925   3.695   1.396   0.333
 5676SOL     OW17926   2.613   2.449   1.874
 5676SOL    HW117927   2.704   2.433   1.913
 5676SOL    HW217928   2.556   2.369   1.890
 5677SOL     OW17929   6.826   0.782   0.762
 5677SOL    HW117930   6.742   0.734   0.785
 5677SOL    HW217931   6.882   0.725   0.702
 5678SOL     OW17932   3.770   1.319   1.983
 5678SOL    HW117933   3.734   1.379   2.055
 5678SOL    HW217934   3.855   1.277   2.015
 5679SOL     OW17935   5.924   2.148   4.617
 5679SOL    HW117936   5.891   2.093   4.694
 5679SOL    HW217937   5.999   2.100   4.572
 5680SOL     OW17938   1.461   4.818   5.633
 5680SOL    HW117939   1.509   4.849   5.551
 5680SOL    HW217940   1.448   4.895   5.695
 5681SOL     OW17941   0.498   3.698   3.245
 5681SOL    HW117942   0.503   3.793   3.274
 5681SOL    HW217943   0.572   3.678   3.181
 5682SOL     OW17944   2.857   5.828   3.245
 5682SOL    HW117945   2.926   5.883   3.197
 5682SOL    HW217946   2.897   5.790   3.328
 5683SOL     OW17947   3.892   2.645   6.848
 5683SOL    HW117948   3.944   2.668   6.931
 5683SOL    HW217949   3.942   2.676   6.767
 5684SOL     OW17950   2.342   3.935   6.143
 5684SOL    HW117951   2.422   3.901   6.093
 5684SOL    HW217952   2.346   4.034   6.150
 5685SOL     OW17953   1.944   2.451   4.066
 5685SOL    HW117954   2.000   2.421   4.144
 5685SOL    HW217955   1.939   2.551   4.065
 5686SOL     OW17956   3.398   1.096   5.865
 5686SOL    HW117957   3.484   1.148   5.869
 5686SOL    HW217958   3.374   1.078   5.770
 5687SOL     OW17959   0.144   6.064   5.240
 5687SOL    HW117960   0.149   6.153   5.286
 5687SOL    HW217961   0.181   5.993   5.300
 5688SOL     OW17962   2.344   2.809   3.536
 5688SOL    HW117963   2.389   2.757   3.609
 5688SOL    HW217964   2.306   2.893   3.574
 5689SOL     OW17965   2.180   0.757   1.835
 5689SOL    HW117966   2.238   0.820   1.889
 5689SOL    HW217967   2.180   0.786   1.739
 5690SOL     OW17968   0.773   5.286   6.582
 5690SOL    HW117969   0.749   5.195   6.549
 5690SOL    HW217970   0.691   5.332   6.614
 5691SOL     OW17971   3.197   1.135   2.237
 5691SOL    HW117972   3.263   1.153   2.164
 5691SOL    HW217973   3.186   1.037   2.250
 5692SOL     OW17974   4.787   5.251   0.612
 5692SOL    HW117975   4.699   5.243   0.566
 5692SOL    HW217976   4.772   5.262   0.711
 5693SOL     OW17977   3.935   1.219   0.926
 5693SOL    HW117978   3.877   1.146   0.961
 5693SOL    HW217979   4.029   1.207   0.959
 5694SOL     OW17980   0.295   0.160   2.444
 5694SOL    HW117981   0.233   0.150   2.521
 5694SOL    HW217982   0.384   0.193   2.476
 5695SOL     OW17983   1.230   0.630   2.076
 5695SOL    HW117984   1.213   0.597   2.169
 5695SOL    HW217985   1.271   0.721   2.080
 5696SOL     OW17986   1.621   0.728   3.976
 5696SOL    HW117987   1.579   0.758   3.890
 5696SOL    HW217988   1.551   0.722   4.047
 5697SOL     OW17989   6.562   2.191   1.747
 5697SOL    HW117990   6.615   2.226   1.824
 5697SOL    HW217991   6.465   2.215   1.759
 5698SOL     OW17992   1.862   3.712   3.449
 5698SOL    HW117993   1.849   3.811   3.454
 5698SOL    HW217994   1.866   3.684   3.353
 5699SOL     OW17995   2.490   2.133   3.420
 5699SOL    HW117996   2.561   2.202   3.405
 5699SOL    HW217997   2.504   2.056   3.358
 5700SOL     OW17998   7.000   0.283   1.950
 5700SOL    HW117999   0.026   0.369   1.945
 5700SOL    HW218000   6.903   0.303   1.962
 5701SOL     OW18001   6.826   1.284   0.937
 5701SOL    HW118002   6.915   1.321   0.965
 5701SOL    HW218003   6.837   1.188   0.912
 5702SOL     OW18004   1.850   6.451   4.348
 5702SOL    HW118005   1.774   6.395   4.317
 5702SOL    HW218006   1.815   6.523   4.408
 5703SOL     OW18007   0.032   3.917   6.360
 5703SOL    HW118008   0.101   3.955   6.299
 5703SOL    HW218009   6.972   3.901   6.308
 5704SOL     OW18010   5.374   4.238   3.442
 5704SOL    HW118011   5.338   4.180   3.369
 5704SOL    HW218012   5.299   4.266   3.502
 5705SOL     OW18013   5.739   6.050   6.397
 5705SOL    HW118014   5.681   6.120   6.440
 5705SOL    HW218015   5.752   6.073   6.300
 5706SOL     OW18016   5.560   2.733   0.837
 5706SOL    HW118017   5.545   2.645   0.790
 5706SOL    HW218018   5.550   2.720   0.935
 5707SOL     OW18019   5.265   7.008   1.197
 5707SOL    HW118020   5.325   0.038   1.257
 5707SOL    HW218021   5.171   0.017   1.206
 5708SOL     OW18022   5.305   5.809   3.511
 5708SOL    HW118023   5.267   5.716   3.519
 5708SOL    HW218024   5.230   5.873   3.492
 5709SOL     OW18025   1.189   0.920   2.091
 5709SOL    HW118026   1.109   0.941   2.147
 5709SOL    HW218027   1.263   0.983   2.115
 5710SOL     OW18028   2.963   2.578   0.897
 5710SOL    HW118029   3.015   2.651   0.853
 5710SOL    HW218030   2.962   2.497   0.837
 5711SOL     OW18031   5.432   0.638   1.983
 5711SOL    HW118032   5.414   0.583   1.902
 5711SOL    HW218033   5.362   0.710   1.991
 5712SOL     OW18034   6.600   6.014   1.048
 5712SOL    HW118035   6.502   6.011   1.064
 5712SOL    HW218036   6.644   6.071   1.117
 5713SOL     OW18037   2.578   5.561   0.291
 5713SOL    HW118038   2.642   5.573   0.215
 5713SOL    HW218039   2.609   5.615   0.369
 5714SOL     OW18040   6.911   6.416   1.842
 5714SOL    HW118041   6.988   6.468   1.805
 5714SOL    HW218042   6.932   6.387   1.935
 5715SOL     OW18043   0.504   6.326   1.363
 5715SOL    HW118044   0.565   6.265   1.414
 5715SOL    HW218045   0.533   6.421   1.377
 5716SOL     OW18046   1.066   4.715   6.558
 5716SOL    HW118047   1.084   4.666   6.473
 5716SOL    HW218048   1.045   4.811   6.537
 5717SOL     OW18049   2.188   4.996   2.593
 5717SOL    HW118050   2.166   5.034   2.682
 5717SOL    HW218051   2.171   5.064   2.522
 5718SOL     OW18052   0.715   2.690   0.422
 5718SOL    HW118053   0.738   2.595   0.443
 5718SOL    HW218054   0.651   2.725   0.490
 5719SOL     OW18055   2.699   3.170   0.906
 5719SOL    HW118056   2.750   3.252   0.879
 5719SOL    HW218057   2.743   3.128   0.985
 5720SOL     OW18058   2.178   5.928   5.398
 5720SOL    HW118059   2.195   5.980   5.482
 5720SOL    HW218060   2.119   5.981   5.337
 5721SOL     OW18061   5.386   4.346   0.853
 5721SOL    HW118062   5.326   4.306   0.923
 5721SOL    HW218063   5.451   4.277   0.822
 5722SOL     OW18064   0.549   1.113   5.112
 5722SOL    HW118065   0.567   1.093   5.208
 5722SOL    HW218066   0.467   1.169   5.104
 5723SOL     OW18067   3.919   3.191   0.038
 5723SOL    HW118068   3.952   3.110   7.014
 5723SOL    HW218069   3.840   3.228   7.014
 5724SOL     OW18070   6.472   2.922   3.278
 5724SOL    HW118071   6.482   2.824   3.298
 5724SOL    HW218072   6.558   2.958   3.243
 5725SOL     OW18073   5.355   5.060   2.872
 5725SOL    HW118074   5.360   5.007   2.957
 5725SOL    HW218075   5.384   5.154   2.890
 5726SOL     OW18076   5.282   3.745   3.506
 5726SOL    HW118077   5.191   3.729   3.469
 5726SOL    HW218078   5.274   3.795   3.592
 5727SOL     OW18079   6.935   2.671   4.630
 5727SOL    HW118080   6.968   2.667   4.536
 5727SOL    HW218081   7.002   2.628   4.691
 5728SOL     OW18082   5.081   6.148   4.972
 5728SOL    HW118083   5.089   6.106   4.881
 5728SOL    HW218084   5.122   6.240   4.970
 5729SOL     OW18085   2.389   1.991   6.031
 5729SOL    HW118086   2.349   1.917   5.977
 5729SOL    HW218087   2.375   2.078   5.984
 5730SOL     OW18088   6.958   4.208   5.868
 5730SOL    HW118089   6.900   4.129   5.888
 5730SOL    HW218090   0.021   4.176   5.831
 5731SOL     OW18091   6.952   6.777   1.300
 5731SOL    HW118092   0.004   6.737   1.250
 5731SOL    HW218093   6.917   6.710   1.366
 5732SOL     OW18094   1.189   6.237   4.354
 5732SOL    HW118095   1.117   6.243   4.285
 5732SOL    HW218096   1.203   6.327   4.396
 5733SOL     OW18097   3.913   6.768   5.095
 5733SOL    HW118098   3.988   6.764   5.029
 5733SOL    HW218099   3.950   6.791   5.185
 5734SOL     OW18100   1.573   6.195   4.528
 5734SOL    HW118101   1.662   6.151   4.542
 5734SOL    HW218102   1.573   6.243   4.441
 5735SOL     OW18103   3.103   1.610   1.511
 5735SOL    HW118104   3.175   1.621   1.579
 5735SOL    HW218105   3.144   1.598   1.421
 5736SOL     OW18106   0.981   4.920   7.016
 5736SOL    HW118107   0.924   4.905   6.934
 5736SOL    HW218108   1.076   4.903   6.993
 5737SOL     OW18109   5.210   5.782   6.188
 5737SOL    HW118110   5.288   5.735   6.227
 5737SOL    HW218111   5.205   5.875   6.225
 5738SOL     OW18112   1.898   3.420   6.664
 5738SOL    HW118113   1.964   3.492   6.645
 5738SOL    HW218114   1.837   3.448   6.738
 5739SOL     OW18115   1.659   1.450   0.719
 5739SOL    HW118116   1.612   1.420   0.802
 5739SOL    HW218117   1.655   1.376   0.651
 5740SOL     OW18118   4.154   5.824   6.547
 5740SOL    HW118119   4.191   5.738   6.583
 5740SOL    HW218120   4.219   5.898   6.566
 5741SOL     OW18121   6.565   5.404   5.010
 5741SOL    HW118122   6.662   5.409   5.034
 5741SOL    HW218123   6.547   5.319   4.961
 5742SOL     OW18124   6.483   6.560   2.586
 5742SOL    HW118125   6.463   6.490   2.518
 5742SOL    HW218126   6.404   6.572   2.647
 5743SOL     OW18127   2.437   6.927   4.937
 5743SOL    HW118128   2.536   6.911   4.935
 5743SOL    HW218129   2.395   6.865   5.002
 5744SOL     OW18130   5.545   0.902   0.061
 5744SOL    HW118131   5.618   0.936   0.001
 5744SOL    HW218132   5.463   0.957   0.048
 5745SOL     OW18133   1.669   1.956   4.473
 5745SOL    HW118134   1.670   1.856   4.480
 5745SOL    HW218135   1.635   1.983   4.383
 5746SOL     OW18136   5.047   1.904   0.072
 5746SOL    HW118137   4.984   1.972   0.107
 5746SOL    HW218138   5.084   1.850   0.148
 5747SOL     OW18139   0.486   5.298   3.271
 5747SOL    HW118140   0.527   5.250   3.193
 5747SOL    HW218141   0.387   5.293   3.265
 5748SOL     OW18142   2.410   5.058   1.862
 5748SOL    HW118143   2.346   5.134   1.871
 5748SOL    HW218144   2.422   5.037   1.765
 5749SOL     OW18145   2.146   1.871   3.219
 5749SOL    HW118146   2.152   1.860   3.120
 5749SOL    HW218147   2.068   1.929   3.242
 5750SOL     OW18148   6.370   5.147   4.077
 5750SOL    HW118149   6.415   5.169   3.990
 5750SOL    HW218150   6.339   5.052   4.076
 5751SOL     OW18151   2.196   3.261   5.526
 5751SOL    HW118152   2.287   3.280   5.490
 5751SOL    HW218153   2.178   3.162   5.520
 5752SOL     OW18154   6.585   6.385   6.189
 5752SOL    HW118155   6.572   6.416   6.095
 5752SOL    HW218156   6.666   6.327   6.194
 5753SOL     OW18157   3.338   3.131   0.122
 5753SOL    HW118158   3.354   3.032   0.120
 5753SOL    HW218159   3.250   3.151   0.080
 5754SOL     OW18160   5.496   5.374   1.747
 5754SOL    HW118161   5.584   5.341   1.781
 5754SOL    HW218162   5.454   5.304   1.689
 5755SOL     OW18163   3.679   3.772   6.675
 5755SOL    HW118164   3.608   3.805   6.613
 5755SOL    HW218165   3.689   3.673   6.665
 5756SOL     OW18166   6.682   4.935   3.811
 5756SOL    HW118167   6.595   4.909   3.852
 5756SOL    HW218168   6.747   4.960   3.882
 5757SOL     OW18169   6.438   5.338   1.067
 5757SOL    HW118170   6.501   5.303   0.997
 5757SOL    HW218171   6.354   5.370   1.024
 5758SOL     OW18172   1.838   2.286   4.668
 5758SOL    HW118173   1.868   2.338   4.748
 5758SOL    HW218174   1.818   2.349   4.593
 5759SOL     OW18175   5.310   1.483   6.240
 5759SOL    HW118176   5.222   1.522   6.267
 5759SOL    HW218177   5.379   1.506   6.309
 5760SOL     OW18178   1.583   5.215   2.200
 5760SOL    HW118179   1.657   5.148   2.209
 5760SOL    HW218180   1.609   5.299   2.248
 5761SOL     OW18181   4.659   6.445   4.933
 5761SOL    HW118182   4.589   6.432   5.003
 5761SOL    HW218183   4.718   6.363   4.929
 5762SOL     OW18184   5.644   6.620   1.280
 5762SOL    HW118185   5.734   6.580   1.300
 5762SOL    HW218186   5.622   6.688   1.349
 5763SOL     OW18187   1.488   0.586   0.951
 5763SOL    HW118188   1.547   0.533   1.011
 5763SOL    HW218189   1.492   0.683   0.975
 5764SOL     OW18190   5.647   4.155   5.318
 5764SOL    HW118191   5.636   4.139   5.416
 5764SOL    HW218192   5.742   4.179   5.299
 5765SOL     OW18193   5.991   4.359   6.954
 5765SOL    HW118194   5.991   4.275   7.009
 5765SOL    HW218195   5.956   4.435   7.009
 5766SOL     OW18196   3.111   1.816   2.117
 5766SOL    HW118197   3.095   1.797   2.214
 5766SOL    HW218198   3.090   1.912   2.098
 5767SOL     OW18199   0.425   6.563   1.153
 5767SOL    HW118200   0.459   6.489   1.095
 5767SOL    HW218201   0.465   6.555   1.245
 5768SOL     OW18202   6.522   1.369   3.141
 5768SOL    HW118203   6.556   1.462   3.130
 5768SOL    HW218204   6.475   1.341   3.057
 5769SOL     OW18205   2.501   6.025   4.359
 5769SOL    HW118206   2.477   6.110   4.313
 5769SOL    HW218207   2.426   5.960   4.350
 5770SOL     OW18208   6.553   0.118   1.643
 5770SOL    HW118209   6.492   0.099   1.566
 5770SOL    HW218210   6.594   0.209   1.631
 5771SOL     OW18211   1.418   0.748   1.451
 5771SOL    HW118212   1.414   0.649   1.469
 5771SOL    HW218213   1.514   0.775   1.438
 5772SOL     OW18214   5.824   3.397   0.818
 5772SOL    HW118215   5.766   3.317   0.833
 5772SOL    HW218216   5.810   3.462   0.893
 5773SOL     OW18217   5.362   6.111   4.029
 5773SOL    HW118218   5.316   6.158   3.954
 5773SOL    HW218219   5.430   6.172   4.070
 5774SOL     OW18220   2.156   5.752   3.633
 5774SOL    HW118221   2.217   5.805   3.575
 5774SOL    HW218222   2.175   5.772   3.729
 5775SOL     OW18223   0.309   6.561   5.928
 5775SOL    HW118224   0.261   6.611   6.000
 5775SOL    HW218225   0.408   6.570   5.941
 5776SOL     OW18226   4.754   0.298   5.857
 5776SOL    HW118227   4.694   0.221   5.836
 5776SOL    HW218228   4.778   0.346   5.773
 5777SOL     OW18229   0.300   1.124   4.654
 5777SOL    HW118230   0.375   1.059   4.668
 5777SOL    HW218231   0.236   1.087   4.587
 5778SOL     OW18232   1.319   6.845   3.445
 5778SOL    HW118233   1.293   6.873   3.537
 5778SOL    HW218234   1.418   6.835   3.440
 5779SOL     OW18235   4.012   1.218   2.061
 5779SOL    HW118236   4.024   1.146   2.130
 5779SOL    HW218237   4.058   1.301   2.092
 5780SOL     OW18238   6.911   4.183   1.457
 5780SOL    HW118239   6.855   4.125   1.397
 5780SOL    HW218240   6.914   4.143   1.549
 5781SOL     OW18241   2.123   5.028   5.291
 5781SOL    HW118242   2.028   5.007   5.266
 5781SOL    HW218243   2.184   4.992   5.220
 5782SOL     OW18244   2.427   1.150   1.883
 5782SOL    HW118245   2.373   1.190   1.808
 5782SOL    HW218246   2.521   1.185   1.878
 5783SOL     OW18247   1.423   0.206   1.035
 5783SOL    HW118248   1.472   0.130   0.992
 5783SOL    HW218249   1.482   0.287   1.037
 5784SOL     OW18250   0.702   6.067   0.165
 5784SOL    HW118251   0.608   6.098   0.159
 5784SOL    HW218252   0.714   6.011   0.248
 5785SOL     OW18253   1.976   2.028   0.123
 5785SOL    HW118254   2.039   2.004   0.050
 5785SOL    HW218255   1.992   2.122   0.153
 5786SOL     OW18256   1.724   3.707   2.004
 5786SOL    HW118257   1.663   3.709   1.926
 5786SOL    HW218258   1.811   3.750   1.980
 5787SOL     OW18259   5.803   2.409   4.745
 5787SOL    HW118260   5.891   2.457   4.752
 5787SOL    HW218261   5.817   2.321   4.699
 5788SOL     OW18262   2.992   1.201   2.011
 5788SOL    HW118263   3.018   1.245   1.925
 5788SOL    HW218264   3.005   1.266   2.086
 5789SOL     OW18265   4.674   4.355   0.029
 5789SOL    HW118266   4.760   4.364   0.081
 5789SOL    HW218267   4.610   4.299   0.080
 5790SOL     OW18268   5.523   5.530   4.313
 5790SOL    HW118269   5.610   5.515   4.359
 5790SOL    HW218270   5.535   5.518   4.214
 5791SOL     OW18271   3.964   1.092   2.690
 5791SOL    HW118272   4.025   1.093   2.611
 5791SOL    HW218273   4.018   1.096   2.774
 5792SOL     OW18274   5.066   3.696   3.036
 5792SOL    HW118275   5.032   3.617   2.986
 5792SOL    HW218276   5.130   3.747   2.978
 5793SOL     OW18277   5.044   2.313   5.534
 5793SOL    HW118278   5.027   2.383   5.464
 5793SOL    HW218279   4.995   2.337   5.618
 5794SOL     OW18280   3.677   6.850   6.435
 5794SOL    HW118281   3.602   6.793   6.471
 5794SOL    HW218282   3.712   6.810   6.351
 5795SOL     OW18283   1.370   5.608   1.449
 5795SOL    HW118284   1.435   5.575   1.517
 5795SOL    HW218285   1.308   5.534   1.424
 5796SOL     OW18286   4.283   2.673   6.906
 5796SOL    HW118287   4.372   2.716   6.916
 5796SOL    HW218288   4.237   2.709   6.824
 5797SOL     OW18289   5.246   2.398   0.660
 5797SOL    HW118290   5.224   2.479   0.606
 5797SOL    HW218291   5.210   2.408   0.753
 5798SOL     OW18292   1.815   4.060   5.504
 5798SOL    HW118293   1.848   4.124   5.434
 5798SOL    HW218294   1.771   3.982   5.460
 5799SOL     OW18295   1.710   6.595   3.188
 5799SOL    HW118296   1.749   6.513   3.230
 5799SOL    HW218297   1.780   6.640   3.133
 5800SOL     OW18298   0.604   6.369   0.781
 5800SOL    HW118299   0.685   6.311   0.776
 5800SOL    HW218300   0.561   6.360   0.871
 5801SOL     OW18301   1.759   1.965   2.484
 5801SOL    HW118302   1.844   1.914   2.503
 5801SOL    HW218303   1.759   2.050   2.537
 5802SOL     OW18304   6.990   1.310   2.263
 5802SOL    HW118305   6.937   1.388   2.296
 5802SOL    HW218306   6.949   1.276   2.178
 5803SOL     OW18307   0.797   5.076   3.659
 5803SOL    HW118308   0.789   5.075   3.560
 5803SOL    HW218309   0.879   5.128   3.685
 5804SOL     OW18310   6.427   0.702   3.540
 5804SOL    HW118311   6.378   0.774   3.589
 5804SOL    HW218312   6.504   0.742   3.490
 5805SOL     OW18313   1.962   2.482   1.133
 5805SOL    HW118314   1.922   2.491   1.224
 5805SOL    HW218315   1.910   2.537   1.068
 5806SOL     OW18316   0.476   3.419   3.022
 5806SOL    HW118317   0.510   3.357   2.951
 5806SOL    HW218318   0.547   3.485   3.046
 5807SOL     OW18319   0.872   0.282   0.883
 5807SOL    HW118320   0.849   0.228   0.802
 5807SOL    HW218321   0.851   0.229   0.965
 5808SOL     OW18322   6.100   0.190   5.046
 5808SOL    HW118323   6.062   0.219   4.958
 5808SOL    HW218324   6.188   0.146   5.031
 5809SOL     OW18325   0.494   2.296   5.767
 5809SOL    HW118326   0.463   2.389   5.784
 5809SOL    HW218327   0.445   2.233   5.828
 5810SOL     OW18328   4.094   0.140   5.009
 5810SOL    HW118329   4.024   0.186   5.063
 5810SOL    HW218330   4.181   0.187   5.020
 5811SOL     OW18331   3.125   3.691   5.852
 5811SOL    HW118332   3.175   3.776   5.868
 5811SOL    HW218333   3.081   3.661   5.938
 5812SOL     OW18334   5.831   2.772   0.449
 5812SOL    HW118335   5.733   2.778   0.432
 5812SOL    HW218336   5.852   2.810   0.539
 5813SOL     OW18337   4.931   6.637   1.456
 5813SOL    HW118338   4.947   6.616   1.552
 5813SOL    HW218339   5.014   6.619   1.404
 5814SOL     OW18340   5.318   1.740   1.764
 5814SOL    HW118341   5.309   1.714   1.668
 5814SOL    HW218342   5.229   1.731   1.810
 5815SOL     OW18343   6.487   1.794   3.853
 5815SOL    HW118344   6.546   1.756   3.924
 5815SOL    HW218345   6.400   1.744   3.850
 5816SOL     OW18346   6.912   4.339   2.901
 5816SOL    HW118347   6.967   4.410   2.857
 5816SOL    HW218348   6.971   4.279   2.955
 5817SOL     OW18349   5.854   4.204   3.532
 5817SOL    HW118350   5.839   4.179   3.627
 5817SOL    HW218351   5.907   4.133   3.487
 5818SOL     OW18352   2.107   0.526   5.600
 5818SOL    HW118353   2.024   0.567   5.562
 5818SOL    HW218354   2.111   0.544   5.698
 5819SOL     OW18355   4.182   5.206   0.221
 5819SOL    HW118356   4.245   5.148   0.170
 5819SOL    HW218357   4.211   5.301   0.214
 5820SOL     OW18358   6.123   5.167   2.670
 5820SOL    HW118359   6.061   5.233   2.626
 5820SOL    HW218360   6.089   5.145   2.761
 5821SOL     OW18361   6.335   0.621   1.256
 5821SOL    HW118362   6.415   0.601   1.199
 5821SOL    HW218363   6.356   0.595   1.351
 5822SOL     OW18364   1.568   2.824   2.505
 5822SOL    HW118365   1.637   2.895   2.490
 5822SOL    HW218366   1.510   2.816   2.423
 5823SOL     OW18367   1.814   6.521   4.061
 5823SOL    HW118368   1.814   6.608   4.011
 5823SOL    HW218369   1.858   6.535   4.150
 5824SOL     OW18370   0.838   6.774   1.957
 5824SOL    HW118371   0.905   6.785   1.884
 5824SOL    HW218372   0.746   6.781   1.918
 5825SOL     OW18373   5.794   0.249   4.362
 5825SOL    HW118374   5.806   0.344   4.335
 5825SOL    HW218375   5.713   0.211   4.318
 5826SOL     OW18376   0.638   0.009   4.857
 5826SOL    HW118377   0.688   0.078   4.909
 5826SOL    HW218378   0.661   0.017   4.760
 5827SOL     OW18379   2.211   4.687   4.956
 5827SOL    HW118380   2.124   4.712   4.914
 5827SOL    HW218381   2.200   4.603   5.009
 5828SOL     OW18382   4.410   6.591   4.234
 5828SOL    HW118383   4.510   6.596   4.244
 5828SOL    HW218384   4.370   6.557   4.319
 5829SOL     OW18385   2.870   0.951   3.743
 5829SOL    HW118386   2.884   0.893   3.663
 5829SOL    HW218387   2.893   1.045   3.720
 5830SOL     OW18388   3.620   5.587   4.775
 5830SOL    HW118389   3.550   5.516   4.782
 5830SOL    HW218390   3.594   5.654   4.706
 5831SOL     OW18391   1.585   1.967   5.114
 5831SOL    HW118392   1.611   1.871   5.098
 5831SOL    HW218393   1.506   1.970   5.175
 5832SOL     OW18394   2.771   5.128   0.799
 5832SOL    HW118395   2.788   5.029   0.802
 5832SOL    HW218396   2.742   5.153   0.706
 5833SOL     OW18397   4.168   3.884   6.674
 5833SOL    HW118398   4.233   3.811   6.650
 5833SOL    HW218399   4.206   3.940   6.748
 5834SOL     OW18400   5.440   3.590   6.693
 5834SOL    HW118401   5.400   3.530   6.762
 5834SOL    HW218402   5.501   3.537   6.634
 5835SOL     OW18403   5.582   0.989   2.173
 5835SOL    HW118404   5.623   0.947   2.254
 5835SOL    HW218405   5.596   1.088   2.175
 5836SOL     OW18406   4.295   0.048   2.629
 5836SOL    HW118407   4.285   6.974   2.613
 5836SOL    HW218408   4.289   0.097   2.541
 5837SOL     OW18409   3.144   4.478   6.921
 5837SOL    HW118410   3.114   4.382   6.918
 5837SOL    HW218411   3.241   4.484   6.898
 5838SOL     OW18412   3.284   2.111   0.181
 5838SOL    HW118413   3.318   2.197   0.141
 5838SOL    HW218414   3.351   2.039   0.164
 5839SOL     OW18415   1.630   2.100   0.786
 5839SOL    HW118416   1.684   2.157   0.847
 5839SOL    HW218417   1.686   2.023   0.754
 5840SOL     OW18418   1.195   3.235   3.058
 5840SOL    HW118419   1.191   3.226   3.157
 5840SOL    HW218420   1.283   3.200   3.025
 5841SOL     OW18421   4.977   2.473   0.685
 5841SOL    HW118422   4.914   2.440   0.756
 5841SOL    HW218423   4.967   2.416   0.603
 5842SOL     OW18424   3.098   1.425   0.719
 5842SOL    HW118425   3.131   1.517   0.698
 5842SOL    HW218426   3.010   1.410   0.675
 5843SOL     OW18427   1.919   3.447   1.329
 5843SOL    HW118428   1.945   3.379   1.260
 5843SOL    HW218429   1.954   3.419   1.418
 5844SOL     OW18430   0.740   0.462   4.659
 5844SOL    HW118431   0.672   0.432   4.725
 5844SOL    HW218432   0.727   0.559   4.638
 5845SOL     OW18433   1.247   6.394   1.644
 5845SOL    HW118434   1.219   6.330   1.716
 5845SOL    HW218435   1.271   6.343   1.561
 5846SOL     OW18436   6.425   4.287   5.909
 5846SOL    HW118437   6.495   4.308   5.840
 5846SOL    HW218438   6.390   4.372   5.948
 5847SOL     OW18439   2.538   3.369   0.631
 5847SOL    HW118440   2.503   3.279   0.606
 5847SOL    HW218441   2.461   3.431   0.647
 5848SOL     OW18442   2.391   4.957   2.802
 5848SOL    HW118443   2.409   4.866   2.763
 5848SOL    HW218444   2.300   4.957   2.844
 5849SOL     OW18445   2.858   6.049   5.398
 5849SOL    HW118446   2.862   6.135   5.448
 5849SOL    HW218447   2.804   6.061   5.314
 5850SOL     OW18448   0.701   1.863   2.108
 5850SOL    HW118449   0.693   1.770   2.142
 5850SOL    HW218450   0.627   1.882   2.043
 5851SOL     OW18451   6.268   3.640   4.609
 5851SOL    HW118452   6.206   3.562   4.597
 5851SOL    HW218453   6.359   3.606   4.634
 5852SOL     OW18454   5.055   4.816   2.971
 5852SOL    HW118455   5.010   4.772   2.893
 5852SOL    HW218456   5.122   4.754   3.011
 5853SOL     OW18457   3.522   4.395   5.377
 5853SOL    HW118458   3.534   4.491   5.351
 5853SOL    HW218459   3.600   4.341   5.346
 5854SOL     OW18460   3.093   5.230   5.847
 5854SOL    HW118461   3.016   5.169   5.827
 5854SOL    HW218462   3.075   5.319   5.806
 5855SOL     OW18463   2.245   2.959   3.939
 5855SOL    HW118464   2.222   2.874   3.892
 5855SOL    HW218465   2.214   2.955   4.034
 5856SOL     OW18466   1.403   6.314   3.662
 5856SOL    HW118467   1.311   6.302   3.623
 5856SOL    HW218468   1.460   6.363   3.597
 5857SOL     OW18469   6.763   4.174   6.447
 5857SOL    HW118470   6.851   4.171   6.494
 5857SOL    HW218471   6.778   4.194   6.350
 5858SOL     OW18472   2.154   0.715   3.593
 5858SOL    HW118473   2.106   0.793   3.632
 5858SOL    HW218474   2.208   0.670   3.663
 5859SOL     OW18475   5.907   0.091   2.443
 5859SOL    HW118476   5.856   0.176   2.434
 5859SOL    HW218477   5.986   0.106   2.504
 5860SOL     OW18478   0.112   2.699   3.719
 5860SOL    HW118479   0.207   2.670   3.703
 5860SOL    HW218480   0.051   2.645   3.661
 5861SOL     OW18481   4.726   0.991   5.193
 5861SOL    HW118482   4.714   0.953   5.102
 5861SOL    HW218483   4.822   0.981   5.221
 5862SOL     OW18484   6.747   5.077   3.551
 5862SOL    HW118485   6.658   5.079   3.505
 5862SOL    HW218486   6.745   5.008   3.624
 5863SOL     OW18487   3.890   0.026   5.276
 5863SOL    HW118488   3.845   6.990   5.341
 5863SOL    HW218489   3.989   0.014   5.281
 5864SOL     OW18490   2.921   3.794   2.441
 5864SOL    HW118491   2.970   3.778   2.355
 5864SOL    HW218492   2.892   3.890   2.444
 5865SOL     OW18493   6.107   0.957   5.767
 5865SOL    HW118494   6.120   1.051   5.796
 5865SOL    HW218495   6.188   0.903   5.790
 5866SOL     OW18496   3.369   3.204   2.631
 5866SOL    HW118497   3.413   3.118   2.603
 5866SOL    HW218498   3.288   3.183   2.686
 5867SOL     OW18499   3.397   1.922   1.751
 5867SOL    HW118500   3.312   1.897   1.798
 5867SOL    HW218501   3.463   1.848   1.759
 5868SOL     OW18502   1.374   1.122   6.645
 5868SOL    HW118503   1.293   1.064   6.654
 5868SOL    HW218504   1.449   1.069   6.606
 5869SOL     OW18505   1.461   5.421   4.519
 5869SOL    HW118506   1.361   5.429   4.518
 5869SOL    HW218507   1.496   5.430   4.426
 5870SOL     OW18508   4.481   4.491   4.384
 5870SOL    HW118509   4.498   4.490   4.483
 5870SOL    HW218510   4.540   4.422   4.340
 5871SOL     OW18511   3.390   3.423   3.444
 5871SOL    HW118512   3.318   3.487   3.418
 5871SOL    HW218513   3.444   3.398   3.364
 5872SOL     OW18514   3.903   6.011   1.898
 5872SOL    HW118515   3.805   5.997   1.905
 5872SOL    HW218516   3.951   5.939   1.948
 5873SOL     OW18517   4.050   4.835   2.061
 5873SOL    HW118518   3.963   4.835   2.110
 5873SOL    HW218519   4.096   4.747   2.073
 5874SOL     OW18520   3.076   4.886   5.800
 5874SOL    HW118521   3.004   4.937   5.753
 5874SOL    HW218522   3.040   4.843   5.882
 5875SOL     OW18523   2.919   1.088   0.553
 5875SOL    HW118524   2.976   1.098   0.635
 5875SOL    HW218525   2.823   1.081   0.580
 5876SOL     OW18526   3.500   3.540   1.805
 5876SOL    HW118527   3.569   3.553   1.875
 5876SOL    HW218528   3.442   3.621   1.799
 5877SOL     OW18529   5.684   4.328   0.778
 5877SOL    HW118530   5.698   4.321   0.680
 5877SOL    HW218531   5.648   4.241   0.813
 5878SOL     OW18532   2.569   5.152   2.297
 5878SOL    HW118533   2.545   5.085   2.368
 5878SOL    HW218534   2.577   5.243   2.338
 5879SOL     OW18535   6.978   4.068   6.587
 5879SOL    HW118536   6.996   4.005   6.511
 5879SOL    HW218537   0.035   4.124   6.604
 5880SOL     OW18538   2.322   5.920   1.202
 5880SOL    HW118539   2.325   5.904   1.103
 5880SOL    HW218540   2.289   6.013   1.219
 5881SOL     OW18541   0.495   5.378   4.034
 5881SOL    HW118542   0.557   5.414   4.104
 5881SOL    HW218543   0.416   5.335   4.079
 5882SOL     OW18544   4.607   0.319   1.350
 5882SOL    HW118545   4.697   0.310   1.394
 5882SOL    HW218546   4.541   0.262   1.398
 5883SOL     OW18547   6.890   3.102   6.662
 5883SOL    HW118548   6.950   3.023   6.651
 5883SOL    HW218549   6.811   3.094   6.602
 5884SOL     OW18550   0.833   1.162   2.891
 5884SOL    HW118551   0.737   1.133   2.893
 5884SOL    HW218552   0.838   1.261   2.881
 5885SOL     OW18553   6.679   6.172   1.287
 5885SOL    HW118554   6.605   6.202   1.347
 5885SOL    HW218555   6.761   6.156   1.341
 5886SOL     OW18556   0.828   1.887   5.576
 5886SOL    HW118557   0.889   1.945   5.631
 5886SOL    HW218558   0.863   1.882   5.483
 5887SOL     OW18559   3.289   0.882   4.188
 5887SOL    HW118560   3.196   0.890   4.154
 5887SOL    HW218561   3.352   0.929   4.126
 5888SOL     OW18562   2.028   6.583   3.665
 5888SOL    HW118563   1.991   6.641   3.738
 5888SOL    HW218564   1.955   6.527   3.626
 5889SOL     OW18565   2.359   0.410   1.117
 5889SOL    HW118566   2.340   0.456   1.204
 5889SOL    HW218567   2.457   0.418   1.097
 5890SOL     OW18568   2.500   5.386   5.634
 5890SOL    HW118569   2.476   5.346   5.545
 5890SOL    HW218570   2.479   5.484   5.633
 5891SOL     OW18571   3.756   2.979   0.376
 5891SOL    HW118572   3.660   3.006   0.383
 5891SOL    HW218573   3.810   3.058   0.346
 5892SOL     OW18574   0.407   6.038   1.358
 5892SOL    HW118575   0.390   6.033   1.259
 5892SOL    HW218576   0.342   6.103   1.399
 5893SOL     OW18577   1.030   1.632   4.305
 5893SOL    HW118578   1.120   1.672   4.287
 5893SOL    HW218579   0.991   1.598   4.219
 5894SOL     OW18580   1.220   3.446   2.888
 5894SOL    HW118581   1.208   3.370   2.952
 5894SOL    HW218582   1.306   3.435   2.838
 5895SOL     OW18583   5.719   3.705   3.991
 5895SOL    HW118584   5.779   3.684   3.914
 5895SOL    HW218585   5.770   3.759   4.059
 5896SOL     OW18586   3.741   2.003   0.269
 5896SOL    HW118587   3.741   1.991   0.368
 5896SOL    HW218588   3.691   2.086   0.245
 5897SOL     OW18589   3.562   0.058   1.000
 5897SOL    HW118590   3.605   0.138   1.043
 5897SOL    HW218591   3.549   7.011   1.069
 5898SOL     OW18592   1.653   0.165   2.702
 5898SOL    HW118593   1.702   0.234   2.755
 5898SOL    HW218594   1.706   0.080   2.703
 5899SOL     OW18595   5.983   6.713   4.802
 5899SOL    HW118596   6.007   6.733   4.707
 5899SOL    HW218597   5.907   6.648   4.805
 5900SOL     OW18598   4.813   4.720   3.109
 5900SOL    HW118599   4.906   4.745   3.081
 5900SOL    HW218600   4.767   4.673   3.034
 5901SOL     OW18601   2.513   6.879   6.516
 5901SOL    HW118602   2.584   6.809   6.514
 5901SOL    HW218603   2.427   6.841   6.482
 5902SOL     OW18604   6.694   2.403   0.230
 5902SOL    HW118605   6.620   2.470   0.239
 5902SOL    HW218606   6.782   2.448   0.241
 5903SOL     OW18607   5.789   3.495   6.898
 5903SOL    HW118608   5.758   3.579   6.854
 5903SOL    HW218609   5.735   3.480   6.981
 5904SOL     OW18610   0.347   3.708   2.500
 5904SOL    HW118611   0.395   3.656   2.571
 5904SOL    HW218612   0.251   3.681   2.498
 5905SOL     OW18613   6.840   6.544   2.470
 5905SOL    HW118614   6.851   6.612   2.543
 5905SOL    HW218615   6.795   6.463   2.507
 5906SOL     OW18616   5.405   1.351   3.835
 5906SOL    HW118617   5.498   1.353   3.796
 5906SOL    HW218618   5.380   1.257   3.857
 5907SOL     OW18619   0.559   6.094   1.875
 5907SOL    HW118620   0.567   6.176   1.931
 5907SOL    HW218621   0.487   6.108   1.806
 5908SOL     OW18622   0.443   2.953   5.078
 5908SOL    HW118623   0.382   2.875   5.066
 5908SOL    HW218624   0.434   3.015   5.000
 5909SOL     OW18625   0.485   5.965   0.492
 5909SOL    HW118626   0.407   5.996   0.438
 5909SOL    HW218627   0.568   5.966   0.435
 5910SOL     OW18628   1.741   2.334   3.460
 5910SOL    HW118629   1.658   2.302   3.414
 5910SOL    HW218630   1.748   2.293   3.551
 5911SOL     OW18631   6.818   5.555   6.535
 5911SOL    HW118632   6.841   5.477   6.594
 5911SOL    HW218633   6.741   5.605   6.574
 5912SOL     OW18634   6.323   1.610   4.836
 5912SOL    HW118635   6.402   1.656   4.877
 5912SOL    HW218636   6.354   1.539   4.773
 5913SOL     OW18637   5.650   2.474   0.342
 5913SOL    HW118638   5.567   2.434   0.305
 5913SOL    HW218639   5.695   2.530   0.272
 5914SOL     OW18640   0.851   6.349   6.224
 5914SOL    HW118641   0.848   6.254   6.256
 5914SOL    HW218642   0.906   6.354   6.141
 5915SOL     OW18643   3.886   0.372   6.611
 5915SOL    HW118644   3.904   0.324   6.525
 5915SOL    HW218645   3.868   0.468   6.593
 5916SOL     OW18646   1.610   6.639   2.640
 5916SOL    HW118647   1.589   6.543   2.623
 5916SOL    HW218648   1.611   6.689   2.553
 5917SOL     OW18649   3.084   4.206   6.894
 5917SOL    HW118650   3.064   4.139   6.966
 5917SOL    HW218651   3.114   4.158   6.812
 5918SOL     OW18652   3.265   6.793   6.128
 5918SOL    HW118653   3.363   6.807   6.115
 5918SOL    HW218654   3.231   6.725   6.063
 5919SOL     OW18655   3.616   2.867   3.030
 5919SOL    HW118656   3.616   2.891   2.933
 5919SOL    HW218657   3.608   2.768   3.039
 5920SOL     OW18658   6.845   0.106   6.022
 5920SOL    HW118659   6.835   0.007   6.035
 5920SOL    HW218660   6.849   0.126   5.924
 5921SOL     OW18661   3.509   4.341   6.482
 5921SOL    HW118662   3.481   4.247   6.500
 5921SOL    HW218663   3.527   4.352   6.384
 5922SOL     OW18664   6.018   3.789   2.902
 5922SOL    HW118665   5.952   3.776   2.828
 5922SOL    HW218666   6.071   3.706   2.914
 5923SOL     OW18667   6.655   1.066   1.280
 5923SOL    HW118668   6.567   1.103   1.312
 5923SOL    HW218669   6.639   1.000   1.206
 5924SOL     OW18670   6.046   0.081   2.677
 5924SOL    HW118671   5.957   0.104   2.716
 5924SOL    HW218672   6.114   0.149   2.705
 5925SOL     OW18673   4.826   5.765   0.925
 5925SOL    HW118674   4.915   5.809   0.912
 5925SOL    HW218675   4.832   5.699   1.000
 5926SOL     OW18676   4.227   4.747   2.562
 5926SOL    HW118677   4.246   4.831   2.614
 5926SOL    HW218678   4.130   4.745   2.538
 5927SOL     OW18679   1.212   3.913   1.799
 5927SOL    HW118680   1.250   3.996   1.757
 5927SOL    HW218681   1.261   3.833   1.764
 5928SOL     OW18682   3.673   0.489   0.936
 5928SOL    HW118683   3.574   0.499   0.931
 5928SOL    HW218684   3.702   0.416   0.873
 5929SOL     OW18685   6.851   1.073   5.445
 5929SOL    HW118686   6.813   1.032   5.527
 5929SOL    HW218687   6.864   1.172   5.460
 5930SOL     OW18688   1.678   3.766   2.270
 5930SOL    HW118689   1.662   3.767   2.171
 5930SOL    HW218690   1.750   3.831   2.293
 5931SOL     OW18691   5.776   5.612   2.870
 5931SOL    HW118692   5.714   5.541   2.837
 5931SOL    HW218693   5.729   5.668   2.938
 5932SOL     OW18694   2.985   0.593   6.142
 5932SOL    HW118695   3.031   0.651   6.074
 5932SOL    HW218696   3.047   0.576   6.218
 5933SOL     OW18697   6.605   5.286   4.368
 5933SOL    HW118698   6.521   5.237   4.347
 5933SOL    HW218699   6.585   5.361   4.431
 5934SOL     OW18700   3.271   3.763   5.605
 5934SOL    HW118701   3.316   3.698   5.665
 5934SOL    HW218702   3.245   3.844   5.657
 5935SOL     OW18703   0.444   6.285   4.910
 5935SOL    HW118704   0.470   6.372   4.870
 5935SOL    HW218705   0.475   6.210   4.851
 5936SOL     OW18706   3.382   3.182   2.988
 5936SOL    HW118707   3.307   3.128   2.951
 5936SOL    HW218708   3.408   3.146   3.077
 5937SOL     OW18709   6.928   3.130   1.900
 5937SOL    HW118710   6.890   3.125   1.992
 5937SOL    HW218711   6.970   3.220   1.886
 5938SOL     OW18712   6.539   4.861   4.984
 5938SOL    HW118713   6.484   4.916   5.048
 5938SOL    HW218714   6.605   4.807   5.035
 5939SOL     OW18715   3.758   0.231   4.594
 5939SOL    HW118716   3.686   0.227   4.662
 5939SOL    HW218717   3.846   0.213   4.637
 5940SOL     OW18718   4.854   5.840   2.439
 5940SOL    HW118719   4.853   5.912   2.370
 5940SOL    HW218720   4.938   5.787   2.431
 5941SOL     OW18721   6.700   1.871   1.810
 5941SOL    HW118722   6.613   1.821   1.812
 5941SOL    HW218723   6.701   1.934   1.732
 5942SOL     OW18724   6.386   3.415   6.274
 5942SOL    HW118725   6.436   3.470   6.207
 5942SOL    HW218726   6.450   3.380   6.343
 5943SOL     OW18727   3.875   3.597   0.628
 5943SOL    HW118728   3.932   3.594   0.709
 5943SOL    HW218729   3.780   3.579   0.653
 5944SOL     OW18730   0.825   3.589   6.583
 5944SOL    HW118731   0.899   3.524   6.599
 5944SOL    HW218732   0.737   3.543   6.594
 5945SOL     OW18733   0.479   5.809   5.606
 5945SOL    HW118734   0.467   5.723   5.557
 5945SOL    HW218735   0.568   5.848   5.584
 5946SOL     OW18736   4.072   4.900   0.121
 5946SOL    HW118737   4.115   4.963   0.057
 5946SOL    HW218738   4.011   4.950   0.182
 5947SOL     OW18739   3.163   2.962   4.624
 5947SOL    HW118740   3.171   3.045   4.679
 5947SOL    HW218741   3.221   2.890   4.664
 5948SOL     OW18742   4.966   3.776   2.136
 5948SOL    HW118743   4.937   3.772   2.232
 5948SOL    HW218744   4.922   3.703   2.085
 5949SOL     OW18745   6.488   5.748   1.509
 5949SOL    HW118746   6.407   5.720   1.457
 5949SOL    HW218747   6.507   5.680   1.580
 5950SOL     OW18748   5.198   2.609   5.838
 5950SOL    HW118749   5.132   2.638   5.907
 5950SOL    HW218750   5.181   2.659   5.753
 5951SOL     OW18751   1.188   4.306   5.805
 5951SOL    HW118752   1.200   4.353   5.717
 5951SOL    HW218753   1.096   4.324   5.839
 5952SOL     OW18754   4.248   5.126   1.762
 5952SOL    HW118755   4.233   5.091   1.855
 5952SOL    HW218756   4.212   5.219   1.755
 5953SOL     OW18757   5.760   2.361   5.573
 5953SOL    HW118758   5.745   2.340   5.670
 5953SOL    HW218759   5.817   2.289   5.533
 5954SOL     OW18760   0.511   6.157   4.355
 5954SOL    HW118761   0.422   6.157   4.310
 5954SOL    HW218762   0.522   6.073   4.408
 5955SOL     OW18763   5.695   4.185   1.285
 5955SOL    HW118764   5.721   4.258   1.221
 5955SOL    HW218765   5.597   4.190   1.304
 5956SOL     OW18766   4.979   2.793   4.765
 5956SOL    HW118767   4.951   2.735   4.689
 5956SOL    HW218768   4.985   2.737   4.848
 5957SOL     OW18769   1.161   1.112   2.636
 5957SOL    HW118770   1.108   1.029   2.650
 5957SOL    HW218771   1.228   1.121   2.711
 5958SOL     OW18772   4.300   6.792   2.659
 5958SOL    HW118773   4.261   6.803   2.751
 5958SOL    HW218774   4.399   6.787   2.666
 5959SOL     OW18775   4.890   2.218   5.037
 5959SOL    HW118776   4.922   2.301   4.991
 5959SOL    HW218777   4.863   2.240   5.131
 5960SOL     OW18778   3.400   6.756   6.540
 5960SOL    HW118779   3.391   6.671   6.489
 5960SOL    HW218780   3.352   6.829   6.491
 5961SOL     OW18781   3.270   1.656   2.881
 5961SOL    HW118782   3.296   1.752   2.891
 5961SOL    HW218783   3.218   1.644   2.797
 5962SOL     OW18784   5.413   6.248   0.120
 5962SOL    HW118785   5.364   6.172   0.080
 5962SOL    HW218786   5.408   6.243   0.220
 5963SOL     OW18787   3.679   5.008   0.032
 5963SOL    HW118788   3.715   5.098   0.057
 5963SOL    HW218789   3.754   4.951   7.023
 5964SOL     OW18790   2.022   6.321   2.609
 5964SOL    HW118791   1.997   6.414   2.636
 5964SOL    HW218792   2.069   6.276   2.685
 5965SOL     OW18793   1.878   6.774   7.013
 5965SOL    HW118794   1.829   6.808   6.932
 5965SOL    HW218795   1.967   6.820   7.019
 5966SOL     OW18796   2.515   0.706   5.375
 5966SOL    HW118797   2.471   0.618   5.392
 5966SOL    HW218798   2.521   0.722   5.277
 5967SOL     OW18799   2.312   1.814   4.535
 5967SOL    HW118800   2.347   1.879   4.602
 5967SOL    HW218801   2.385   1.750   4.509
 5968SOL     OW18802   5.660   2.242   0.488
 5968SOL    HW118803   5.695   2.283   0.573
 5968SOL    HW218804   5.683   2.301   0.411
 5969SOL     OW18805   5.165   0.746   6.473
 5969SOL    HW118806   5.259   0.746   6.438
 5969SOL    HW218807   5.158   0.811   6.549
 5970SOL     OW18808   0.778   2.867   0.727
 5970SOL    HW118809   0.834   2.800   0.776
 5970SOL    HW218810   0.696   2.822   0.691
 5971SOL     OW18811   6.585   6.866   3.629
 5971SOL    HW118812   6.640   6.820   3.560
 5971SOL    HW218813   6.521   6.801   3.671
 5972SOL     OW18814   5.206   5.024   0.655
 5972SOL    HW118815   5.273   4.957   0.686
 5972SOL    HW218816   5.116   5.004   0.694
 5973SOL     OW18817   1.718   3.206   2.910
 5973SOL    HW118818   1.781   3.144   2.863
 5973SOL    HW218819   1.763   3.294   2.923
 5974SOL     OW18820   4.068   0.939   6.832
 5974SOL    HW118821   4.149   0.918   6.886
 5974SOL    HW218822   4.071   0.888   6.746
 5975SOL     OW18823   5.563   4.463   0.279
 5975SOL    HW118824   5.471   4.431   0.302
 5975SOL    HW218825   5.603   4.509   0.358
 5976SOL     OW18826   3.649   3.621   5.923
 5976SOL    HW118827   3.738   3.605   5.880
 5976SOL    HW218828   3.636   3.557   5.998
 5977SOL     OW18829   0.293   5.258   0.461
 5977SOL    HW118830   0.272   5.353   0.486
 5977SOL    HW218831   0.208   5.210   0.439
 5978SOL     OW18832   3.621   5.521   6.706
 5978SOL    HW118833   3.711   5.557   6.728
 5978SOL    HW218834   3.574   5.585   6.645
 5979SOL     OW18835   6.504   0.194   1.911
 5979SOL    HW118836   6.521   0.151   1.823
 5979SOL    HW218837   6.414   0.239   1.909
 5980SOL     OW18838   3.389   2.950   1.445
 5980SOL    HW118839   3.437   2.913   1.366
 5980SOL    HW218840   3.364   2.876   1.508
 5981SOL     OW18841   4.703   2.398   0.443
 5981SOL    HW118842   4.792   2.372   0.408
 5981SOL    HW218843   4.632   2.344   0.397
 5982SOL     OW18844   5.848   1.709   2.376
 5982SOL    HW118845   5.941   1.672   2.390
 5982SOL    HW218846   5.833   1.784   2.439
 5983SOL     OW18847   6.968   0.694   4.886
 5983SOL    HW118848   0.034   0.715   4.923
 5983SOL    HW218849   6.967   0.712   4.788
 5984SOL     OW18850   6.301   6.534   3.413
 5984SOL    HW118851   6.225   6.505   3.471
 5984SOL    HW218852   6.293   6.633   3.395
 5985SOL     OW18853   6.205   2.315   3.092
 5985SOL    HW118854   6.182   2.388   3.028
 5985SOL    HW218855   6.280   2.260   3.055
 5986SOL     OW18856   4.327   3.835   5.283
 5986SOL    HW118857   4.289   3.874   5.367
 5986SOL    HW218858   4.254   3.821   5.217
 5987SOL     OW18859   6.517   0.821   4.882
 5987SOL    HW118860   6.596   0.853   4.830
 5987SOL    HW218861   6.543   0.807   4.978
 5988SOL     OW18862   2.999   1.800   0.002
 5988SOL    HW118863   3.085   1.821   6.980
 5988SOL    HW218864   3.006   1.827   0.098
 5989SOL     OW18865   0.723   5.840   6.810
 5989SOL    HW118866   0.756   5.857   6.903
 5989SOL    HW218867   0.794   5.792   6.757
 5990SOL     OW18868   3.702   4.505   1.604
 5990SOL    HW118869   3.689   4.550   1.515
 5990SOL    HW218870   3.663   4.561   1.676
 5991SOL     OW18871   5.654   6.030   0.767
 5991SOL    HW118872   5.753   6.045   0.764
 5991SOL    HW218873   5.628   6.003   0.859
 5992SOL     OW18874   3.238   6.810   2.069
 5992SOL    HW118875   3.256   6.718   2.104
 5992SOL    HW218876   3.143   6.834   2.085
 5993SOL     OW18877   6.115   2.644   0.627
 5993SOL    HW118878   6.182   2.717   0.616
 5993SOL    HW218879   6.111   2.590   0.543
 5994SOL     OW18880   0.117   2.907   1.034
 5994SOL    HW118881   0.078   2.815   1.037
 5994SOL    HW218882   0.138   2.932   0.939
 5995SOL     OW18883   4.877   3.768   1.765
 5995SOL    HW118884   4.893   3.740   1.670
 5995SOL    HW218885   4.837   3.859   1.767
 5996SOL     OW18886   2.736   5.926   1.278
 5996SOL    HW118887   2.766   6.022   1.278
 5996SOL    HW218888   2.809   5.869   1.314
 5997SOL     OW18889   6.476   6.904   3.207
 5997SOL    HW118890   6.443   6.818   3.168
 5997SOL    HW218891   6.575   6.908   3.202
 5998SOL     OW18892   6.412   0.473   1.775
 5998SOL    HW118893   6.359   0.491   1.858
 5998SOL    HW218894   6.508   0.458   1.798
 5999SOL     OW18895   3.462   4.152   1.020
 5999SOL    HW118896   3.551   4.132   1.060
 5999SOL    HW218897   3.409   4.067   1.013
 6000SOL     OW18898   0.064   5.526   0.505
 6000SOL    HW118899   0.140   5.547   0.443
 6000SOL    HW218900   7.016   5.594   0.492
 6001SOL     OW18901   5.157   6.455   5.231
 6001SOL    HW118902   5.189   6.428   5.140
 6001SOL    HW218903   5.061   6.431   5.242
 6002SOL     OW18904   6.659   6.702   4.839
 6002SOL    HW118905   6.684   6.627   4.777
 6002SOL    HW218906   6.654   6.787   4.787
 6003SOL     OW18907   6.284   2.945   4.623
 6003SOL    HW118908   6.202   2.891   4.607
 6003SOL    HW218909   6.347   2.935   4.546
 6004SOL     OW18910   4.865   2.323   3.716
 6004SOL    HW118911   4.928   2.346   3.790
 6004SOL    HW218912   4.900   2.244   3.666
 6005SOL     OW18913   4.408   4.195   5.476
 6005SOL    HW118914   4.316   4.227   5.455
 6005SOL    HW218915   4.402   4.115   5.537
 6006SOL     OW18916   3.550   6.625   5.856
 6006SOL    HW118917   3.509   6.559   5.919
 6006SOL    HW218918   3.527   6.718   5.886
 6007SOL     OW18919   0.814   4.444   5.683
 6007SOL    HW118920   0.715   4.448   5.681
 6007SOL    HW218921   0.850   4.465   5.592
 6008SOL     OW18922   2.100   4.761   5.580
 6008SOL    HW118923   2.168   4.835   5.579
 6008SOL    HW218924   2.011   4.797   5.552
 6009SOL     OW18925   4.396   5.397   2.740
 6009SOL    HW118926   4.375   5.337   2.817
 6009SOL    HW218927   4.313   5.440   2.707
 6010SOL     OW18928   0.129   4.053   4.641
 6010SOL    HW118929   0.091   4.105   4.716
 6010SOL    HW218930   0.148   4.114   4.564
 6011SOL     OW18931   5.559   1.346   2.683
 6011SOL    HW118932   5.512   1.298   2.608
 6011SOL    HW218933   5.656   1.356   2.661
 6012SOL     OW18934   6.426   0.563   6.309
 6012SOL    HW118935   6.384   0.610   6.387
 6012SOL    HW218936   6.523   0.548   6.327
 6013SOL     OW18937   5.427   1.177   2.471
 6013SOL    HW118938   5.472   1.089   2.484
 6013SOL    HW218939   5.328   1.164   2.462
 6014SOL     OW18940   3.603   3.202   4.387
 6014SOL    HW118941   3.597   3.103   4.402
 6014SOL    HW218942   3.511   3.238   4.371
 6015SOL     OW18943   6.305   2.261   4.564
 6015SOL    HW118944   6.304   2.295   4.658
 6015SOL    HW218945   6.352   2.173   4.562
 6016SOL     OW18946   4.998   1.875   4.785
 6016SOL    HW118947   4.995   1.776   4.800
 6016SOL    HW218948   5.024   1.894   4.691
 6017SOL     OW18949   6.860   3.404   5.165
 6017SOL    HW118950   6.950   3.444   5.179
 6017SOL    HW218951   6.833   3.416   5.069
 6018SOL     OW18952   3.324   1.187   5.107
 6018SOL    HW118953   3.248   1.188   5.172
 6018SOL    HW218954   3.410   1.194   5.157
 6019SOL     OW18955   0.714   3.891   6.424
 6019SOL    HW118956   0.787   3.867   6.359
 6019SOL    HW218957   0.741   3.973   6.475
 6020SOL     OW18958   0.927   5.202   7.018
 6020SOL    HW118959   1.023   5.229   7.010
 6020SOL    HW218960   0.921   5.105   0.015
 6021SOL     OW18961   3.949   0.441   2.641
 6021SOL    HW118962   3.934   0.435   2.542
 6021SOL    HW218963   3.955   0.537   2.668
 6022SOL     OW18964   6.401   1.218   2.952
 6022SOL    HW118965   6.420   1.141   2.890
 6022SOL    HW218966   6.345   1.286   2.905
 6023SOL     OW18967   4.538   0.952   1.024
 6023SOL    HW118968   4.529   0.896   1.106
 6023SOL    HW218969   4.511   0.898   0.944
 6024SOL     OW18970   0.275   4.595   0.800
 6024SOL    HW118971   0.289   4.686   0.761
 6024SOL    HW218972   0.195   4.553   0.758
 6025SOL     OW18973   2.648   1.448   4.156
 6025SOL    HW118974   2.665   1.357   4.193
 6025SOL    HW218975   2.560   1.482   4.190
 6026SOL     OW18976   6.318   4.071   4.129
 6026SOL    HW118977   6.389   4.142   4.129
 6026SOL    HW218978   6.255   4.087   4.206
 6027SOL     OW18979   6.007   3.557   5.942
 6027SOL    HW118980   6.021   3.630   6.010
 6027SOL    HW218981   5.934   3.584   5.879
 6028SOL     OW18982   5.419   5.260   7.014
 6028SOL    HW118983   5.348   5.210   6.963
 6028SOL    HW218984   5.403   5.249   0.087
 6029SOL     OW18985   2.793   0.734   2.987
 6029SOL    HW118986   2.725   0.804   2.965
 6029SOL    HW218987   2.835   0.701   2.903
 6030SOL     OW18988   4.938   3.738   4.778
 6030SOL    HW118989   4.884   3.813   4.739
 6030SOL    HW218990   4.891   3.699   4.856
 6031SOL     OW18991   0.699   5.998   4.058
 6031SOL    HW118992   0.609   6.007   4.014
 6031SOL    HW218993   0.736   5.907   4.040
 6032SOL     OW18994   3.329   6.638   3.740
 6032SOL    HW118995   3.378   6.560   3.702
 6032SOL    HW218996   3.249   6.658   3.683
 6033SOL     OW18997   1.844   2.721   2.592
 6033SOL    HW118998   1.894   2.763   2.517
 6033SOL    HW218999   1.807   2.793   2.652
 6034SOL     OW19000   1.369   0.550   6.948
 6034SOL    HW119001   1.341   0.478   7.012
 6034SOL    HW219002   1.460   0.529   6.911
 6035SOL     OW19003   1.148   0.807   2.903
 6035SOL    HW119004   1.070   0.859   2.868
 6035SOL    HW219005   1.117   0.746   2.976
 6036SOL     OW19006   6.019   4.051   1.333
 6036SOL    HW119007   6.019   4.150   1.319
 6036SOL    HW219008   5.954   4.008   1.270
 6037SOL     OW19009   4.166   1.581   1.100
 6037SOL    HW119010   4.106   1.599   1.179
 6037SOL    HW219011   4.203   1.488   1.107
 6038SOL     OW19012   0.876   2.291   6.656
 6038SOL    HW119013   0.819   2.370   6.678
 6038SOL    HW219014   0.877   2.228   6.734
 6039SOL     OW19015   3.457   4.167   3.895
 6039SOL    HW119016   3.497   4.244   3.945
 6039SOL    HW219017   3.445   4.090   3.958
 6040SOL     OW19018   1.618   1.701   6.983
 6040SOL    HW119019   1.687   1.718   6.914
 6040SOL    HW219020   1.544   1.646   6.944
 6041SOL     OW19021   3.173   2.310   5.993
 6041SOL    HW119022   3.192   2.406   6.014
 6041SOL    HW219023   3.250   2.271   5.944
 6042SOL     OW19024   3.334   6.241   3.534
 6042SOL    HW119025   3.408   6.174   3.540
 6042SOL    HW219026   3.277   6.220   3.454
 6043SOL     OW19027   2.132   0.744   4.009
 6043SOL    HW119028   2.148   0.669   3.945
 6043SOL    HW219029   2.217   0.795   4.022
 6044SOL     OW19030   2.223   1.899   1.274
 6044SOL    HW119031   2.289   1.932   1.342
 6044SOL    HW219032   2.133   1.890   1.316
 6045SOL     OW19033   5.291   2.978   3.131
 6045SOL    HW119034   5.328   2.885   3.135
 6045SOL    HW219035   5.239   2.989   3.047
 6046SOL     OW19036   3.694   2.567   1.710
 6046SOL    HW119037   3.773   2.626   1.722
 6046SOL    HW219038   3.714   2.475   1.745
 6047SOL     OW19039   5.950   1.744   0.571
 6047SOL    HW119040   5.890   1.790   0.636
 6047SOL    HW219041   5.915   1.757   0.479
 6048SOL     OW19042   5.507   5.350   4.977
 6048SOL    HW119043   5.488   5.260   4.939
 6048SOL    HW219044   5.507   5.418   4.904
 6049SOL     OW19045   5.414   4.926   5.676
 6049SOL    HW119046   5.425   4.934   5.577
 6049SOL    HW219047   5.499   4.952   5.722
 6050SOL     OW19048   3.137   5.865   0.880
 6050SOL    HW119049   3.093   5.789   0.832
 6050SOL    HW219050   3.080   5.892   0.958
 6051SOL     OW19051   0.208   1.641   2.620
 6051SOL    HW119052   0.163   1.685   2.542
 6051SOL    HW219053   0.142   1.582   2.667
 6052SOL     OW19054   5.651   6.673   0.764
 6052SOL    HW119055   5.580   6.742   0.782
 6052SOL    HW219056   5.724   6.715   0.710
 6053SOL     OW19057   4.459   1.410   6.177
 6053SOL    HW119058   4.445   1.388   6.081
 6053SOL    HW219059   4.499   1.501   6.186
 6054SOL     OW19060   3.625   5.208   0.816
 6054SOL    HW119061   3.548   5.192   0.755
 6054SOL    HW219062   3.631   5.305   0.838
 6055SOL     OW19063   3.341   5.421   6.779
 6055SOL    HW119064   3.435   5.443   6.751
 6055SOL    HW219065   3.277   5.452   6.708
 6056SOL     OW19066   5.979   3.883   5.033
 6056SOL    HW119067   5.981   3.795   5.081
 6056SOL    HW219068   6.003   3.869   4.937
 6057SOL     OW19069   5.060   0.205   2.662
 6057SOL    HW119070   5.018   0.264   2.731
 6057SOL    HW219071   5.073   0.113   2.701
 6058SOL     OW19072   5.903   3.116   0.296
 6058SOL    HW119073   5.972   3.053   0.331
 6058SOL    HW219074   5.947   3.202   0.268
 6059SOL     OW19075   5.236   4.275   6.033
 6059SOL    HW119076   5.287   4.227   6.105
 6059SOL    HW219077   5.141   4.243   6.032
 6060SOL     OW19078   2.873   3.452   0.148
 6060SOL    HW119079   2.806   3.526   0.152
 6060SOL    HW219080   2.831   3.367   0.178
 6061SOL     OW19081   4.142   4.817   0.686
 6061SOL    HW119082   4.186   4.882   0.748
 6061SOL    HW219083   4.145   4.852   0.592
 6062SOL     OW19084   2.729   2.299   0.245
 6062SOL    HW119085   2.708   2.386   0.202
 6062SOL    HW219086   2.709   2.224   0.181
 6063SOL     OW19087   4.144   4.006   5.842
 6063SOL    HW119088   4.218   4.069   5.820
 6063SOL    HW219089   4.076   4.052   5.899
 6064SOL     OW19090   0.305   0.657   0.604
 6064SOL    HW119091   0.398   0.624   0.584
 6064SOL    HW219092   0.275   0.619   0.691
 6065SOL     OW19093   1.225   5.042   2.115
 6065SOL    HW119094   1.229   5.041   2.215
 6065SOL    HW219095   1.289   4.975   2.078
 6066SOL     OW19096   5.143   0.976   3.515
 6066SOL    HW119097   5.198   1.048   3.473
 6066SOL    HW219098   5.198   0.892   3.522
 6067SOL     OW19099   6.212   6.805   5.498
 6067SOL    HW119100   6.185   6.748   5.421
 6067SOL    HW219101   6.131   6.837   5.546
 6068SOL     OW19102   4.890   1.632   4.785
 6068SOL    HW119103   4.797   1.609   4.757
 6068SOL    HW219104   4.943   1.548   4.796
 6069SOL     OW19105   7.017   2.888   5.718
 6069SOL    HW119106   0.060   2.924   5.782
 6069SOL    HW219107   6.936   2.859   5.769
 6070SOL     OW19108   3.405   2.120   1.950
 6070SOL    HW119109   3.480   2.184   1.931
 6070SOL    HW219110   3.395   2.058   1.873
 6071SOL     OW19111   6.763   6.128   4.919
 6071SOL    HW119112   6.762   6.031   4.941
 6071SOL    HW219113   6.853   6.166   4.940
 6072SOL     OW19114   1.097   2.006   0.982
 6072SOL    HW119115   1.010   2.029   0.938
 6072SOL    HW219116   1.172   2.023   0.918
 6073SOL     OW19117   4.879   3.044   0.801
 6073SOL    HW119118   4.940   3.045   0.880
 6073SOL    HW219119   4.878   3.135   0.760
 6074SOL     OW19120   1.234   6.640   2.492
 6074SOL    HW119121   1.139   6.659   2.469
 6074SOL    HW219122   1.253   6.671   2.585
 6075SOL     OW19123   4.392   6.717   6.444
 6075SOL    HW119124   4.335   6.784   6.396
 6075SOL    HW219125   4.371   6.625   6.411
 6076SOL     OW19126   2.686   4.932   3.849
 6076SOL    HW119127   2.780   4.915   3.817
 6076SOL    HW219128   2.672   5.030   3.862
 6077SOL     OW19129   6.377   6.474   1.089
 6077SOL    HW119130   6.393   6.407   1.016
 6077SOL    HW219131   6.393   6.566   1.054
 6078SOL     OW19132   4.310   4.180   0.543
 6078SOL    HW119133   4.275   4.250   0.482
 6078SOL    HW219134   4.347   4.223   0.626
 6079SOL     OW19135   4.638   4.515   6.833
 6079SOL    HW119136   4.704   4.486   6.764
 6079SOL    HW219137   4.652   4.463   6.917
 6080SOL     OW19138   1.317   4.726   1.072
 6080SOL    HW119139   1.251   4.653   1.052
 6080SOL    HW219140   1.367   4.703   1.155
 6081SOL     OW19141   0.408   3.689   5.274
 6081SOL    HW119142   0.363   3.624   5.336
 6081SOL    HW219143   0.432   3.772   5.325
 6082SOL     OW19144   4.203   0.369   1.602
 6082SOL    HW119145   4.272   0.297   1.596
 6082SOL    HW219146   4.197   0.402   1.697
 6083SOL     OW19147   5.035   6.558   0.085
 6083SOL    HW119148   5.133   6.576   0.086
 6083SOL    HW219149   5.019   6.461   0.069
 6084SOL     OW19150   0.511   6.584   2.297
 6084SOL    HW119151   0.585   6.523   2.324
 6084SOL    HW219152   0.546   6.678   2.292
 6085SOL     OW19153   6.177   6.586   0.203
 6085SOL    HW119154   6.248   6.529   0.162
 6085SOL    HW219155   6.219   6.656   0.260
 6086SOL     OW19156   3.918   3.635   6.901
 6086SOL    HW119157   3.880   3.686   6.823
 6086SOL    HW219158   3.860   3.557   6.921
 6087SOL     OW19159   4.400   6.633   0.251
 6087SOL    HW119160   4.401   6.554   0.190
 6087SOL    HW219161   4.405   6.602   0.346
 6088SOL     OW19162   5.035   6.244   4.455
 6088SOL    HW119163   5.006   6.198   4.372
 6088SOL    HW219164   4.993   6.335   4.459
 6089SOL     OW19165   6.241   2.250   2.383
 6089SOL    HW119166   6.287   2.318   2.326
 6089SOL    HW219167   6.161   2.216   2.335
 6090SOL     OW19168   3.300   5.498   4.039
 6090SOL    HW119169   3.222   5.524   4.096
 6090SOL    HW219170   3.383   5.540   4.077
 6091SOL     OW19171   2.484   0.810   1.508
 6091SOL    HW119172   2.480   0.722   1.555
 6091SOL    HW219173   2.542   0.873   1.560
 6092SOL     OW19174   4.262   0.134   1.976
 6092SOL    HW119175   4.289   0.216   2.027
 6092SOL    HW219176   4.238   0.061   2.040
 6093SOL     OW19177   1.688   1.796   2.123
 6093SOL    HW119178   1.617   1.748   2.173
 6093SOL    HW219179   1.657   1.813   2.029
 6094SOL     OW19180   0.653   6.800   4.414
 6094SOL    HW119181   0.694   6.807   4.323
 6094SOL    HW219182   0.686   6.717   4.458
 6095SOL     OW19183   4.410   5.871   0.095
 6095SOL    HW119184   4.327   5.837   0.052
 6095SOL    HW219185   4.386   5.938   0.166
 6096SOL     OW19186   5.827   6.224   2.177
 6096SOL    HW119187   5.829   6.314   2.133
 6096SOL    HW219188   5.881   6.228   2.261
 6097SOL     OW19189   1.593   6.089   1.886
 6097SOL    HW119190   1.549   6.172   1.923
 6097SOL    HW219191   1.538   6.009   1.911
 6098SOL     OW19192   6.756   0.658   5.320
 6098SOL    HW119193   6.845   0.698   5.300
 6098SOL    HW219194   6.767   0.566   5.358
 6099SOL     OW19195   5.635   6.290   5.755
 6099SOL    HW119196   5.624   6.191   5.750
 6099SOL    HW219197   5.718   6.311   5.808
 6100SOL     OW19198   0.530   5.608   3.101
 6100SOL    HW119199   0.508   5.658   3.017
 6100SOL    HW219200   0.458   5.542   3.121
 6101SOL     OW19201   6.556   1.982   1.575
 6101SOL    HW119202   6.556   2.060   1.638
 6101SOL    HW219203   6.505   2.007   1.492
 6102SOL     OW19204   4.477   6.584   2.317
 6102SOL    HW119205   4.507   6.572   2.223
 6102SOL    HW219206   4.422   6.668   2.325
 6103SOL     OW19207   6.575   1.485   1.398
 6103SOL    HW119208   6.599   1.480   1.301
 6103SOL    HW219209   6.610   1.570   1.437
 6104SOL     OW19210   6.129   1.534   5.033
 6104SOL    HW119211   6.190   1.534   4.953
 6104SOL    HW219212   6.110   1.440   5.061
 6105SOL     OW19213   2.768   5.446   5.959
 6105SOL    HW119214   2.725   5.437   6.049
 6105SOL    HW219215   2.857   5.490   5.969
 6106SOL     OW19216   0.924   3.810   0.258
 6106SOL    HW119217   0.825   3.820   0.261
 6106SOL    HW219218   0.954   3.753   0.335
 6107SOL     OW19219   4.728   5.233   4.770
 6107SOL    HW119220   4.667   5.278   4.836
 6107SOL    HW219221   4.812   5.203   4.817
 6108SOL     OW19222   1.497   1.365   1.958
 6108SOL    HW119223   1.505   1.363   2.057
 6108SOL    HW219224   1.434   1.438   1.931
 6109SOL     OW19225   5.245   0.435   3.421
 6109SOL    HW119226   5.217   0.530   3.437
 6109SOL    HW219227   5.303   0.404   3.496
 6110SOL     OW19228   0.644   2.122   6.008
 6110SOL    HW119229   0.658   2.070   5.923
 6110SOL    HW219230   0.699   2.205   6.005
 6111SOL     OW19231   1.490   3.560   2.090
 6111SOL    HW119232   1.426   3.636   2.080
 6111SOL    HW219233   1.584   3.593   2.075
 6112SOL     OW19234   3.183   0.535   2.522
 6112SOL    HW119235   3.279   0.533   2.496
 6112SOL    HW219236   3.127   0.553   2.442
 6113SOL     OW19237   2.237   4.740   6.954
 6113SOL    HW119238   2.275   4.680   6.884
 6113SOL    HW219239   2.236   4.834   6.920
 6114SOL     OW19240   4.810   1.740   1.445
 6114SOL    HW119241   4.813   1.775   1.351
 6114SOL    HW219242   4.893   1.769   1.493
 6115SOL     OW19243   0.650   1.027   5.476
 6115SOL    HW119244   0.702   1.072   5.549
 6115SOL    HW219245   0.713   0.985   5.412
 6116SOL     OW19246   3.887   2.217   5.220
 6116SOL    HW119247   3.883   2.305   5.265
 6116SOL    HW219248   3.797   2.192   5.184
 6117SOL     OW19249   1.186   1.908   2.965
 6117SOL    HW119250   1.213   1.936   2.872
 6117SOL    HW219251   1.247   1.837   2.998
 6118SOL     OW19252   6.168   1.124   0.893
 6118SOL    HW119253   6.210   1.206   0.853
 6118SOL    HW219254   6.152   1.057   0.821
 6119SOL     OW19255   0.242   2.291   0.172
 6119SOL    HW119256   0.276   2.356   0.104
 6119SOL    HW219257   0.316   2.230   0.200
 6120SOL     OW19258   2.718   6.905   5.228
 6120SOL    HW119259   2.640   6.901   5.290
 6120SOL    HW219260   2.740   7.001   5.208
 6121SOL     OW19261   0.494   3.888   5.430
 6121SOL    HW119262   0.457   3.979   5.411
 6121SOL    HW219263   0.544   3.890   5.517
 6122SOL     OW19264   4.976   5.928   5.275
 6122SOL    HW119265   4.905   5.903   5.340
 6122SOL    HW219266   4.966   5.874   5.191
 6123SOL     OW19267   5.433   1.294   5.813
 6123SOL    HW119268   5.387   1.291   5.902
 6123SOL    HW219269   5.388   1.230   5.750
 6124SOL     OW19270   1.983   0.101   4.958
 6124SOL    HW119271   1.959   0.180   4.902
 6124SOL    HW219272   1.962   0.120   5.053
 6125SOL     OW19273   2.364   4.197   0.377
 6125SOL    HW119274   2.461   4.203   0.399
 6125SOL    HW219275   2.327   4.288   0.362
 6126SOL     OW19276   0.551   2.551   5.549
 6126SOL    HW119277   0.634   2.594   5.513
 6126SOL    HW219278   0.510   2.494   5.478
 6127SOL     OW19279   4.377   1.250   1.640
 6127SOL    HW119280   4.476   1.264   1.642
 6127SOL    HW219281   4.340   1.289   1.556
 6128SOL     OW19282   5.673   5.995   0.253
 6128SOL    HW119283   5.590   6.019   0.203
 6128SOL    HW219284   5.662   5.905   0.296
 6129SOL     OW19285   2.091   4.538   3.334
 6129SOL    HW119286   2.092   4.627   3.288
 6129SOL    HW219287   2.155   4.539   3.410
 6130SOL     OW19288   5.429   2.722   2.053
 6130SOL    HW119289   5.388   2.779   1.982
 6130SOL    HW219290   5.361   2.703   2.123
 6131SOL     OW19291   0.068   2.284   2.319
 6131SOL    HW119292   0.124   2.358   2.280
 6131SOL    HW219293   0.091   2.198   2.273
 6132SOL     OW19294   3.634   1.597   6.803
 6132SOL    HW119295   3.714   1.655   6.787
 6132SOL    HW219296   3.586   1.582   6.717
 6133SOL     OW19297   1.693   2.542   3.769
 6133SOL    HW119298   1.610   2.566   3.820
 6133SOL    HW219299   1.712   2.445   3.781
 6134SOL     OW19300   5.515   6.230   6.067
 6134SOL    HW119301   5.593   6.170   6.047
 6134SOL    HW219302   5.519   6.259   6.162
 6135SOL     OW19303   6.277   0.281   6.960
 6135SOL    HW119304   6.240   0.335   6.885
 6135SOL    HW219305   6.260   0.328   0.023
 6136SOL     OW19306   1.575   2.978   1.385
 6136SOL    HW119307   1.552   3.022   1.298
 6136SOL    HW219308   1.519   3.017   1.458
 6137SOL     OW19309   0.811   4.225   3.463
 6137SOL    HW119310   0.811   4.127   3.442
 6137SOL    HW219311   0.882   4.271   3.408
 6138SOL     OW19312   4.044   0.215   2.223
 6138SOL    HW119313   3.994   0.230   2.309
 6138SOL    HW219314   4.119   0.280   2.217
 6139SOL     OW19315   1.090   6.642   6.078
 6139SOL    HW119316   1.037   6.557   6.086
 6139SOL    HW219317   1.031   6.715   6.045
 6140SOL     OW19318   1.334   0.233   3.466
 6140SOL    HW119319   1.410   0.207   3.526
 6140SOL    HW219320   1.313   0.330   3.479
 6141SOL     OW19321   0.577   0.417   6.438
 6141SOL    HW119322   0.657   0.477   6.437
 6141SOL    HW219323   0.568   0.372   6.349
 6142SOL     OW19324   0.917   1.408   0.539
 6142SOL    HW119325   0.964   1.410   0.451
 6142SOL    HW219326   0.869   1.494   0.553
 6143SOL     OW19327   6.963   3.861   0.107
 6143SOL    HW119328   6.998   3.791   0.169
 6143SOL    HW219329   6.869   3.839   0.081
 6144SOL     OW19330   4.541   4.493   3.075
 6144SOL    HW119331   4.525   4.396   3.092
 6144SOL    HW219332   4.472   4.547   3.123
 6145SOL     OW19333   5.785   4.221   4.031
 6145SOL    HW119334   5.875   4.260   4.046
 6145SOL    HW219335   5.731   4.229   4.115
 6146SOL     OW19336   3.886   0.564   4.206
 6146SOL    HW119337   3.963   0.626   4.198
 6146SOL    HW219338   3.890   0.516   4.294
 6147SOL     OW19339   1.879   3.229   4.579
 6147SOL    HW119340   1.857   3.300   4.513
 6147SOL    HW219341   1.977   3.209   4.574
 6148SOL     OW19342   4.195   5.073   6.969
 6148SOL    HW119343   4.271   5.019   6.933
 6148SOL    HW219344   4.139   5.104   6.893
 6149SOL     OW19345   2.192   0.004   1.784
 6149SOL    HW119346   2.223   0.090   1.825
 6149SOL    HW219347   2.119   0.023   1.719
 6150SOL     OW19348   6.302   4.063   6.839
 6150SOL    HW119349   6.400   4.066   6.824
 6150SOL    HW219350   6.281   4.095   6.932
 6151SOL     OW19351   5.553   4.768   4.354
 6151SOL    HW119352   5.609   4.789   4.274
 6151SOL    HW219353   5.608   4.722   4.423
 6152SOL     OW19354   0.937   5.834   4.180
 6152SOL    HW119355   0.924   5.924   4.222
 6152SOL    HW219356   1.032   5.825   4.149
 6153SOL     OW19357   4.755   5.544   0.760
 6153SOL    HW119358   4.747   5.569   0.664
 6153SOL    HW219359   4.773   5.627   0.815
 6154SOL     OW19360   4.878   3.434   2.623
 6154SOL    HW119361   4.834   3.467   2.540
 6154SOL    HW219362   4.895   3.336   2.616
 6155SOL     OW19363   2.602   0.933   2.935
 6155SOL    HW119364   2.565   0.957   2.846
 6155SOL    HW219365   2.619   1.016   2.988
 6156SOL     OW19366   5.467   4.050   1.525
 6156SOL    HW119367   5.559   4.015   1.505
 6156SOL    HW219368   5.474   4.132   1.581
 6157SOL     OW19369   0.535   2.158   3.505
 6157SOL    HW119370   0.560   2.137   3.600
 6157SOL    HW219371   0.613   2.140   3.445
 6158SOL     OW19372   3.337   2.108   6.163
 6158SOL    HW119373   3.334   2.079   6.067
 6158SOL    HW219374   3.367   2.203   6.168
 6159SOL     OW19375   5.144   2.782   6.890
 6159SOL    HW119376   5.104   2.716   6.953
 6159SOL    HW219377   5.198   2.734   6.821
 6160SOL     OW19378   0.222   0.092   6.266
 6160SOL    HW119379   0.251   0.085   6.361
 6160SOL    HW219380   0.290   0.146   6.215
 6161SOL     OW19381   5.179   2.569   6.371
 6161SOL    HW119382   5.241   2.492   6.352
 6161SOL    HW219383   5.091   2.552   6.327
 6162SOL     OW19384   5.804   6.720   3.250
 6162SOL    HW119385   5.728   6.744   3.311
 6162SOL    HW219386   5.859   6.648   3.292
 6163SOL     OW19387   4.842   6.336   2.755
 6163SOL    HW119388   4.779   6.293   2.691
 6163SOL    HW219389   4.872   6.269   2.823
 6164SOL     OW19390   3.481   4.021   4.117
 6164SOL    HW119391   3.486   3.926   4.148
 6164SOL    HW219392   3.461   4.081   4.195
 6165SOL     OW19393   4.097   2.468   0.246
 6165SOL    HW119394   4.157   2.543   0.272
 6165SOL    HW219395   4.153   2.390   0.215
 6166SOL     OW19396   6.844   2.015   6.804
 6166SOL    HW119397   6.781   2.046   6.732
 6166SOL    HW219398   6.846   2.083   6.877
 6167SOL     OW19399   1.670   4.843   3.088
 6167SOL    HW119400   1.706   4.931   3.119
 6167SOL    HW219401   1.696   4.771   3.152
 6168SOL     OW19402   6.404   2.681   3.363
 6168SOL    HW119403   6.446   2.591   3.379
 6168SOL    HW219404   6.308   2.679   3.393
 6169SOL     OW19405   1.218   0.617   6.467
 6169SOL    HW119406   1.294   0.614   6.532
 6169SOL    HW219407   1.131   0.609   6.516
 6170SOL     OW19408   3.404   4.414   6.802
 6170SOL    HW119409   3.376   4.319   6.787
 6170SOL    HW219410   3.493   4.430   6.759
 6171SOL     OW19411   0.936   4.085   2.504
 6171SOL    HW119412   0.946   4.112   2.600
 6171SOL    HW219413   0.870   4.146   2.459
 6172SOL     OW19414   0.344   0.606   2.284
 6172SOL    HW119415   0.359   0.679   2.217
 6172SOL    HW219416   0.344   0.645   2.376
 6173SOL     OW19417   0.796   4.969   2.348
 6173SOL    HW119418   0.872   4.953   2.286
 6173SOL    HW219419   0.774   4.884   2.396
 6174SOL     OW19420   5.909   4.878   2.750
 6174SOL    HW119421   5.927   4.789   2.708
 6174SOL    HW219422   5.810   4.890   2.761
 6175SOL     OW19423   5.605   6.290   2.544
 6175SOL    HW119424   5.570   6.348   2.618
 6175SOL    HW219425   5.666   6.221   2.583
 6176SOL     OW19426   6.180   3.364   6.588
 6176SOL    HW119427   6.171   3.321   6.499
 6176SOL    HW219428   6.144   3.303   6.659
 6177SOL     OW19429   4.648   1.270   1.645
 6177SOL    HW119430   4.726   1.308   1.595
 6177SOL    HW219431   4.682   1.215   1.721
 6178SOL     OW19432   4.704   4.800   1.434
 6178SOL    HW119433   4.743   4.823   1.345
 6178SOL    HW219434   4.772   4.817   1.506
 6179SOL     OW19435   7.005   3.626   4.843
 6179SOL    HW119436   6.912   3.594   4.861
 6179SOL    HW219437   0.045   3.574   4.898
 6180SOL     OW19438   3.558   0.001   0.504
 6180SOL    HW119439   3.545   6.983   0.594
 6180SOL    HW219440   3.545   6.956   0.433
 6181SOL     OW19441   4.737   6.353   0.213
 6181SOL    HW119442   4.721   6.402   0.298
 6181SOL    HW219443   4.650   6.343   0.164
 6182SOL     OW19444   5.120   5.377   5.153
 6182SOL    HW119445   5.054   5.367   5.227
 6182SOL    HW219446   5.190   5.306   5.161
 6183SOL     OW19447   2.043   0.403   2.840
 6183SOL    HW119448   2.053   0.485   2.784
 6183SOL    HW219449   1.946   0.382   2.852
 6184SOL     OW19450   1.705   0.091   0.151
 6184SOL    HW119451   1.667   0.094   0.058
 6184SOL    HW219452   1.642   0.137   0.214
 6185SOL     OW19453   0.772   3.760   6.991
 6185SOL    HW119454   0.789   3.661   6.993
 6185SOL    HW219455   0.857   3.808   6.971
 6186SOL     OW19456   5.496   0.152   4.585
 6186SOL    HW119457   5.557   0.165   4.663
 6186SOL    HW219458   5.546   0.108   4.511
 6187SOL     OW19459   5.152   4.954   3.613
 6187SOL    HW119460   5.152   4.877   3.548
 6187SOL    HW219461   5.059   4.969   3.646
 6188SOL     OW19462   2.125   6.428   1.478
 6188SOL    HW119463   2.203   6.401   1.421
 6188SOL    HW219464   2.152   6.426   1.574
 6189SOL     OW19465   5.095   4.700   3.458
 6189SOL    HW119466   5.141   4.611   3.452
 6189SOL    HW219467   4.999   4.689   3.434
 6190SOL     OW19468   5.449   3.707   6.369
 6190SOL    HW119469   5.359   3.735   6.402
 6190SOL    HW219470   5.438   3.633   6.303
 6191SOL     OW19471   5.471   2.370   0.859
 6191SOL    HW119472   5.553   2.317   0.885
 6191SOL    HW219473   5.480   2.400   0.764
 6192SOL     OW19474   3.057   3.732   0.426
 6192SOL    HW119475   2.960   3.712   0.442
 6192SOL    HW219476   3.074   3.829   0.442
 6193SOL     OW19477   4.662   0.248   2.327
 6193SOL    HW119478   4.695   0.320   2.266
 6193SOL    HW219479   4.593   0.285   2.388
 6194SOL     OW19480   2.188   0.256   0.643
 6194SOL    HW119481   2.094   0.233   0.616
 6194SOL    HW219482   2.251   0.217   0.577
 6195SOL     OW19483   4.266   5.137   5.787
 6195SOL    HW119484   4.192   5.071   5.773
 6195SOL    HW219485   4.327   5.104   5.860
 6196SOL     OW19486   0.524   2.781   6.120
 6196SOL    HW119487   0.444   2.840   6.107
 6196SOL    HW219488   0.521   2.741   6.212
 6197SOL     OW19489   2.883   4.138   0.860
 6197SOL    HW119490   2.817   4.127   0.934
 6197SOL    HW219491   2.968   4.090   0.883
 6198SOL     OW19492   3.482   6.077   2.755
 6198SOL    HW119493   3.421   5.999   2.743
 6198SOL    HW219494   3.576   6.050   2.733
 6199SOL     OW19495   0.286   0.090   1.017
 6199SOL    HW119496   0.333   0.053   0.937
 6199SOL    HW219497   0.345   0.156   1.064
 6200SOL     OW19498   2.653   1.429   6.627
 6200SOL    HW119499   2.578   1.473   6.578
 6200SOL    HW219500   2.676   1.482   6.709
 6201SOL     OW19501   2.372   4.702   5.759
 6201SOL    HW119502   2.326   4.625   5.714
 6201SOL    HW219503   2.305   4.773   5.780
 6202SOL     OW19504   4.132   1.789   1.647
 6202SOL    HW119505   4.081   1.842   1.580
 6202SOL    HW219506   4.197   1.849   1.695
 6203SOL     OW19507   4.950   0.283   4.034
 6203SOL    HW119508   5.039   0.326   4.017
 6203SOL    HW219509   4.963   0.187   4.056
 6204SOL     OW19510   0.429   4.721   5.501
 6204SOL    HW119511   0.361   4.791   5.482
 6204SOL    HW219512   0.421   4.647   5.435
 6205SOL     OW19513   5.244   5.417   6.645
 6205SOL    HW119514   5.190   5.454   6.569
 6205SOL    HW219515   5.290   5.492   6.692
 6206SOL     OW19516   0.099   0.361   2.372
 6206SOL    HW119517   0.138   0.386   2.284
 6206SOL    HW219518   0.141   0.277   2.405
 6207SOL     OW19519   1.419   4.147   4.581
 6207SOL    HW119520   1.347   4.081   4.561
 6207SOL    HW219521   1.462   4.124   4.668
 6208SOL     OW19522   6.271   0.509   5.791
 6208SOL    HW119523   6.251   0.500   5.888
 6208SOL    HW219524   6.314   0.425   5.758
 6209SOL     OW19525   3.557   6.171   0.391
 6209SOL    HW119526   3.588   6.078   0.372
 6209SOL    HW219527   3.636   6.230   0.407
 6210SOL     OW19528   5.522   4.146   3.130
 6210SOL    HW119529   5.526   4.122   3.033
 6210SOL    HW219530   5.557   4.238   3.143
 6211SOL     OW19531   2.921   6.986   6.313
 6211SOL    HW119532   2.946   0.058   6.322
 6211SOL    HW219533   2.842   6.978   6.253
 6212SOL     OW19534   0.373   5.908   3.407
 6212SOL    HW119535   0.298   5.847   3.384
 6212SOL    HW219536   0.460   5.866   3.378
 6213SOL     OW19537   5.496   0.297   6.512
 6213SOL    HW119538   5.593   0.292   6.538
 6213SOL    HW219539   5.467   0.392   6.510
 6214SOL     OW19540   5.999   5.164   3.074
 6214SOL    HW119541   5.988   5.220   2.992
 6214SOL    HW219542   6.037   5.075   3.049
 6215SOL     OW19543   3.675   1.498   0.034
 6215SOL    HW119544   3.647   1.403   0.023
 6215SOL    HW219545   3.681   1.542   6.968
 6216SOL     OW19546   6.441   1.801   1.808
 6216SOL    HW119547   6.371   1.824   1.741
 6216SOL    HW219548   6.445   1.872   1.878
 6217SOL     OW19549   5.194   2.549   1.697
 6217SOL    HW119550   5.159   2.596   1.778
 6217SOL    HW219551   5.289   2.576   1.682
 6218SOL     OW19552   3.723   4.882   3.927
 6218SOL    HW119553   3.783   4.961   3.938
 6218SOL    HW219554   3.777   4.798   3.928
 6219SOL     OW19555   1.616   1.572   4.839
 6219SOL    HW119556   1.690   1.517   4.878
 6219SOL    HW219557   1.638   1.669   4.848
 6220SOL     OW19558   1.850   4.285   5.325
 6220SOL    HW119559   1.877   4.381   5.337
 6220SOL    HW219560   1.884   4.252   5.237
 6221SOL     OW19561   5.002   5.052   5.228
 6221SOL    HW119562   5.014   4.967   5.279
 6221SOL    HW219563   4.973   5.125   5.290
 6222SOL     OW19564   0.832   6.677   1.226
 6222SOL    HW119565   0.888   6.594   1.225
 6222SOL    HW219566   0.779   6.681   1.310
 6223SOL     OW19567   5.883   3.241   4.335
 6223SOL    HW119568   5.946   3.168   4.308
 6223SOL    HW219569   5.914   3.328   4.296
 6224SOL     OW19570   1.851   1.723   6.417
 6224SOL    HW119571   1.837   1.643   6.359
 6224SOL    HW219572   1.799   1.711   6.502
 6225SOL     OW19573   3.123   3.489   1.643
 6225SOL    HW119574   3.107   3.507   1.740
 6225SOL    HW219575   3.219   3.508   1.620
 6226SOL     OW19576   5.856   1.508   3.740
 6226SOL    HW119577   5.942   1.511   3.689
 6226SOL    HW219578   5.844   1.595   3.789
 6227SOL     OW19579   3.186   4.412   6.333
 6227SOL    HW119580   3.227   4.417   6.424
 6227SOL    HW219581   3.235   4.475   6.272
 6228SOL     OW19582   6.887   2.002   3.225
 6228SOL    HW119583   6.956   1.996   3.153
 6228SOL    HW219584   6.798   1.972   3.190
 6229SOL     OW19585   1.619   1.883   2.901
 6229SOL    HW119586   1.575   1.817   2.961
 6229SOL    HW219587   1.552   1.919   2.836
 6230SOL     OW19588   1.824   1.233   4.692
 6230SOL    HW119589   1.873   1.278   4.617
 6230SOL    HW219590   1.823   1.134   4.677
 6231SOL     OW19591   6.776   5.084   1.411
 6231SOL    HW119592   6.763   5.126   1.321
 6231SOL    HW219593   6.867   5.107   1.445
 6232SOL     OW19594   0.173   0.994   0.126
 6232SOL    HW119595   0.238   0.959   0.193
 6232SOL    HW219596   0.221   1.052   0.060
 6233SOL     OW19597   5.613   2.080   6.582
 6233SOL    HW119598   5.632   1.994   6.630
 6233SOL    HW219599   5.559   2.140   6.640
 6234SOL     OW19600   0.700   1.194   4.900
 6234SOL    HW119601   0.753   1.265   4.945
 6234SOL    HW219602   0.641   1.148   4.967
 6235SOL     OW19603   1.583   6.777   3.398
 6235SOL    HW119604   1.634   6.851   3.355
 6235SOL    HW219605   1.596   6.692   3.347
 6236SOL     OW19606   0.180   4.860   1.127
 6236SOL    HW119607   0.195   4.879   1.224
 6236SOL    HW219608   0.136   4.771   1.116
 6237SOL     OW19609   4.524   6.194   0.499
 6237SOL    HW119610   4.443   6.205   0.557
 6237SOL    HW219611   4.579   6.278   0.504
 6238SOL     OW19612   4.623   5.324   2.584
 6238SOL    HW119613   4.707   5.326   2.638
 6238SOL    HW219614   4.549   5.365   2.636
 6239SOL     OW19615   2.753   6.436   2.182
 6239SOL    HW119616   2.686   6.395   2.244
 6239SOL    HW219617   2.706   6.477   2.104
 6240SOL     OW19618   2.827   1.748   0.591
 6240SOL    HW119619   2.809   1.792   0.679
 6240SOL    HW219620   2.829   1.818   0.519
 6241SOL     OW19621   2.476   0.997   2.679
 6241SOL    HW119622   2.481   0.996   2.579
 6241SOL    HW219623   2.383   0.975   2.707
 6242SOL     OW19624   5.392   1.570   3.402
 6242SOL    HW119625   5.461   1.506   3.435
 6242SOL    HW219626   5.366   1.546   3.309
 6243SOL     OW19627   5.922   6.783   3.777
 6243SOL    HW119628   6.010   6.776   3.731
 6243SOL    HW219629   5.866   6.854   3.734
 6244SOL     OW19630   2.019   2.314   1.836
 6244SOL    HW119631   1.980   2.241   1.781
 6244SOL    HW219632   1.955   2.391   1.839
 6245SOL     OW19633   3.000   4.211   1.767
 6245SOL    HW119634   3.006   4.156   1.851
 6245SOL    HW219635   2.992   4.308   1.791
 6246SOL     OW19636   2.767   2.601   6.606
 6246SOL    HW119637   2.799   2.645   6.690
 6246SOL    HW219638   2.799   2.652   6.527
 6247SOL     OW19639   0.225   6.694   3.581
 6247SOL    HW119640   0.254   6.691   3.677
 6247SOL    HW219641   0.188   6.605   3.555
 6248SOL     OW19642   0.996   3.794   1.253
 6248SOL    HW119643   1.006   3.879   1.202
 6248SOL    HW219644   0.905   3.755   1.237
 6249SOL     OW19645   0.269   4.364   0.167
 6249SOL    HW119646   0.339   4.430   0.195
 6249SOL    HW219647   0.314   4.282   0.130
 6250SOL     OW19648   6.574   6.317   0.328
 6250SOL    HW119649   6.593   6.284   0.235
 6250SOL    HW219650   6.482   6.289   0.354
 6251SOL     OW19651   3.922   6.603   1.151
 6251SOL    HW119652   3.949   6.700   1.150
 6251SOL    HW219653   3.878   6.580   1.065
 6252SOL     OW19654   2.224   6.102   4.805
 6252SOL    HW119655   2.188   6.187   4.767
 6252SOL    HW219656   2.278   6.053   4.736
 6253SOL     OW19657   2.234   4.159   2.611
 6253SOL    HW119658   2.295   4.150   2.690
 6253SOL    HW219659   2.224   4.256   2.588
 6254SOL     OW19660   5.211   0.865   6.903
 6254SOL    HW119661   5.231   0.903   6.813
 6254SOL    HW219662   5.114   0.878   6.924
 6255SOL     OW19663   1.414   0.898   1.808
 6255SOL    HW119664   1.351   0.828   1.841
 6255SOL    HW219665   1.410   0.978   1.868
 6256SOL     OW19666   4.209   5.117   2.938
 6256SOL    HW119667   4.155   5.092   3.018
 6256SOL    HW219668   4.172   5.201   2.898
 6257SOL     OW19669   5.565   2.425   1.246
 6257SOL    HW119670   5.545   2.401   1.341
 6257SOL    HW219671   5.479   2.427   1.193
 6258SOL     OW19672   4.693   0.983   3.133
 6258SOL    HW119673   4.599   0.988   3.098
 6258SOL    HW219674   4.748   1.055   3.090
 6259SOL     OW19675   2.837   1.579   1.463
 6259SOL    HW119676   2.937   1.568   1.457
 6259SOL    HW219677   2.804   1.626   1.381
 6260SOL     OW19678   3.230   4.133   0.350
 6260SOL    HW119679   3.226   4.231   0.369
 6260SOL    HW219680   3.319   4.110   0.311
 6261SOL     OW19681   3.550   6.693   6.749
 6261SOL    HW119682   3.579   6.783   6.781
 6261SOL    HW219683   3.488   6.704   6.671
 6262SOL     OW19684   1.752   4.228   0.507
 6262SOL    HW119685   1.780   4.137   0.480
 6262SOL    HW219686   1.824   4.272   0.561
 6263SOL     OW19687   0.494   5.753   6.299
 6263SOL    HW119688   0.590   5.761   6.272
 6263SOL    HW219689   0.449   5.842   6.288
 6264SOL     OW19690   2.112   0.657   1.138
 6264SOL    HW119691   2.138   0.754   1.135
 6264SOL    HW219692   2.126   0.622   1.231
 6265SOL     OW19693   3.237   4.391   1.402
 6265SOL    HW119694   3.195   4.466   1.453
 6265SOL    HW219695   3.317   4.358   1.452
 6266SOL     OW19696   4.094   0.946   4.542
 6266SOL    HW119697   4.181   0.939   4.494
 6266SOL    HW219698   4.038   1.017   4.501
 6267SOL     OW19699   3.418   6.852   0.338
 6267SOL    HW119700   3.475   6.771   0.330
 6267SOL    HW219701   3.413   6.899   0.250
 6268SOL     OW19702   2.507   5.986   3.180
 6268SOL    HW119703   2.531   5.943   3.267
 6268SOL    HW219704   2.408   5.986   3.169
 6269SOL     OW19705   6.563   5.595   1.764
 6269SOL    HW119706   6.542   5.508   1.808
 6269SOL    HW219707   6.656   5.623   1.786
 6270SOL     OW19708   1.951   0.181   6.039
 6270SOL    HW119709   1.869   0.212   5.991
 6270SOL    HW219710   2.026   0.172   5.974
 6271SOL     OW19711   6.868   2.720   5.986
 6271SOL    HW119712   6.836   2.689   5.897
 6271SOL    HW219713   6.790   2.734   6.047
 6272SOL     OW19714   0.786   3.056   4.524
 6272SOL    HW119715   0.832   3.105   4.598
 6272SOL    HW219716   0.790   2.958   4.541
 6273SOL     OW19717   1.613   0.468   2.154
 6273SOL    HW119718   1.705   0.432   2.163
 6273SOL    HW219719   1.546   0.394   2.163
 6274SOL     OW19720   2.717   5.540   5.482
 6274SOL    HW119721   2.714   5.559   5.580
 6274SOL    HW219722   2.753   5.449   5.466
 6275SOL     OW19723   2.905   6.482   5.557
 6275SOL    HW119724   2.899   6.580   5.539
 6275SOL    HW219725   2.821   6.452   5.602
 6276SOL     OW19726   1.673   5.092   3.394
 6276SOL    HW119727   1.681   5.140   3.481
 6276SOL    HW219728   1.739   5.017   3.391
 6277SOL     OW19729   4.300   2.337   2.807
 6277SOL    HW119730   4.356   2.391   2.745
 6277SOL    HW219731   4.216   2.309   2.759
 6278SOL     OW19732   4.699   0.282   4.863
 6278SOL    HW119733   4.772   0.256   4.799
 6278SOL    HW219734   4.738   0.337   4.937
 6279SOL     OW19735   3.654   1.183   0.378
 6279SOL    HW119736   3.687   1.203   0.470
 6279SOL    HW219737   3.732   1.162   0.319
 6280SOL     OW19738   0.371   2.963   5.567
 6280SOL    HW119739   0.347   2.949   5.471
 6280SOL    HW219740   0.360   2.877   5.617
 6281SOL     OW19741   2.778   6.340   5.890
 6281SOL    HW119742   2.713   6.346   5.815
 6281SOL    HW219743   2.801   6.432   5.922
 6282SOL     OW19744   1.342   6.972   4.592
 6282SOL    HW119745   1.301   6.951   4.680
 6282SOL    HW219746   1.308   0.036   4.560
 6283SOL     OW19747   6.236   2.744   5.062
 6283SOL    HW119748   6.239   2.808   4.986
 6283SOL    HW219749   6.142   2.736   5.095
 6284SOL     OW19750   1.806   5.508   5.063
 6284SOL    HW119751   1.839   5.438   5.001
 6284SOL    HW219752   1.883   5.548   5.113
 6285SOL     OW19753   1.271   2.977   4.253
 6285SOL    HW119754   1.307   3.060   4.212
 6285SOL    HW219755   1.174   2.991   4.276
 6286SOL     OW19756   6.661   1.310   3.978
 6286SOL    HW119757   6.757   1.295   3.956
 6286SOL    HW219758   6.623   1.379   3.916
 6287SOL     OW19759   4.562   4.390   2.308
 6287SOL    HW119760   4.611   4.408   2.393
 6287SOL    HW219761   4.617   4.329   2.250
 6288SOL     OW19762   5.517   4.282   1.692
 6288SOL    HW119763   5.455   4.359   1.704
 6288SOL    HW219764   5.601   4.298   1.744
 6289SOL     OW19765   1.569   2.731   3.460
 6289SOL    HW119766   1.511   2.660   3.419
 6289SOL    HW219767   1.663   2.698   3.466
 6290SOL     OW19768   5.477   3.790   4.294
 6290SOL    HW119769   5.470   3.692   4.275
 6290SOL    HW219770   5.454   3.808   4.389
 6291SOL     OW19771   4.029   3.566   3.965
 6291SOL    HW119772   4.001   3.546   3.871
 6291SOL    HW219773   4.067   3.484   4.007
 6292SOL     OW19774   0.393   2.991   3.234
 6292SOL    HW119775   0.448   2.915   3.268
 6292SOL    HW219776   0.333   3.024   3.307
 6293SOL     OW19777   4.383   0.056   0.163
 6293SOL    HW119778   4.452   7.011   0.183
 6293SOL    HW219779   4.355   0.049   0.068
 6294SOL     OW19780   3.672   5.114   3.111
 6294SOL    HW119781   3.695   5.167   3.192
 6294SOL    HW219782   3.617   5.034   3.138
 6295SOL     OW19783   5.369   5.754   5.213
 6295SOL    HW119784   5.332   5.844   5.188
 6295SOL    HW219785   5.454   5.738   5.162
 6296SOL     OW19786   6.603   0.473   3.828
 6296SOL    HW119787   6.541   0.507   3.899
 6296SOL    HW219788   6.691   0.519   3.836
 6297SOL     OW19789   5.243   6.820   5.573
 6297SOL    HW119790   5.204   6.906   5.542
 6297SOL    HW219791   5.270   6.764   5.495
 6298SOL     OW19792   1.676   3.751   6.152
 6298SOL    HW119793   1.703   3.663   6.111
 6298SOL    HW219794   1.613   3.798   6.091
 6299SOL     OW19795   6.360   2.465   6.405
 6299SOL    HW119796   6.297   2.430   6.474
 6299SOL    HW219797   6.411   2.389   6.366
 6300SOL     OW19798   5.433   0.560   4.839
 6300SOL    HW119799   5.438   0.502   4.758
 6300SOL    HW219800   5.455   0.654   4.814
 6301SOL     OW19801   2.458   6.906   1.270
 6301SOL    HW119802   2.451   6.931   1.367
 6301SOL    HW219803   2.554   6.886   1.249
 6302SOL     OW19804   1.078   1.367   3.545
 6302SOL    HW119805   1.079   1.414   3.633
 6302SOL    HW219806   1.148   1.296   3.544
 6303SOL     OW19807   2.475   0.598   4.932
 6303SOL    HW119808   2.430   0.652   4.861
 6303SOL    HW219809   2.510   0.659   5.004
 6304SOL     OW19810   3.007   0.816   1.326
 6304SOL    HW119811   3.081   0.869   1.283
 6304SOL    HW219812   3.020   0.817   1.425
 6305SOL     OW19813   6.327   6.421   1.357
 6305SOL    HW119814   6.305   6.327   1.383
 6305SOL    HW219815   6.348   6.425   1.259
 6306SOL     OW19816   0.080   3.351   4.380
 6306SOL    HW119817   0.093   3.404   4.463
 6306SOL    HW219818   0.014   3.397   4.320
 6307SOL     OW19819   3.218   4.707   5.632
 6307SOL    HW119820   3.190   4.748   5.719
 6307SOL    HW219821   3.269   4.775   5.578
 6308SOL     OW19822   1.647   1.365   5.063
 6308SOL    HW119823   1.651   1.458   5.100
 6308SOL    HW219824   1.733   1.343   5.018
 6309SOL     OW19825   4.925   3.334   3.739
 6309SOL    HW119826   4.904   3.274   3.816
 6309SOL    HW219827   4.919   3.429   3.768
 6310SOL     OW19828   2.236   4.801   4.039
 6310SOL    HW119829   2.197   4.810   3.947
 6310SOL    HW219830   2.176   4.742   4.094
 6311SOL     OW19831   6.275   0.710   5.052
 6311SOL    HW119832   6.369   0.698   5.019
 6311SOL    HW219833   6.217   0.638   5.013
 6312SOL     OW19834   4.358   5.086   6.076
 6312SOL    HW119835   4.389   4.993   6.055
 6312SOL    HW219836   4.431   5.151   6.058
 6313SOL     OW19837   1.610   6.008   3.187
 6313SOL    HW119838   1.540   5.939   3.207
 6313SOL    HW219839   1.566   6.094   3.162
 6314SOL     OW19840   3.622   6.462   1.823
 6314SOL    HW119841   3.600   6.368   1.796
 6314SOL    HW219842   3.539   6.517   1.825
 6315SOL     OW19843   4.545   2.821   6.932
 6315SOL    HW119844   4.565   2.868   7.018
 6315SOL    HW219845   4.627   2.773   6.901
 6316SOL     OW19846   4.348   2.237   6.430
 6316SOL    HW119847   4.446   2.218   6.435
 6316SOL    HW219848   4.309   2.231   6.521
 6317SOL     OW19849   5.503   6.596   3.032
 6317SOL    HW119850   5.589   6.562   3.070
 6317SOL    HW219851   5.442   6.518   3.014
 6318SOL     OW19852   2.516   2.107   5.327
 6318SOL    HW119853   2.536   2.053   5.245
 6318SOL    HW219854   2.599   2.154   5.357
 6319SOL     OW19855   0.370   3.150   3.849
 6319SOL    HW119856   0.327   3.239   3.859
 6319SOL    HW219857   0.388   3.132   3.752
 6320SOL     OW19858   6.072   4.314   3.310
 6320SOL    HW119859   6.024   4.230   3.333
 6320SOL    HW219860   6.164   4.312   3.350
 6321SOL     OW19861   2.967   5.240   0.981
 6321SOL    HW119862   2.872   5.222   0.953
 6321SOL    HW219863   2.982   5.339   0.981
 6322SOL     OW19864   1.497   2.221   5.989
 6322SOL    HW119865   1.406   2.248   6.021
 6322SOL    HW219866   1.523   2.135   6.031
 6323SOL     OW19867   3.420   2.538   1.728
 6323SOL    HW119868   3.396   2.441   1.737
 6323SOL    HW219869   3.520   2.548   1.731
 6324SOL     OW19870   4.191   0.689   5.896
 6324SOL    HW119871   4.277   0.674   5.847
 6324SOL    HW219872   4.152   0.777   5.868
 6325SOL     OW19873   1.475   2.820   1.880
 6325SOL    HW119874   1.480   2.775   1.970
 6325SOL    HW219875   1.491   2.918   1.891
 6326SOL     OW19876   5.353   5.824   0.913
 6326SOL    HW119877   5.395   5.856   0.998
 6326SOL    HW219878   5.320   5.903   0.860
 6327SOL     OW19879   6.837   6.685   5.233
 6327SOL    HW119880   6.914   6.645   5.284
 6327SOL    HW219881   6.871   6.759   5.175
 6328SOL     OW19882   2.241   3.852   6.707
 6328SOL    HW119883   2.213   3.924   6.770
 6328SOL    HW219884   2.252   3.766   6.758
 6329SOL     OW19885   0.980   1.524   3.778
 6329SOL    HW119886   0.945   1.608   3.736
 6329SOL    HW219887   0.914   1.450   3.766
 6330SOL     OW19888   4.777   0.869   0.684
 6330SOL    HW119889   4.771   0.968   0.696
 6330SOL    HW219890   4.817   0.828   0.765
 6331SOL     OW19891   6.719   2.797   0.738
 6331SOL    HW119892   6.745   2.799   0.834
 6331SOL    HW219893   6.644   2.732   0.724
 6332SOL     OW19894   5.939   5.140   1.830
 6332SOL    HW119895   5.935   5.041   1.845
 6332SOL    HW219896   6.033   5.172   1.843
 6333SOL     OW19897   3.804   5.151   3.357
 6333SOL    HW119898   3.797   5.236   3.409
 6333SOL    HW219899   3.799   5.074   3.420
 6334SOL     OW19900   2.222   0.180   2.808
 6334SOL    HW119901   2.165   0.262   2.815
 6334SOL    HW219902   2.313   0.199   2.845
 6335SOL     OW19903   5.750   1.935   0.085
 6335SOL    HW119904   5.843   1.960   0.112
 6335SOL    HW219905   5.690   1.942   0.164
 6336SOL     OW19906   0.283   2.405   4.944
 6336SOL    HW119907   0.356   2.338   4.928
 6336SOL    HW219908   0.323   2.493   4.968
 6337SOL     OW19909   5.024   3.589   6.348
 6337SOL    HW119910   4.969   3.577   6.265
 6337SOL    HW219911   5.067   3.503   6.372
 6338SOL     OW19912   2.827   2.256   2.557
 6338SOL    HW119913   2.757   2.289   2.494
 6338SOL    HW219914   2.901   2.214   2.506
 6339SOL     OW19915   0.351   2.394   3.521
 6339SOL    HW119916   0.419   2.327   3.494
 6339SOL    HW219917   0.262   2.370   3.482
 6340SOL     OW19918   2.454   5.571   3.138
 6340SOL    HW119919   2.431   5.586   3.234
 6340SOL    HW219920   2.546   5.606   3.120
 6341SOL     OW19921   6.686   4.546   3.673
 6341SOL    HW119922   6.672   4.455   3.710
 6341SOL    HW219923   6.735   4.602   3.739
 6342SOL     OW19924   2.485   2.514   2.550
 6342SOL    HW119925   2.582   2.499   2.568
 6342SOL    HW219926   2.432   2.491   2.632
 6343SOL     OW19927   5.035   2.620   0.341
 6343SOL    HW119928   4.976   2.696   0.368
 6343SOL    HW219929   4.999   2.535   0.380
 6344SOL     OW19930   6.762   3.078   5.518
 6344SOL    HW119931   6.781   3.074   5.420
 6344SOL    HW219932   6.816   3.151   5.559
 6345SOL     OW19933   4.363   1.320   2.537
 6345SOL    HW119934   4.354   1.314   2.437
 6345SOL    HW219935   4.409   1.406   2.560
 6346SOL     OW19936   6.476   3.443   3.322
 6346SOL    HW119937   6.551   3.428   3.387
 6346SOL    HW219938   6.398   3.384   3.347
 6347SOL     OW19939   3.224   0.513   1.380
 6347SOL    HW119940   3.189   0.575   1.450
 6347SOL    HW219941   3.147   0.470   1.333
 6348SOL     OW19942   0.631   3.842   4.873
 6348SOL    HW119943   0.554   3.876   4.819
 6348SOL    HW219944   0.630   3.884   4.964
 6349SOL     OW19945   2.703   1.243   1.901
 6349SOL    HW119946   2.785   1.199   1.938
 6349SOL    HW219947   2.709   1.246   1.801
 6350SOL     OW19948   1.725   5.193   3.627
 6350SOL    HW119949   1.815   5.164   3.659
 6350SOL    HW219950   1.679   5.245   3.699
 6351SOL     OW19951   6.329   2.616   2.457
 6351SOL    HW119952   6.342   2.715   2.454
 6351SOL    HW219953   6.286   2.590   2.543
 6352SOL     OW19954   1.242   5.368   3.651
 6352SOL    HW119955   1.315   5.413   3.600
 6352SOL    HW219956   1.281   5.319   3.729
 6353SOL     OW19957   6.703   0.559   6.361
 6353SOL    HW119958   6.720   0.505   6.444
 6353SOL    HW219959   6.791   0.585   6.320
 6354SOL     OW19960   1.080   6.406   2.671
 6354SOL    HW119961   1.146   6.333   2.685
 6354SOL    HW219962   1.124   6.494   2.687
 6355SOL     OW19963   0.558   4.136   4.727
 6355SOL    HW119964   0.653   4.135   4.758
 6355SOL    HW219965   0.497   4.120   4.804
 6356SOL     OW19966   5.181   4.910   2.215
 6356SOL    HW119967   5.167   4.834   2.278
 6356SOL    HW219968   5.092   4.948   2.189
 6357SOL     OW19969   4.531   2.611   0.368
 6357SOL    HW119970   4.569   2.561   0.445
 6357SOL    HW219971   4.541   2.709   0.384
 6358SOL     OW19972   6.794   2.494   4.409
 6358SOL    HW119973   6.761   2.400   4.420
 6358SOL    HW219974   6.893   2.496   4.418
 6359SOL     OW19975   6.892   0.340   5.122
 6359SOL    HW119976   6.986   0.346   5.157
 6359SOL    HW219977   6.881   0.404   5.046
 6360SOL     OW19978   2.482   4.731   3.880
 6360SOL    HW119979   2.542   4.809   3.863
 6360SOL    HW219980   2.395   4.764   3.917
 6361SOL     OW19981   4.694   6.573   6.351
 6361SOL    HW119982   4.619   6.638   6.335
 6361SOL    HW219983   4.698   6.551   6.448
 6362SOL     OW19984   6.005   4.808   0.033
 6362SOL    HW119985   5.996   4.860   6.972
 6362SOL    HW219986   5.966   4.716   0.019
 6363SOL     OW19987   2.081   5.766   3.985
 6363SOL    HW119988   2.032   5.850   3.962
 6363SOL    HW219989   2.019   5.704   4.034
 6364SOL     OW19990   3.088   1.870   5.602
 6364SOL    HW119991   3.122   1.926   5.678
 6364SOL    HW219992   3.056   1.929   5.529
 6365SOL     OW19993   4.691   6.890   4.339
 6365SOL    HW119994   4.639   6.954   4.283
 6365SOL    HW219995   4.774   6.935   4.372
 6366SOL     OW19996   0.692   5.469   5.409
 6366SOL    HW119997   0.724   5.386   5.364
 6366SOL    HW219998   0.747   5.485   5.491
 6367SOL     OW19999   5.018   0.535   3.918
 6367SOL    HW120000   4.976   0.599   3.982
 6367SOL    HW220001   4.947   0.479   3.876
 6368SOL     OW20002   3.379   6.910   4.128
 6368SOL    HW120003   3.340   6.915   4.036
 6368SOL    HW220004   3.464   6.963   4.131
 6369SOL     OW20005   3.305   5.041   4.315
 6369SOL    HW120006   3.372   5.045   4.241
 6369SOL    HW220007   3.219   5.002   4.280
 6370SOL     OW20008   0.640   2.574   2.335
 6370SOL    HW120009   0.686   2.491   2.303
 6370SOL    HW220010   0.552   2.549   2.377
 6371SOL     OW20011   4.963   2.880   3.386
 6371SOL    HW120012   4.949   2.953   3.452
 6371SOL    HW220013   4.875   2.850   3.349
 6372SOL     OW20014   3.206   6.724   1.710
 6372SOL    HW120015   3.245   6.812   1.735
 6372SOL    HW220016   3.110   6.736   1.683
 6373SOL     OW20017   6.305   4.393   5.080
 6373SOL    HW120018   6.280   4.297   5.090
 6373SOL    HW220019   6.362   4.421   5.158
 6374SOL     OW20020   3.522   3.475   3.706
 6374SOL    HW120021   3.488   3.446   3.616
 6374SOL    HW220022   3.557   3.569   3.699
 6375SOL     OW20023   0.963   1.072   3.100
 6375SOL    HW120024   0.891   1.079   3.032
 6375SOL    HW220025   1.052   1.064   3.054
 6376SOL     OW20026   0.172   1.601   5.301
 6376SOL    HW120027   0.261   1.558   5.289
 6376SOL    HW220028   0.107   1.562   5.236
 6377SOL     OW20029   6.682   0.486   5.740
 6377SOL    HW120030   6.639   0.506   5.828
 6377SOL    HW220031   6.611   0.479   5.669
 6378SOL     OW20032   4.864   4.592   3.359
 6378SOL    HW120033   4.848   4.625   3.266
 6378SOL    HW220034   4.777   4.582   3.406
 6379SOL     OW20035   2.014   4.966   4.252
 6379SOL    HW120036   1.976   5.003   4.337
 6379SOL    HW220037   2.114   4.976   4.253
 6380SOL     OW20038   1.272   1.212   5.579
 6380SOL    HW120039   1.284   1.131   5.637
 6380SOL    HW220040   1.191   1.199   5.521
 6381SOL     OW20041   3.028   3.116   2.222
 6381SOL    HW120042   3.083   3.180   2.169
 6381SOL    HW220043   2.941   3.159   2.248
 6382SOL     OW20044   1.476   2.585   6.609
 6382SOL    HW120045   1.492   2.608   6.513
 6382SOL    HW220046   1.451   2.668   6.659
 6383SOL     OW20047   1.992   2.145   3.914
 6383SOL    HW120048   2.052   2.222   3.938
 6383SOL    HW220049   1.963   2.154   3.819
 6384SOL     OW20050   6.417   4.799   1.734
 6384SOL    HW120051   6.398   4.882   1.788
 6384SOL    HW220052   6.423   4.823   1.638
 6385SOL     OW20053   6.243   4.618   4.162
 6385SOL    HW120054   6.326   4.599   4.110
 6385SOL    HW220055   6.214   4.536   4.210
 6386SOL     OW20056   2.534   5.008   0.663
 6386SOL    HW120057   2.592   4.948   0.719
 6386SOL    HW220058   2.587   5.046   0.588
 6387SOL     OW20059   0.921   2.170   6.442
 6387SOL    HW120060   0.857   2.208   6.376
 6387SOL    HW220061   0.920   2.226   6.525
 6388SOL     OW20062   3.924   4.566   1.315
 6388SOL    HW120063   3.968   4.606   1.234
 6388SOL    HW220064   3.972   4.482   1.341
 6389SOL     OW20065   0.720   6.411   2.403
 6389SOL    HW120066   0.797   6.361   2.364
 6389SOL    HW220067   0.735   6.426   2.501
 6390SOL     OW20068   7.021   2.733   3.007
 6390SOL    HW120069   0.045   2.716   2.921
 6390SOL    HW220070   0.063   2.743   3.082
 6391SOL     OW20071   3.275   0.834   0.411
 6391SOL    HW120072   3.175   0.836   0.422
 6391SOL    HW220073   3.299   0.767   0.341
 6392SOL     OW20074   2.155   6.568   4.080
 6392SOL    HW120075   2.133   6.478   4.118
 6392SOL    HW220076   2.197   6.556   3.990
 6393SOL     OW20077   5.785   6.679   1.683
 6393SOL    HW120078   5.846   6.669   1.605
 6393SOL    HW220079   5.700   6.722   1.654
 6394SOL     OW20080   2.634   4.900   1.092
 6394SOL    HW120081   2.597   4.973   1.034
 6394SOL    HW220082   2.666   4.939   1.178
 6395SOL     OW20083   5.984   1.734   1.153
 6395SOL    HW120084   6.066   1.741   1.098
 6395SOL    HW220085   5.982   1.644   1.198
 6396SOL     OW20086   5.492   3.086   6.205
 6396SOL    HW120087   5.517   3.022   6.277
 6396SOL    HW220088   5.458   3.035   6.126
 6397SOL     OW20089   6.650   1.809   6.815
 6397SOL    HW120090   6.721   1.877   6.833
 6397SOL    HW220091   6.683   1.718   6.843
 6398SOL     OW20092   3.304   1.077   1.816
 6398SOL    HW120093   3.294   1.138   1.895
 6398SOL    HW220094   3.385   1.102   1.764
 6399SOL     OW20095   1.631   5.663   6.632
 6399SOL    HW120096   1.554   5.600   6.625
 6399SOL    HW220097   1.689   5.655   6.550
 6400SOL     OW20098   2.208   5.697   3.025
 6400SOL    HW120099   2.193   5.702   2.926
 6400SOL    HW220100   2.293   5.647   3.043
 6401SOL     OW20101   0.145   4.544   3.863
 6401SOL    HW120102   0.139   4.579   3.770
 6401SOL    HW220103   0.109   4.451   3.866
 6402SOL     OW20104   2.700   0.700   2.431
 6402SOL    HW120105   2.613   0.657   2.456
 6402SOL    HW220106   2.740   0.650   2.353
 6403SOL     OW20107   0.760   5.667   6.567
 6403SOL    HW120108   0.681   5.635   6.619
 6403SOL    HW220109   0.772   5.609   6.486
 6404SOL     OW20110   4.101   1.708   3.511
 6404SOL    HW120111   4.109   1.728   3.413
 6404SOL    HW220112   4.191   1.682   3.547
 6405SOL     OW20113   1.885   1.810   2.935
 6405SOL    HW120114   1.929   1.900   2.936
 6405SOL    HW220115   1.786   1.821   2.923
 6406SOL     OW20116   1.378   1.607   3.287
 6406SOL    HW120117   1.459   1.552   3.266
 6406SOL    HW220118   1.407   1.702   3.303
 6407SOL     OW20119   3.288   6.663   4.174
 6407SOL    HW120120   3.189   6.672   4.161
 6407SOL    HW220121   3.332   6.752   4.158
 6408SOL     OW20122   6.066   2.311   6.805
 6408SOL    HW120123   5.995   2.366   6.850
 6408SOL    HW220124   6.091   2.354   6.718
 6409SOL     OW20125   6.749   4.249   2.705
 6409SOL    HW120126   6.823   4.270   2.769
 6409SOL    HW220127   6.712   4.158   2.725
 6410SOL     OW20128   2.128   1.818   0.657
 6410SOL    HW120129   2.185   1.745   0.619
 6410SOL    HW220130   2.060   1.779   0.718
 6411SOL     OW20131   0.750   2.413   3.221
 6411SOL    HW120132   0.698   2.373   3.146
 6411SOL    HW220133   0.688   2.439   3.295
 6412SOL     OW20134   7.021   3.239   5.454
 6412SOL    HW120135   0.092   3.248   5.424
 6412SOL    HW220136   7.017   3.224   5.552
 6413SOL     OW20137   5.897   4.913   1.967
 6413SOL    HW120138   5.916   4.838   1.903
 6413SOL    HW220139   5.854   4.876   2.049
 6414SOL     OW20140   5.926   0.966   1.755
 6414SOL    HW120141   6.018   0.987   1.787
 6414SOL    HW220142   5.859   1.007   1.818
 6415SOL     OW20143   2.774   2.351   2.810
 6415SOL    HW120144   2.805   2.338   2.715
 6415SOL    HW220145   2.675   2.359   2.812
 6416SOL     OW20146   1.104   1.044   6.491
 6416SOL    HW120147   1.040   0.988   6.543
 6416SOL    HW220148   1.193   0.999   6.486
 6417SOL     OW20149   0.696   6.081   3.110
 6417SOL    HW120150   0.738   6.155   3.057
 6417SOL    HW220151   0.691   6.108   3.206
 6418SOL     OW20152   6.632   4.956   2.509
 6418SOL    HW120153   6.606   5.014   2.432
 6418SOL    HW220154   6.731   4.960   2.522
 6419SOL     OW20155   3.389   5.640   1.823
 6419SOL    HW120156   3.475   5.662   1.777
 6419SOL    HW220157   3.315   5.636   1.756
 6420SOL     OW20158   3.219   3.296   6.114
 6420SOL    HW120159   3.146   3.286   6.046
 6420SOL    HW220160   3.252   3.390   6.113
 6421SOL     OW20161   6.226   1.421   1.260
 6421SOL    HW120162   6.272   1.370   1.333
 6421SOL    HW220163   6.223   1.518   1.285
 6422SOL     OW20164   6.837   0.058   3.457
 6422SOL    HW120165   6.782   0.081   3.538
 6422SOL    HW220166   6.926   0.022   3.487
 6423SOL     OW20167   4.939   4.035   1.458
 6423SOL    HW120168   5.032   4.069   1.470
 6423SOL    HW220169   4.878   4.110   1.433
 6424SOL     OW20170   6.765   4.158   6.149
 6424SOL    HW120171   6.671   4.187   6.166
 6424SOL    HW220172   6.768   4.099   6.069
 6425SOL     OW20173   6.919   4.681   3.473
 6425SOL    HW120174   6.893   4.640   3.561
 6425SOL    HW220175   6.987   4.752   3.489
 6426SOL     OW20176   0.938   2.753   4.128
 6426SOL    HW120177   0.874   2.830   4.124
 6426SOL    HW220178   0.962   2.735   4.224
 6427SOL     OW20179   1.382   3.666   6.718
 6427SOL    HW120180   1.336   3.586   6.757
 6427SOL    HW220181   1.316   3.723   6.671
 6428SOL     OW20182   6.538   3.854   1.507
 6428SOL    HW120183   6.478   3.807   1.571
 6428SOL    HW220184   6.538   3.952   1.527
 6429SOL     OW20185   1.670   0.794   4.545
 6429SOL    HW120186   1.699   0.704   4.577
 6429SOL    HW220187   1.575   0.810   4.573
 6430SOL     OW20188   4.521   0.650   1.914
 6430SOL    HW120189   4.588   0.701   1.861
 6430SOL    HW220190   4.459   0.715   1.959
 6431SOL     OW20191   5.507   0.029   3.750
 6431SOL    HW120192   5.460   0.100   3.802
 6431SOL    HW220193   5.505   6.968   3.801
 6432SOL     OW20194   4.187   4.307   0.351
 6432SOL    HW120195   4.169   4.358   0.267
 6432SOL    HW220196   4.115   4.324   0.418
 6433SOL     OW20197   3.120   4.802   1.126
 6433SOL    HW120198   3.123   4.882   1.066
 6433SOL    HW220199   3.133   4.830   1.221
 6434SOL     OW20200   1.367   3.664   1.062
 6434SOL    HW120201   1.453   3.670   1.111
 6434SOL    HW220202   1.347   3.752   1.019
 6435SOL     OW20203   3.634   5.296   6.968
 6435SOL    HW120204   3.548   5.250   6.988
 6435SOL    HW220205   3.628   5.392   6.994
 6436SOL     OW20206   1.813   3.040   3.502
 6436SOL    HW120207   1.726   3.018   3.544
 6436SOL    HW220208   1.800   3.058   3.404
 6437SOL     OW20209   1.781   1.565   0.135
 6437SOL    HW120210   1.706   1.603   0.081
 6437SOL    HW220211   1.746   1.492   0.194
 6438SOL     OW20212   0.399   4.112   5.304
 6438SOL    HW120213   0.399   4.195   5.359
 6438SOL    HW220214   0.305   4.089   5.277
 6439SOL     OW20215   0.695   6.609   0.678
 6439SOL    HW120216   0.619   6.646   0.625
 6439SOL    HW220217   0.671   6.518   0.712
 6440SOL     OW20218   2.302   2.315   1.872
 6440SOL    HW120219   2.204   2.298   1.860
 6440SOL    HW220220   2.316   2.400   1.922
 6441SOL     OW20221   1.474   0.628   2.382
 6441SOL    HW120222   1.519   0.647   2.295
 6441SOL    HW220223   1.393   0.571   2.366
 6442SOL     OW20224   2.698   1.708   4.131
 6442SOL    HW120225   2.713   1.609   4.142
 6442SOL    HW220226   2.648   1.743   4.210
 6443SOL     OW20227   3.290   3.025   0.510
 6443SOL    HW120228   3.313   2.976   0.593
 6443SOL    HW220229   3.368   3.021   0.446
 6444SOL     OW20230   0.211   2.497   3.123
 6444SOL    HW120231   0.238   2.574   3.182
 6444SOL    HW220232   0.244   2.513   3.030
 6445SOL     OW20233   4.365   2.456   5.277
 6445SOL    HW120234   4.283   2.505   5.249
 6445SOL    HW220235   4.344   2.359   5.289
 6446SOL     OW20236   0.147   1.311   5.959
 6446SOL    HW120237   0.221   1.263   6.006
 6446SOL    HW220238   0.120   1.391   6.012
 6447SOL     OW20239   0.652   6.021   2.461
 6447SOL    HW120240   0.737   6.048   2.416
 6447SOL    HW220241   0.622   5.932   2.427
 6448SOL     OW20242   6.320   4.092   2.432
 6448SOL    HW120243   6.257   4.144   2.489
 6448SOL    HW220244   6.407   4.140   2.425
 6449SOL     OW20245   3.787   4.046   1.798
 6449SOL    HW120246   3.806   4.119   1.733
 6449SOL    HW220247   3.716   4.076   1.861
 6450SOL     OW20248   6.535   2.927   1.828
 6450SOL    HW120249   6.602   2.990   1.787
 6450SOL    HW220250   6.544   2.837   1.786
 6451SOL     OW20251   3.176   6.495   5.640
 6451SOL    HW120252   3.194   6.517   5.736
 6451SOL    HW220253   3.079   6.511   5.620
 6452SOL     OW20254   3.889   0.057   4.829
 6452SOL    HW120255   3.956   0.092   4.894
 6452SOL    HW220256   3.803   0.107   4.839
 6453SOL     OW20257   1.246   6.681   0.160
 6453SOL    HW120258   1.342   6.656   0.163
 6453SOL    HW220259   1.218   6.694   0.065
 6454SOL     OW20260   2.720   1.482   3.882
 6454SOL    HW120261   2.812   1.519   3.869
 6454SOL    HW220262   2.691   1.499   3.976
 6455SOL     OW20263   0.586   2.490   4.639
 6455SOL    HW120264   0.622   2.408   4.683
 6455SOL    HW220265   0.617   2.571   4.689
 6456SOL     OW20266   1.593   0.368   3.401
 6456SOL    HW120267   1.689   0.361   3.374
 6456SOL    HW220268   1.587   0.384   3.500
 6457SOL     OW20269   5.536   1.714   1.241
 6457SOL    HW120270   5.564   1.624   1.207
 6457SOL    HW220271   5.479   1.759   1.172
 6458SOL     OW20272   0.774   6.385   2.666
 6458SOL    HW120273   0.747   6.291   2.649
 6458SOL    HW220274   0.873   6.395   2.654
 6459SOL     OW20275   5.641   5.516   0.505
 6459SOL    HW120276   5.579   5.438   0.493
 6459SOL    HW220277   5.633   5.551   0.598
 6460SOL     OW20278   4.130   4.741   6.690
 6460SOL    HW120279   4.179   4.696   6.764
 6460SOL    HW220280   4.034   4.713   6.691
 6461SOL     OW20281   3.017   5.596   5.269
 6461SOL    HW120282   3.025   5.677   5.326
 6461SOL    HW220283   2.948   5.611   5.199
 6462SOL     OW20284   2.183   3.186   5.200
 6462SOL    HW120285   2.246   3.233   5.262
 6462SOL    HW220286   2.235   3.141   5.127
 6463SOL     OW20287   2.996   4.826   6.382
 6463SOL    HW120288   2.918   4.793   6.330
 6463SOL    HW220289   3.046   4.748   6.420
 6464SOL     OW20290   0.647   4.754   4.036
 6464SOL    HW120291   0.654   4.789   3.943
 6464SOL    HW220292   0.602   4.665   4.035
 6465SOL     OW20293   5.780   2.303   3.540
 6465SOL    HW120294   5.861   2.264   3.496
 6465SOL    HW220295   5.728   2.356   3.473
 6466SOL     OW20296   6.697   2.634   5.075
 6466SOL    HW120297   6.721   2.706   5.140
 6466SOL    HW220298   6.769   2.625   5.007
 6467SOL     OW20299   2.321   1.291   6.472
 6467SOL    HW120300   2.389   1.363   6.472
 6467SOL    HW220301   2.242   1.319   6.417
 6468SOL     OW20302   3.774   6.052   1.332
 6468SOL    HW120303   3.755   5.973   1.391
 6468SOL    HW220304   3.873   6.068   1.329
 6469SOL     OW20305   5.794   1.095   5.399
 6469SOL    HW120306   5.774   1.182   5.445
 6469SOL    HW220307   5.890   1.094   5.369
 6470SOL     OW20308   6.653   5.431   6.359
 6470SOL    HW120309   6.659   5.331   6.367
 6470SOL    HW220310   6.738   5.471   6.394
 6471SOL     OW20311   6.877   5.636   6.311
 6471SOL    HW120312   6.867   5.614   6.407
 6471SOL    HW220313   6.936   5.568   6.267
 6472SOL     OW20314   0.926   5.646   0.990
 6472SOL    HW120315   0.859   5.698   0.937
 6472SOL    HW220316   1.003   5.705   1.013
 6473SOL     OW20317   2.257   1.371   5.858
 6473SOL    HW120318   2.286   1.283   5.896
 6473SOL    HW220319   2.337   1.421   5.824
 6474SOL     OW20320   1.770   4.003   6.015
 6474SOL    HW120321   1.683   3.981   6.060
 6474SOL    HW220322   1.752   4.049   5.928
 6475SOL     OW20323   6.192   6.133   3.980
 6475SOL    HW120324   6.257   6.175   3.916
 6475SOL    HW220325   6.242   6.076   4.045
 6476SOL     OW20326   4.944   4.288   2.329
 6476SOL    HW120327   4.865   4.292   2.268
 6476SOL    HW220328   4.965   4.380   2.364
 6477SOL     OW20329   6.507   4.763   0.228
 6477SOL    HW120330   6.481   4.824   0.153
 6477SOL    HW220331   6.558   4.815   0.297
 6478SOL     OW20332   3.455   5.979   2.168
 6478SOL    HW120333   3.454   6.028   2.255
 6478SOL    HW220334   3.416   5.887   2.180
 6479SOL     OW20335   4.286   4.948   2.364
 6479SOL    HW120336   4.308   4.858   2.403
 6479SOL    HW220337   4.190   4.949   2.336
 6480SOL     OW20338   3.952   2.735   5.835
 6480SOL    HW120339   4.000   2.807   5.885
 6480SOL    HW220340   3.868   2.711   5.884
 6481SOL     OW20341   3.391   2.276   1.652
 6481SOL    HW120342   3.405   2.205   1.582
 6481SOL    HW220343   3.477   2.290   1.702
 6482SOL     OW20344   6.749   0.678   0.202
 6482SOL    HW120345   6.703   0.734   0.133
 6482SOL    HW220346   6.848   0.683   0.189
 6483SOL     OW20347   2.549   6.325   2.311
 6483SOL    HW120348   2.469   6.277   2.276
 6483SOL    HW220349   2.572   6.291   2.402
 6484SOL     OW20350   4.477   0.449   2.438
 6484SOL    HW120351   4.414   0.461   2.515
 6484SOL    HW220352   4.539   0.527   2.434
 6485SOL     OW20353   1.505   3.175   3.499
 6485SOL    HW120354   1.537   3.264   3.533
 6485SOL    HW220355   1.550   3.102   3.550
 6486SOL     OW20356   1.342   4.203   4.059
 6486SOL    HW120357   1.306   4.183   3.968
 6486SOL    HW220358   1.271   4.189   4.127
 6487SOL     OW20359   6.316   5.638   4.586
 6487SOL    HW120360   6.356   5.730   4.593
 6487SOL    HW220361   6.263   5.631   4.501
 6488SOL     OW20362   3.211   5.929   5.617
 6488SOL    HW120363   3.290   5.983   5.648
 6488SOL    HW220364   3.230   5.832   5.632
 6489SOL     OW20365   1.982   2.740   6.798
 6489SOL    HW120366   2.051   2.800   6.757
 6489SOL    HW220367   2.028   2.666   6.847
 6490SOL     OW20368   3.824   2.358   0.321
 6490SOL    HW120369   3.884   2.427   0.280
 6490SOL    HW220370   3.879   2.276   0.343
 6491SOL     OW20371   4.074   1.463   6.777
 6491SOL    HW120372   4.138   1.388   6.795
 6491SOL    HW220373   4.039   1.497   6.864
 6492SOL     OW20374   5.856   6.805   6.960
 6492SOL    HW120375   5.772   6.838   6.918
 6492SOL    HW220376   5.935   6.837   6.907
 6493SOL     OW20377   1.766   6.529   5.312
 6493SOL    HW120378   1.731   6.444   5.273
 6493SOL    HW220379   1.844   6.509   5.371
 6494SOL     OW20380   0.500   0.435   3.343
 6494SOL    HW120381   0.466   0.529   3.350
 6494SOL    HW220382   0.600   0.437   3.333
 6495SOL     OW20383   5.032   5.674   3.631
 6495SOL    HW120384   4.978   5.739   3.686
 6495SOL    HW220385   5.053   5.594   3.687
 6496SOL     OW20386   6.938   6.236   2.147
 6496SOL    HW120387   6.946   6.172   2.070
 6496SOL    HW220388   6.959   6.188   2.232
 6497SOL     OW20389   2.528   3.431   1.047
 6497SOL    HW120390   2.502   3.334   1.047
 6497SOL    HW220391   2.496   3.474   1.132
 6498SOL     OW20392   2.427   5.215   3.904
 6498SOL    HW120393   2.427   5.308   3.942
 6498SOL    HW220394   2.454   5.150   3.974
 6499SOL     OW20395   5.043   0.940   5.267
 6499SOL    HW120396   5.071   0.980   5.179
 6499SOL    HW220397   5.122   0.894   5.308
 6500SOL     OW20398   6.182   3.878   3.508
 6500SOL    HW120399   6.267   3.927   3.488
 6500SOL    HW220400   6.183   3.847   3.603
 6501SOL     OW20401   6.316   3.263   1.291
 6501SOL    HW120402   6.404   3.309   1.282
 6501SOL    HW220403   6.259   3.312   1.358
 6502SOL     OW20404   0.392   4.287   3.609
 6502SOL    HW120405   0.451   4.304   3.688
 6502SOL    HW220406   0.338   4.205   3.624
 6503SOL     OW20407   5.760   6.545   3.752
 6503SOL    HW120408   5.709   6.549   3.666
 6503SOL    HW220409   5.832   6.614   3.752
 6504SOL     OW20410   4.133   6.710   6.124
 6504SOL    HW120411   4.173   6.769   6.194
 6504SOL    HW220412   4.046   6.673   6.157
 6505SOL     OW20413   6.260   4.407   1.102
 6505SOL    HW120414   6.299   4.487   1.148
 6505SOL    HW220415   6.273   4.417   1.003
 6506SOL     OW20416   0.989   3.213   1.091
 6506SOL    HW120417   1.027   3.120   1.083
 6506SOL    HW220418   0.999   3.245   1.185
 6507SOL     OW20419   1.345   5.835   0.613
 6507SOL    HW120420   1.444   5.824   0.606
 6507SOL    HW220421   1.300   5.763   0.560
 6508SOL     OW20422   2.308   1.828   3.647
 6508SOL    HW120423   2.383   1.786   3.697
 6508SOL    HW220424   2.294   1.779   3.561
 6509SOL     OW20425   1.580   2.654   4.922
 6509SOL    HW120426   1.523   2.720   4.971
 6509SOL    HW220427   1.587   2.683   4.826
 6510SOL     OW20428   7.003   5.039   6.374
 6510SOL    HW120429   0.005   5.033   6.470
 6510SOL    HW220430   6.969   4.950   6.343
 6511SOL     OW20431   6.220   0.421   4.949
 6511SOL    HW120432   6.316   0.397   4.960
 6511SOL    HW220433   6.201   0.438   4.852
 6512SOL     OW20434   4.771   6.784   3.040
 6512SOL    HW120435   4.870   6.774   3.040
 6512SOL    HW220436   4.735   6.769   2.948
 6513SOL     OW20437   3.512   6.526   4.113
 6513SOL    HW120438   3.499   6.427   4.108
 6513SOL    HW220439   3.423   6.570   4.128
 6514SOL     OW20440   4.968   0.058   4.279
 6514SOL    HW120441   4.946   0.008   4.363
 6514SOL    HW220442   4.901   0.036   4.208
 6515SOL     OW20443   6.860   4.984   4.136
 6515SOL    HW120444   6.892   5.025   4.051
 6515SOL    HW220445   6.929   4.920   4.170
 6516SOL     OW20446   0.230   1.516   6.774
 6516SOL    HW120447   0.269   1.567   6.698
 6516SOL    HW220448   0.250   1.563   6.860
 6517SOL     OW20449   6.798   1.678   0.513
 6517SOL    HW120450   6.777   1.600   0.454
 6517SOL    HW220451   6.888   1.716   0.488
 6518SOL     OW20452   0.935   6.263   0.176
 6518SOL    HW120453   1.032   6.250   0.157
 6518SOL    HW220454   0.883   6.185   0.140
 6519SOL     OW20455   2.784   1.856   3.908
 6519SOL    HW120456   2.756   1.809   3.992
 6519SOL    HW220457   2.857   1.921   3.930
 6520SOL     OW20458   6.519   5.684   2.906
 6520SOL    HW120459   6.424   5.715   2.911
 6520SOL    HW220460   6.534   5.635   2.819
 6521SOL     OW20461   1.178   1.112   4.298
 6521SOL    HW120462   1.175   1.053   4.217
 6521SOL    HW220463   1.254   1.085   4.355
 6522SOL     OW20464   2.435   5.502   6.667
 6522SOL    HW120465   2.489   5.441   6.724
 6522SOL    HW220466   2.482   5.516   6.580
 6523SOL     OW20467   2.885   1.348   6.495
 6523SOL    HW120468   2.793   1.363   6.531
 6523SOL    HW220469   2.903   1.412   6.421
 6524SOL     OW20470   3.738   3.363   4.034
 6524SOL    HW120471   3.823   3.312   4.043
 6524SOL    HW220472   3.671   3.307   3.985
 6525SOL     OW20473   1.273   2.487   2.730
 6525SOL    HW120474   1.346   2.554   2.745
 6525SOL    HW220475   1.222   2.512   2.647
 6526SOL     OW20476   0.920   6.804   5.135
 6526SOL    HW120477   0.995   6.869   5.148
 6526SOL    HW220478   0.837   6.853   5.110
 6527SOL     OW20479   1.397   1.031   4.800
 6527SOL    HW120480   1.337   1.003   4.875
 6527SOL    HW220481   1.361   1.115   4.758
 6528SOL     OW20482   0.083   0.671   4.161
 6528SOL    HW120483   0.156   0.675   4.229
 6528SOL    HW220484   0.103   0.736   4.087
 6529SOL     OW20485   5.641   1.785   3.084
 6529SOL    HW120486   5.706   1.768   3.009
 6529SOL    HW220487   5.558   1.732   3.068
 6530SOL     OW20488   6.526   2.984   0.661
 6530SOL    HW120489   6.599   2.918   0.678
 6530SOL    HW220490   6.507   3.036   0.744
 6531SOL     OW20491   5.578   2.399   3.931
 6531SOL    HW120492   5.564   2.362   4.023
 6531SOL    HW220493   5.625   2.487   3.939
 6532SOL     OW20494   6.484   1.691   0.168
 6532SOL    HW120495   6.579   1.678   0.197
 6532SOL    HW220496   6.447   1.605   0.134
 6533SOL     OW20497   5.782   6.469   1.019
 6533SOL    HW120498   5.715   6.500   1.087
 6533SOL    HW220499   5.765   6.515   0.932
 6534SOL     OW20500   2.478   3.991   1.044
 6534SOL    HW120501   2.399   3.931   1.061
 6534SOL    HW220502   2.545   3.942   0.987
 6535SOL     OW20503   0.305   2.684   4.985
 6535SOL    HW120504   0.329   2.711   4.892
 6535SOL    HW220505   0.206   2.694   4.998
 6536SOL     OW20506   6.064   2.412   6.558
 6536SOL    HW120507   6.055   2.319   6.524
 6536SOL    HW220508   5.984   2.465   6.530
 6537SOL     OW20509   6.655   6.722   6.424
 6537SOL    HW120510   6.712   6.667   6.363
 6537SOL    HW220511   6.655   6.681   6.515
 6538SOL     OW20512   3.923   4.027   0.311
 6538SOL    HW120513   4.023   4.032   0.308
 6538SOL    HW220514   3.894   3.932   0.297
 6539SOL     OW20515   2.290   1.956   6.500
 6539SOL    HW120516   2.314   2.048   6.469
 6539SOL    HW220517   2.190   1.945   6.498
 6540SOL     OW20518   3.957   1.931   4.475
 6540SOL    HW120519   3.902   2.012   4.496
 6540SOL    HW220520   3.933   1.897   4.385
 6541SOL     OW20521   2.963   2.191   5.185
 6541SOL    HW120522   2.894   2.202   5.114
 6541SOL    HW220523   3.054   2.210   5.148
 6542SOL     OW20524   6.270   4.974   3.299
 6542SOL    HW120525   6.202   4.976   3.372
 6542SOL    HW220526   6.314   4.884   3.296
 6543SOL     OW20527   6.084   5.098   0.032
 6543SOL    HW120528   5.994   5.135   0.010
 6543SOL    HW220529   6.100   5.102   0.130
 6544SOL     OW20530   0.243   6.337   4.332
 6544SOL    HW120531   0.172   6.380   4.274
 6544SOL    HW220532   0.205   6.321   4.423
 6545SOL     OW20533   5.049   1.174   6.052
 6545SOL    HW120534   5.017   1.215   6.138
 6545SOL    HW220535   4.995   1.092   6.033
 6546SOL     OW20536   4.336   4.195   6.166
 6546SOL    HW120537   4.253   4.250   6.177
 6546SOL    HW220538   4.339   4.124   6.237
 6547SOL     OW20539   4.425   2.004   6.098
 6547SOL    HW120540   4.383   2.019   6.187
 6547SOL    HW220541   4.354   2.007   6.027
 6548SOL     OW20542   0.365   4.457   6.193
 6548SOL    HW120543   0.348   4.543   6.240
 6548SOL    HW220544   0.279   4.406   6.186
 6549SOL     OW20545   4.035   1.911   1.402
 6549SOL    HW120546   4.072   1.849   1.332
 6549SOL    HW220547   3.953   1.955   1.367
 6550SOL     OW20548   0.405   5.615   3.466
 6550SOL    HW120549   0.440   5.521   3.476
 6550SOL    HW220550   0.467   5.668   3.410
 6551SOL     OW20551   2.607   4.341   1.534
 6551SOL    HW120552   2.695   4.375   1.567
 6551SOL    HW220553   2.568   4.278   1.600
 6552SOL     OW20554   2.293   5.667   5.404
 6552SOL    HW120555   2.210   5.611   5.403
 6552SOL    HW220556   2.270   5.760   5.430
 6553SOL     OW20557   0.367   3.075   1.537
 6553SOL    HW120558   0.408   2.988   1.563
 6553SOL    HW220559   0.340   3.072   1.441
 6554SOL     OW20560   5.907   1.492   5.760
 6554SOL    HW120561   5.902   1.412   5.819
 6554SOL    HW220562   5.839   1.484   5.687
 6555SOL     OW20563   1.662   0.737   2.123
 6555SOL    HW120564   1.666   0.638   2.113
 6555SOL    HW220565   1.642   0.780   2.035
 6556SOL     OW20566   4.769   4.627   5.037
 6556SOL    HW120567   4.850   4.672   5.075
 6556SOL    HW220568   4.791   4.587   4.948
 6557SOL     OW20569   5.900   5.807   0.517
 6557SOL    HW120570   5.907   5.719   0.471
 6557SOL    HW220571   5.928   5.879   0.453
 6558SOL     OW20572   6.623   5.832   0.813
 6558SOL    HW120573   6.569   5.853   0.894
 6558SOL    HW220574   6.604   5.738   0.783
 6559SOL     OW20575   4.837   3.644   1.184
 6559SOL    HW120576   4.872   3.591   1.260
 6559SOL    HW220577   4.737   3.646   1.187
 6560SOL     OW20578   3.620   2.892   1.209
 6560SOL    HW120579   3.578   2.807   1.239
 6560SOL    HW220580   3.709   2.873   1.168
 6561SOL     OW20581   4.137   3.671   2.245
 6561SOL    HW120582   4.162   3.666   2.148
 6561SOL    HW220583   4.106   3.763   2.267
 6562SOL     OW20584   6.672   4.496   6.166
 6562SOL    HW120585   6.738   4.532   6.232
 6562SOL    HW220586   6.649   4.402   6.189
 6563SOL     OW20587   0.439   5.721   6.964
 6563SOL    HW120588   0.413   5.817   6.951
 6563SOL    HW220589   0.519   5.716   0.000
 6564SOL     OW20590   1.156   3.680   2.208
 6564SOL    HW120591   1.222   3.719   2.144
 6564SOL    HW220592   1.087   3.629   2.157
 6565SOL     OW20593   5.540   2.629   4.963
 6565SOL    HW120594   5.542   2.551   4.900
 6565SOL    HW220595   5.629   2.674   4.962
 6566SOL     OW20596   3.485   0.428   1.403
 6566SOL    HW120597   3.554   0.475   1.348
 6566SOL    HW220598   3.394   0.464   1.381
 6567SOL     OW20599   5.104   2.846   1.220
 6567SOL    HW120600   5.046   2.926   1.235
 6567SOL    HW220601   5.127   2.804   1.307
 6568SOL     OW20602   4.415   4.862   1.932
 6568SOL    HW120603   4.356   4.809   1.991
 6568SOL    HW220604   4.406   4.830   1.838
 6569SOL     OW20605   2.428   5.360   0.659
 6569SOL    HW120606   2.405   5.439   0.715
 6569SOL    HW220607   2.413   5.383   0.562
 6570SOL     OW20608   4.896   0.040   1.981
 6570SOL    HW120609   4.938   0.121   1.939
 6570SOL    HW220610   4.864   0.063   2.073
 6571SOL     OW20611   2.297   6.373   3.163
 6571SOL    HW120612   2.315   6.369   3.262
 6571SOL    HW220613   2.235   6.299   3.138
 6572SOL     OW20614   5.902   4.238   5.409
 6572SOL    HW120615   5.964   4.177   5.358
 6572SOL    HW220616   5.882   4.198   5.499
 6573SOL     OW20617   3.641   0.771   2.556
 6573SOL    HW120618   3.561   0.789   2.614
 6573SOL    HW220619   3.721   0.756   2.614
 6574SOL     OW20620   2.225   6.407   2.036
 6574SOL    HW120621   2.146   6.364   2.082
 6574SOL    HW220622   2.205   6.417   1.939
 6575SOL     OW20623   0.775   1.144   1.943
 6575SOL    HW120624   0.718   1.096   1.877
 6575SOL    HW220625   0.871   1.120   1.930
 6576SOL     OW20626   1.117   6.304   6.506
 6576SOL    HW120627   1.026   6.279   6.539
 6576SOL    HW220628   1.173   6.222   6.495
 6577SOL     OW20629   0.401   1.754   3.798
 6577SOL    HW120630   0.390   1.762   3.699
 6577SOL    HW220631   0.422   1.659   3.821
 6578SOL     OW20632   6.178   5.360   3.561
 6578SOL    HW120633   6.124   5.319   3.486
 6578SOL    HW220634   6.169   5.303   3.642
 6579SOL     OW20635   6.792   3.800   3.926
 6579SOL    HW120636   6.843   3.717   3.906
 6579SOL    HW220637   6.848   3.880   3.903
 6580SOL     OW20638   5.881   0.768   1.125
 6580SOL    HW120639   5.885   0.868   1.116
 6580SOL    HW220640   5.961   0.727   1.080
 6581SOL     OW20641   3.793   1.334   5.385
 6581SOL    HW120642   3.779   1.433   5.387
 6581SOL    HW220643   3.883   1.313   5.424
 6582SOL     OW20644   0.966   0.064   2.594
 6582SOL    HW120645   0.984   6.990   2.598
 6582SOL    HW220646   0.948   0.091   2.500
 6583SOL     OW20647   5.308   1.827   6.401
 6583SOL    HW120648   5.257   1.898   6.353
 6583SOL    HW220649   5.248   1.750   6.420
 6584SOL     OW20650   5.928   1.867   6.487
 6584SOL    HW120651   5.899   1.796   6.552
 6584SOL    HW220652   5.972   1.942   6.536
 6585SOL     OW20653   0.073   1.539   0.188
 6585SOL    HW120654   0.032   1.507   0.273
 6585SOL    HW220655   0.172   1.547   0.200
 6586SOL     OW20656   6.661   2.623   5.773
 6586SOL    HW120657   6.659   2.524   5.785
 6586SOL    HW220658   6.578   2.663   5.811
 6587SOL     OW20659   2.447   5.670   4.317
 6587SOL    HW120660   2.527   5.612   4.331
 6587SOL    HW220661   2.418   5.664   4.221
 6588SOL     OW20662   1.526   4.162   0.956
 6588SOL    HW120663   1.585   4.144   1.034
 6588SOL    HW220664   1.581   4.188   0.877
 6589SOL     OW20665   4.505   0.448   6.630
 6589SOL    HW120666   4.552   0.492   6.706
 6589SOL    HW220667   4.559   0.458   6.547
 6590SOL     OW20668   0.200   1.539   4.641
 6590SOL    HW120669   0.272   1.579   4.699
 6590SOL    HW220670   0.144   1.612   4.602
 6591SOL     OW20671   5.816   6.790   2.795
 6591SOL    HW120672   5.834   6.838   2.709
 6591SOL    HW220673   5.769   6.851   2.858
 6592SOL     OW20674   4.257   0.424   4.592
 6592SOL    HW120675   4.205   0.343   4.619
 6592SOL    HW220676   4.268   0.424   4.493
 6593SOL     OW20677   2.641   2.385   3.734
 6593SOL    HW120678   2.624   2.480   3.758
 6593SOL    HW220679   2.677   2.336   3.814
 6594SOL     OW20680   4.662   0.857   0.005
 6594SOL    HW120681   4.627   0.764   0.007
 6594SOL    HW220682   4.655   0.898   0.096
 6595SOL     OW20683   1.464   3.814   1.551
 6595SOL    HW120684   1.370   3.790   1.527
 6595SOL    HW220685   1.513   3.844   1.469
 6596SOL     OW20686   4.091   0.506   6.061
 6596SOL    HW120687   4.029   0.535   6.133
 6596SOL    HW220688   4.150   0.582   6.034
 6597SOL     OW20689   0.723   6.310   4.540
 6597SOL    HW120690   0.709   6.222   4.496
 6597SOL    HW220691   0.640   6.335   4.592
 6598SOL     OW20692   1.596   5.276   5.024
 6598SOL    HW120693   1.656   5.344   5.066
 6598SOL    HW220694   1.555   5.315   4.942
 6599SOL     OW20695   4.170   4.733   6.068
 6599SOL    HW120696   4.252   4.790   6.074
 6599SOL    HW220697   4.163   4.675   6.148
 6600SOL     OW20698   5.179   4.935   4.875
 6600SOL    HW120699   5.248   4.885   4.821
 6600SOL    HW220700   5.172   5.029   4.842
 6601SOL     OW20701   0.335   0.338   0.150
 6601SOL    HW120702   0.407   0.287   0.103
 6601SOL    HW220703   0.310   0.418   0.096
 6602SOL     OW20704   0.529   2.666   1.078
 6602SOL    HW120705   0.486   2.740   1.027
 6602SOL    HW220706   0.460   2.595   1.097
 6603SOL     OW20707   1.928   3.298   4.070
 6603SOL    HW120708   1.972   3.272   4.156
 6603SOL    HW220709   1.968   3.246   3.995
 6604SOL     OW20710   2.676   5.810   1.881
 6604SOL    HW120711   2.722   5.762   1.956
 6604SOL    HW220712   2.666   5.907   1.903
 6605SOL     OW20713   5.236   5.461   0.398
 6605SOL    HW120714   5.293   5.522   0.343
 6605SOL    HW220715   5.186   5.516   0.466
 6606SOL     OW20716   4.894   0.340   2.460
 6606SOL    HW120717   4.864   0.271   2.395
 6606SOL    HW220718   4.938   0.296   2.538
 6607SOL     OW20719   1.936   1.473   2.139
 6607SOL    HW120720   1.873   1.460   2.216
 6607SOL    HW220721   1.910   1.556   2.089
 6608SOL     OW20722   5.525   3.337   2.772
 6608SOL    HW120723   5.529   3.405   2.699
 6608SOL    HW220724   5.442   3.351   2.826
 6609SOL     OW20725   5.236   0.580   6.952
 6609SOL    HW120726   5.156   0.555   7.008
 6609SOL    HW220727   5.223   0.672   6.915
 6610SOL     OW20728   1.654   0.502   6.918
 6610SOL    HW120729   1.639   0.433   6.989
 6610SOL    HW220730   1.728   0.563   6.946
 6611SOL     OW20731   6.779   2.693   3.109
 6611SOL    HW120732   6.860   2.711   3.053
 6611SOL    HW220733   6.801   2.623   3.177
 6612SOL     OW20734   1.621   5.296   6.681
 6612SOL    HW120735   1.566   5.322   6.601
 6612SOL    HW220736   1.591   5.348   6.761
 6613SOL     OW20737   5.285   5.532   3.445
 6613SOL    HW120738   5.285   5.473   3.526
 6613SOL    HW220739   5.378   5.541   3.411
 6614SOL     OW20740   4.862   6.432   6.101
 6614SOL    HW120741   4.953   6.408   6.068
 6614SOL    HW220742   4.869   6.509   6.164
 6615SOL     OW20743   0.300   3.606   4.846
 6615SOL    HW120744   0.255   3.540   4.906
 6615SOL    HW220745   0.292   3.697   4.887
 6616SOL     OW20746   4.180   1.503   5.996
 6616SOL    HW120747   4.266   1.513   5.945
 6616SOL    HW220748   4.186   1.557   6.080
 6617SOL     OW20749   3.587   7.005   3.797
 6617SOL    HW120750   3.536   0.066   3.787
 6617SOL    HW220751   3.646   7.011   3.877
 6618SOL     OW20752   0.999   3.543   1.989
 6618SOL    HW120753   0.915   3.586   1.955
 6618SOL    HW220754   0.991   3.444   1.982
 6619SOL     OW20755   4.359   6.833   4.122
 6619SOL    HW120756   4.409   6.847   4.037
 6619SOL    HW220757   4.383   6.744   4.161
 6620SOL     OW20758   1.608   2.821   5.913
 6620SOL    HW120759   1.598   2.910   5.957
 6620SOL    HW220760   1.680   2.825   5.845
 6621SOL     OW20761   2.624   4.074   0.374
 6621SOL    HW120762   2.576   3.987   0.386
 6621SOL    HW220763   2.718   4.065   0.408
 6622SOL     OW20764   6.340   5.992   1.145
 6622SOL    HW120765   6.270   6.062   1.128
 6622SOL    HW220766   6.309   5.930   1.217
 6623SOL     OW20767   3.798   3.153   1.755
 6623SOL    HW120768   3.796   3.091   1.677
 6623SOL    HW220769   3.771   3.245   1.724
 6624SOL     OW20770   2.845   5.936   4.935
 6624SOL    HW120771   2.863   5.837   4.938
 6624SOL    HW220772   2.788   5.957   4.856
 6625SOL     OW20773   5.896   1.177   6.631
 6625SOL    HW120774   5.974   1.116   6.640
 6625SOL    HW220775   5.910   1.238   6.552
 6626SOL     OW20776   3.516   5.454   3.166
 6626SOL    HW120777   3.484   5.385   3.230
 6626SOL    HW220778   3.558   5.529   3.217
 6627SOL     OW20779   2.091   0.520   5.873
 6627SOL    HW120780   1.997   0.507   5.903
 6627SOL    HW220781   2.154   0.498   5.948
 6628SOL     OW20782   4.981   4.755   2.660
 6628SOL    HW120783   4.937   4.759   2.570
 6628SOL    HW220784   4.989   4.659   2.688
 6629SOL     OW20785   3.224   6.210   0.818
 6629SOL    HW120786   3.275   6.127   0.796
 6629SOL    HW220787   3.237   6.232   0.915
 6630SOL     OW20788   3.471   1.081   0.148
 6630SOL    HW120789   3.522   1.110   0.229
 6630SOL    HW220790   3.378   1.057   0.175
 6631SOL     OW20791   4.521   0.248   1.933
 6631SOL    HW120792   4.512   0.305   1.851
 6631SOL    HW220793   4.545   0.305   2.011
 6632SOL     OW20794   0.122   1.616   1.056
 6632SOL    HW120795   0.079   1.527   1.066
 6632SOL    HW220796   0.135   1.637   0.959
 6633SOL     OW20797   1.122   5.783   6.428
 6633SOL    HW120798   1.065   5.862   6.452
 6633SOL    HW220799   1.214   5.814   6.405
 6634SOL     OW20800   6.510   3.043   6.204
 6634SOL    HW120801   6.599   3.088   6.217
 6634SOL    HW220802   6.451   3.100   6.148
 6635SOL     OW20803   4.111   5.236   3.354
 6635SOL    HW120804   4.171   5.167   3.395
 6635SOL    HW220805   4.022   5.232   3.398
 6636SOL     OW20806   1.213   3.587   5.431
 6636SOL    HW120807   1.295   3.618   5.382
 6636SOL    HW220808   1.224   3.603   5.529
 6637SOL     OW20809   1.057   0.482   0.120
 6637SOL    HW120810   1.070   0.405   0.183
 6637SOL    HW220811   0.998   0.551   0.163
 6638SOL     OW20812   3.141   5.246   4.656
 6638SOL    HW120813   3.154   5.271   4.752
 6638SOL    HW220814   3.054   5.199   4.645
 6639SOL     OW20815   5.704   5.382   6.217
 6639SOL    HW120816   5.705   5.455   6.285
 6639SOL    HW220817   5.628   5.397   6.154
 6640SOL     OW20818   6.940   1.670   4.275
 6640SOL    HW120819   6.841   1.658   4.260
 6640SOL    HW220820   6.965   1.765   4.257
 6641SOL     OW20821   3.331   3.757   6.671
 6641SOL    HW120822   3.384   3.834   6.638
 6641SOL    HW220823   3.236   3.784   6.683
 6642SOL     OW20824   2.083   5.257   6.951
 6642SOL    HW120825   2.178   5.266   6.983
 6642SOL    HW220826   2.076   5.181   6.887
 6643SOL     OW20827   6.229   4.693   6.458
 6643SOL    HW120828   6.166   4.720   6.530
 6643SOL    HW220829   6.272   4.606   6.482
 6644SOL     OW20830   2.984   4.765   1.786
 6644SOL    HW120831   2.983   4.670   1.818
 6644SOL    HW220832   2.899   4.810   1.813
 6645SOL     OW20833   6.824   4.996   0.240
 6645SOL    HW120834   6.845   4.928   0.169
 6645SOL    HW220835   6.733   5.034   0.224
 6646SOL     OW20836   4.235   5.506   4.398
 6646SOL    HW120837   4.322   5.529   4.354
 6646SOL    HW220838   4.206   5.583   4.456
 6647SOL     OW20839   3.154   0.749   2.695
 6647SOL    HW120840   3.172   0.656   2.661
 6647SOL    HW220841   3.188   0.815   2.628
 6648SOL     OW20842   4.060   5.676   2.859
 6648SOL    HW120843   4.160   5.670   2.865
 6648SOL    HW220844   4.027   5.618   2.784
 6649SOL     OW20845   5.277   2.379   6.159
 6649SOL    HW120846   5.318   2.465   6.130
 6649SOL    HW220847   5.212   2.348   6.090
 6650SOL     OW20848   3.891   1.298   3.241
 6650SOL    HW120849   3.819   1.291   3.310
 6650SOL    HW220850   3.918   1.393   3.231
 6651SOL     OW20851   1.589   2.336   0.645
 6651SOL    HW120852   1.653   2.316   0.571
 6651SOL    HW220853   1.582   2.257   0.706
 6652SOL     OW20854   6.729   4.151   1.212
 6652SOL    HW120855   6.757   4.065   1.169
 6652SOL    HW220856   6.641   4.180   1.175
 6653SOL     OW20857   3.809   4.043   3.107
 6653SOL    HW120858   3.753   4.010   3.183
 6653SOL    HW220859   3.823   4.142   3.116
 6654SOL     OW20860   1.836   2.691   1.018
 6654SOL    HW120861   1.761   2.748   1.050
 6654SOL    HW220862   1.886   2.739   0.946
 6655SOL     OW20863   2.885   6.708   2.081
 6655SOL    HW120864   2.808   6.763   2.112
 6655SOL    HW220865   2.852   6.637   2.018
 6656SOL     OW20866   6.554   0.759   2.743
 6656SOL    HW120867   6.651   0.732   2.740
 6656SOL    HW220868   6.502   0.700   2.682
 6657SOL     OW20869   4.191   6.904   6.342
 6657SOL    HW120870   4.234   6.994   6.332
 6657SOL    HW220871   4.126   6.907   6.419
 6658SOL     OW20872   6.075   0.876   5.204
 6658SOL    HW120873   6.044   0.961   5.161
 6658SOL    HW220874   6.132   0.824   5.140
 6659SOL     OW20875   2.819   2.680   0.301
 6659SOL    HW120876   2.830   2.627   0.386
 6659SOL    HW220877   2.774   2.767   0.322
 6660SOL     OW20878   0.110   6.577   1.714
 6660SOL    HW120879   0.180   6.553   1.782
 6660SOL    HW220880   0.051   6.649   1.750
 6661SOL     OW20881   6.396   5.073   3.661
 6661SOL    HW120882   6.354   5.136   3.726
 6661SOL    HW220883   6.428   5.124   3.581
 6662SOL     OW20884   1.864   1.128   0.423
 6662SOL    HW120885   1.799   1.112   0.349
 6662SOL    HW220886   1.927   1.201   0.396
 6663SOL     OW20887   6.907   5.491   3.578
 6663SOL    HW120888   6.812   5.521   3.584
 6663SOL    HW220889   6.966   5.570   3.563
 6664SOL     OW20890   1.628   0.125   1.559
 6664SOL    HW120891   1.540   0.081   1.575
 6664SOL    HW220892   1.622   0.185   1.479
 6665SOL     OW20893   0.780   6.767   3.461
 6665SOL    HW120894   0.776   6.863   3.488
 6665SOL    HW220895   0.688   6.728   3.465
 6666SOL     OW20896   6.549   1.731   4.946
 6666SOL    HW120897   6.602   1.663   4.996
 6666SOL    HW220898   6.524   1.806   5.007
 6667SOL     OW20899   5.886   5.369   5.261
 6667SOL    HW120900   5.929   5.401   5.176
 6667SOL    HW220901   5.881   5.445   5.326
 6668SOL     OW20902   0.181   5.505   2.060
 6668SOL    HW120903   0.200   5.602   2.068
 6668SOL    HW220904   0.215   5.457   2.141
 6669SOL     OW20905   2.283   4.674   3.560
 6669SOL    HW120906   2.250   4.719   3.643
 6669SOL    HW220907   2.347   4.601   3.585
 6670SOL     OW20908   3.650   4.538   6.617
 6670SOL    HW120909   3.603   4.456   6.585
 6670SOL    HW220910   3.602   4.619   6.583
 6671SOL     OW20911   5.674   4.697   0.140
 6671SOL    HW120912   5.633   4.615   0.179
 6671SOL    HW220913   5.602   4.759   0.109
 6672SOL     OW20914   1.284   0.824   5.601
 6672SOL    HW120915   1.326   0.875   5.676
 6672SOL    HW220916   1.192   0.859   5.584
 6673SOL     OW20917   5.301   5.672   2.723
 6673SOL    HW120918   5.353   5.591   2.696
 6673SOL    HW220919   5.215   5.675   2.672
 6674SOL     OW20920   0.800   6.092   5.889
 6674SOL    HW120921   0.738   6.073   5.965
 6674SOL    HW220922   0.888   6.048   5.905
 6675SOL     OW20923   5.423   4.038   1.046
 6675SOL    HW120924   5.423   4.093   1.130
 6675SOL    HW220925   5.333   3.999   1.031
 6676SOL     OW20926   0.676   3.247   5.155
 6676SOL    HW120927   0.632   3.336   5.151
 6676SOL    HW220928   0.610   3.179   5.187
 6677SOL     OW20929   0.180   3.030   0.365
 6677SOL    HW120930   0.202   3.068   0.275
 6677SOL    HW220931   0.170   3.104   0.431
 6678SOL     OW20932   1.039   2.988   6.370
 6678SOL    HW120933   1.100   3.029   6.303
 6678SOL    HW220934   0.963   3.051   6.389
 6679SOL     OW20935   1.258   1.833   4.929
 6679SOL    HW120936   1.258   1.741   4.968
 6679SOL    HW220937   1.290   1.829   4.834
 6680SOL     OW20938   3.541   5.561   6.034
 6680SOL    HW120939   3.508   5.645   6.078
 6680SOL    HW220940   3.640   5.556   6.040
 6681SOL     OW20941   5.313   5.648   6.759
 6681SOL    HW120942   5.393   5.615   6.808
 6681SOL    HW220943   5.341   5.712   6.688
 6682SOL     OW20944   0.497   4.575   2.647
 6682SOL    HW120945   0.420   4.511   2.648
 6682SOL    HW220946   0.482   4.646   2.716
 6683SOL     OW20947   5.233   1.848   5.148
 6683SOL    HW120948   5.237   1.917   5.076
 6683SOL    HW220949   5.311   1.861   5.210
 6684SOL     OW20950   1.788   6.957   2.696
 6684SOL    HW120951   1.756   6.926   2.606
 6684SOL    HW220952   1.876   6.915   2.716
 6685SOL     OW20953   5.711   2.184   6.361
 6685SOL    HW120954   5.686   2.125   6.438
 6685SOL    HW220955   5.672   2.147   6.277
 6686SOL     OW20956   6.200   4.057   4.369
 6686SOL    HW120957   6.227   3.965   4.398
 6686SOL    HW220958   6.103   4.058   4.346
 6687SOL     OW20959   1.421   1.403   1.241
 6687SOL    HW120960   1.436   1.417   1.339
 6687SOL    HW220961   1.473   1.323   1.211
 6688SOL     OW20962   0.689   4.423   2.817
 6688SOL    HW120963   0.628   4.438   2.895
 6688SOL    HW220964   0.647   4.461   2.734
 6689SOL     OW20965   4.596   3.381   1.126
 6689SOL    HW120966   4.601   3.469   1.172
 6689SOL    HW220967   4.592   3.308   1.195
 6690SOL     OW20968   2.398   2.385   1.623
 6690SOL    HW120969   2.466   2.446   1.664
 6690SOL    HW220970   2.319   2.379   1.684
 6691SOL     OW20971   2.219   5.734   1.412
 6691SOL    HW120972   2.268   5.796   1.473
 6691SOL    HW220973   2.225   5.768   1.318
 6692SOL     OW20974   2.884   4.252   5.286
 6692SOL    HW120975   2.950   4.250   5.361
 6692SOL    HW220976   2.870   4.346   5.256
 6693SOL     OW20977   4.839   3.593   6.109
 6693SOL    HW120978   4.797   3.679   6.139
 6693SOL    HW220979   4.806   3.570   6.017
 6694SOL     OW20980   4.401   6.526   0.496
 6694SOL    HW120981   4.474   6.578   0.541
 6694SOL    HW220982   4.317   6.534   0.550
 6695SOL     OW20983   0.645   1.544   6.721
 6695SOL    HW120984   0.630   1.450   6.752
 6695SOL    HW220985   0.667   1.602   6.799
 6696SOL     OW20986   2.067   2.726   1.449
 6696SOL    HW120987   2.148   2.708   1.393
 6696SOL    HW220988   2.027   2.814   1.423
 6697SOL     OW20989   4.879   1.658   2.838
 6697SOL    HW120990   4.833   1.687   2.754
 6697SOL    HW220991   4.959   1.715   2.853
 6698SOL     OW20992   3.933   2.842   0.730
 6698SOL    HW120993   3.970   2.796   0.649
 6698SOL    HW220994   3.944   2.783   0.810
 6699SOL     OW20995   3.554   4.738   6.895
 6699SOL    HW120996   3.651   4.762   6.895
 6699SOL    HW220997   3.511   4.771   6.811
 6700SOL     OW20998   0.351   5.612   1.073
 6700SOL    HW120999   0.315   5.690   1.021
 6700SOL    HW221000   0.289   5.591   1.148
 6701SOL     OW21001   6.453   2.062   0.845
 6701SOL    HW121002   6.511   2.121   0.789
 6701SOL    HW221003   6.410   1.993   0.787
 6702SOL     OW21004   3.223   1.931   0.395
 6702SOL    HW121005   3.247   2.017   0.350
 6702SOL    HW221006   3.302   1.870   0.395
 6703SOL     OW21007   6.280   1.953   6.578
 6703SOL    HW121008   6.208   1.922   6.640
 6703SOL    HW221009   6.346   1.879   6.565
 6704SOL     OW21010   4.278   2.313   2.371
 6704SOL    HW121011   4.328   2.355   2.296
 6704SOL    HW221012   4.192   2.275   2.336
 6705SOL     OW21013   6.903   2.247   2.043
 6705SOL    HW121014   6.840   2.213   2.112
 6705SOL    HW221015   6.935   2.338   2.069
 6706SOL     OW21016   0.851   3.588   0.756
 6706SOL    HW121017   0.935   3.534   0.752
 6706SOL    HW221018   0.793   3.554   0.830
 6707SOL     OW21019   6.311   6.153   4.688
 6707SOL    HW121020   6.236   6.116   4.744
 6707SOL    HW221021   6.274   6.217   4.621
 6708SOL     OW21022   1.547   5.689   2.331
 6708SOL    HW121023   1.528   5.697   2.233
 6708SOL    HW221024   1.474   5.635   2.374
 6709SOL     OW21025   3.879   6.579   1.721
 6709SOL    HW121026   3.873   6.586   1.621
 6709SOL    HW221027   3.799   6.529   1.755
 6710SOL     OW21028   2.741   2.385   5.993
 6710SOL    HW121029   2.804   2.428   6.057
 6710SOL    HW221030   2.693   2.457   5.942
 6711SOL     OW21031   4.958   3.976   6.584
 6711SOL    HW121032   4.924   4.069   6.576
 6711SOL    HW221033   5.012   3.952   6.504
 6712SOL     OW21034   3.975   5.568   0.309
 6712SOL    HW121035   4.030   5.651   0.308
 6712SOL    HW221036   4.033   5.490   0.333
 6713SOL     OW21037   2.866   1.867   1.750
 6713SOL    HW121038   2.862   1.955   1.799
 6713SOL    HW221039   2.819   1.876   1.662
 6714SOL     OW21040   4.947   0.027   5.173
 6714SOL    HW121041   4.901   6.993   5.239
 6714SOL    HW221042   4.918   0.122   5.187
 6715SOL     OW21043   1.097   1.796   0.564
 6715SOL    HW121044   1.086   1.723   0.633
 6715SOL    HW221045   1.028   1.784   0.492
 6716SOL     OW21046   1.802   5.996   0.946
 6716SOL    HW121047   1.773   6.011   0.852
 6716SOL    HW221048   1.901   6.010   0.954
 6717SOL     OW21049   3.548   3.720   0.397
 6717SOL    HW121050   3.485   3.687   0.327
 6717SOL    HW221051   3.640   3.725   0.360
 6718SOL     OW21052   3.514   6.131   6.455
 6718SOL    HW121053   3.515   6.123   6.555
 6718SOL    HW221054   3.605   6.110   6.419
 6719SOL     OW21055   0.539   6.860   5.720
 6719SOL    HW121056   0.541   6.773   5.770
 6719SOL    HW221057   0.536   6.842   5.622
 6720SOL     OW21058   2.126   6.101   1.823
 6720SOL    HW121059   2.046   6.155   1.849
 6720SOL    HW221060   2.156   6.046   1.901
 6721SOL     OW21061   5.282   6.366   4.387
 6721SOL    HW121062   5.362   6.307   4.399
 6721SOL    HW221063   5.204   6.326   4.436
 6722SOL     OW21064   4.960   3.076   0.449
 6722SOL    HW121065   5.032   3.069   0.519
 6722SOL    HW221066   4.976   3.158   0.393
 6723SOL     OW21067   2.215   6.602   3.094
 6723SOL    HW121068   2.253   6.532   3.154
 6723SOL    HW221069   2.255   6.691   3.116
 6724SOL     OW21070   2.667   4.514   5.777
 6724SOL    HW121071   2.623   4.466   5.701
 6724SOL    HW221072   2.604   4.584   5.812
 6725SOL     OW21073   1.125   4.808   2.385
 6725SOL    HW121074   1.139   4.828   2.482
 6725SOL    HW221075   1.114   4.709   2.372
 6726SOL     OW21076   2.152   3.202   4.567
 6726SOL    HW121077   2.160   3.164   4.659
 6726SOL    HW221078   2.173   3.300   4.569
 6727SOL     OW21079   5.104   3.632   6.711
 6727SOL    HW121080   5.069   3.649   6.619
 6727SOL    HW221081   5.201   3.608   6.705
 6728SOL     OW21082   3.802   2.164   4.490
 6728SOL    HW121083   3.839   2.224   4.419
 6728SOL    HW221084   3.711   2.132   4.463
 6729SOL     OW21085   6.913   0.512   2.542
 6729SOL    HW121086   6.845   0.539   2.474
 6729SOL    HW221087   6.988   0.463   2.496
 6730SOL     OW21088   2.631   0.276   0.106
 6730SOL    HW121089   2.677   0.274   0.017
 6730SOL    HW221090   2.697   0.251   0.178
 6731SOL     OW21091   2.773   4.253   1.315
 6731SOL    HW121092   2.724   4.303   1.386
 6731SOL    HW221093   2.843   4.313   1.275
 6732SOL     OW21094   2.240   6.360   0.350
 6732SOL    HW121095   2.278   6.403   0.268
 6732SOL    HW221096   2.211   6.431   0.414
 6733SOL     OW21097   4.285   5.615   5.833
 6733SOL    HW121098   4.273   5.516   5.837
 6733SOL    HW221099   4.268   5.647   5.740
 6734SOL     OW21100   1.234   3.645   5.697
 6734SOL    HW121101   1.218   3.728   5.750
 6734SOL    HW221102   1.331   3.641   5.671
 6735SOL     OW21103   0.081   4.844   5.774
 6735SOL    HW121104   0.001   4.863   5.716
 6735SOL    HW221105   0.051   4.798   5.858
 6736SOL     OW21106   2.692   3.190   1.757
 6736SOL    HW121107   2.732   3.234   1.837
 6736SOL    HW221108   2.669   3.095   1.779
 6737SOL     OW21109   1.768   1.447   2.356
 6737SOL    HW121110   1.734   1.513   2.423
 6737SOL    HW221111   1.742   1.355   2.384
 6738SOL     OW21112   2.037   1.404   2.448
 6738SOL    HW121113   2.061   1.491   2.490
 6738SOL    HW221114   1.959   1.417   2.386
 6739SOL     OW21115   4.087   6.107   4.946
 6739SOL    HW121116   4.049   6.186   4.898
 6739SOL    HW221117   4.012   6.056   4.989
 6740SOL     OW21118   1.410   1.057   4.427
 6740SOL    HW121119   1.487   1.120   4.421
 6740SOL    HW221120   1.443   0.963   4.411
 6741SOL     OW21121   5.795   0.868   6.155
 6741SOL    HW121122   5.789   0.951   6.210
 6741SOL    HW221123   5.822   0.891   6.061
 6742SOL     OW21124   6.375   5.538   5.421
 6742SOL    HW121125   6.404   5.462   5.479
 6742SOL    HW221126   6.432   5.618   5.440
 6743SOL     OW21127   4.078   3.496   1.139
 6743SOL    HW121128   4.156   3.510   1.200
 6743SOL    HW221129   4.096   3.419   1.078
 6744SOL     OW21130   4.350   4.248   5.805
 6744SOL    HW121131   4.335   4.333   5.857
 6744SOL    HW221132   4.311   4.258   5.714
 6745SOL     OW21133   0.947   5.117   2.979
 6745SOL    HW121134   0.974   5.076   3.066
 6745SOL    HW221135   0.892   5.198   2.996
 6746SOL     OW21136   0.734   1.999   1.333
 6746SOL    HW121137   0.661   2.066   1.347
 6746SOL    HW221138   0.743   1.941   1.414
 6747SOL     OW21139   5.493   5.808   4.629
 6747SOL    HW121140   5.397   5.816   4.659
 6747SOL    HW221141   5.496   5.812   4.529
 6748SOL     OW21142   0.889   0.415   2.388
 6748SOL    HW121143   0.831   0.460   2.320
 6748SOL    HW221144   0.943   0.343   2.343
 6749SOL     OW21145   3.956   0.643   0.055
 6749SOL    HW121146   3.985   0.681   0.143
 6749SOL    HW221147   3.867   0.680   0.031
 6750SOL     OW21148   2.794   2.372   4.754
 6750SOL    HW121149   2.844   2.320   4.685
 6750SOL    HW221150   2.849   2.451   4.782
 6751SOL     OW21151   2.548   2.475   4.665
 6751SOL    HW121152   2.559   2.550   4.731
 6751SOL    HW221153   2.637   2.450   4.628
 6752SOL     OW21154   5.415   3.228   0.933
 6752SOL    HW121155   5.319   3.201   0.927
 6752SOL    HW221156   5.459   3.179   1.008
 6753SOL     OW21157   4.247   1.771   6.496
 6753SOL    HW121158   4.177   1.779   6.424
 6753SOL    HW221159   4.259   1.675   6.520
 6754SOL     OW21160   6.180   1.527   6.437
 6754SOL    HW121161   6.247   1.471   6.387
 6754SOL    HW221162   6.203   1.527   6.534
 6755SOL     OW21163   5.016   2.153   3.544
 6755SOL    HW121164   5.040   2.085   3.613
 6755SOL    HW221165   5.092   2.163   3.479
 6756SOL     OW21166   5.166   4.641   4.183
 6756SOL    HW121167   5.214   4.568   4.134
 6756SOL    HW221168   5.087   4.671   4.129
 6757SOL     OW21169   5.555   6.312   1.885
 6757SOL    HW121170   5.476   6.334   1.943
 6757SOL    HW221171   5.585   6.219   1.905
 6758SOL     OW21172   5.197   3.244   2.392
 6758SOL    HW121173   5.185   3.338   2.360
 6758SOL    HW221174   5.295   3.225   2.401
 6759SOL     OW21175   1.394   5.123   2.773
 6759SOL    HW121176   1.303   5.084   2.756
 6759SOL    HW221177   1.447   5.119   2.689
 6760SOL     OW21178   7.011   4.272   4.108
 6760SOL    HW121179   0.010   4.311   4.019
 6760SOL    HW221180   0.065   4.278   4.169
 6761SOL     OW21181   5.047   3.045   5.563
 6761SOL    HW121182   5.008   3.017   5.651
 6761SOL    HW221183   4.974   3.058   5.497
 6762SOL     OW21184   6.640   4.204   3.490
 6762SOL    HW121185   6.728   4.202   3.442
 6762SOL    HW221186   6.599   4.295   3.481
 6763SOL     OW21187   6.357   6.651   5.696
 6763SOL    HW121188   6.331   6.705   5.777
 6763SOL    HW221189   6.297   6.676   5.620
 6764SOL     OW21190   3.074   3.873   6.753
 6764SOL    HW121191   2.976   3.877   6.735
 6764SOL    HW221192   3.091   3.827   6.840
 6765SOL     OW21193   6.445   3.848   2.762
 6765SOL    HW121194   6.420   3.805   2.848
 6765SOL    HW221195   6.394   3.806   2.687
 6766SOL     OW21196   2.120   0.751   5.159
 6766SOL    HW121197   2.154   0.798   5.241
 6766SOL    HW221198   2.064   0.814   5.105
 6767SOL     OW21199   1.014   2.743   6.215
 6767SOL    HW121200   1.001   2.837   6.245
 6767SOL    HW221201   1.080   2.698   6.276
 6768SOL     OW21202   0.441   0.095   4.035
 6768SOL    HW121203   0.423   0.020   4.098
 6768SOL    HW221204   0.366   0.161   4.040
 6769SOL     OW21205   2.062   2.615   5.190
 6769SOL    HW121206   1.968   2.644   5.207
 6769SOL    HW221207   2.123   2.694   5.199
 6770SOL     OW21208   0.422   1.662   3.183
 6770SOL    HW121209   0.414   1.589   3.251
 6770SOL    HW221210   0.482   1.734   3.218
 6771SOL     OW21211   3.704   2.181   3.694
 6771SOL    HW121212   3.676   2.087   3.717
 6771SOL    HW221213   3.641   2.245   3.738
 6772SOL     OW21214   6.690   1.655   2.685
 6772SOL    HW121215   6.788   1.632   2.688
 6772SOL    HW221216   6.639   1.592   2.742
 6773SOL     OW21217   0.421   5.958   2.067
 6773SOL    HW121218   0.388   6.035   2.122
 6773SOL    HW221219   0.488   5.992   2.000
 6774SOL     OW21220   2.153   2.545   5.612
 6774SOL    HW121221   2.135   2.643   5.604
 6774SOL    HW221222   2.252   2.530   5.616
 6775SOL     OW21223   0.499   2.394   5.292
 6775SOL    HW121224   0.578   2.340   5.262
 6775SOL    HW221225   0.415   2.347   5.266
 6776SOL     OW21226   3.761   4.048   2.354
 6776SOL    HW121227   3.679   4.093   2.318
 6776SOL    HW221228   3.753   4.037   2.453
 6777SOL     OW21229   5.559   5.290   1.001
 6777SOL    HW121230   5.588   5.233   1.078
 6777SOL    HW221231   5.621   5.278   0.925
 6778SOL     OW21232   0.277   4.902   2.709
 6778SOL    HW121233   0.355   4.921   2.650
 6778SOL    HW221234   0.226   4.823   2.673
 6779SOL     OW21235   5.713   4.126   5.881
 6779SOL    HW121236   5.653   4.055   5.917
 6779SOL    HW221237   5.667   4.215   5.889
 6780SOL     OW21238   2.675   2.058   2.649
 6780SOL    HW121239   2.636   2.012   2.569
 6780SOL    HW221240   2.742   2.125   2.618
 6781SOL     OW21241   0.139   1.361   4.030
 6781SOL    HW121242   0.146   1.452   3.989
 6781SOL    HW221243   0.224   1.339   4.077
 6782SOL     OW21244   6.816   1.748   3.361
 6782SOL    HW121245   6.814   1.839   3.319
 6782SOL    HW221246   6.897   1.699   3.330
 6783SOL     OW21247   1.529   4.848   5.102
 6783SOL    HW121248   1.626   4.862   5.083
 6783SOL    HW221249   1.487   4.797   5.027
 6784SOL     OW21250   2.114   3.978   1.211
 6784SOL    HW121251   2.083   3.998   1.304
 6784SOL    HW221252   2.112   3.879   1.197
 6785SOL     OW21253   5.001   4.940   4.310
 6785SOL    HW121254   5.079   4.892   4.351
 6785SOL    HW221255   4.983   4.902   4.219
 6786SOL     OW21256   6.455   2.397   0.002
 6786SOL    HW121257   6.509   2.355   0.075
 6786SOL    HW221258   6.509   2.403   6.943
 6787SOL     OW21259   3.965   2.056   6.395
 6787SOL    HW121260   3.870   2.076   6.373
 6787SOL    HW221261   3.969   1.982   6.461
 6788SOL     OW21262   6.433   4.303   3.096
 6788SOL    HW121263   6.344   4.304   3.142
 6788SOL    HW221264   6.447   4.214   3.052
 6789SOL     OW21265   6.127   3.899   4.054
 6789SOL    HW121266   6.210   3.949   4.080
 6789SOL    HW221267   6.147   3.802   4.051
 6790SOL     OW21268   0.786   5.026   5.690
 6790SOL    HW121269   0.752   5.109   5.647
 6790SOL    HW221270   0.746   4.946   5.644
 6791SOL     OW21271   3.459   0.580   3.462
 6791SOL    HW121272   3.401   0.499   3.459
 6791SOL    HW221273   3.502   0.587   3.552
 6792SOL     OW21274   3.981   6.674   5.397
 6792SOL    HW121275   4.045   6.733   5.446
 6792SOL    HW221276   3.888   6.709   5.408
 6793SOL     OW21277   1.900   3.750   0.282
 6793SOL    HW121278   1.938   3.715   0.196
 6793SOL    HW221279   1.923   3.687   0.356
 6794SOL     OW21280   4.888   1.735   5.575
 6794SOL    HW121281   4.936   1.809   5.621
 6794SOL    HW221282   4.936   1.649   5.591
 6795SOL     OW21283   1.030   1.234   1.155
 6795SOL    HW121284   1.094   1.229   1.079
 6795SOL    HW221285   1.045   1.318   1.207
 6796SOL     OW21286   6.449   0.809   3.013
 6796SOL    HW121287   6.465   0.898   3.054
 6796SOL    HW221288   6.481   0.808   2.918
 6797SOL     OW21289   1.041   2.676   1.053
 6797SOL    HW121290   1.022   2.658   0.956
 6797SOL    HW221291   0.957   2.668   1.106
 6798SOL     OW21292   5.135   0.432   1.415
 6798SOL    HW121293   5.223   0.478   1.398
 6798SOL    HW221294   5.067   0.500   1.444
 6799SOL     OW21295   5.984   0.605   3.355
 6799SOL    HW121296   6.042   0.524   3.350
 6799SOL    HW221297   5.889   0.577   3.363
 6800SOL     OW21298   0.329   1.897   1.637
 6800SOL    HW121299   0.324   1.982   1.688
 6800SOL    HW221300   0.283   1.907   1.549
 6801SOL     OW21301   0.723   5.899   5.605
 6801SOL    HW121302   0.742   5.927   5.699
 6801SOL    HW221303   0.795   5.837   5.574
 6802SOL     OW21304   2.872   5.018   2.272
 6802SOL    HW121305   2.848   4.924   2.248
 6802SOL    HW221306   2.812   5.081   2.223
 6803SOL     OW21307   5.052   4.948   6.012
 6803SOL    HW121308   5.020   4.857   6.037
 6803SOL    HW221309   5.046   4.959   5.913
 6804SOL     OW21310   3.367   5.196   3.012
 6804SOL    HW121311   3.426   5.218   3.090
 6804SOL    HW221312   3.417   5.136   2.949
 6805SOL     OW21313   6.949   4.171   5.195
 6805SOL    HW121314   6.871   4.119   5.161
 6805SOL    HW221315   6.940   4.183   5.294
 6806SOL     OW21316   0.145   1.988   2.451
 6806SOL    HW121317   0.057   2.016   2.490
 6806SOL    HW221318   0.136   1.896   2.413
 6807SOL     OW21319   3.069   4.058   2.008
 6807SOL    HW121320   3.043   4.150   2.037
 6807SOL    HW221321   3.082   4.001   2.089
 6808SOL     OW21322   3.393   1.211   4.385
 6808SOL    HW121323   3.347   1.122   4.389
 6808SOL    HW221324   3.411   1.235   4.290
 6809SOL     OW21325   5.532   3.147   1.496
 6809SOL    HW121326   5.479   3.224   1.461
 6809SOL    HW221327   5.471   3.075   1.527
 6810SOL     OW21328   2.320   0.233   3.802
 6810SOL    HW121329   2.382   0.171   3.850
 6810SOL    HW221330   2.374   0.294   3.743
 6811SOL     OW21331   6.920   1.284   1.393
 6811SOL    HW121332   6.998   1.224   1.374
 6811SOL    HW221333   6.838   1.247   1.349
 6812SOL     OW21334   3.616   3.950   5.059
 6812SOL    HW121335   3.556   4.029   5.067
 6812SOL    HW221336   3.650   3.925   5.149
 6813SOL     OW21337   5.980   4.099   1.785
 6813SOL    HW121338   6.032   4.139   1.860
 6813SOL    HW221339   6.012   4.137   1.698
 6814SOL     OW21340   5.239   1.020   6.677
 6814SOL    HW121341   5.306   1.078   6.632
 6814SOL    HW221342   5.158   1.074   6.700
 6815SOL     OW21343   1.730   5.060   5.682
 6815SOL    HW121344   1.640   5.098   5.657
 6815SOL    HW221345   1.733   4.963   5.657
 6816SOL     OW21346   0.739   0.890   3.215
 6816SOL    HW121347   0.701   0.805   3.178
 6816SOL    HW221348   0.822   0.869   3.267
 6817SOL     OW21349   3.784   2.124   2.271
 6817SOL    HW121350   3.767   2.184   2.193
 6817SOL    HW221351   3.749   2.033   2.250
 6818SOL     OW21352   1.828   6.944   5.367
 6818SOL    HW121353   1.749   6.908   5.418
 6818SOL    HW221354   1.892   6.985   5.431
 6819SOL     OW21355   4.890   4.686   1.650
 6819SOL    HW121356   4.896   4.589   1.624
 6819SOL    HW221357   4.916   4.696   1.746
 6820SOL     OW21358   2.758   6.070   1.649
 6820SOL    HW121359   2.801   5.985   1.619
 6820SOL    HW221360   2.804   6.104   1.732
 6821SOL     OW21361   4.094   2.816   5.373
 6821SOL    HW121362   4.064   2.732   5.328
 6821SOL    HW221363   4.115   2.797   5.469
 6822SOL     OW21364   6.634   2.800   6.457
 6822SOL    HW121365   6.730   2.782   6.478
 6822SOL    HW221366   6.610   2.891   6.488
 6823SOL     OW21367   6.144   3.263   6.335
 6823SOL    HW121368   6.082   3.279   6.257
 6823SOL    HW221369   6.234   3.301   6.314
 6824SOL     OW21370   0.670   1.417   5.625
 6824SOL    HW121371   0.621   1.379   5.703
 6824SOL    HW221372   0.605   1.455   5.560
 6825SOL     OW21373   5.934   4.800   1.233
 6825SOL    HW121374   5.834   4.806   1.239
 6825SOL    HW221375   5.974   4.888   1.259
 6826SOL     OW21376   0.065   3.792   3.364
 6826SOL    HW121377   0.131   3.862   3.336
 6826SOL    HW221378   0.070   3.780   3.463
 6827SOL     OW21379   4.247   5.735   4.556
 6827SOL    HW121380   4.260   5.797   4.634
 6827SOL    HW221381   4.149   5.728   4.535
 6828SOL     OW21382   2.810   1.793   2.398
 6828SOL    HW121383   2.739   1.741   2.351
 6828SOL    HW221384   2.810   1.887   2.364
 6829SOL     OW21385   4.219   6.941   4.427
 6829SOL    HW121386   4.281   6.977   4.356
 6829SOL    HW221387   4.170   6.862   4.391
 6830SOL     OW21388   4.871   0.296   3.241
 6830SOL    HW121389   4.886   0.210   3.192
 6830SOL    HW221390   4.908   0.287   3.334
 6831SOL     OW21391   1.466   1.718   6.399
 6831SOL    HW121392   1.504   1.766   6.321
 6831SOL    HW221393   1.448   1.782   6.473
 6832SOL     OW21394   3.076   2.677   0.273
 6832SOL    HW121395   3.111   2.592   0.233
 6832SOL    HW221396   2.976   2.676   0.272
 6833SOL     OW21397   3.438   4.944   5.888
 6833SOL    HW121398   3.480   5.016   5.833
 6833SOL    HW221399   3.355   4.978   5.932
 6834SOL     OW21400   5.687   0.378   0.750
 6834SOL    HW121401   5.611   0.405   0.808
 6834SOL    HW221402   5.745   0.313   0.799
 6835SOL     OW21403   2.493   1.557   4.505
 6835SOL    HW121404   2.563   1.485   4.499
 6835SOL    HW221405   2.450   1.569   4.416
 6836SOL     OW21406   2.142   4.232   6.023
 6836SOL    HW121407   2.063   4.231   6.084
 6836SOL    HW221408   2.225   4.211   6.075
 6837SOL     OW21409   0.720   6.957   1.499
 6837SOL    HW121410   0.804   6.988   1.453
 6837SOL    HW221411   0.641   6.999   1.456
 6838SOL     OW21412   2.882   3.820   5.070
 6838SOL    HW121413   2.949   3.746   5.074
 6838SOL    HW221414   2.924   3.900   5.026
 6839SOL     OW21415   5.867   2.533   3.661
 6839SOL    HW121416   5.808   2.611   3.683
 6839SOL    HW221417   5.813   2.460   3.620
 6840SOL     OW21418   2.541   6.941   5.613
 6840SOL    HW121419   2.538   6.900   5.522
 6840SOL    HW221420   2.466   7.007   5.623
 6841SOL     OW21421   4.204   5.690   1.189
 6841SOL    HW121422   4.252   5.661   1.106
 6841SOL    HW221423   4.105   5.690   1.172
 6842SOL     OW21424   0.153   3.725   6.158
 6842SOL    HW121425   0.077   3.689   6.211
 6842SOL    HW221426   0.239   3.682   6.187
 6843SOL     OW21427   3.300   1.955   2.427
 6843SOL    HW121428   3.328   1.992   2.338
 6843SOL    HW221429   3.210   1.911   2.418
 6844SOL     OW21430   4.705   4.739   3.790
 6844SOL    HW121431   4.745   4.664   3.736
 6844SOL    HW221432   4.702   4.711   3.886
 6845SOL     OW21433   4.977   4.626   2.117
 6845SOL    HW121434   4.905   4.591   2.057
 6845SOL    HW221435   5.038   4.551   2.143
 6846SOL     OW21436   3.510   2.968   2.508
 6846SOL    HW121437   3.433   2.923   2.461
 6846SOL    HW221438   3.593   2.954   2.455
 6847SOL     OW21439   6.374   3.321   1.798
 6847SOL    HW121440   6.471   3.301   1.807
 6847SOL    HW221441   6.357   3.418   1.816
 6848SOL     OW21442   0.814   6.406   3.506
 6848SOL    HW121443   0.746   6.478   3.515
 6848SOL    HW221444   0.879   6.411   3.582
 6849SOL     OW21445   3.652   6.247   3.965
 6849SOL    HW121446   3.727   6.255   4.031
 6849SOL    HW221447   3.565   6.244   4.014
 6850SOL     OW21448   5.486   2.927   2.855
 6850SOL    HW121449   5.516   2.985   2.932
 6850SOL    HW221450   5.394   2.955   2.827
 6851SOL     OW21451   1.674   5.173   5.362
 6851SOL    HW121452   1.671   5.190   5.460
 6851SOL    HW221453   1.623   5.245   5.314
 6852SOL     OW21454   1.132   4.162   1.447
 6852SOL    HW121455   1.070   4.216   1.391
 6852SOL    HW221456   1.181   4.097   1.389
 6853SOL     OW21457   0.579   3.958   5.152
 6853SOL    HW121458   0.517   3.992   5.223
 6853SOL    HW221459   0.664   3.926   5.194
 6854SOL     OW21460   6.515   2.583   6.581
 6854SOL    HW121461   6.468   2.537   6.506
 6854SOL    HW221462   6.575   2.655   6.544
 6855SOL     OW21463   2.992   6.944   1.983
 6855SOL    HW121464   2.933   6.984   1.913
 6855SOL    HW221465   2.974   6.845   1.988
 6856SOL     OW21466   5.861   4.243   5.029
 6856SOL    HW121467   5.923   4.320   5.012
 6856SOL    HW221468   5.871   4.175   4.956
 6857SOL     OW21469   3.916   1.758   5.754
 6857SOL    HW121470   3.926   1.677   5.812
 6857SOL    HW221471   3.895   1.838   5.811
 6858SOL     OW21472   3.714   3.102   5.083
 6858SOL    HW121473   3.760   3.043   5.150
 6858SOL    HW221474   3.781   3.143   5.022
 6859SOL     OW21475   3.382   0.310   0.705
 6859SOL    HW121476   3.379   0.210   0.713
 6859SOL    HW221477   3.359   0.351   0.793
 6860SOL     OW21478   5.370   3.984   0.590
 6860SOL    HW121479   5.383   4.054   0.520
 6860SOL    HW221480   5.407   3.897   0.557
 6861SOL     OW21481   5.949   4.971   0.232
 6861SOL    HW121482   5.853   4.987   0.254
 6861SOL    HW221483   5.956   4.912   0.151
 6862SOL     OW21484   3.110   5.552   4.265
 6862SOL    HW121485   3.018   5.522   4.289
 6862SOL    HW221486   3.129   5.640   4.309
 6863SOL     OW21487   5.676   2.693   4.408
 6863SOL    HW121488   5.684   2.650   4.498
 6863SOL    HW221489   5.696   2.791   4.415
 6864SOL     OW21490   3.295   6.169   4.861
 6864SOL    HW121491   3.222   6.114   4.903
 6864SOL    HW221492   3.306   6.142   4.766
 6865SOL     OW21493   6.704   4.170   4.042
 6865SOL    HW121494   6.629   4.107   4.059
 6865SOL    HW221495   6.700   4.245   4.108
 6866SOL     OW21496   6.965   3.396   2.356
 6866SOL    HW121497   6.882   3.425   2.405
 6866SOL    HW221498   0.002   3.349   2.419
 6867SOL     OW21499   2.331   4.317   2.337
 6867SOL    HW121500   2.421   4.347   2.306
 6867SOL    HW221501   2.321   4.336   2.434
 6868SOL     OW21502   1.975   5.637   4.365
 6868SOL    HW121503   1.953   5.561   4.427
 6868SOL    HW221504   1.988   5.601   4.272
 6869SOL     OW21505   5.469   2.547   5.490
 6869SOL    HW121506   5.560   2.558   5.449
 6869SOL    HW221507   5.479   2.532   5.588
 6870SOL     OW21508   5.475   3.608   3.034
 6870SOL    HW121509   5.553   3.559   3.073
 6870SOL    HW221510   5.440   3.674   3.101
 6871SOL     OW21511   5.570   5.613   1.233
 6871SOL    HW121512   5.508   5.589   1.159
 6871SOL    HW221513   5.519   5.661   1.305
 6872SOL     OW21514   2.221   3.582   6.875
 6872SOL    HW121515   2.311   3.577   6.918
 6872SOL    HW221516   2.210   3.506   6.811
 6873SOL     OW21517   6.349   3.745   6.260
 6873SOL    HW121518   6.317   3.686   6.334
 6873SOL    HW221519   6.445   3.726   6.241
 6874SOL     OW21520   0.138   2.572   4.742
 6874SOL    HW121521   0.198   2.538   4.814
 6874SOL    HW221522   0.171   2.661   4.711
 6875SOL     OW21523   2.423   1.269   3.071
 6875SOL    HW121524   2.515   1.308   3.065
 6875SOL    HW221525   2.371   1.296   2.990
 6876SOL     OW21526   4.087   6.209   7.018
 6876SOL    HW121527   4.164   6.235   6.959
 6876SOL    HW221528   4.008   6.265   6.995
 6877SOL     OW21529   2.252   3.887   0.106
 6877SOL    HW121530   2.267   3.943   0.187
 6877SOL    HW221531   2.257   3.790   0.130
 6878SOL     OW21532   2.040   1.723   5.646
 6878SOL    HW121533   2.133   1.686   5.640
 6878SOL    HW221534   2.019   1.775   5.562
 6879SOL     OW21535   1.277   2.324   6.129
 6879SOL    HW121536   1.201   2.321   6.064
 6879SOL    HW221537   1.246   2.292   6.218
 6880SOL     OW21538   2.227   4.044   4.640
 6880SOL    HW121539   2.195   3.960   4.598
 6880SOL    HW221540   2.317   4.030   4.679
 6881SOL     OW21541   0.189   3.831   2.037
 6881SOL    HW121542   0.242   3.885   1.971
 6881SOL    HW221543   0.200   3.734   2.017
 6882SOL     OW21544   2.046   0.485   5.087
 6882SOL    HW121545   2.126   0.425   5.083
 6882SOL    HW221546   2.075   0.579   5.104
 6883SOL     OW21547   3.957   0.602   1.535
 6883SOL    HW121548   4.043   0.555   1.554
 6883SOL    HW221549   3.964   0.651   1.448
 6884SOL     OW21550   2.127   5.428   3.874
 6884SOL    HW121551   2.153   5.346   3.824
 6884SOL    HW221552   2.085   5.402   3.961
 6885SOL     OW21553   2.741   5.588   4.354
 6885SOL    HW121554   2.806   5.559   4.424
 6885SOL    HW221555   2.785   5.654   4.293
 6886SOL     OW21556   5.928   0.946   2.462
 6886SOL    HW121557   5.862   0.908   2.527
 6886SOL    HW221558   5.903   1.041   2.442
 6887SOL     OW21559   5.727   0.991   4.505
 6887SOL    HW121560   5.712   0.907   4.557
 6887SOL    HW221561   5.705   1.070   4.561
 6888SOL     OW21562   5.816   0.392   4.669
 6888SOL    HW121563   5.774   0.365   4.756
 6888SOL    HW221564   5.771   0.342   4.594
 6889SOL     OW21565   1.713   4.501   5.873
 6889SOL    HW121566   1.668   4.426   5.826
 6889SOL    HW221567   1.729   4.576   5.808
 6890SOL     OW21568   2.356   6.673   1.522
 6890SOL    HW121569   2.428   6.604   1.513
 6890SOL    HW221570   2.295   6.668   1.443
 6891SOL     OW21571   1.538   4.309   3.780
 6891SOL    HW121572   1.478   4.306   3.860
 6891SOL    HW221573   1.553   4.216   3.747
 6892SOL     OW21574   3.021   0.255   3.924
 6892SOL    HW121575   3.057   0.176   3.875
 6892SOL    HW221576   3.089   0.289   3.989
 6893SOL     OW21577   4.663   6.064   3.027
 6893SOL    HW121578   4.758   6.035   3.016
 6893SOL    HW221579   4.624   6.085   2.937
 6894SOL     OW21580   6.042   4.899   6.799
 6894SOL    HW121581   5.956   4.856   6.772
 6894SOL    HW221582   6.056   4.983   6.748
 6895SOL     OW21583   2.647   4.332   6.687
 6895SOL    HW121584   2.606   4.252   6.730
 6895SOL    HW221585   2.652   4.407   6.753
 6896SOL     OW21586   3.528   0.495   3.008
 6896SOL    HW121587   3.473   0.441   2.945
 6896SOL    HW221588   3.564   0.434   3.080
 6897SOL     OW21589   3.532   4.007   0.682
 6897SOL    HW121590   3.624   3.978   0.656
 6897SOL    HW221591   3.538   4.082   0.748
 6898SOL     OW21592   4.334   1.933   2.182
 6898SOL    HW121593   4.237   1.931   2.157
 6898SOL    HW221594   4.384   1.868   2.125
 6899SOL     OW21595   4.420   6.543   6.859
 6899SOL    HW121596   4.343   6.572   6.801
 6899SOL    HW221597   4.473   6.622   6.887
 6900SOL     OW21598   4.977   0.409   6.132
 6900SOL    HW121599   5.018   0.400   6.223
 6900SOL    HW221600   4.973   0.319   6.089
 6901SOL     OW21601   1.517   0.102   6.689
 6901SOL    HW121602   1.514   0.201   6.673
 6901SOL    HW221603   1.566   0.058   6.614
 6902SOL     OW21604   6.978   6.287   0.253
 6902SOL    HW121605   0.017   6.357   0.287
 6902SOL    HW221606   6.923   6.325   0.179
 6903SOL     OW21607   4.444   4.913   0.586
 6903SOL    HW121608   4.459   4.920   0.685
 6903SOL    HW221609   4.401   4.825   0.565
 6904SOL     OW21610   6.352   1.244   3.750
 6904SOL    HW121611   6.426   1.307   3.728
 6904SOL    HW221612   6.375   1.191   3.832
 6905SOL     OW21613   6.107   6.823   0.860
 6905SOL    HW121614   6.130   6.918   0.881
 6905SOL    HW221615   6.063   6.781   0.939
 6906SOL     OW21616   3.901   0.814   3.007
 6906SOL    HW121617   3.901   0.893   3.068
 6906SOL    HW221618   3.809   0.777   2.999
 6907SOL     OW21619   3.562   1.725   1.783
 6907SOL    HW121620   3.630   1.793   1.756
 6907SOL    HW221621   3.593   1.676   1.865
 6908SOL     OW21622   1.674   6.454   5.019
 6908SOL    HW121623   1.663   6.400   4.935
 6908SOL    HW221624   1.765   6.438   5.057
 6909SOL     OW21625   4.688   4.186   0.701
 6909SOL    HW121626   4.693   4.094   0.740
 6909SOL    HW221627   4.601   4.228   0.724
 6910SOL     OW21628   6.214   1.523   1.694
 6910SOL    HW121629   6.161   1.469   1.759
 6910SOL    HW221630   6.311   1.516   1.717
 6911SOL     OW21631   4.089   1.085   5.027
 6911SOL    HW121632   4.039   1.047   5.105
 6911SOL    HW221633   4.094   1.016   4.955
 6912SOL     OW21634   5.367   4.774   0.805
 6912SOL    HW121635   5.290   4.710   0.810
 6912SOL    HW221636   5.358   4.842   0.878
 6913SOL     OW21637   5.497   5.134   4.792
 6913SOL    HW121638   5.416   5.098   4.746
 6913SOL    HW221639   5.565   5.162   4.724
 6914SOL     OW21640   5.947   5.577   0.742
 6914SOL    HW121641   5.943   5.547   0.647
 6914SOL    HW221642   5.872   5.536   0.793
 6915SOL     OW21643   0.670   4.915   3.037
 6915SOL    HW121644   0.757   4.964   3.043
 6915SOL    HW221645   0.676   4.828   3.086
 6916SOL     OW21646   6.502   3.218   0.056
 6916SOL    HW121647   6.532   3.286   0.123
 6916SOL    HW221648   6.487   3.130   0.102
 6917SOL     OW21649   4.873   6.482   5.553
 6917SOL    HW121650   4.913   6.414   5.492
 6917SOL    HW221651   4.944   6.525   5.607
 6918SOL     OW21652   6.903   3.324   4.147
 6918SOL    HW121653   6.990   3.293   4.109
 6918SOL    HW221654   6.910   3.421   4.172
 6919SOL     OW21655   2.059   5.998   2.614
 6919SOL    HW121656   2.043   5.996   2.515
 6919SOL    HW221657   2.105   6.084   2.638
 6920SOL     OW21658   4.999   6.118   4.216
 6920SOL    HW121659   4.899   6.115   4.213
 6920SOL    HW221660   5.035   6.027   4.232
 6921SOL     OW21661   6.818   0.625   3.373
 6921SOL    HW121662   6.757   0.701   3.353
 6921SOL    HW221663   6.777   0.540   3.342
 6922SOL     OW21664   2.464   6.469   0.744
 6922SOL    HW121665   2.462   6.562   0.780
 6922SOL    HW221666   2.540   6.419   0.785
 6923SOL     OW21667   4.643   0.710   3.947
 6923SOL    HW121668   4.571   0.759   3.899
 6923SOL    HW221669   4.718   0.691   3.883
 6924SOL     OW21670   0.019   5.146   1.545
 6924SOL    HW121671   7.007   5.136   1.637
 6924SOL    HW221672   0.007   5.240   1.514
 6925SOL     OW21673   4.504   6.252   2.830
 6925SOL    HW121674   4.535   6.328   2.888
 6925SOL    HW221675   4.404   6.255   2.822
 6926SOL     OW21676   2.879   3.645   4.279
 6926SOL    HW121677   2.844   3.669   4.188
 6926SOL    HW221678   2.915   3.552   4.277
 6927SOL     OW21679   4.738   4.081   6.304
 6927SOL    HW121680   4.683   4.151   6.258
 6927SOL    HW221681   4.799   4.124   6.370
 6928SOL     OW21682   4.769   0.950   6.395
 6928SOL    HW121683   4.695   0.978   6.335
 6928SOL    HW221684   4.819   0.874   6.354
 6929SOL     OW21685   4.117   6.050   0.221
 6929SOL    HW121686   4.127   6.095   0.132
 6929SOL    HW221687   4.117   6.119   0.293
 6930SOL     OW21688   0.742   0.102   2.777
 6930SOL    HW121689   0.759   0.129   2.683
 6930SOL    HW221690   0.809   0.034   2.806
 6931SOL     OW21691   1.626   0.970   1.631
 6931SOL    HW121692   1.691   1.023   1.686
 6931SOL    HW221693   1.551   0.939   1.689
 6932SOL     OW21694   2.960   1.868   0.275
 6932SOL    HW121695   2.877   1.910   0.312
 6932SOL    HW221696   3.028   1.858   0.348
 6933SOL     OW21697   4.142   5.384   5.883
 6933SOL    HW121698   4.043   5.373   5.891
 6933SOL    HW221699   4.184   5.294   5.866
 6934SOL     OW21700   5.110   2.930   0.153
 6934SOL    HW121701   5.157   2.902   0.070
 6934SOL    HW221702   5.105   3.030   0.157
 6935SOL     OW21703   4.516   6.291   3.694
 6935SOL    HW121704   4.495   6.260   3.601
 6935SOL    HW221705   4.613   6.277   3.713
 6936SOL     OW21706   1.167   3.082   1.330
 6936SOL    HW121707   1.205   3.005   1.381
 6936SOL    HW221708   1.126   3.049   1.245
 6937SOL     OW21709   4.526   6.934   6.024
 6937SOL    HW121710   4.555   6.841   6.001
 6937SOL    HW221711   4.527   6.991   5.941
 6938SOL     OW21712   5.235   3.068   5.269
 6938SOL    HW121713   5.186   3.154   5.257
 6938SOL    HW221714   5.280   3.066   5.358
 6939SOL     OW21715   0.119   4.709   2.592
 6939SOL    HW121716   0.032   4.742   2.554
 6939SOL    HW221717   0.182   4.689   2.518
 6940SOL     OW21718   4.892   0.675   5.749
 6940SOL    HW121719   4.955   0.720   5.685
 6940SOL    HW221720   4.944   0.615   5.810
 6941SOL     OW21721   4.109   3.387   3.698
 6941SOL    HW121722   4.063   3.299   3.683
 6941SOL    HW221723   4.182   3.375   3.765
 6942SOL     OW21724   6.901   2.915   0.550
 6942SOL    HW121725   6.984   2.861   0.538
 6942SOL    HW221726   6.852   2.881   0.630
 6943SOL     OW21727   5.636   5.967   5.959
 6943SOL    HW121728   5.549   5.920   5.974
 6943SOL    HW221729   5.694   5.912   5.899
 6944SOL     OW21730   1.113   5.295   6.381
 6944SOL    HW121731   1.113   5.365   6.453
 6944SOL    HW221732   1.156   5.331   6.299
 6945SOL     OW21733   6.391   2.642   6.195
 6945SOL    HW121734   6.354   2.732   6.220
 6945SOL    HW221735   6.374   2.577   6.269
 6946SOL     OW21736   5.649   4.071   2.613
 6946SOL    HW121737   5.550   4.062   2.621
 6946SOL    HW221738   5.673   4.167   2.598
 6947SOL     OW21739   3.500   6.700   2.969
 6947SOL    HW121740   3.548   6.767   3.025
 6947SOL    HW221741   3.539   6.699   2.877
 6948SOL     OW21742   4.580   0.836   6.603
 6948SOL    HW121743   4.514   0.791   6.542
 6948SOL    HW221744   4.653   0.876   6.548
 6949SOL     OW21745   5.444   6.631   3.318
 6949SOL    HW121746   5.498   6.715   3.315
 6949SOL    HW221747   5.436   6.593   3.226
 6950SOL     OW21748   2.261   1.361   2.869
 6950SOL    HW121749   2.237   1.288   2.805
 6950SOL    HW221750   2.254   1.449   2.824
 6951SOL     OW21751   6.275   5.712   6.059
 6951SOL    HW121752   6.314   5.626   6.026
 6951SOL    HW221753   6.178   5.715   6.035
 6952SOL     OW21754   0.512   5.048   4.727
 6952SOL    HW121755   0.488   4.958   4.765
 6952SOL    HW221756   0.467   5.059   4.638
 6953SOL     OW21757   4.425   1.406   5.901
 6953SOL    HW121758   4.524   1.397   5.890
 6953SOL    HW221759   4.378   1.365   5.823
 6954SOL     OW21760   6.487   3.077   4.127
 6954SOL    HW121761   6.533   3.151   4.174
 6954SOL    HW221762   6.523   3.068   4.034
 6955SOL     OW21763   0.384   6.243   1.717
 6955SOL    HW121764   0.351   6.337   1.723
 6955SOL    HW221765   0.306   6.182   1.698
 6956SOL     OW21766   4.602   5.368   1.719
 6956SOL    HW121767   4.540   5.380   1.796
 6956SOL    HW221768   4.571   5.291   1.663
 6957SOL     OW21769   0.316   4.693   1.941
 6957SOL    HW121770   0.238   4.752   1.921
 6957SOL    HW221771   0.367   4.676   1.857
 6958SOL     OW21772   2.548   2.928   6.209
 6958SOL    HW121773   2.542   2.964   6.302
 6958SOL    HW221774   2.456   2.920   6.170
 6959SOL     OW21775   4.163   1.571   4.903
 6959SOL    HW121776   4.089   1.519   4.861
 6959SOL    HW221777   4.236   1.586   4.835
 6960SOL     OW21778   0.247   4.394   6.909
 6960SOL    HW121779   0.287   4.384   7.000
 6960SOL    HW221780   0.302   4.458   6.855
 6961SOL     OW21781   1.161   1.429   3.285
 6961SOL    HW121782   1.223   1.507   3.277
 6961SOL    HW221783   1.127   1.422   3.379
 6962SOL     OW21784   4.961   4.787   1.902
 6962SOL    HW121785   4.988   4.749   1.991
 6962SOL    HW221786   4.870   4.827   1.909
 6963SOL     OW21787   0.750   4.923   1.975
 6963SOL    HW121788   0.666   4.879   2.006
 6963SOL    HW221789   0.828   4.865   1.999
 6964SOL     OW21790   4.533   5.240   5.088
 6964SOL    HW121791   4.520   5.177   5.011
 6964SOL    HW221792   4.541   5.333   5.053
 6965SOL     OW21793   6.666   2.771   6.199
 6965SOL    HW121794   6.580   2.752   6.151
 6965SOL    HW221795   6.647   2.779   6.297
 6966SOL     OW21796   4.756   2.434   2.585
 6966SOL    HW121797   4.786   2.339   2.579
 6966SOL    HW221798   4.833   2.491   2.613
 6967SOL     OW21799   1.236   1.974   5.823
 6967SOL    HW121800   1.326   1.954   5.784
 6967SOL    HW221801   1.222   1.919   5.906
 6968SOL     OW21802   4.329   5.870   1.357
 6968SOL    HW121803   4.298   5.815   1.280
 6968SOL    HW221804   4.250   5.896   1.413
 6969SOL     OW21805   3.486   1.828   0.716
 6969SOL    HW121806   3.530   1.763   0.778
 6969SOL    HW221807   3.532   1.827   0.628
 6970SOL     OW21808   4.326   4.701   0.480
 6970SOL    HW121809   4.259   4.628   0.493
 6970SOL    HW221810   4.361   4.697   0.386
 6971SOL     OW21811   6.135   2.633   2.087
 6971SOL    HW121812   6.069   2.647   2.160
 6971SOL    HW221813   6.207   2.571   2.119
 6972SOL     OW21814   5.499   4.524   4.550
 6972SOL    HW121815   5.562   4.597   4.576
 6972SOL    HW221816   5.516   4.443   4.606
 6973SOL     OW21817   2.349   5.259   4.233
 6973SOL    HW121818   2.352   5.182   4.169
 6973SOL    HW221819   2.440   5.299   4.241
 6974SOL     OW21820   3.204   4.042   3.765
 6974SOL    HW121821   3.236   4.025   3.673
 6974SOL    HW221822   3.270   4.099   3.814
 6975SOL     OW21823   3.708   0.593   5.705
 6975SOL    HW121824   3.711   0.665   5.774
 6975SOL    HW221825   3.766   0.517   5.735
 6976SOL     OW21826   2.531   5.179   6.522
 6976SOL    HW121827   2.497   5.226   6.441
 6976SOL    HW221828   2.526   5.080   6.508
 6977SOL     OW21829   3.391   1.341   2.578
 6977SOL    HW121830   3.383   1.247   2.610
 6977SOL    HW221831   3.311   1.363   2.522
 6978SOL     OW21832   0.342   0.568   1.738
 6978SOL    HW121833   0.304   0.525   1.656
 6978SOL    HW221834   0.310   0.663   1.744
 6979SOL     OW21835   0.724   4.690   2.507
 6979SOL    HW121836   0.676   4.675   2.593
 6979SOL    HW221837   0.707   4.614   2.445
 6980SOL     OW21838   2.542   1.074   3.966
 6980SOL    HW121839   2.572   1.127   4.046
 6980SOL    HW221840   2.573   1.119   3.882
 6981SOL     OW21841   2.243   5.048   0.578
 6981SOL    HW121842   2.203   5.078   0.665
 6981SOL    HW221843   2.341   5.037   0.588
 6982SOL     OW21844   1.439   0.279   4.130
 6982SOL    HW121845   1.485   0.305   4.215
 6982SOL    HW221846   1.383   0.198   4.145
 6983SOL     OW21847   6.796   0.390   4.615
 6983SOL    HW121848   6.753   0.308   4.577
 6983SOL    HW221849   6.880   0.410   4.564
 6984SOL     OW21850   1.944   2.145   5.757
 6984SOL    HW121851   1.949   2.164   5.855
 6984SOL    HW221852   2.037   2.139   5.720
 6985SOL     OW21853   4.170   5.653   2.468
 6985SOL    HW121854   4.220   5.716   2.528
 6985SOL    HW221855   4.234   5.591   2.424
 6986SOL     OW21856   1.686   5.982   5.567
 6986SOL    HW121857   1.665   6.062   5.510
 6986SOL    HW221858   1.769   5.938   5.533
 6987SOL     OW21859   0.382   2.752   6.346
 6987SOL    HW121860   0.329   2.808   6.283
 6987SOL    HW221861   0.336   2.664   6.359
 6988SOL     OW21862   5.185   1.446   3.667
 6988SOL    HW121863   5.268   1.444   3.723
 6988SOL    HW221864   5.131   1.364   3.684
 6989SOL     OW21865   1.267   1.761   3.709
 6989SOL    HW121866   1.334   1.739   3.780
 6989SOL    HW221867   1.175   1.748   3.744
 6990SOL     OW21868   4.568   3.208   0.156
 6990SOL    HW121869   4.550   3.293   0.206
 6990SOL    HW221870   4.488   3.185   0.101
 6991SOL     OW21871   2.498   4.806   5.304
 6991SOL    HW121872   2.499   4.712   5.269
 6991SOL    HW221873   2.479   4.804   5.402
 6992SOL     OW21874   6.019   6.459   4.352
 6992SOL    HW121875   6.063   6.372   4.373
 6992SOL    HW221876   5.963   6.450   4.270
 6993SOL     OW21877   6.993   0.644   3.091
 6993SOL    HW121878   6.979   0.593   3.006
 6993SOL    HW221879   6.940   0.601   3.165
 6994SOL     OW21880   1.611   3.040   6.101
 6994SOL    HW121881   1.684   3.106   6.119
 6994SOL    HW221882   1.590   2.990   6.184
 6995SOL     OW21883   5.318   5.500   3.998
 6995SOL    HW121884   5.300   5.423   4.059
 6995SOL    HW221885   5.416   5.519   3.997
 6996SOL     OW21886   2.700   0.518   5.136
 6996SOL    HW121887   2.729   0.570   5.216
 6996SOL    HW221888   2.613   0.472   5.156
 6997SOL     OW21889   4.717   6.078   4.713
 6997SOL    HW121890   4.721   6.044   4.620
 6997SOL    HW221891   4.638   6.037   4.760
 6998SOL     OW21892   1.715   3.340   2.398
 6998SOL    HW121893   1.723   3.318   2.301
 6998SOL    HW221894   1.709   3.256   2.452
 6999SOL     OW21895   2.709   2.014   6.019
 6999SOL    HW121896   2.780   2.080   5.996
 6999SOL    HW221897   2.621   2.048   5.988
 7000SOL     OW21898   0.790   6.599   2.846
 7000SOL    HW121899   0.783   6.517   2.790
 7000SOL    HW221900   0.861   6.585   2.916
 7001SOL     OW21901   2.415   3.074   5.800
 7001SOL    HW121902   2.333   3.116   5.840
 7001SOL    HW221903   2.438   3.120   5.714
 7002SOL     OW21904   1.163   5.030   3.614
 7002SOL    HW121905   1.252   5.046   3.572
 7002SOL    HW221906   1.117   5.118   3.630
 7003SOL     OW21907   3.029   6.887   0.890
 7003SOL    HW121908   2.983   6.891   0.802
 7003SOL    HW221909   3.065   6.978   0.912
 7004SOL     OW21910   1.452   4.358   1.399
 7004SOL    HW121911   1.375   4.407   1.441
 7004SOL    HW221912   1.491   4.414   1.326
 7005SOL     OW21913   5.527   6.452   6.711
 7005SOL    HW121914   5.517   6.549   6.690
 7005SOL    HW221915   5.596   6.440   6.782
 7006SOL     OW21916   4.749   4.317   4.647
 7006SOL    HW121917   4.687   4.362   4.712
 7006SOL    HW221918   4.772   4.381   4.574
 7007SOL     OW21919   4.573   6.419   3.034
 7007SOL    HW121920   4.507   6.452   3.101
 7007SOL    HW221921   4.664   6.456   3.056
 7008SOL     OW21922   2.131   5.120   4.841
 7008SOL    HW121923   2.107   5.023   4.842
 7008SOL    HW221924   2.090   5.164   4.761
 7009SOL     OW21925   6.500   5.433   2.422
 7009SOL    HW121926   6.439   5.508   2.396
 7009SOL    HW221927   6.475   5.351   2.370
 7010SOL     OW21928   3.798   4.819   6.271
 7010SOL    HW121929   3.830   4.801   6.178
 7010SOL    HW221930   3.877   4.839   6.330
 7011SOL     OW21931   2.092   0.006   5.399
 7011SOL    HW121932   2.188   0.003   5.371
 7011SOL    HW221933   2.078   0.083   5.462
 7012SOL     OW21934   1.267   0.155   1.803
 7012SOL    HW121935   1.250   0.230   1.866
 7012SOL    HW221936   1.196   0.085   1.814
 7013SOL     OW21937   0.934   0.097   1.128
 7013SOL    HW121938   0.960   0.021   1.188
 7013SOL    HW221939   1.005   0.166   1.129
 7014SOL     OW21940   2.960   4.483   1.278
 7014SOL    HW121941   3.052   4.449   1.297
 7014SOL    HW221942   2.937   4.555   1.345
 7015SOL     OW21943   4.824   2.776   2.459
 7015SOL    HW121944   4.848   2.837   2.383
 7015SOL    HW221945   4.731   2.742   2.447
 7016SOL     OW21946   4.310   4.797   1.535
 7016SOL    HW121947   4.381   4.768   1.599
 7016SOL    HW221948   4.352   4.839   1.455
 7017SOL     OW21949   3.075   1.697   3.526
 7017SOL    HW121950   3.029   1.719   3.612
 7017SOL    HW221951   3.012   1.711   3.449
 7018SOL     OW21952   0.321   3.989   4.321
 7018SOL    HW121953   0.397   3.951   4.267
 7018SOL    HW221954   0.235   3.971   4.274
 7019SOL     OW21955   3.044   5.306   6.395
 7019SOL    HW121956   3.141   5.281   6.392
 7019SOL    HW221957   3.026   5.358   6.479
 7020SOL     OW21958   5.335   0.411   6.755
 7020SOL    HW121959   5.430   0.380   6.753
 7020SOL    HW221960   5.326   0.486   6.821
 7021SOL     OW21961   2.390   1.226   5.082
 7021SOL    HW121962   2.341   1.195   5.163
 7021SOL    HW221963   2.347   1.187   5.000
 7022SOL     OW21964   5.419   3.483   0.409
 7022SOL    HW121965   5.409   3.428   0.326
 7022SOL    HW221966   5.491   3.444   0.466
 7023SOL     OW21967   6.395   2.020   1.996
 7023SOL    HW121968   6.332   1.943   1.983
 7023SOL    HW221969   6.374   2.091   1.928
 7024SOL     OW21970   1.724   6.185   6.791
 7024SOL    HW121971   1.696   6.190   6.695
 7024SOL    HW221972   1.820   6.159   6.797
 7025SOL     OW21973   3.345   1.925   6.360
 7025SOL    HW121974   3.331   1.987   6.283
 7025SOL    HW221975   3.394   1.972   6.433
 7026SOL     OW21976   3.428   2.043   1.502
 7026SOL    HW121977   3.388   1.958   1.467
 7026SOL    HW221978   3.473   2.025   1.590
 7027SOL     OW21979   3.961   5.861   3.733
 7027SOL    HW121980   4.002   5.773   3.710
 7027SOL    HW221981   4.023   5.935   3.706
 7028SOL     OW21982   4.377   6.723   3.647
 7028SOL    HW121983   4.376   6.626   3.670
 7028SOL    HW221984   4.402   6.734   3.551
 7029SOL     OW21985   3.932   6.412   6.950
 7029SOL    HW121986   3.920   6.460   6.863
 7029SOL    HW221987   3.842   6.391   6.989
 7030SOL     OW21988   7.013   3.215   5.721
 7030SOL    HW121989   0.001   3.307   5.758
 7030SOL    HW221990   0.014   3.148   5.791
 7031SOL     OW21991   1.959   5.388   4.110
 7031SOL    HW121992   2.040   5.374   4.168
 7031SOL    HW221993   1.887   5.324   4.137
 7032SOL     OW21994   5.415   0.148   2.799
 7032SOL    HW121995   5.356   0.104   2.865
 7032SOL    HW221996   5.373   0.144   2.708
 7033SOL     OW21997   0.410   1.233   4.053
 7033SOL    HW121998   0.439   1.146   4.014
 7033SOL    HW221999   0.455   1.248   4.141
 7034SOL     OW22000   5.571   0.227   3.081
 7034SOL    HW122001   5.524   0.216   2.993
 7034SOL    HW222002   5.569   0.324   3.108
 7035SOL     OW22003   0.079   6.490   2.864
 7035SOL    HW122004   0.099   6.570   2.807
 7035SOL    HW222005   0.108   6.407   2.816
 7036SOL     OW22006   6.765   5.346   1.673
 7036SOL    HW122007   6.794   5.414   1.741
 7036SOL    HW222008   6.820   5.263   1.684
 7037SOL     OW22009   1.023   6.210   5.508
 7037SOL    HW122010   0.998   6.196   5.412
 7037SOL    HW222011   0.942   6.237   5.559
 7038SOL     OW22012   1.090   4.378   3.598
 7038SOL    HW122013   1.067   4.286   3.627
 7038SOL    HW222014   1.148   4.421   3.667
 7039SOL     OW22015   3.798   0.670   6.612
 7039SOL    HW122016   3.735   0.657   6.536
 7039SOL    HW222017   3.761   0.739   6.675
 7040SOL     OW22018   4.262   2.582   6.583
 7040SOL    HW122019   4.315   2.508   6.626
 7040SOL    HW222020   4.223   2.549   6.498
 7041SOL     OW22021   1.361   1.499   2.822
 7041SOL    HW122022   1.362   1.498   2.722
 7041SOL    HW222023   1.266   1.499   2.854
 7042SOL     OW22024   4.310   5.555   6.585
 7042SOL    HW122025   4.392   5.497   6.593
 7042SOL    HW222026   4.233   5.500   6.554
 7043SOL     OW22027   1.671   2.003   3.470
 7043SOL    HW122028   1.671   1.907   3.499
 7043SOL    HW222029   1.658   2.063   3.549
 7044SOL     OW22030   4.789   4.436   2.972
 7044SOL    HW122031   4.761   4.357   2.917
 7044SOL    HW222032   4.712   4.466   3.028
 7045SOL     OW22033   5.355   6.216   1.123
 7045SOL    HW122034   5.331   6.206   1.027
 7045SOL    HW222035   5.382   6.310   1.141
 7046SOL     OW22036   4.006   0.685   4.623
 7046SOL    HW122037   4.032   0.773   4.583
 7046SOL    HW222038   4.087   0.639   4.659
 7047SOL     OW22039   0.803   1.149   3.863
 7047SOL    HW122040   0.870   1.077   3.882
 7047SOL    HW222041   0.791   1.206   3.944
 7048SOL     OW22042   6.647   6.289   0.852
 7048SOL    HW122043   6.633   6.205   0.801
 7048SOL    HW222044   6.603   6.365   0.804
 7049SOL     OW22045   2.190   1.067   1.018
 7049SOL    HW122046   2.195   1.076   1.118
 7049SOL    HW222047   2.246   0.989   0.989
 7050SOL     OW22048   3.412   4.136   4.370
 7050SOL    HW122049   3.372   4.048   4.395
 7050SOL    HW222050   3.502   4.146   4.412
 7051SOL     OW22051   0.067   0.080   1.368
 7051SOL    HW122052   0.132   0.008   1.343
 7051SOL    HW222053   0.101   0.130   1.447
 7052SOL     OW22054   7.010   1.892   4.555
 7052SOL    HW122055   6.999   1.804   4.601
 7052SOL    HW222056   0.051   1.882   4.480
 7053SOL     OW22057   0.503   4.018   6.852
 7053SOL    HW122058   0.528   3.928   6.816
 7053SOL    HW222059   0.537   4.089   6.791
 7054SOL     OW22060   6.211   6.696   1.349
 7054SOL    HW122061   6.280   6.624   1.357
 7054SOL    HW222062   6.254   6.785   1.367
 7055SOL     OW22063   4.781   0.222   5.256
 7055SOL    HW122064   4.700   0.170   5.233
 7055SOL    HW222065   4.773   0.314   5.217
 7056SOL     OW22066   5.819   4.674   3.501
 7056SOL    HW122067   5.745   4.729   3.539
 7056SOL    HW222068   5.824   4.690   3.402
 7057SOL     OW22069   0.555   4.395   3.423
 7057SOL    HW122070   0.486   4.343   3.472
 7057SOL    HW222071   0.641   4.393   3.474
 7058SOL     OW22072   0.393   5.232   4.996
 7058SOL    HW122073   0.432   5.234   4.904
 7058SOL    HW222074   0.430   5.308   5.049
 7059SOL     OW22075   0.606   6.996   2.059
 7059SOL    HW122076   0.616   6.991   1.960
 7059SOL    HW222077   0.628   0.064   2.090
 7060SOL     OW22078   3.299   6.802   1.466
 7060SOL    HW122079   3.344   6.743   1.399
 7060SOL    HW222080   3.325   6.773   1.558
 7061SOL     OW22081   0.212   1.544   2.998
 7061SOL    HW122082   0.206   1.445   2.982
 7061SOL    HW222083   0.295   1.565   3.048
 7062SOL     OW22084   5.741   1.664   5.335
 7062SOL    HW122085   5.778   1.741   5.283
 7062SOL    HW222086   5.817   1.607   5.368
 7063SOL     OW22087   1.883   6.480   1.347
 7063SOL    HW122088   1.974   6.469   1.387
 7063SOL    HW222089   1.835   6.556   1.392
 7064SOL     OW22090   4.343   2.384   2.068
 7064SOL    HW122091   4.366   2.428   1.982
 7064SOL    HW222092   4.261   2.328   2.056
 7065SOL     OW22093   4.378   3.898   1.413
 7065SOL    HW122094   4.337   3.843   1.485
 7065SOL    HW222095   4.475   3.874   1.404
 7066SOL     OW22096   3.816   0.238   0.876
 7066SOL    HW122097   3.759   0.196   0.946
 7066SOL    HW222098   3.796   0.197   0.787
 7067SOL     OW22099   0.967   4.034   5.617
 7067SOL    HW122100   1.006   4.045   5.526
 7067SOL    HW222101   1.040   4.038   5.685
 7068SOL     OW22102   1.245   2.262   3.439
 7068SOL    HW122103   1.225   2.172   3.478
 7068SOL    HW222104   1.175   2.327   3.469
 7069SOL     OW22105   6.520   3.948   5.501
 7069SOL    HW122106   6.552   3.893   5.423
 7069SOL    HW222107   6.472   3.889   5.565
 7070SOL     OW22108   6.480   4.913   5.362
 7070SOL    HW122109   6.405   4.880   5.419
 7070SOL    HW222110   6.444   4.949   5.276
 7071SOL     OW22111   1.194   5.807   5.357
 7071SOL    HW122112   1.291   5.820   5.376
 7071SOL    HW222113   1.177   5.813   5.259
 7072SOL     OW22114   6.680   6.177   5.769
 7072SOL    HW122115   6.647   6.259   5.722
 7072SOL    HW222116   6.643   6.095   5.724
 7073SOL     OW22117   0.208   1.039   5.413
 7073SOL    HW122118   0.119   1.085   5.415
 7073SOL    HW222119   0.276   1.101   5.373
 7074SOL     OW22120   3.080   2.579   1.486
 7074SOL    HW122121   3.039   2.560   1.575
 7074SOL    HW222122   3.027   2.533   1.415
 7075SOL     OW22123   1.784   6.032   4.157
 7075SOL    HW122124   1.785   6.123   4.116
 7075SOL    HW222125   1.764   5.964   4.088
 7076SOL     OW22126   3.741   1.960   6.548
 7076SOL    HW122127   3.679   1.883   6.531
 7076SOL    HW222128   3.778   1.952   6.641
 7077SOL     OW22129   2.070   6.151   5.231
 7077SOL    HW122130   2.087   6.121   5.137
 7077SOL    HW222131   1.971   6.151   5.248
 7078SOL     OW22132   6.265   6.809   3.381
 7078SOL    HW122133   6.348   6.857   3.352
 7078SOL    HW222134   6.193   6.822   3.312
 7079SOL     OW22135   6.464   5.812   5.913
 7079SOL    HW122136   6.548   5.831   5.964
 7079SOL    HW222137   6.389   5.794   5.976
 7080SOL     OW22138   3.947   2.172   3.906
 7080SOL    HW122139   3.892   2.208   3.831
 7080SOL    HW222140   3.985   2.083   3.879
 7081SOL     OW22141   2.869   1.371   5.271
 7081SOL    HW122142   2.911   1.454   5.234
 7081SOL    HW222143   2.790   1.346   5.215
 7082SOL     OW22144   5.741   1.360   6.799
 7082SOL    HW122145   5.743   1.334   6.895
 7082SOL    HW222146   5.793   1.293   6.745
 7083SOL     OW22147   3.087   1.120   6.051
 7083SOL    HW122148   2.997   1.099   6.013
 7083SOL    HW222149   3.154   1.127   5.977
 7084SOL     OW22150   6.865   6.300   5.615
 7084SOL    HW122151   6.802   6.253   5.676
 7084SOL    HW222152   6.851   6.398   5.623
 7085SOL     OW22153   2.229   2.138   3.573
 7085SOL    HW122154   2.269   2.089   3.496
 7085SOL    HW222155   2.279   2.115   3.657
 7086SOL     OW22156   4.877   1.095   6.609
 7086SOL    HW122157   4.853   1.057   6.520
 7086SOL    HW222158   4.814   1.170   6.632
 7087SOL     OW22159   0.771   3.771   4.266
 7087SOL    HW122160   0.831   3.693   4.249
 7087SOL    HW222161   0.722   3.757   4.352
 7088SOL     OW22162   5.238   3.423   4.379
 7088SOL    HW122163   5.290   3.368   4.444
 7088SOL    HW222164   5.145   3.388   4.372
 7089SOL     OW22165   3.433   2.383   6.135
 7089SOL    HW122166   3.506   2.401   6.070
 7089SOL    HW222167   3.367   2.458   6.133
 7090SOL     OW22168   1.736   1.690   5.412
 7090SOL    HW122169   1.788   1.774   5.428
 7090SOL    HW222170   1.790   1.611   5.439
 7091SOL     OW22171   0.586   0.920   0.427
 7091SOL    HW122172   0.671   0.946   0.381
 7091SOL    HW222173   0.605   0.846   0.491
 7092SOL     OW22174   3.558   4.153   0.105
 7092SOL    HW122175   3.565   4.084   0.034
 7092SOL    HW222176   3.649   4.178   0.138
 7093SOL     OW22177   3.165   4.055   4.241
 7093SOL    HW122178   3.227   4.128   4.270
 7093SOL    HW222179   3.180   3.974   4.298
 7094SOL     OW22180   0.669   6.416   5.989
 7094SOL    HW122181   0.765   6.397   6.012
 7094SOL    HW222182   0.636   6.347   5.926
 7095SOL     OW22183   2.049   3.178   6.749
 7095SOL    HW122184   1.974   3.143   6.805
 7095SOL    HW222185   2.023   3.266   6.709
 7096SOL     OW22186   4.954   2.137   3.985
 7096SOL    HW122187   4.862   2.110   4.014
 7096SOL    HW222188   5.020   2.067   4.014
 7097SOL     OW22189   0.075   0.778   1.946
 7097SOL    HW122190   0.031   0.864   1.918
 7097SOL    HW222191   0.173   0.784   1.928
 7098SOL     OW22192   1.543   5.864   5.746
 7098SOL    HW122193   1.591   5.915   5.674
 7098SOL    HW222194   1.602   5.859   5.827
 7099SOL     OW22195   1.471   1.211   5.228
 7099SOL    HW122196   1.408   1.287   5.208
 7099SOL    HW222197   1.561   1.233   5.192
 7100SOL     OW22198   4.766   3.916   1.074
 7100SOL    HW122199   4.854   3.895   1.116
 7100SOL    HW222200   4.699   3.847   1.101
 7101SOL     OW22201   3.096   0.224   4.386
 7101SOL    HW122202   3.068   0.315   4.417
 7101SOL    HW222203   3.089   0.159   4.461
 7102SOL     OW22204   4.292   1.320   1.368
 7102SOL    HW122205   4.340   1.235   1.348
 7102SOL    HW222206   4.327   1.393   1.309
 7103SOL     OW22207   3.662   6.338   6.996
 7103SOL    HW122208   3.684   6.246   0.003
 7103SOL    HW222209   3.678   6.403   0.045
 7104SOL     OW22210   1.466   2.883   3.239
 7104SOL    HW122211   1.522   2.943   3.183
 7104SOL    HW222212   1.524   2.833   3.304
 7105SOL     OW22213   3.195   3.435   4.598
 7105SOL    HW122214   3.136   3.363   4.564
 7105SOL    HW222215   3.240   3.481   4.522
 7106SOL     OW22216   3.563   3.154   4.794
 7106SOL    HW122217   3.570   3.138   4.892
 7106SOL    HW222218   3.470   3.131   4.763
 7107SOL     OW22219   2.709   1.073   0.290
 7107SOL    HW122220   2.670   0.991   0.249
 7107SOL    HW222221   2.696   1.070   0.389
 7108SOL     OW22222   5.092   6.160   1.200
 7108SOL    HW122223   5.185   6.169   1.165
 7108SOL    HW222224   5.092   6.097   1.278
 7109SOL     OW22225   3.505   0.105   6.378
 7109SOL    HW122226   3.465   0.135   6.464
 7109SOL    HW222227   3.446   0.036   6.335
 7110SOL     OW22228   5.211   5.223   3.917
 7110SOL    HW122229   5.154   5.253   3.840
 7110SOL    HW222230   5.158   5.229   4.002
 7111SOL     OW22231   1.509   3.760   4.151
 7111SOL    HW122232   1.436   3.762   4.219
 7111SOL    HW222233   1.535   3.854   4.126
 7112SOL     OW22234   1.308   6.087   3.970
 7112SOL    HW122235   1.377   6.141   3.921
 7112SOL    HW222236   1.338   6.074   4.065
 7113SOL     OW22237   3.905   4.032   4.317
 7113SOL    HW122238   3.831   4.070   4.372
 7113SOL    HW222239   3.976   3.996   4.377
 7114SOL     OW22240   4.100   0.797   1.908
 7114SOL    HW122241   4.113   0.735   1.830
 7114SOL    HW222242   4.033   0.867   1.883
 7115SOL     OW22243   5.145   1.993   1.364
 7115SOL    HW122244   5.078   2.067   1.359
 7115SOL    HW222245   5.119   1.929   1.437
 7116SOL     OW22246   5.738   4.143   3.786
 7116SOL    HW122247   5.729   4.045   3.771
 7116SOL    HW222248   5.712   4.165   3.880
 7117SOL     OW22249   6.781   5.851   3.485
 7117SOL    HW122250   6.706   5.792   3.457
 7117SOL    HW222251   6.775   5.938   3.436
 7118SOL     OW22252   5.366   3.783   1.461
 7118SOL    HW122253   5.281   3.755   1.505
 7118SOL    HW222254   5.394   3.872   1.497
 7119SOL     OW22255   5.931   1.191   2.811
 7119SOL    HW122256   5.940   1.279   2.857
 7119SOL    HW222257   6.020   1.162   2.776
 7120SOL     OW22258   4.904   1.437   3.198
 7120SOL    HW122259   4.834   1.487   3.248
 7120SOL    HW222260   4.974   1.405   3.262
 7121SOL     OW22261   2.421   6.803   3.807
 7121SOL    HW122262   2.398   6.711   3.778
 7121SOL    HW222263   2.512   6.802   3.850
 7122SOL     OW22264   6.729   1.159   0.207
 7122SOL    HW122265   6.728   1.097   0.286
 7122SOL    HW222266   6.746   1.106   0.124
 7123SOL     OW22267   3.045   5.907   1.930
 7123SOL    HW122268   3.046   5.830   1.993
 7123SOL    HW222269   3.129   5.959   1.940
 7124SOL     OW22270   0.679   5.024   0.397
 7124SOL    HW122271   0.605   5.028   0.464
 7124SOL    HW222272   0.677   5.107   0.340
 7125SOL     OW22273   6.293   6.434   1.786
 7125SOL    HW122274   6.360   6.363   1.761
 7125SOL    HW222275   6.326   6.523   1.753
 7126SOL     OW22276   2.164   4.067   0.513
 7126SOL    HW122277   2.084   4.026   0.471
 7126SOL    HW222278   2.231   4.090   0.442
 7127SOL     OW22279   3.713   5.566   4.082
 7127SOL    HW122280   3.732   5.660   4.053
 7127SOL    HW222281   3.780   5.504   4.042
 7128SOL     OW22282   3.503   4.870   0.719
 7128SOL    HW122283   3.446   4.800   0.762
 7128SOL    HW222284   3.589   4.829   0.688
 7129SOL     OW22285   2.924   0.611   0.946
 7129SOL    HW122286   2.885   0.581   1.032
 7129SOL    HW222287   3.012   0.656   0.963
 7130SOL     OW22288   3.116   5.076   3.929
 7130SOL    HW122289   3.186   5.018   3.887
 7130SOL    HW222290   3.134   5.172   3.905
 7131SOL     OW22291   2.911   1.427   2.241
 7131SOL    HW122292   2.814   1.448   2.257
 7131SOL    HW222293   2.955   1.505   2.197
 7132SOL     OW22294   4.140   3.618   2.960
 7132SOL    HW122295   4.076   3.694   2.973
 7132SOL    HW222296   4.199   3.610   3.041
 7133SOL     OW22297   4.652   5.732   3.047
 7133SOL    HW122298   4.585   5.772   3.109
 7133SOL    HW222299   4.626   5.639   3.024
 7134SOL     OW22300   5.937   6.067   3.905
 7134SOL    HW122301   5.965   5.977   3.873
 7134SOL    HW222302   6.015   6.112   3.950
 7135SOL     OW22303   1.375   0.687   4.095
 7135SOL    HW122304   1.403   0.700   4.190
 7135SOL    HW222305   1.292   0.631   4.092
 7136SOL     OW22306   2.181   1.515   0.636
 7136SOL    HW122307   2.121   1.459   0.579
 7136SOL    HW222308   2.276   1.505   0.604
 7137SOL     OW22309   4.504   1.071   4.693
 7137SOL    HW122310   4.588   1.110   4.655
 7137SOL    HW222311   4.470   1.131   4.766
 7138SOL     OW22312   3.201   2.853   1.000
 7138SOL    HW122313   3.103   2.873   0.993
 7138SOL    HW222314   3.251   2.938   1.015
 7139SOL     OW22315   4.894   3.273   1.826
 7139SOL    HW122316   4.962   3.297   1.895
 7139SOL    HW222317   4.820   3.221   1.869
 7140SOL     OW22318   6.072   3.806   4.763
 7140SOL    HW122319   6.164   3.781   4.733
 7140SOL    HW222320   6.021   3.842   4.685
 7141SOL     OW22321   3.028   0.349   0.895
 7141SOL    HW122322   3.033   0.436   0.944
 7141SOL    HW222323   2.994   0.365   0.802
 7142SOL     OW22324   4.312   6.466   3.726
 7142SOL    HW122325   4.393   6.411   3.710
 7142SOL    HW222326   4.245   6.413   3.777
 7143SOL     OW22327   1.926   4.138   6.227
 7143SOL    HW122328   1.877   4.076   6.166
 7143SOL    HW222329   1.896   4.232   6.211
 7144SOL     OW22330   0.497   1.385   2.846
 7144SOL    HW122331   0.430   1.328   2.798
 7144SOL    HW222332   0.451   1.464   2.886
 7145SOL     OW22333   4.237   6.843   6.980
 7145SOL    HW122334   4.249   6.939   6.954
 7145SOL    HW222335   4.141   6.827   7.003
 7146SOL     OW22336   2.972   6.433   0.912
 7146SOL    HW122337   2.975   6.335   0.891
 7146SOL    HW222338   3.063   6.472   0.900
 7147SOL     OW22339   6.732   6.955   3.235
 7147SOL    HW122340   6.814   6.904   3.211
 7147SOL    HW222341   6.745   7.002   3.322
 7148SOL     OW22342   1.109   6.182   1.871
 7148SOL    HW122343   1.058   6.263   1.901
 7148SOL    HW222344   1.081   6.157   1.779
 7149SOL     OW22345   6.491   0.912   3.862
 7149SOL    HW122346   6.441   0.907   3.776
 7149SOL    HW222347   6.543   0.827   3.875
 7150SOL     OW22348   5.156   3.075   1.016
 7150SOL    HW122349   5.192   3.015   1.088
 7150SOL    HW222350   5.103   3.149   1.058
 7151SOL     OW22351   1.682   5.835   1.397
 7151SOL    HW122352   1.661   5.873   1.307
 7151SOL    HW222353   1.772   5.866   1.427
 7152SOL     OW22354   0.648   3.461   4.593
 7152SOL    HW122355   0.742   3.464   4.627
 7152SOL    HW222356   0.615   3.555   4.579
 7153SOL     OW22357   4.168   6.953   5.265
 7153SOL    HW122358   4.218   6.978   5.182
 7153SOL    HW222359   4.225   6.892   5.320
 7154SOL     OW22360   3.738   5.719   4.360
 7154SOL    HW122361   3.824   5.737   4.407
 7154SOL    HW222362   3.736   5.625   4.327
 7155SOL     OW22363   1.238   6.060   2.082
 7155SOL    HW122364   1.204   5.983   2.135
 7155SOL    HW222365   1.178   6.077   2.005
 7156SOL     OW22366   6.629   5.223   5.294
 7156SOL    HW122367   6.597   5.298   5.235
 7156SOL    HW222368   6.603   5.135   5.253
 7157SOL     OW22369   6.123   5.725   0.041
 7157SOL    HW122370   6.088   5.641   7.023
 7157SOL    HW222371   6.046   5.777   0.079
 7158SOL     OW22372   6.751   6.637   2.999
 7158SOL    HW122373   6.819   6.622   3.070
 7158SOL    HW222374   6.754   6.732   2.970
 7159SOL     OW22375   0.270   4.895   1.372
 7159SOL    HW122376   0.281   4.989   1.403
 7159SOL    HW222377   0.336   4.836   1.418
 7160SOL     OW22378   6.707   6.698   1.702
 7160SOL    HW122379   6.667   6.773   1.756
 7160SOL    HW222380   6.636   6.657   1.645
 7161SOL     OW22381   3.389   3.209   3.616
 7161SOL    HW122382   3.408   3.263   3.534
 7161SOL    HW222383   3.358   3.271   3.689
 7162SOL     OW22384   3.779   4.892   4.590
 7162SOL    HW122385   3.714   4.906   4.517
 7162SOL    HW222386   3.815   4.798   4.586
 7163SOL     OW22387   3.893   7.019   3.543
 7163SOL    HW122388   3.891   6.997   3.641
 7163SOL    HW222389   3.986   0.023   3.517
 7164SOL     OW22390   2.120   1.357   3.106
 7164SOL    HW122391   2.186   1.349   3.031
 7164SOL    HW222392   2.163   1.328   3.191
 7165SOL     OW22393   6.023   1.273   0.449
 7165SOL    HW122394   5.971   1.322   0.378
 7165SOL    HW222395   6.006   1.316   0.538
 7166SOL     OW22396   4.765   4.498   1.345
 7166SOL    HW122397   4.775   4.585   1.393
 7166SOL    HW222398   4.683   4.501   1.288
 7167SOL     OW22399   4.816   3.664   5.353
 7167SOL    HW122400   4.782   3.604   5.280
 7167SOL    HW222401   4.746   3.731   5.376
 7168SOL     OW22402   1.317   1.394   4.128
 7168SOL    HW122403   1.284   1.362   4.039
 7168SOL    HW222404   1.347   1.316   4.182
 7169SOL     OW22405   1.613   3.143   5.838
 7169SOL    HW122406   1.592   3.240   5.823
 7169SOL    HW222407   1.602   3.122   5.936
 7170SOL     OW22408   5.018   5.071   3.044
 7170SOL    HW122409   4.929   5.080   3.087
 7170SOL    HW222410   5.020   4.987   2.989
 7171SOL     OW22411   4.357   3.236   5.616
 7171SOL    HW122412   4.318   3.201   5.531
 7171SOL    HW222413   4.377   3.159   5.677
 7172SOL     OW22414   1.591   6.567   0.490
 7172SOL    HW122415   1.530   6.528   0.421
 7172SOL    HW222416   1.674   6.512   0.496
 7173SOL     OW22417   6.778   5.237   4.166
 7173SOL    HW122418   6.706   5.257   4.233
 7173SOL    HW222419   6.769   5.143   4.135
 7174SOL     OW22420   1.839   5.251   0.059
 7174SOL    HW122421   1.926   5.244   0.009
 7174SOL    HW222422   1.855   5.291   0.149
 7175SOL     OW22423   5.573   3.424   0.674
 7175SOL    HW122424   5.672   3.437   0.670
 7175SOL    HW222425   5.532   3.503   0.720
 7176SOL     OW22426   6.812   4.449   2.258
 7176SOL    HW122427   6.865   4.445   2.173
 7176SOL    HW222428   6.874   4.467   2.334
 7177SOL     OW22429   1.136   5.956   3.544
 7177SOL    HW122430   1.093   5.936   3.456
 7177SOL    HW222431   1.234   5.938   3.539
 7178SOL     OW22432   1.477   3.032   5.206
 7178SOL    HW122433   1.571   3.060   5.189
 7178SOL    HW222434   1.449   3.063   5.296
 7179SOL     OW22435   3.059   3.445   5.775
 7179SOL    HW122436   3.105   3.533   5.792
 7179SOL    HW222437   3.002   3.453   5.694
 7180SOL     OW22438   0.957   5.668   6.745
 7180SOL    HW122439   0.887   5.656   6.675
 7180SOL    HW222440   0.954   5.592   6.809
 7181SOL     OW22441   3.826   0.960   1.100
 7181SOL    HW122442   3.798   0.866   1.121
 7181SOL    HW222443   3.746   1.012   1.069
 7182SOL     OW22444   2.119   4.450   5.065
 7182SOL    HW122445   2.127   4.388   4.987
 7182SOL    HW222446   2.129   4.399   5.150
 7183SOL     OW22447   2.176   5.189   2.420
 7183SOL    HW122448   2.240   5.158   2.350
 7183SOL    HW222449   2.226   5.229   2.497
 7184SOL     OW22450   1.447   6.533   4.184
 7184SOL    HW122451   1.484   6.539   4.091
 7184SOL    HW222452   1.445   6.625   4.224
 7185SOL     OW22453   5.023   3.017   6.582
 7185SOL    HW122454   5.101   2.981   6.633
 7185SOL    HW222455   4.966   3.071   6.643
 7186SOL     OW22456   0.042   6.582   5.401
 7186SOL    HW122457   0.136   6.598   5.429
 7186SOL    HW222458   7.006   6.592   5.480
 7187SOL     OW22459   1.605   4.757   1.777
 7187SOL    HW122460   1.685   4.813   1.757
 7187SOL    HW222461   1.600   4.739   1.875
 7188SOL     OW22462   5.652   0.271   2.309
 7188SOL    HW122463   5.610   0.286   2.399
 7188SOL    HW222464   5.694   0.356   2.277
 7189SOL     OW22465   6.409   0.905   6.053
 7189SOL    HW122466   6.328   0.920   6.109
 7189SOL    HW222467   6.447   0.994   6.025
 7190SOL     OW22468   5.271   4.078   3.226
 7190SOL    HW122469   5.350   4.069   3.165
 7190SOL    HW222470   5.207   4.145   3.188
 7191SOL     OW22471   1.076   3.620   3.037
 7191SOL    HW122472   1.134   3.560   2.983
 7191SOL    HW222473   0.995   3.570   3.067
 7192SOL     OW22474   2.380   5.251   5.868
 7192SOL    HW122475   2.434   5.203   5.937
 7192SOL    HW222476   2.437   5.269   5.788
 7193SOL     OW22477   3.133   1.897   4.713
 7193SOL    HW122478   3.211   1.949   4.679
 7193SOL    HW222479   3.086   1.950   4.784
 7194SOL     OW22480   2.450   1.305   1.101
 7194SOL    HW122481   2.419   1.400   1.096
 7194SOL    HW222482   2.384   1.246   1.055
 7195SOL     OW22483   6.896   5.289   0.507
 7195SOL    HW122484   6.966   5.226   0.543
 7195SOL    HW222485   6.922   5.383   0.529
 7196SOL     OW22486   2.962   3.387   3.237
 7196SOL    HW122487   3.030   3.348   3.300
 7196SOL    HW222488   2.891   3.434   3.291
 7197SOL     OW22489   6.700   1.842   4.739
 7197SOL    HW122490   6.795   1.835   4.769
 7197SOL    HW222491   6.640   1.803   4.809
 7198SOL     OW22492   1.676   6.778   5.885
 7198SOL    HW122493   1.762   6.759   5.838
 7198SOL    HW222494   1.600   6.760   5.823
 7199SOL     OW22495   6.897   0.898   2.820
 7199SOL    HW122496   6.960   0.912   2.896
 7199SOL    HW222497   6.880   0.801   2.807
 7200SOL     OW22498   2.428   0.996   0.672
 7200SOL    HW122499   2.333   1.027   0.668
 7200SOL    HW222500   2.430   0.896   0.680
 7201SOL     OW22501   1.524   5.068   2.447
 7201SOL    HW122502   1.519   5.011   2.365
 7201SOL    HW222503   1.620   5.082   2.471
 7202SOL     OW22504   3.782   0.172   6.409
 7202SOL    HW122505   3.686   0.143   6.402
 7202SOL    HW222506   3.816   0.197   6.319
 7203SOL     OW22507   6.344   0.370   0.643
 7203SOL    HW122508   6.331   0.388   0.741
 7203SOL    HW222509   6.269   0.413   0.592
 7204SOL     OW22510   6.313   0.592   3.794
 7204SOL    HW122511   6.360   0.589   3.705
 7204SOL    HW222512   6.300   0.499   3.828
 7205SOL     OW22513   1.650   5.182   2.930
 7205SOL    HW122514   1.588   5.125   2.877
 7205SOL    HW222515   1.684   5.257   2.874
 7206SOL     OW22516   7.024   1.366   1.093
 7206SOL    HW122517   0.098   1.349   1.099
 7206SOL    HW222518   6.979   1.329   1.174
 7207SOL     OW22519   3.570   6.652   1.007
 7207SOL    HW122520   3.552   6.749   1.021
 7207SOL    HW222521   3.511   6.598   1.067
 7208SOL     OW22522   3.835   6.865   4.644
 7208SOL    HW122523   3.834   6.942   4.708
 7208SOL    HW222524   3.846   6.779   4.695
 7209SOL     OW22525   4.136   3.466   4.347
 7209SOL    HW122526   4.183   3.531   4.288
 7209SOL    HW222527   4.131   3.503   4.440
 7210SOL     OW22528   4.588   1.219   3.429
 7210SOL    HW122529   4.671   1.168   3.408
 7210SOL    HW222530   4.513   1.155   3.447
 7211SOL     OW22531   1.177   6.508   4.469
 7211SOL    HW122532   1.135   6.585   4.422
 7211SOL    HW222533   1.256   6.541   4.522
 7212SOL     OW22534   6.743   5.839   4.982
 7212SOL    HW122535   6.826   5.795   4.947
 7212SOL    HW222536   6.663   5.798   4.938
 7213SOL     OW22537   5.689   7.019   5.586
 7213SOL    HW122538   5.639   6.952   5.641
 7213SOL    HW222539   5.787   7.003   5.595
 7214SOL     OW22540   2.215   5.523   4.597
 7214SOL    HW122541   2.304   5.482   4.576
 7214SOL    HW222542   2.151   5.452   4.624
 7215SOL     OW22543   1.078   3.265   4.228
 7215SOL    HW122544   1.162   3.277   4.176
 7215SOL    HW222545   1.089   3.189   4.291
 7216SOL     OW22546   2.516   6.242   6.992
 7216SOL    HW122547   2.558   6.237   6.901
 7216SOL    HW222548   2.554   6.170   0.026
 7217SOL     OW22549   1.905   4.386   2.403
 7217SOL    HW122550   1.992   4.429   2.380
 7217SOL    HW222551   1.866   4.344   2.321
 7218SOL     OW22552   4.807   2.063   5.686
 7218SOL    HW122553   4.898   2.028   5.710
 7218SOL    HW222554   4.747   2.058   5.766
 7219SOL     OW22555   4.433   6.785   3.400
 7219SOL    HW122556   4.374   6.839   3.340
 7219SOL    HW222557   4.517   6.836   3.418
 7220SOL     OW22558   6.422   1.009   2.777
 7220SOL    HW122559   6.340   1.014   2.720
 7220SOL    HW222560   6.465   0.919   2.765
 7221SOL     OW22561   5.840   4.495   5.297
 7221SOL    HW122562   5.929   4.538   5.281
 7221SOL    HW222563   5.854   4.403   5.334
 7222SOL     OW22564   6.473   6.672   0.890
 7222SOL    HW122565   6.384   6.700   0.853
 7222SOL    HW222566   6.511   6.599   0.834
 7223SOL     OW22567   3.148   1.470   6.608
 7223SOL    HW122568   3.073   1.418   6.648
 7223SOL    HW222569   3.178   1.540   6.673
 7224SOL     OW22570   5.932   1.022   4.787
 7224SOL    HW122571   5.842   1.057   4.760
 7224SOL    HW222572   6.003   1.088   4.762
 7225SOL     OW22573   1.739   5.817   0.377
 7225SOL    HW122574   1.835   5.789   0.375
 7225SOL    HW222575   1.689   5.770   0.304
 7226SOL     OW22576   0.529   6.766   0.236
 7226SOL    HW122577   0.539   6.741   0.333
 7226SOL    HW222578   0.555   6.861   0.224
 7227SOL     OW22579   0.753   1.651   0.160
 7227SOL    HW122580   0.795   1.720   0.219
 7227SOL    HW222581   0.670   1.616   0.203
 7228SOL     OW22582   7.005   6.623   1.982
 7228SOL    HW122583   0.036   6.692   1.937
 7228SOL    HW222584   6.936   6.667   2.040
 7229SOL     OW22585   1.109   0.302   4.232
 7229SOL    HW122586   1.126   0.272   4.138
 7229SOL    HW222587   1.083   0.224   4.288
 7230SOL     OW22588   4.641   5.412   3.882
 7230SOL    HW122589   4.695   5.454   3.955
 7230SOL    HW222590   4.601   5.484   3.825
 7231SOL     OW22591   6.160   1.757   6.283
 7231SOL    HW122592   6.087   1.814   6.319
 7231SOL    HW222593   6.157   1.667   6.325
 7232SOL     OW22594   4.581   4.733   2.511
 7232SOL    HW122595   4.601   4.773   2.421
 7232SOL    HW222596   4.484   4.744   2.531
 7233SOL     OW22597   0.185   2.751   5.329
 7233SOL    HW122598   0.099   2.790   5.360
 7233SOL    HW222599   0.185   2.744   5.229
 7234SOL     OW22600   6.228   1.812   1.638
 7234SOL    HW122601   6.169   1.860   1.573
 7234SOL    HW222602   6.233   1.715   1.614
 7235SOL     OW22603   5.163   3.641   4.664
 7235SOL    HW122604   5.092   3.689   4.716
 7235SOL    HW222605   5.208   3.574   4.724
 7236SOL     OW22606   3.942   1.567   2.820
 7236SOL    HW122607   3.876   1.641   2.827
 7236SOL    HW222608   4.028   1.594   2.865
 7237SOL     OW22609   6.273   6.200   5.753
 7237SOL    HW122610   6.302   6.220   5.660
 7237SOL    HW222611   6.281   6.102   5.771
 7238SOL     OW22612   2.600   1.609   2.318
 7238SOL    HW122613   2.555   1.544   2.255
 7238SOL    HW222614   2.531   1.655   2.373
 7239SOL     OW22615   1.704   1.206   2.679
 7239SOL    HW122616   1.705   1.123   2.735
 7239SOL    HW222617   1.783   1.263   2.702
 7240SOL     OW22618   2.857   4.080   0.602
 7240SOL    HW122619   2.851   4.106   0.698
 7240SOL    HW222620   2.953   4.067   0.577
 7241SOL     OW22621   3.592   0.034   5.453
 7241SOL    HW122622   3.510   0.018   5.399
 7241SOL    HW222623   3.567   0.073   5.542
 7242SOL     OW22624   5.757   4.483   6.709
 7242SOL    HW122625   5.729   4.463   6.803
 7242SOL    HW222626   5.850   4.450   6.695
 7243SOL     OW22627   0.814   5.448   6.980
 7243SOL    HW122628   0.880   5.398   6.925
 7243SOL    HW222629   0.752   5.384   0.000
 7244SOL     OW22630   5.770   1.855   1.299
 7244SOL    HW122631   5.845   1.798   1.267
 7244SOL    HW222632   5.683   1.811   1.276
 7245SOL     OW22633   0.393   2.171   4.862
 7245SOL    HW122634   0.334   2.119   4.801
 7245SOL    HW222635   0.463   2.110   4.900
 7246SOL     OW22636   5.969   7.014   4.818
 7246SOL    HW122637   5.903   0.040   4.762
 7246SOL    HW222638   6.037   6.972   4.758
 7247SOL     OW22639   2.599   6.073   2.006
 7247SOL    HW122640   2.507   6.085   2.043
 7247SOL    HW222641   2.665   6.114   2.068
 7248SOL     OW22642   4.071   1.115   3.933
 7248SOL    HW122643   4.038   1.065   4.012
 7248SOL    HW222644   3.998   1.125   3.866
 7249SOL     OW22645   5.638   4.615   0.489
 7249SOL    HW122646   5.709   4.673   0.528
 7249SOL    HW222647   5.583   4.575   0.563
 7250SOL     OW22648   2.774   4.980   6.062
 7250SOL    HW122649   2.833   5.023   6.130
 7250SOL    HW222650   2.799   5.014   5.971
 7251SOL     OW22651   6.976   6.893   4.721
 7251SOL    HW122652   6.876   6.899   4.719
 7251SOL    HW222653   7.010   6.923   4.811
 7252SOL     OW22654   3.288   3.390   4.963
 7252SOL    HW122655   3.243   3.326   5.025
 7252SOL    HW222656   3.378   3.355   4.938
 7253SOL     OW22657   3.234   6.357   0.575
 7253SOL    HW122658   3.278   6.324   0.658
 7253SOL    HW222659   3.248   6.292   0.501
 7254SOL     OW22660   3.790   5.811   3.973
 7254SOL    HW122661   3.736   5.894   3.964
 7254SOL    HW222662   3.843   5.796   3.889
 7255SOL     OW22663   3.131   3.691   2.263
 7255SOL    HW122664   3.071   3.634   2.207
 7255SOL    HW222665   3.225   3.656   2.257
 7256SOL     OW22666   4.301   4.695   4.041
 7256SOL    HW122667   4.328   4.674   3.947
 7256SOL    HW222668   4.309   4.793   4.057
 7257SOL     OW22669   5.505   2.312   3.172
 7257SOL    HW122670   5.576   2.345   3.234
 7257SOL    HW222671   5.536   2.229   3.127
 7258SOL     OW22672   3.425   0.232   5.118
 7258SOL    HW122673   3.389   0.314   5.074
 7258SOL    HW222674   3.378   0.151   5.083
 7259SOL     OW22675   2.236   4.204   0.106
 7259SOL    HW122676   2.314   4.207   0.169
 7259SOL    HW222677   2.226   4.293   0.061
 7260SOL     OW22678   2.997   1.910   2.684
 7260SOL    HW122679   2.998   1.980   2.612
 7260SOL    HW222680   2.911   1.915   2.734
 7261SOL     OW22681   2.133   3.209   1.919
 7261SOL    HW122682   2.206   3.155   1.877
 7261SOL    HW222683   2.169   3.298   1.947
 7262SOL     OW22684   5.512   2.120   4.924
 7262SOL    HW122685   5.437   2.054   4.922
 7262SOL    HW222686   5.541   2.135   5.018
 7263SOL     OW22687   1.398   6.088   1.226
 7263SOL    HW122688   1.371   6.156   1.157
 7263SOL    HW222689   1.485   6.047   1.200
 7264SOL     OW22690   6.614   0.821   6.490
 7264SOL    HW122691   6.644   0.726   6.478
 7264SOL    HW222692   6.685   0.882   6.455
 7265SOL     OW22693   4.949   5.091   5.659
 7265SOL    HW122694   5.039   5.056   5.686
 7265SOL    HW222695   4.945   5.189   5.675
 7266SOL     OW22696   4.643   0.437   2.095
 7266SOL    HW122697   4.728   0.434   2.043
 7266SOL    HW222698   4.581   0.504   2.053
 7267SOL     OW22699   0.298   3.706   4.449
 7267SOL    HW122700   0.232   3.643   4.490
 7267SOL    HW222701   0.251   3.788   4.419
 7268SOL     OW22702   4.053   6.404   1.367
 7268SOL    HW122703   3.997   6.387   1.286
 7268SOL    HW222704   4.129   6.465   1.342
 7269SOL     OW22705   1.094   5.861   2.219
 7269SOL    HW122706   1.137   5.778   2.254
 7269SOL    HW222707   1.024   5.837   2.152
 7270SOL     OW22708   2.154   1.240   2.647
 7270SOL    HW122709   2.178   1.153   2.604
 7270SOL    HW222710   2.125   1.305   2.576
 7271SOL     OW22711   0.092   3.862   3.030
 7271SOL    HW122712   0.187   3.886   3.045
 7271SOL    HW222713   0.079   3.764   3.047
 7272SOL     OW22714   4.488   2.480   2.645
 7272SOL    HW122715   4.578   2.436   2.643
 7272SOL    HW222716   4.481   2.546   2.570
 7273SOL     OW22717   5.814   4.389   1.027
 7273SOL    HW122718   5.759   4.451   1.083
 7273SOL    HW222719   5.772   4.380   0.937
 7274SOL     OW22720   6.901   4.946   5.628
 7274SOL    HW122721   6.947   4.997   5.555
 7274SOL    HW222722   6.824   4.895   5.590
 7275SOL     OW22723   0.047   0.438   0.399
 7275SOL    HW122724   7.002   0.421   0.329
 7275SOL    HW222725   0.114   0.504   0.364
 7276SOL     OW22726   2.106   2.417   4.292
 7276SOL    HW122727   2.145   2.508   4.288
 7276SOL    HW222728   2.153   2.363   4.361
 7277SOL     OW22729   4.589   1.901   4.824
 7277SOL    HW122730   4.673   1.923   4.874
 7277SOL    HW222731   4.572   1.971   4.755
 7278SOL     OW22732   3.391   1.300   3.472
 7278SOL    HW122733   3.346   1.352   3.399
 7278SOL    HW222734   3.401   1.357   3.553
 7279SOL     OW22735   5.086   4.883   0.361
 7279SOL    HW122736   5.179   4.887   0.323
 7279SOL    HW222737   5.043   4.973   0.352
 7280SOL     OW22738   5.558   2.276   5.214
 7280SOL    HW122739   5.495   2.293   5.290
 7280SOL    HW222740   5.541   2.343   5.142
 7281SOL     OW22741   3.710   6.756   1.978
 7281SOL    HW122742   3.737   6.699   1.901
 7281SOL    HW222743   3.632   6.714   2.025
 7282SOL     OW22744   6.906   5.500   2.099
 7282SOL    HW122745   6.866   5.484   2.189
 7282SOL    HW222746   7.001   5.528   2.108
 7283SOL     OW22747   4.292   5.202   2.491
 7283SOL    HW122748   4.262   5.209   2.586
 7283SOL    HW222749   4.276   5.109   2.457
 7284SOL     OW22750   6.543   1.475   3.780
 7284SOL    HW122751   6.594   1.514   3.703
 7284SOL    HW222752   6.499   1.548   3.831
 7285SOL     OW22753   4.809   2.949   2.240
 7285SOL    HW122754   4.887   3.005   2.270
 7285SOL    HW222755   4.774   2.984   2.153
 7286SOL     OW22756   0.604   1.164   0.933
 7286SOL    HW122757   0.649   1.198   0.850
 7286SOL    HW222758   0.662   1.180   1.012
 7287SOL     OW22759   1.418   2.784   4.091
 7287SOL    HW122760   1.385   2.751   4.180
 7287SOL    HW222761   1.348   2.842   4.050
 7288SOL     OW22762   3.159   2.099   3.113
 7288SOL    HW122763   3.091   2.152   3.063
 7288SOL    HW222764   3.113   2.026   3.165
 7289SOL     OW22765   5.825   2.110   1.377
 7289SOL    HW122766   5.812   2.179   1.306
 7289SOL    HW222767   5.777   2.026   1.350
 7290SOL     OW22768   3.427   1.581   4.735
 7290SOL    HW122769   3.464   1.527   4.659
 7290SOL    HW222770   3.408   1.521   4.812
 7291SOL     OW22771   4.317   1.149   0.468
 7291SOL    HW122772   4.268   1.153   0.381
 7291SOL    HW222773   4.351   1.056   0.483
 7292SOL     OW22774   1.904   6.845   3.200
 7292SOL    HW122775   1.930   6.759   3.155
 7292SOL    HW222776   1.840   6.895   3.141
 7293SOL     OW22777   1.540   0.781   4.954
 7293SOL    HW122778   1.637   0.756   4.944
 7293SOL    HW222779   1.530   0.880   4.948
 7294SOL     OW22780   2.525   5.702   1.251
 7294SOL    HW122781   2.575   5.713   1.337
 7294SOL    HW222782   2.478   5.787   1.229
 7295SOL     OW22783   6.474   5.178   2.294
 7295SOL    HW122784   6.395   5.122   2.267
 7295SOL    HW222785   6.545   5.172   2.224
 7296SOL     OW22786   4.514   5.133   1.948
 7296SOL    HW122787   4.502   5.113   2.045
 7296SOL    HW222788   4.461   5.068   1.893
 7297SOL     OW22789   3.623   6.278   1.269
 7297SOL    HW122790   3.573   6.328   1.340
 7297SOL    HW222791   3.670   6.200   1.309
 7298SOL     OW22792   4.979   5.809   6.528
 7298SOL    HW122793   4.915   5.775   6.597
 7298SOL    HW222794   5.002   5.736   6.464
 7299SOL     OW22795   1.501   2.978   0.050
 7299SOL    HW122796   1.581   2.931   0.012
 7299SOL    HW222797   1.418   2.940   0.009
 7300SOL     OW22798   0.752   5.217   1.688
 7300SOL    HW122799   0.746   5.164   1.604
 7300SOL    HW222800   0.827   5.284   1.681
 7301SOL     OW22801   5.096   6.624   5.670
 7301SOL    HW122802   5.072   6.691   5.740
 7301SOL    HW222803   5.169   6.660   5.612
 7302SOL     OW22804   5.017   2.093   6.091
 7302SOL    HW122805   5.057   2.161   6.030
 7302SOL    HW222806   5.035   2.002   6.055
 7303SOL     OW22807   2.905   1.336   0.987
 7303SOL    HW122808   2.887   1.291   1.075
 7303SOL    HW222809   2.828   1.320   0.925
 7304SOL     OW22810   2.878   5.542   1.765
 7304SOL    HW122811   2.862   5.565   1.861
 7304SOL    HW222812   2.839   5.613   1.706
 7305SOL     OW22813   6.179   1.996   0.653
 7305SOL    HW122814   6.128   1.966   0.572
 7305SOL    HW222815   6.125   2.063   0.703
 7306SOL     OW22816   2.197   1.918   0.995
 7306SOL    HW122817   2.200   1.831   0.946
 7306SOL    HW222818   2.202   1.901   1.093
 7307SOL     OW22819   1.741   6.526   1.874
 7307SOL    HW122820   1.664   6.496   1.819
 7307SOL    HW222821   1.717   6.610   1.922
 7308SOL     OW22822   5.090   1.260   2.561
 7308SOL    HW122823   5.074   1.177   2.614
 7308SOL    HW222824   5.145   1.324   2.614
 7309SOL     OW22825   1.831   5.449   3.314
 7309SOL    HW122826   1.901   5.380   3.327
 7309SOL    HW222827   1.846   5.497   3.227
 7310SOL     OW22828   1.967   3.250   0.429
 7310SOL    HW122829   2.044   3.193   0.402
 7310SOL    HW222830   1.995   3.346   0.426
 7311SOL     OW22831   6.795   6.598   6.224
 7311SOL    HW122832   6.837   6.522   6.273
 7311SOL    HW222833   6.767   6.567   6.133
 7312SOL     OW22834   6.965   2.340   5.192
 7312SOL    HW122835   6.867   2.359   5.198
 7312SOL    HW222836   7.001   2.320   5.283
 7313SOL     OW22837   2.927   0.931   2.006
 7313SOL    HW122838   2.936   0.925   1.907
 7313SOL    HW222839   2.960   1.020   2.037
 7314SOL     OW22840   0.499   4.163   0.368
 7314SOL    HW122841   0.477   4.169   0.270
 7314SOL    HW222842   0.494   4.254   0.408
 7315SOL     OW22843   1.450   4.574   2.627
 7315SOL    HW122844   1.419   4.506   2.562
 7315SOL    HW222845   1.519   4.533   2.688
 7316SOL     OW22846   3.635   2.195   0.701
 7316SOL    HW122847   3.544   2.167   0.730
 7316SOL    HW222848   3.680   2.119   0.654
 7317SOL     OW22849   3.694   1.861   1.551
 7317SOL    HW122850   3.709   1.960   1.549
 7317SOL    HW222851   3.671   1.829   1.459
 7318SOL     OW22852   3.815   6.758   0.577
 7318SOL    HW122853   3.724   6.747   0.616
 7318SOL    HW222854   3.871   6.678   0.599
 7319SOL     OW22855   6.404   4.590   0.045
 7319SOL    HW122856   6.431   4.494   0.044
 7319SOL    HW222857   6.457   4.639   0.114
 7320SOL     OW22858   6.816   2.779   1.000
 7320SOL    HW122859   6.905   2.735   1.002
 7320SOL    HW222860   6.745   2.713   1.025
 7321SOL     OW22861   1.215   0.298   6.651
 7321SOL    HW122862   1.230   0.391   6.616
 7321SOL    HW222863   1.222   0.299   6.751
 7322SOL     OW22864   0.363   2.957   2.570
 7322SOL    HW122865   0.383   3.054   2.559
 7322SOL    HW222866   0.430   2.903   2.519
 7323SOL     OW22867   1.275   1.825   1.842
 7323SOL    HW122868   1.273   1.922   1.819
 7323SOL    HW222869   1.184   1.796   1.874
 7324SOL     OW22870   5.591   4.618   3.315
 7324SOL    HW122871   5.529   4.671   3.373
 7324SOL    HW222872   5.639   4.550   3.371
 7325SOL     OW22873   4.151   1.046   6.196
 7325SOL    HW122874   4.216   0.979   6.161
 7325SOL    HW222875   4.149   1.126   6.136
 7326SOL     OW22876   2.517   0.616   0.038
 7326SOL    HW122877   2.438   0.564   0.069
 7326SOL    HW222878   2.583   0.554   7.020
 7327SOL     OW22879   6.912   3.803   2.634
 7327SOL    HW122880   6.822   3.760   2.634
 7327SOL    HW222881   6.903   3.901   2.616
 7328SOL     OW22882   4.433   4.738   5.100
 7328SOL    HW122883   4.400   4.651   5.064
 7328SOL    HW222884   4.387   4.813   5.052
 7329SOL     OW22885   2.943   3.011   0.698
 7329SOL    HW122886   2.895   3.011   0.610
 7329SOL    HW222887   3.010   3.084   0.700
 7330SOL     OW22888   3.362   3.069   1.063
 7330SOL    HW122889   3.271   3.103   1.088
 7330SOL    HW222890   3.427   3.095   1.134
 7331SOL     OW22891   4.769   0.528   2.775
 7331SOL    HW122892   4.842   0.459   2.775
 7331SOL    HW222893   4.780   0.586   2.856
 7332SOL     OW22894   2.766   4.151   6.873
 7332SOL    HW122895   2.757   4.066   6.821
 7332SOL    HW222896   2.818   4.217   6.820
 7333SOL     OW22897   6.875   2.475   1.463
 7333SOL    HW122898   6.805   2.412   1.495
 7333SOL    HW222899   6.840   2.569   1.466
 7334SOL     OW22900   2.978   0.318   5.187
 7334SOL    HW122901   2.891   0.268   5.189
 7334SOL    HW222902   3.053   0.255   5.168
 7335SOL     OW22903   6.875   2.649   2.431
 7335SOL    HW122904   6.794   2.702   2.457
 7335SOL    HW222905   6.951   2.711   2.414
 7336SOL     OW22906   1.262   6.290   1.042
 7336SOL    HW122907   1.344   6.297   0.985
 7336SOL    HW222908   1.186   6.256   0.987
 7337SOL     OW22909   2.338   2.615   2.795
 7337SOL    HW122910   2.335   2.672   2.877
 7337SOL    HW222911   2.248   2.573   2.781
 7338SOL     OW22912   5.890   3.086   1.827
 7338SOL    HW122913   5.951   3.163   1.844
 7338SOL    HW222914   5.943   3.002   1.816
 7339SOL     OW22915   6.658   5.256   4.711
 7339SOL    HW122916   6.608   5.316   4.649
 7339SOL    HW222917   6.613   5.166   4.714
 7340SOL     OW22918   2.825   0.241   0.321
 7340SOL    HW122919   2.764   0.218   0.397
 7340SOL    HW222920   2.854   0.336   0.328
 7341SOL     OW22921   6.441   4.863   3.902
 7341SOL    HW122922   6.382   4.790   3.937
 7341SOL    HW222923   6.399   4.904   3.821
 7342SOL     OW22924   6.926   0.218   0.718
 7342SOL    HW122925   6.916   0.142   0.654
 7342SOL    HW222926   6.914   0.304   0.669
 7343SOL     OW22927   6.310   4.042   2.173
 7343SOL    HW122928   6.408   4.024   2.162
 7343SOL    HW222929   6.292   4.072   2.266
 7344SOL     OW22930   1.627   6.434   6.928
 7344SOL    HW122931   1.714   6.467   6.965
 7344SOL    HW222932   1.636   6.337   6.904
 7345SOL     OW22933   4.165   5.217   6.218
 7345SOL    HW122934   4.075   5.175   6.207
 7345SOL    HW222935   4.234   5.161   6.171
 7346SOL     OW22936   3.956   4.844   1.812
 7346SOL    HW122937   4.007   4.841   1.898
 7346SOL    HW222938   3.996   4.914   1.752
 7347SOL     OW22939   6.140   1.459   2.145
 7347SOL    HW122940   6.084   1.541   2.137
 7347SOL    HW222941   6.237   1.484   2.143
 7348SOL     OW22942   1.292   1.981   3.540
 7348SOL    HW122943   1.269   1.916   3.613
 7348SOL    HW222944   1.345   2.057   3.578
 7349SOL     OW22945   3.711   1.710   0.503
 7349SOL    HW122946   3.702   1.651   0.423
 7349SOL    HW222947   3.754   1.659   0.578
 7350SOL     OW22948   1.505   2.282   3.340
 7350SOL    HW122949   1.535   2.200   3.292
 7350SOL    HW222950   1.413   2.268   3.377
 7351SOL     OW22951   4.607   4.638   0.208
 7351SOL    HW122952   4.538   4.573   0.242
 7351SOL    HW222953   4.660   4.595   0.136
 7352SOL     OW22954   0.651   2.102   2.765
 7352SOL    HW122955   0.638   2.050   2.681
 7352SOL    HW222956   0.565   2.145   2.792
 7353SOL     OW22957   5.709   1.554   4.546
 7353SOL    HW122958   5.768   1.487   4.502
 7353SOL    HW222959   5.765   1.623   4.591
 7354SOL     OW22960   6.204   5.929   5.820
 7354SOL    HW122961   6.156   5.890   5.741
 7354SOL    HW222962   6.301   5.906   5.813
 7355SOL     OW22963   1.547   5.412   1.613
 7355SOL    HW122964   1.471   5.374   1.665
 7355SOL    HW222965   1.629   5.357   1.630
 7356SOL     OW22966   6.446   1.662   6.096
 7356SOL    HW122967   6.348   1.664   6.078
 7356SOL    HW222968   6.461   1.637   6.192
 7357SOL     OW22969   5.798   2.281   6.660
 7357SOL    HW122970   5.891   2.249   6.679
 7357SOL    HW222971   5.746   2.208   6.616
 7358SOL     OW22972   3.233   1.447   4.343
 7358SOL    HW122973   3.302   1.377   4.361
 7358SOL    HW222974   3.168   1.413   4.274
 7359SOL     OW22975   3.833   3.035   3.076
 7359SOL    HW122976   3.895   3.019   3.153
 7359SOL    HW222977   3.765   2.961   3.072
 7360SOL     OW22978   1.100   2.891   5.213
 7360SOL    HW122979   1.125   2.806   5.165
 7360SOL    HW222980   1.066   2.869   5.304
 7361SOL     OW22981   5.172   5.953   2.124
 7361SOL    HW122982   5.239   6.009   2.172
 7361SOL    HW222983   5.109   6.013   2.074
 7362SOL     OW22984   2.128   5.558   5.726
 7362SOL    HW122985   2.076   5.638   5.757
 7362SOL    HW222986   2.090   5.476   5.767
 7363SOL     OW22987   4.912   3.104   6.848
 7363SOL    HW122988   4.838   3.163   6.879
 7363SOL    HW222989   4.985   3.104   6.917
 7364SOL     OW22990   4.397   6.312   1.276
 7364SOL    HW122991   4.401   6.290   1.374
 7364SOL    HW222992   4.371   6.407   1.264
 7365SOL     OW22993   2.560   0.133   2.259
 7365SOL    HW122994   2.549   0.074   2.179
 7365SOL    HW222995   2.640   0.103   2.311
 7366SOL     OW22996   0.211   4.774   6.859
 7366SOL    HW122997   0.152   4.854   6.855
 7366SOL    HW222998   0.306   4.802   6.872
 7367SOL     OW22999   4.810   4.056   1.735
 7367SOL    HW123000   4.818   4.097   1.644
 7367SOL    HW223001   4.872   4.102   1.798
 7368SOL     OW23002   2.948   3.339   4.812
 7368SOL    HW123003   2.958   3.293   4.724
 7368SOL    HW223004   2.897   3.280   4.875
 7369SOL     OW23005   5.258   3.744   0.956
 7369SOL    HW123006   5.316   3.664   0.942
 7369SOL    HW223007   5.247   3.793   0.870
 7370SOL     OW23008   2.709   6.962   0.847
 7370SOL    HW123009   2.712   0.013   0.914
 7370SOL    HW223010   2.775   6.980   0.774
 7371SOL     OW23011   3.059   5.016   4.196
 7371SOL    HW123012   3.077   5.061   4.109
 7371SOL    HW223013   2.973   4.964   4.189
 7372SOL     OW23014   3.180   0.320   5.601
 7372SOL    HW123015   3.179   0.220   5.604
 7372SOL    HW223016   3.206   0.350   5.509
 7373SOL     OW23017   3.631   0.687   2.284
 7373SOL    HW123018   3.698   0.721   2.218
 7373SOL    HW223019   3.660   0.713   2.376
 7374SOL     OW23020   1.235   3.104   6.637
 7374SOL    HW123021   1.165   3.033   6.633
 7374SOL    HW223022   1.322   3.067   6.605
 7375SOL     OW23023   1.140   0.555   4.148
 7375SOL    HW123024   1.132   0.465   4.191
 7375SOL    HW223025   1.088   0.622   4.200
 7376SOL     OW23026   2.755   3.272   0.294
 7376SOL    HW123027   2.819   3.199   0.320
 7376SOL    HW223028   2.677   3.233   0.245
 7377SOL     OW23029   4.629   4.618   2.147
 7377SOL    HW123030   4.620   4.595   2.049
 7377SOL    HW223031   4.568   4.559   2.200
 7378SOL     OW23032   6.959   0.995   4.775
 7378SOL    HW123033   6.931   1.091   4.778
 7378SOL    HW223034   6.883   0.940   4.744
 7379SOL     OW23035   4.076   1.479   2.153
 7379SOL    HW123036   4.029   1.539   2.218
 7379SOL    HW223037   4.153   1.434   2.197
 7380SOL     OW23038   0.127   3.455   5.845
 7380SOL    HW123039   0.100   3.550   5.860
 7380SOL    HW223040   0.220   3.441   5.876
 7381SOL     OW23041   4.635   2.177   2.285
 7381SOL    HW123042   4.627   2.097   2.227
 7381SOL    HW223043   4.559   2.179   2.350
 7382SOL     OW23044   0.241   4.795   4.184
 7382SOL    HW123045   0.191   4.876   4.215
 7382SOL    HW223046   0.299   4.761   4.258
 7383SOL     OW23047   0.039   6.375   3.343
 7383SOL    HW123048   0.018   6.423   3.428
 7383SOL    HW223049   0.129   6.333   3.350
 7384SOL     OW23050   5.267   6.724   2.335
 7384SOL    HW123051   5.344   6.742   2.274
 7384SOL    HW223052   5.256   6.801   2.398
 7385SOL     OW23053   4.732   6.036   1.430
 7385SOL    HW123054   4.669   6.044   1.353
 7385SOL    HW223055   4.740   6.125   1.475
 7386SOL     OW23056   0.945   2.470   5.656
 7386SOL    HW123057   0.974   2.548   5.712
 7386SOL    HW223058   1.021   2.408   5.642
 7387SOL     OW23059   4.271   5.424   3.881
 7387SOL    HW123060   4.213   5.441   3.961
 7387SOL    HW223061   4.341   5.356   3.904
 7388SOL     OW23062   6.657   4.321   3.825
 7388SOL    HW123063   6.694   4.244   3.877
 7388SOL    HW223064   6.557   4.318   3.826
 7389SOL     OW23065   1.874   4.635   6.832
 7389SOL    HW123066   1.833   4.724   6.812
 7389SOL    HW223067   1.881   4.622   6.931
 7390SOL     OW23068   0.725   1.184   5.863
 7390SOL    HW123069   0.654   1.114   5.853
 7390SOL    HW223070   0.711   1.233   5.949
 7391SOL     OW23071   6.490   3.387   6.557
 7391SOL    HW123072   6.397   3.365   6.587
 7391SOL    HW223073   6.554   3.318   6.591
 7392SOL     OW23074   1.292   4.965   4.250
 7392SOL    HW123075   1.353   4.954   4.172
 7392SOL    HW223076   1.223   4.893   4.249
 7393SOL     OW23077   0.052   5.233   2.303
 7393SOL    HW123078   0.127   5.210   2.240
 7393SOL    HW223079   0.090   5.272   2.387
 7394SOL     OW23080   3.732   3.284   6.272
 7394SOL    HW123081   3.690   3.231   6.199
 7394SOL    HW223082   3.789   3.356   6.232
 7395SOL     OW23083   0.674   7.018   0.274
 7395SOL    HW123084   0.753   7.021   0.214
 7395SOL    HW223085   0.602   0.053   0.238
 7396SOL     OW23086   1.349   0.405   6.338
 7396SOL    HW123087   1.436   0.386   6.383
 7396SOL    HW223088   1.315   0.494   6.368
 7397SOL     OW23089   6.721   4.699   5.119
 7397SOL    HW123090   6.805   4.751   5.134
 7397SOL    HW223091   6.723   4.616   5.174
 7398SOL     OW23092   4.680   4.669   4.041
 7398SOL    HW123093   4.624   4.714   4.111
 7398SOL    HW223094   4.636   4.585   4.011
 7399SOL     OW23095   5.583   3.934   6.002
 7399SOL    HW123096   5.629   3.874   5.937
 7399SOL    HW223097   5.484   3.926   5.991
 7400SOL     OW23098   3.110   5.022   6.544
 7400SOL    HW123099   3.059   4.962   6.483
 7400SOL    HW223100   3.203   5.036   6.508
 7401SOL     OW23101   0.206   1.864   3.930
 7401SOL    HW123102   0.279   1.832   3.869
 7401SOL    HW223103   0.162   1.944   3.889
 7402SOL     OW23104   2.443   0.309   3.560
 7402SOL    HW123105   2.507   0.235   3.579
 7402SOL    HW223106   2.373   0.277   3.496
 7403SOL     OW23107   2.105   3.124   2.852
 7403SOL    HW123108   2.120   3.144   2.949
 7403SOL    HW223109   2.080   3.208   2.804
 7404SOL     OW23110   1.238   0.570   1.161
 7404SOL    HW123111   1.285   0.593   1.076
 7404SOL    HW223112   1.162   0.635   1.176
 7405SOL     OW23113   2.811   5.253   5.456
 7405SOL    HW123114   2.794   5.247   5.554
 7405SOL    HW223115   2.857   5.169   5.425
 7406SOL     OW23116   1.488   4.072   2.191
 7406SOL    HW123117   1.411   4.130   2.163
 7406SOL    HW223118   1.481   4.051   2.288
 7407SOL     OW23119   1.316   6.175   5.490
 7407SOL    HW123120   1.258   6.113   5.541
 7407SOL    HW223121   1.285   6.180   5.395
 7408SOL     OW23122   1.510   4.322   5.404
 7408SOL    HW123123   1.519   4.401   5.344
 7408SOL    HW223124   1.598   4.302   5.447
 7409SOL     OW23125   1.647   0.335   4.680
 7409SOL    HW123126   1.554   0.317   4.649
 7409SOL    HW223127   1.658   0.305   4.775
 7410SOL     OW23128   6.829   5.430   1.159
 7410SOL    HW123129   6.835   5.524   1.193
 7410SOL    HW223130   6.913   5.406   1.112
 7411SOL     OW23131   2.652   6.251   4.964
 7411SOL    HW123132   2.655   6.252   5.064
 7411SOL    HW223133   2.557   6.260   4.934
 7412SOL     OW23134   1.646   1.200   1.300
 7412SOL    HW123135   1.583   1.127   1.271
 7412SOL    HW223136   1.658   1.197   1.399
 7413SOL     OW23137   5.974   3.837   4.470
 7413SOL    HW123138   6.071   3.816   4.466
 7413SOL    HW223139   5.954   3.918   4.414
 7414SOL     OW23140   6.555   6.524   2.255
 7414SOL    HW123141   6.522   6.472   2.333
 7414SOL    HW223142   6.546   6.470   2.172
 7415SOL     OW23143   2.156   3.014   3.251
 7415SOL    HW123144   2.078   2.966   3.211
 7415SOL    HW223145   2.238   2.957   3.245
 7416SOL     OW23146   3.720   1.161   4.204
 7416SOL    HW123147   3.723   1.117   4.294
 7416SOL    HW223148   3.635   1.212   4.194
 7417SOL     OW23149   1.367   0.023   0.109
 7417SOL    HW123150   1.345   6.950   0.112
 7417SOL    HW223151   1.373   0.059   0.202
 7418SOL     OW23152   2.858   3.994   1.422
 7418SOL    HW123153   2.918   4.065   1.459
 7418SOL    HW223154   2.772   4.035   1.392
 7419SOL     OW23155   5.481   1.572   5.254
 7419SOL    HW123156   5.497   1.607   5.162
 7419SOL    HW223157   5.567   1.574   5.306
 7420SOL     OW23158   6.672   5.928   2.047
 7420SOL    HW123159   6.630   5.838   2.034
 7420SOL    HW223160   6.602   5.998   2.042
 7421SOL     OW23161   3.797   3.786   1.736
 7421SOL    HW123162   3.804   3.744   1.827
 7421SOL    HW223163   3.766   3.881   1.745
 7422SOL     OW23164   0.305   3.395   0.605
 7422SOL    HW123165   0.252   3.469   0.646
 7422SOL    HW223166   0.319   3.322   0.672
 7423SOL     OW23167   1.753   4.877   6.092
 7423SOL    HW123168   1.831   4.906   6.038
 7423SOL    HW223169   1.677   4.941   6.078
 7424SOL     OW23170   5.388   0.881   4.463
 7424SOL    HW123171   5.365   0.871   4.366
 7424SOL    HW223172   5.388   0.978   4.488
 7425SOL     OW23173   3.851   4.554   5.990
 7425SOL    HW123174   3.853   4.653   6.003
 7425SOL    HW223175   3.890   4.531   5.901
 7426SOL     OW23176   0.829   1.493   6.281
 7426SOL    HW123177   0.897   1.432   6.323
 7426SOL    HW223178   0.810   1.463   6.188
 7427SOL     OW23179   3.181   5.879   5.201
 7427SOL    HW123180   3.216   5.789   5.173
 7427SOL    HW223181   3.114   5.868   5.273
 7428SOL     OW23182   3.623   2.385   5.890
 7428SOL    HW123183   3.612   2.390   5.791
 7428SOL    HW223184   3.705   2.332   5.911
 7429SOL     OW23185   0.394   0.700   2.554
 7429SOL    HW123186   0.317   0.764   2.566
 7429SOL    HW223187   0.473   0.749   2.520
 7430SOL     OW23188   6.459   3.600   5.328
 7430SOL    HW123189   6.373   3.587   5.279
 7430SOL    HW223190   6.505   3.682   5.294
 7431SOL     OW23191   0.667   3.467   2.133
 7431SOL    HW123192   0.616   3.489   2.217
 7431SOL    HW223193   0.621   3.508   2.055
 7432SOL     OW23194   0.055   6.468   4.154
 7432SOL    HW123195   0.096   6.559   4.164
 7432SOL    HW223196   0.044   6.447   4.057
 7433SOL     OW23197   6.238   5.068   0.732
 7433SOL    HW123198   6.147   5.058   0.773
 7433SOL    HW223199   6.241   5.017   0.646
 7434SOL     OW23200   2.990   1.878   6.609
 7434SOL    HW123201   3.088   1.864   6.620
 7434SOL    HW223202   2.942   1.794   6.635
 7435SOL     OW23203   2.946   6.127   6.497
 7435SOL    HW123204   2.927   6.200   6.430
 7435SOL    HW223205   2.955   6.040   6.448
 7436SOL     OW23206   5.301   3.291   6.737
 7436SOL    HW123207   5.292   3.206   6.789
 7436SOL    HW223208   5.393   3.328   6.749
 7437SOL     OW23209   0.438   5.644   6.050
 7437SOL    HW123210   0.433   5.664   6.148
 7437SOL    HW223211   0.458   5.728   6.000
 7438SOL     OW23212   0.615   4.562   2.135
 7438SOL    HW123213   0.548   4.497   2.100
 7438SOL    HW223214   0.665   4.520   2.211
 7439SOL     OW23215   2.015   6.727   3.873
 7439SOL    HW123216   2.071   6.799   3.831
 7439SOL    HW223217   2.069   6.680   3.943
 7440SOL     OW23218   0.950   2.668   4.393
 7440SOL    HW123219   1.035   2.616   4.402
 7440SOL    HW223220   0.872   2.608   4.407
 7441SOL     OW23221   5.367   1.078   3.841
 7441SOL    HW123222   5.375   0.990   3.795
 7441SOL    HW223223   5.401   1.071   3.935
 7442SOL     OW23224   1.235   1.640   6.235
 7442SOL    HW123225   1.241   1.563   6.172
 7442SOL    HW223226   1.310   1.635   6.301
 7443SOL     OW23227   1.231   1.359   6.234
 7443SOL    HW123228   1.144   1.349   6.283
 7443SOL    HW223229   1.300   1.397   6.296
 7444SOL     OW23230   0.388   3.438   5.907
 7444SOL    HW123231   0.454   3.469   5.975
 7444SOL    HW223232   0.434   3.423   5.819
 7445SOL     OW23233   5.136   1.395   1.648
 7445SOL    HW123234   5.093   1.307   1.628
 7445SOL    HW223235   5.198   1.420   1.573
 7446SOL     OW23236   6.704   3.751   1.322
 7446SOL    HW123237   6.646   3.803   1.384
 7446SOL    HW223238   6.745   3.814   1.255
 7447SOL     OW23239   1.315   4.327   0.349
 7447SOL    HW123240   1.390   4.281   0.395
 7447SOL    HW223241   1.278   4.399   0.409
 7448SOL     OW23242   5.621   0.190   5.411
 7448SOL    HW123243   5.710   0.230   5.389
 7448SOL    HW223244   5.634   0.114   5.475
 7449SOL     OW23245   4.984   2.223   2.108
 7449SOL    HW123246   5.082   2.239   2.098
 7449SOL    HW223247   4.968   2.128   2.135
 7450SOL     OW23248   4.514   2.114   2.850
 7450SOL    HW123249   4.503   2.016   2.838
 7450SOL    HW223250   4.428   2.161   2.829
 7451SOL     OW23251   1.863   0.972   4.621
 7451SOL    HW123252   1.934   0.967   4.552
 7451SOL    HW223253   1.795   0.900   4.605
 7452SOL     OW23254   2.320   0.048   4.726
 7452SOL    HW123255   2.296   7.010   4.651
 7452SOL    HW223256   2.373   7.022   4.794
 7453SOL     OW23257   5.751   6.589   5.164
 7453SOL    HW123258   5.773   6.676   5.208
 7453SOL    HW223259   5.653   6.585   5.144
 7454SOL     OW23260   0.749   3.925   1.721
 7454SOL    HW123261   0.807   3.881   1.652
 7454SOL    HW223262   0.689   3.992   1.676
 7455SOL     OW23263   5.005   2.746   0.685
 7455SOL    HW123264   5.006   2.647   0.691
 7455SOL    HW223265   4.930   2.776   0.626
 7456SOL     OW23266   1.441   3.489   4.913
 7456SOL    HW123267   1.412   3.401   4.950
 7456SOL    HW223268   1.374   3.521   4.846
 7457SOL     OW23269   5.715   1.081   5.125
 7457SOL    HW123270   5.729   1.074   5.224
 7457SOL    HW223271   5.638   1.141   5.107
 7458SOL     OW23272   3.253   0.482   6.800
 7458SOL    HW123273   3.191   0.530   6.862
 7458SOL    HW223274   3.209   0.471   6.711
 7459SOL     OW23275   4.691   0.181   5.517
 7459SOL    HW123276   4.741   0.168   5.431
 7459SOL    HW223277   4.737   0.250   5.573
 7460SOL     OW23278   0.967   4.678   0.635
 7460SOL    HW123279   1.027   4.682   0.715
 7460SOL    HW223280   0.932   4.769   0.615
 7461SOL     OW23281   5.733   0.714   5.435
 7461SOL    HW123282   5.816   0.753   5.396
 7461SOL    HW223283   5.674   0.679   5.362
 7462SOL     OW23284   2.370   1.892   2.209
 7462SOL    HW123285   2.358   1.794   2.192
 7462SOL    HW223286   2.281   1.934   2.223
 7463SOL     OW23287   4.139   3.133   1.765
 7463SOL    HW123288   4.082   3.123   1.847
 7463SOL    HW223289   4.152   3.230   1.745
 7464SOL     OW23290   4.559   6.408   0.895
 7464SOL    HW123291   4.470   6.390   0.853
 7464SOL    HW223292   4.576   6.341   0.968
 7465SOL     OW23293   2.506   0.373   1.685
 7465SOL    HW123294   2.502   0.467   1.718
 7465SOL    HW223295   2.418   0.329   1.698
 7466SOL     OW23296   0.215   0.141   6.767
 7466SOL    HW123297   0.139   0.098   6.814
 7466SOL    HW223298   0.182   0.217   6.712
 7467SOL     OW23299   0.368   2.031   1.128
 7467SOL    HW123300   0.352   1.996   1.221
 7467SOL    HW223301   0.284   2.023   1.075
 7468SOL     OW23302   5.436   1.632   3.000
 7468SOL    HW123303   5.386   1.591   3.076
 7468SOL    HW223304   5.373   1.650   2.925
 7469SOL     OW23305   1.068   0.911   0.255
 7469SOL    HW123306   1.145   0.867   0.301
 7469SOL    HW223307   1.090   0.926   0.159
 7470SOL     OW23308   0.152   2.042   2.171
 7470SOL    HW123309   0.134   1.949   2.139
 7470SOL    HW223310   0.183   2.039   2.266
 7471SOL     OW23311   6.634   6.450   5.284
 7471SOL    HW123312   6.544   6.491   5.287
 7471SOL    HW223313   6.699   6.514   5.243
 7472SOL     OW23314   4.084   0.153   4.420
 7472SOL    HW123315   3.992   0.150   4.380
 7472SOL    HW223316   4.118   0.060   4.433
 7473SOL     OW23317   6.654   3.262   4.232
 7473SOL    HW123318   6.743   3.239   4.193
 7473SOL    HW223319   6.662   3.346   4.286
 7474SOL     OW23320   3.647   0.969   4.019
 7474SOL    HW123321   3.707   1.032   4.068
 7474SOL    HW223322   3.667   0.875   4.047
 7475SOL     OW23323   3.827   0.386   1.653
 7475SOL    HW123324   3.911   0.346   1.690
 7475SOL    HW223325   3.850   0.463   1.594
 7476SOL     OW23326   3.974   5.715   4.517
 7476SOL    HW123327   3.932   5.801   4.546
 7476SOL    HW223328   3.940   5.641   4.575
 7477SOL     OW23329   4.275   1.055   3.671
 7477SOL    HW123330   4.332   1.051   3.589
 7477SOL    HW223331   4.206   1.126   3.661
 7478SOL     OW23332   2.791   3.894   6.745
 7478SOL    HW123333   2.749   3.856   6.827
 7478SOL    HW223334   2.791   3.825   6.672
 7479SOL     OW23335   4.469   0.545   0.421
 7479SOL    HW123336   4.479   0.446   0.428
 7479SOL    HW223337   4.538   0.590   0.478
 7480SOL     OW23338   5.782   5.685   1.408
 7480SOL    HW123339   5.832   5.605   1.442
 7480SOL    HW223340   5.694   5.655   1.369
 7481SOL     OW23341   6.236   4.441   0.779
 7481SOL    HW123342   6.159   4.448   0.715
 7481SOL    HW223343   6.245   4.526   0.831
 7482SOL     OW23344   4.848   0.899   2.786
 7482SOL    HW123345   4.786   0.831   2.825
 7482SOL    HW223346   4.796   0.964   2.731
 7483SOL     OW23347   3.787   1.658   4.554
 7483SOL    HW123348   3.817   1.731   4.492
 7483SOL    HW223349   3.695   1.679   4.587
 7484SOL     OW23350   1.912   6.351   1.681
 7484SOL    HW123351   1.986   6.366   1.616
 7484SOL    HW223352   1.921   6.415   1.758
 7485SOL     OW23353   3.306   5.683   5.689
 7485SOL    HW123354   3.346   5.688   5.781
 7485SOL    HW223355   3.245   5.605   5.684
 7486SOL     OW23356   3.410   6.011   5.311
 7486SOL    HW123357   3.324   5.981   5.270
 7486SOL    HW223358   3.393   6.090   5.369
 7487SOL     OW23359   2.975   6.544   3.429
 7487SOL    HW123360   3.073   6.523   3.427
 7487SOL    HW223361   2.925   6.481   3.370
 7488SOL     OW23362   2.992   6.973   5.551
 7488SOL    HW123363   2.952   6.988   5.641
 7488SOL    HW223364   3.067   0.012   5.537
 7489SOL     OW23365   4.411   2.477   4.037
 7489SOL    HW123366   4.462   2.523   3.964
 7489SOL    HW223367   4.458   2.393   4.063
 7490SOL     OW23368   6.869   1.032   0.835
 7490SOL    HW123369   6.963   1.045   0.867
 7490SOL    HW223370   6.856   0.937   0.808
 7491SOL     OW23371   0.243   5.684   6.419
 7491SOL    HW123372   0.339   5.708   6.400
 7491SOL    HW223373   0.195   5.668   6.334
 7492SOL     OW23374   2.188   2.864   5.171
 7492SOL    HW123375   2.105   2.880   5.117
 7492SOL    HW223376   2.264   2.913   5.128
 7493SOL     OW23377   5.935   4.061   6.324
 7493SOL    HW123378   5.838   4.075   6.305
 7493SOL    HW223379   5.960   3.967   6.303
 7494SOL     OW23380   5.971   0.712   2.072
 7494SOL    HW123381   5.874   0.706   2.050
 7494SOL    HW223382   5.993   0.804   2.103
 7495SOL     OW23383   2.714   1.579   0.392
 7495SOL    HW123384   2.756   1.643   0.456
 7495SOL    HW223385   2.639   1.624   0.343
 7496SOL     OW23386   0.945   5.129   6.237
 7496SOL    HW123387   0.874   5.181   6.189
 7496SOL    HW223388   0.993   5.189   6.300
 7497SOL     OW23389   2.272   4.768   2.492
 7497SOL    HW123390   2.367   4.775   2.523
 7497SOL    HW223391   2.215   4.828   2.548
 7498SOL     OW23392   2.593   1.161   4.815
 7498SOL    HW123393   2.532   1.240   4.822
 7498SOL    HW223394   2.539   1.077   4.814
 7499SOL     OW23395   5.262   6.597   4.582
 7499SOL    HW123396   5.359   6.594   4.607
 7499SOL    HW223397   5.248   6.549   4.495
 7500SOL     OW23398   4.681   5.835   1.896
 7500SOL    HW123399   4.671   5.738   1.916
 7500SOL    HW223400   4.704   5.847   1.799
 7501SOL     OW23401   1.166   3.513   3.738
 7501SOL    HW123402   1.142   3.430   3.690
 7501SOL    HW223403   1.109   3.522   3.820
 7502SOL     OW23404   2.179   0.874   4.692
 7502SOL    HW123405   2.205   0.783   4.725
 7502SOL    HW223406   2.122   0.864   4.610
 7503SOL     OW23407   2.936   0.656   6.739
 7503SOL    HW123408   2.970   0.706   6.818
 7503SOL    HW223409   2.929   0.717   6.660
 7504SOL     OW23410   3.859   6.547   3.255
 7504SOL    HW123411   3.821   6.559   3.163
 7504SOL    HW223412   3.945   6.597   3.262
 7505SOL     OW23413   1.844   0.918   5.303
 7505SOL    HW123414   1.784   0.847   5.340
 7505SOL    HW223415   1.847   0.910   5.203
 7506SOL     OW23416   3.369   0.808   2.276
 7506SOL    HW123417   3.311   0.761   2.210
 7506SOL    HW223418   3.462   0.771   2.270
 7507SOL     OW23419   0.200   6.304   6.102
 7507SOL    HW123420   0.200   6.295   6.202
 7507SOL    HW223421   0.215   6.400   6.077
 7508SOL     OW23422   5.601   6.499   3.510
 7508SOL    HW123423   5.537   6.545   3.449
 7508SOL    HW223424   5.629   6.412   3.469
 7509SOL     OW23425   5.380   3.852   6.831
 7509SOL    HW123426   5.360   3.780   6.765
 7509SOL    HW223427   5.472   3.887   6.816
 7510SOL     OW23428   3.278   4.099   4.691
 7510SOL    HW123429   3.282   4.161   4.612
 7510SOL    HW223430   3.361   4.044   4.694
 7511SOL     OW23431   1.623   0.177   2.390
 7511SOL    HW123432   1.721   0.195   2.405
 7511SOL    HW223433   1.576   0.172   2.478
 7512SOL     OW23434   2.442   3.037   1.331
 7512SOL    HW123435   2.524   3.074   1.375
 7512SOL    HW223436   2.380   3.002   1.401
 7513SOL     OW23437   1.511   2.364   5.754
 7513SOL    HW123438   1.498   2.306   5.835
 7513SOL    HW223439   1.477   2.456   5.772
 7514SOL     OW23440   2.888   6.121   1.870
 7514SOL    HW123441   2.939   6.035   1.865
 7514SOL    HW223442   2.881   6.150   1.965
 7515SOL     OW23443   0.358   0.224   2.911
 7515SOL    HW123444   0.263   0.214   2.880
 7515SOL    HW223445   0.397   0.308   2.872
 7516SOL     OW23446   0.037   0.201   4.366
 7516SOL    HW123447   0.003   0.178   4.457
 7516SOL    HW223448   7.022   0.137   4.299
 7517SOL     OW23449   0.272   3.597   1.327
 7517SOL    HW123450   0.177   3.620   1.308
 7517SOL    HW223451   0.281   3.498   1.341
 7518SOL     OW23452   3.987   5.789   3.086
 7518SOL    HW123453   4.014   5.760   2.994
 7518SOL    HW223454   4.069   5.798   3.143
 7519SOL     OW23455   1.259   6.535   4.896
 7519SOL    HW123456   1.312   6.554   4.813
 7519SOL    HW223457   1.184   6.601   4.903
 7520SOL     OW23458   1.599   6.498   3.505
 7520SOL    HW123459   1.526   6.559   3.475
 7520SOL    HW223460   1.638   6.451   3.426
 7521SOL     OW23461   4.502   4.296   5.221
 7521SOL    HW123462   4.485   4.219   5.283
 7521SOL    HW223463   4.415   4.330   5.186
 7522SOL     OW23464   2.127   1.202   0.243
 7522SOL    HW123465   2.105   1.187   0.146
 7522SOL    HW223466   2.221   1.236   0.251
 7523SOL     OW23467   5.788   0.151   5.903
 7523SOL    HW123468   5.750   0.110   5.820
 7523SOL    HW223469   5.774   0.250   5.900
 7524SOL     OW23470   0.415   1.854   5.747
 7524SOL    HW123471   0.488   1.910   5.708
 7524SOL    HW223472   0.452   1.797   5.820
 7525SOL     OW23473   1.793   0.693   0.386
 7525SOL    HW123474   1.707   0.730   0.351
 7525SOL    HW223475   1.838   0.641   0.313
 7526SOL     OW23476   3.784   3.117   4.607
 7526SOL    HW123477   3.718   3.144   4.536
 7526SOL    HW223478   3.736   3.101   4.693
 7527SOL     OW23479   5.419   4.227   2.564
 7527SOL    HW123480   5.390   4.176   2.483
 7527SOL    HW223481   5.449   4.318   2.537
 7528SOL     OW23482   4.527   2.875   0.439
 7528SOL    HW123483   4.507   2.948   0.505
 7528SOL    HW223484   4.533   2.914   0.348
 7529SOL     OW23485   4.209   1.295   3.561
 7529SOL    HW123486   4.303   1.307   3.592
 7529SOL    HW223487   4.207   1.284   3.462
 7530SOL     OW23488   6.912   3.976   2.408
 7530SOL    HW123489   6.994   3.973   2.350
 7530SOL    HW223490   6.851   3.900   2.383
 7531SOL     OW23491   4.221   1.704   3.796
 7531SOL    HW123492   4.166   1.787   3.789
 7531SOL    HW223493   4.211   1.665   3.887
 7532SOL     OW23494   5.633   6.045   2.055
 7532SOL    HW123495   5.696   6.011   1.985
 7532SOL    HW223496   5.680   6.114   2.111
 7533SOL     OW23497   3.462   1.279   4.127
 7533SOL    HW123498   3.429   1.368   4.096
 7533SOL    HW223499   3.450   1.212   4.054
 7534SOL     OW23500   4.064   6.265   5.352
 7534SOL    HW123501   4.106   6.333   5.292
 7534SOL    HW223502   4.017   6.311   5.427
 7535SOL     OW23503   2.727   2.421   5.514
 7535SOL    HW123504   2.637   2.461   5.497
 7535SOL    HW223505   2.782   2.426   5.431
 7536SOL     OW23506   4.272   5.320   4.590
 7536SOL    HW123507   4.258   5.381   4.512
 7536SOL    HW223508   4.205   5.246   4.586
 7537SOL     OW23509   1.858   4.600   4.718
 7537SOL    HW123510   1.789   4.572   4.652
 7537SOL    HW223511   1.949   4.584   4.680
 7538SOL     OW23512   3.137   3.343   2.942
 7538SOL    HW123513   3.225   3.311   2.977
 7538SOL    HW223514   3.096   3.271   2.886
 7539SOL     OW23515   1.941   3.304   5.273
 7539SOL    HW123516   1.934   3.299   5.373
 7539SOL    HW223517   2.019   3.249   5.242
 7540SOL     OW23518   2.976   1.280   7.020
 7540SOL    HW123519   2.877   1.262   0.001
 7540SOL    HW223520   2.991   1.372   6.984
 7541SOL     OW23521   5.779   2.405   5.839
 7541SOL    HW123522   5.701   2.467   5.832
 7541SOL    HW223523   5.853   2.450   5.890
 7542SOL     OW23524   1.159   0.066   5.812
 7542SOL    HW123525   1.203   0.051   5.901
 7542SOL    HW223526   1.070   0.109   5.826
 7543SOL     OW23527   4.242   2.900   0.561
 7543SOL    HW123528   4.202   2.972   0.504
 7543SOL    HW223529   4.201   2.812   0.537
 7544SOL     OW23530   1.460   2.223   2.913
 7544SOL    HW123531   1.432   2.152   2.849
 7544SOL    HW223532   1.381   2.252   2.966
 7545SOL     OW23533   4.731   0.007   2.825
 7545SOL    HW123534   4.727   6.933   2.810
 7545SOL    HW223535   4.647   0.038   2.870
 7546SOL     OW23536   5.242   0.787   0.373
 7546SOL    HW123537   5.198   0.813   0.287
 7546SOL    HW223538   5.273   0.870   0.420
 7547SOL     OW23539   3.949   0.614   0.551
 7547SOL    HW123540   3.923   0.614   0.648
 7547SOL    HW223541   3.930   0.525   0.511
 7548SOL     OW23542   2.490   1.596   1.149
 7548SOL    HW123543   2.410   1.591   1.209
 7548SOL    HW223544   2.506   1.691   1.122
 7549SOL     OW23545   5.394   1.633   2.440
 7549SOL    HW123546   5.333   1.571   2.391
 7549SOL    HW223547   5.361   1.644   2.534
 7550SOL     OW23548   1.965   6.038   2.353
 7550SOL    HW123549   1.999   6.128   2.327
 7550SOL    HW223550   1.873   6.025   2.314
 7551SOL     OW23551   4.658   3.673   6.758
 7551SOL    HW123552   4.566   3.641   6.737
 7551SOL    HW223553   4.657   3.726   6.842
 7552SOL     OW23554   2.368   5.678   4.013
 7552SOL    HW123555   2.278   5.719   4.002
 7552SOL    HW223556   2.385   5.613   3.939
 7553SOL     OW23557   3.927   4.819   6.029
 7553SOL    HW123558   3.934   4.908   5.985
 7553SOL    HW223559   4.018   4.786   6.053
 7554SOL     OW23560   4.698   1.596   0.850
 7554SOL    HW123561   4.660   1.564   0.763
 7554SOL    HW223562   4.756   1.524   0.889
 7555SOL     OW23563   0.432   5.562   5.434
 7555SOL    HW123564   0.526   5.546   5.403
 7555SOL    HW223565   0.368   5.523   5.367
 7556SOL     OW23566   0.884   3.471   4.710
 7556SOL    HW123567   0.837   3.520   4.783
 7556SOL    HW223568   0.953   3.530   4.669
 7557SOL     OW23569   5.083   3.990   6.336
 7557SOL    HW123570   5.033   3.992   6.249
 7557SOL    HW223571   5.147   4.067   6.339
 7558SOL     OW23572   1.926   2.968   4.001
 7558SOL    HW123573   1.991   3.035   3.966
 7558SOL    HW223574   1.904   2.903   3.928
 7559SOL     OW23575   6.451   4.918   0.884
 7559SOL    HW123576   6.482   4.841   0.828
 7559SOL    HW223577   6.405   4.985   0.825
 7560SOL     OW23578   4.960   6.928   1.003
 7560SOL    HW123579   4.979   6.835   1.035
 7560SOL    HW223580   5.046   6.973   0.981
 7561SOL     OW23581   0.355   3.221   0.812
 7561SOL    HW123582   0.440   3.170   0.820
 7561SOL    HW223583   0.327   3.254   0.902
 7562SOL     OW23584   5.292   6.615   5.393
 7562SOL    HW123585   5.351   6.555   5.448
 7562SOL    HW223586   5.232   6.559   5.336
 7563SOL     OW23587   2.845   0.302   1.693
 7563SOL    HW123588   2.915   0.361   1.734
 7563SOL    HW223589   2.788   0.357   1.631
 7564SOL     OW23590   5.234   0.052   2.976
 7564SOL    HW123591   5.269   6.991   3.014
 7564SOL    HW223592   5.244   0.125   3.044
 7565SOL     OW23593   5.032   5.107   6.361
 7565SOL    HW123594   4.977   5.168   6.418
 7565SOL    HW223595   5.098   5.161   6.308
 7566SOL     OW23596   6.958   5.498   4.186
 7566SOL    HW123597   6.875   5.446   4.167
 7566SOL    HW223598   7.005   5.519   4.100
 7567SOL     OW23599   2.400   4.445   5.976
 7567SOL    HW123600   2.389   4.374   5.907
 7567SOL    HW223601   2.349   4.527   5.949
 7568SOL     OW23602   5.603   5.723   3.053
 7568SOL    HW123603   5.597   5.684   3.145
 7568SOL    HW223604   5.512   5.735   3.015
 7569SOL     OW23605   4.266   5.999   6.785
 7569SOL    HW123606   4.219   5.932   6.842
 7569SOL    HW223607   4.364   5.979   6.786
 7570SOL     OW23608   6.204   5.026   4.345
 7570SOL    HW123609   6.223   5.124   4.337
 7570SOL    HW223610   6.132   5.011   4.413
 7571SOL     OW23611   5.737   3.968   2.076
 7571SOL    HW123612   5.704   4.039   2.013
 7571SOL    HW223613   5.724   3.878   2.035
 7572SOL     OW23614   4.458   1.022   4.087
 7572SOL    HW123615   4.425   0.980   4.002
 7572SOL    HW223616   4.516   0.958   4.136
 7573SOL     OW23617   0.057   5.385   4.691
 7573SOL    HW123618   0.147   5.418   4.720
 7573SOL    HW223619   0.036   5.420   4.600
 7574SOL     OW23620   5.798   0.921   3.728
 7574SOL    HW123621   5.728   0.926   3.657
 7574SOL    HW223622   5.887   0.945   3.689
 7575SOL     OW23623   3.929   1.196   6.063
 7575SOL    HW123624   3.839   1.217   6.025
 7575SOL    HW223625   3.942   1.244   6.149
 7576SOL     OW23626   5.921   4.537   0.120
 7576SOL    HW123627   5.984   4.521   0.196
 7576SOL    HW223628   5.844   4.593   0.151
 7577SOL     OW23629   6.276   1.004   4.897
 7577SOL    HW123630   6.303   1.058   4.977
 7577SOL    HW223631   6.292   0.907   4.916
 7578SOL     OW23632   2.125   6.520   4.460
 7578SOL    HW123633   2.133   6.618   4.441
 7578SOL    HW223634   2.029   6.496   4.475
 7579SOL     OW23635   3.953   2.093   2.488
 7579SOL    HW123636   3.878   2.091   2.421
 7579SOL    HW223637   3.932   2.029   2.562
 7580SOL     OW23638   2.070   4.004   2.955
 7580SOL    HW123639   2.044   3.909   2.975
 7580SOL    HW223640   2.027   4.034   2.870
 7581SOL     OW23641   5.609   1.484   0.300
 7581SOL    HW123642   5.563   1.428   0.231
 7581SOL    HW223643   5.563   1.572   0.309
 7582SOL     OW23644   3.602   1.672   0.894
 7582SOL    HW123645   3.560   1.598   0.948
 7582SOL    HW223646   3.673   1.716   0.949
 7583SOL     OW23647   5.966   3.963   2.188
 7583SOL    HW123648   5.872   3.966   2.153
 7583SOL    HW223649   5.988   4.049   2.233
 7584SOL     OW23650   2.698   6.586   1.290
 7584SOL    HW123651   2.719   6.683   1.276
 7584SOL    HW223652   2.641   6.575   1.372
 7585SOL     OW23653   1.989   4.420   6.587
 7585SOL    HW123654   1.902   4.402   6.633
 7585SOL    HW223655   2.065   4.385   6.642
 7586SOL     OW23656   2.788   0.014   2.924
 7586SOL    HW123657   2.799   6.942   2.902
 7586SOL    HW223658   2.756   0.063   2.843
 7587SOL     OW23659   1.713   1.943   0.169
 7587SOL    HW123660   1.802   1.988   0.162
 7587SOL    HW223661   1.713   1.860   0.113
 7588SOL     OW23662   0.765   5.189   1.963
 7588SOL    HW123663   0.769   5.090   1.979
 7588SOL    HW223664   0.766   5.206   1.864
 7589SOL     OW23665   6.018   6.025   0.365
 7589SOL    HW123666   6.108   6.029   0.408
 7589SOL    HW223667   6.007   6.105   0.306
 7590SOL     OW23668   2.699   1.899   5.443
 7590SOL    HW123669   2.622   1.943   5.489
 7590SOL    HW223670   2.666   1.822   5.388
 7591SOL     OW23671   0.373   4.934   0.344
 7591SOL    HW123672   0.277   4.961   0.348
 7591SOL    HW223673   0.419   4.962   0.428
 7592SOL     OW23674   6.333   5.143   6.988
 7592SOL    HW123675   6.385   5.066   0.001
 7592SOL    HW223676   6.236   5.120   6.988
 7593SOL     OW23677   5.242   2.452   6.929
 7593SOL    HW123678   5.195   2.496   7.006
 7593SOL    HW223679   5.190   2.371   6.901
 7594SOL     OW23680   0.787   5.563   3.487
 7594SOL    HW123681   0.858   5.566   3.557
 7594SOL    HW223682   0.787   5.649   3.436
 7595SOL     OW23683   6.999   3.358   6.253
 7595SOL    HW123684   6.995   3.458   6.249
 7595SOL    HW223685   0.051   3.331   6.311
 7596SOL     OW23686   5.315   4.672   2.513
 7596SOL    HW123687   5.345   4.674   2.418
 7596SOL    HW223688   5.217   4.654   2.517
 7597SOL     OW23689   3.390   5.706   2.084
 7597SOL    HW123690   3.394   5.685   1.986
 7597SOL    HW223691   3.377   5.622   2.136
 7598SOL     OW23692   6.778   0.250   3.042
 7598SOL    HW123693   6.756   0.201   2.958
 7598SOL    HW223694   6.705   0.315   3.064
 7599SOL     OW23695   5.937   1.440   2.968
 7599SOL    HW123696   5.959   1.400   3.057
 7599SOL    HW223697   5.837   1.447   2.959
 7600SOL     OW23698   1.399   0.212   2.729
 7600SOL    HW123699   1.369   0.272   2.655
 7600SOL    HW223700   1.499   0.212   2.733
 7601SOL     OW23701   2.179   6.114   3.485
 7601SOL    HW123702   2.199   6.199   3.436
 7601SOL    HW223703   2.087   6.118   3.523
 7602SOL     OW23704   2.371   4.534   4.429
 7602SOL    HW123705   2.336   4.587   4.506
 7602SOL    HW223706   2.354   4.436   4.445
 7603SOL     OW23707   1.076   5.967   6.987
 7603SOL    HW123708   1.131   5.904   6.931
 7603SOL    HW223709   1.040   6.041   6.929
 7604SOL     OW23710   3.559   5.929   4.275
 7604SOL    HW123711   3.563   5.958   4.179
 7604SOL    HW223712   3.641   5.878   4.297
 7605SOL     OW23713   1.124   5.168   6.719
 7605SOL    HW123714   1.127   5.119   6.631
 7605SOL    HW223715   1.075   5.113   6.786
 7606SOL     OW23716   0.519   2.845   2.010
 7606SOL    HW123717   0.499   2.867   1.915
 7606SOL    HW223718   0.610   2.879   2.033
 7607SOL     OW23719   4.893   0.016   0.287
 7607SOL    HW123720   4.984   0.057   0.299
 7607SOL    HW223721   4.890   6.991   0.200
 7608SOL     OW23722   2.918   3.741   3.305
 7608SOL    HW123723   2.921   3.775   3.211
 7608SOL    HW223724   2.939   3.815   3.368
 7609SOL     OW23725   0.525   3.614   4.283
 7609SOL    HW123726   0.495   3.654   4.370
 7609SOL    HW223727   0.581   3.681   4.233
 7610SOL     OW23728   5.607   1.018   1.293
 7610SOL    HW123729   5.595   0.924   1.262
 7610SOL    HW223730   5.687   1.024   1.354
 7611SOL     OW23731   1.373   1.857   6.993
 7611SOL    HW123732   1.377   1.951   6.961
 7611SOL    HW223733   1.466   1.820   7.000
 7612SOL     OW23734   3.893   1.537   3.917
 7612SOL    HW123735   3.961   1.529   3.844
 7612SOL    HW223736   3.898   1.456   3.976
 7613SOL     OW23737   4.597   1.223   1.294
 7613SOL    HW123738   4.584   1.319   1.319
 7613SOL    HW223739   4.545   1.165   1.356
 7614SOL     OW23740   4.003   2.189   1.975
 7614SOL    HW123741   4.054   2.227   1.897
 7614SOL    HW223742   3.905   2.205   1.962
 7615SOL     OW23743   4.469   5.100   6.669
 7615SOL    HW123744   4.472   5.061   6.761
 7615SOL    HW223745   4.459   5.199   6.675
 7616SOL     OW23746   0.391   4.049   3.991
 7616SOL    HW123747   0.297   4.045   4.025
 7616SOL    HW223748   0.418   3.958   3.958
 7617SOL     OW23749   3.055   5.870   3.486
 7617SOL    HW123750   3.044   5.770   3.493
 7617SOL    HW223751   3.141   5.896   3.530
 7618SOL     OW23752   1.231   2.478   6.692
 7618SOL    HW123753   1.226   2.395   6.748
 7618SOL    HW223754   1.321   2.483   6.648
 7619SOL     OW23755   5.658   2.786   5.175
 7619SOL    HW123756   5.581   2.729   5.203
 7619SOL    HW223757   5.738   2.729   5.160
 7620SOL     OW23758   3.655   6.940   0.769
 7620SOL    HW123759   3.631   7.003   0.843
 7620SOL    HW223760   3.750   6.910   0.779
 7621SOL     OW23761   1.225   0.786   0.451
 7621SOL    HW123762   1.168   0.846   0.508
 7621SOL    HW223763   1.229   0.695   0.493
 7622SOL     OW23764   4.784   3.092   1.682
 7622SOL    HW123765   4.709   3.072   1.744
 7622SOL    HW223766   4.847   3.156   1.725
 7623SOL     OW23767   4.317   6.053   6.385
 7623SOL    HW123768   4.368   6.138   6.398
 7623SOL    HW223769   4.380   5.980   6.360
 7624SOL     OW23770   0.566   2.012   3.108
 7624SOL    HW123771   0.471   1.983   3.117
 7624SOL    HW223772   0.626   1.939   3.141
 7625SOL     OW23773   5.650   1.138   1.009
 7625SOL    HW123774   5.749   1.128   0.997
 7625SOL    HW223775   5.622   1.090   1.092
 7626SOL     OW23776   0.631   6.834   5.113
 7626SOL    HW123777   0.602   6.870   5.202
 7626SOL    HW223778   0.618   6.903   5.043
 7627SOL     OW23779   6.283   3.186   0.992
 7627SOL    HW123780   6.213   3.242   0.947
 7627SOL    HW223781   6.256   3.168   1.087
 7628SOL     OW23782   2.683   0.456   1.480
 7628SOL    HW123783   2.709   0.431   1.386
 7628SOL    HW223784   2.596   0.413   1.502
 7629SOL     OW23785   6.416   6.348   2.411
 7629SOL    HW123786   6.339   6.298   2.450
 7629SOL    HW223787   6.486   6.284   2.380
 7630SOL     OW23788   6.525   6.732   2.098
 7630SOL    HW123789   6.440   6.723   2.045
 7630SOL    HW223790   6.527   6.661   2.169
 7631SOL     OW23791   0.995   1.689   5.833
 7631SOL    HW123792   0.984   1.768   5.773
 7631SOL    HW223793   0.906   1.647   5.850
 7632SOL     OW23794   4.159   2.096   1.043
 7632SOL    HW123795   4.224   2.165   1.076
 7632SOL    HW223796   4.124   2.123   0.954
 7633SOL     OW23797   5.242   3.817   0.055
 7633SOL    HW123798   5.280   3.834   6.988
 7633SOL    HW223799   5.163   3.876   0.070
 7634SOL     OW23800   1.420   1.040   2.509
 7634SOL    HW123801   1.348   1.086   2.561
 7634SOL    HW223802   1.455   0.962   2.561
 7635SOL     OW23803   2.466   5.776   5.799
 7635SOL    HW123804   2.426   5.852   5.851
 7635SOL    HW223805   2.427   5.690   5.831
 7636SOL     OW23806   1.233   1.274   3.860
 7636SOL    HW123807   1.143   1.249   3.895
 7636SOL    HW223808   1.243   1.241   3.766
 7637SOL     OW23809   1.565   6.821   4.155
 7637SOL    HW123810   1.584   6.909   4.110
 7637SOL    HW223811   1.563   6.835   4.254
 7638SOL     OW23812   6.005   5.720   1.659
 7638SOL    HW123813   5.909   5.747   1.649
 7638SOL    HW223814   6.010   5.632   1.706
 7639SOL     OW23815   1.071   1.732   6.443
 7639SOL    HW123816   1.076   1.653   6.505
 7639SOL    HW223817   1.098   1.703   6.351
 7640SOL     OW23818   2.673   2.680   0.841
 7640SOL    HW123819   2.737   2.647   0.910
 7640SOL    HW223820   2.585   2.634   0.852
 7641SOL     OW23821   0.530   4.819   2.096
 7641SOL    HW123822   0.574   4.735   2.126
 7641SOL    HW223823   0.447   4.798   2.045
 7642SOL     OW23824   2.768   1.635   2.838
 7642SOL    HW123825   2.784   1.725   2.877
 7642SOL    HW223826   2.706   1.643   2.759
 7643SOL     OW23827   4.408   2.440   3.481
 7643SOL    HW123828   4.326   2.399   3.520
 7643SOL    HW223829   4.486   2.379   3.495
 7644SOL     OW23830   6.659   2.787   2.525
 7644SOL    HW123831   6.690   2.843   2.602
 7644SOL    HW223832   6.567   2.816   2.499
 7645SOL     OW23833   4.899   5.250   6.560
 7645SOL    HW123834   4.983   5.261   6.613
 7645SOL    HW223835   4.834   5.322   6.583
 7646SOL     OW23836   1.756   2.103   2.231
 7646SOL    HW123837   1.749   2.032   2.301
 7646SOL    HW223838   1.823   2.172   2.260
 7647SOL     OW23839   1.887   3.356   1.999
 7647SOL    HW123840   1.980   3.321   1.990
 7647SOL    HW223841   1.890   3.455   2.015
 7648SOL     OW23842   4.358   1.497   3.294
 7648SOL    HW123843   4.282   1.434   3.276
 7648SOL    HW223844   4.342   1.543   3.382
 7649SOL     OW23845   1.173   0.576   2.324
 7649SOL    HW123846   1.129   0.503   2.376
 7649SOL    HW223847   1.124   0.662   2.340
 7650SOL     OW23848   6.500   2.985   2.211
 7650SOL    HW123849   6.437   2.947   2.144
 7650SOL    HW223850   6.542   3.068   2.174
 7651SOL     OW23851   2.380   0.399   0.099
 7651SOL    HW123852   2.454   0.340   0.129
 7651SOL    HW223853   2.294   0.348   0.101
 7652SOL     OW23854   6.162   3.464   3.625
 7652SOL    HW123855   6.261   3.449   3.617
 7652SOL    HW223856   6.138   3.479   3.721
 7653SOL     OW23857   2.503   1.836   0.714
 7653SOL    HW123858   2.453   1.773   0.773
 7653SOL    HW223859   2.598   1.842   0.744
 7654SOL     OW23860   4.737   2.456   3.297
 7654SOL    HW123861   4.788   2.485   3.378
 7654SOL    HW223862   4.655   2.513   3.287
 7655SOL     OW23863   3.795   0.121   4.361
 7655SOL    HW123864   3.738   0.149   4.438
 7655SOL    HW223865   3.832   0.030   4.379
 7656SOL     OW23866   0.192   5.857   5.598
 7656SOL    HW123867   0.216   5.802   5.677
 7656SOL    HW223868   0.237   5.820   5.516
 7657SOL     OW23869   2.921   2.224   2.991
 7657SOL    HW123870   2.902   2.145   2.932
 7657SOL    HW223871   2.871   2.303   2.958
 7658SOL     OW23872   4.442   0.637   6.142
 7658SOL    HW123873   4.526   0.673   6.102
 7658SOL    HW223874   4.440   0.538   6.134
 7659SOL     OW23875   6.068   0.058   1.124
 7659SOL    HW123876   6.071   0.135   1.188
 7659SOL    HW223877   6.156   0.048   1.079
 7660SOL     OW23878   5.416   5.304   3.627
 7660SOL    HW123879   5.325   5.272   3.603
 7660SOL    HW223880   5.421   5.319   3.726
 7661SOL     OW23881   5.698   2.264   4.449
 7661SOL    HW123882   5.782   2.232   4.492
 7661SOL    HW223883   5.619   2.233   4.503
 7662SOL     OW23884   1.523   2.725   2.128
 7662SOL    HW123885   1.480   2.790   2.191
 7662SOL    HW223886   1.567   2.652   2.181
 7663SOL     OW23887   0.083   5.416   6.961
 7663SOL    HW123888   0.124   5.348   6.899
 7663SOL    HW223889   0.004   5.376   7.007
 7664SOL     OW23890   3.043   6.363   2.533
 7664SOL    HW123891   3.100   6.290   2.570
 7664SOL    HW223892   3.015   6.424   2.607
 7665SOL     OW23893   2.803   0.256   4.061
 7665SOL    HW123894   2.806   0.168   4.109
 7665SOL    HW223895   2.880   0.262   3.998
 7666SOL     OW23896   0.163   6.671   1.213
 7666SOL    HW123897   0.099   6.645   1.141
 7666SOL    HW223898   0.251   6.625   1.197
 7667SOL     OW23899   4.703   6.431   6.914
 7667SOL    HW123900   4.789   6.386   6.890
 7667SOL    HW223901   4.718   6.498   6.987
 7668SOL     OW23902   3.344   4.328   1.726
 7668SOL    HW123903   3.318   4.241   1.767
 7668SOL    HW223904   3.427   4.316   1.671
 7669SOL     OW23905   4.963   1.039   4.592
 7669SOL    HW123906   5.016   0.956   4.576
 7669SOL    HW223907   4.978   1.071   4.686
 7670SOL     OW23908   1.134   5.528   6.555
 7670SOL    HW123909   1.136   5.606   6.493
 7670SOL    HW223910   1.079   5.551   6.635
 7671SOL     OW23911   4.744   1.524   4.472
 7671SOL    HW123912   4.692   1.537   4.388
 7671SOL    HW223913   4.765   1.614   4.512
 7672SOL     OW23914   5.960   0.206   3.666
 7672SOL    HW123915   5.945   0.268   3.743
 7672SOL    HW223916   6.051   0.166   3.673
 7673SOL     OW23917   1.247   4.841   0.681
 7673SOL    HW123918   1.330   4.888   0.713
 7673SOL    HW223919   1.241   4.848   0.581
 7674SOL     OW23920   6.535   2.048   4.651
 7674SOL    HW123921   6.540   2.124   4.715
 7674SOL    HW223922   6.597   1.975   4.680
 7675SOL     OW23923   5.016   0.570   1.898
 7675SOL    HW123924   4.922   0.563   1.865
 7675SOL    HW223925   5.039   0.488   1.951
 7676SOL     OW23926   1.132   1.468   6.875
 7676SOL    HW123927   1.181   1.445   6.791
 7676SOL    HW223928   1.130   1.389   6.936
 7677SOL     OW23929   1.735   3.214   2.150
 7677SOL    HW123930   1.793   3.262   2.084
 7677SOL    HW223931   1.783   3.134   2.184
 7678SOL     OW23932   1.299   0.880   6.359
 7678SOL    HW123933   1.360   0.895   6.282
 7678SOL    HW223934   1.267   0.785   6.359
 7679SOL     OW23935   0.990   5.284   4.920
 7679SOL    HW123936   1.059   5.283   4.992
 7679SOL    HW223937   0.946   5.194   4.916
 7680SOL     OW23938   3.106   3.492   6.794
 7680SOL    HW123939   3.160   3.546   6.859
 7680SOL    HW223940   3.149   3.404   6.779
 7681SOL     OW23941   3.022   0.857   0.439
 7681SOL    HW123942   3.004   0.949   0.472
 7681SOL    HW223943   2.935   0.812   0.416
 7682SOL     OW23944   2.598   6.521   1.967
 7682SOL    HW123945   2.596   6.597   1.902
 7682SOL    HW223946   2.513   6.521   2.020
 7683SOL     OW23947   6.609   2.782   2.919
 7683SOL    HW123948   6.649   2.743   3.002
 7683SOL    HW223949   6.525   2.732   2.896
 7684SOL     OW23950   5.216   2.583   6.643
 7684SOL    HW123951   5.226   2.490   6.677
 7684SOL    HW223952   5.221   2.583   6.543
 7685SOL     OW23953   3.792   2.534   0.537
 7685SOL    HW123954   3.742   2.602   0.483
 7685SOL    HW223955   3.859   2.488   0.478
 7686SOL     OW23956   4.489   0.075   2.900
 7686SOL    HW123957   4.488   0.167   2.940
 7686SOL    HW223958   4.424   0.071   2.824
 7687SOL     OW23959   5.000   5.840   5.742
 7687SOL    HW123960   4.905   5.849   5.713
 7687SOL    HW223961   5.038   5.754   5.707
 7688SOL     OW23962   6.798   6.569   5.654
 7688SOL    HW123963   6.863   6.639   5.684
 7688SOL    HW223964   6.716   6.613   5.619
 7689SOL     OW23965   4.653   5.938   4.478
 7689SOL    HW123966   4.564   5.932   4.433
 7689SOL    HW223967   4.678   5.848   4.515
 7690SOL     OW23968   5.186   4.973   3.266
 7690SOL    HW123969   5.108   4.960   3.206
 7690SOL    HW223970   5.179   4.912   3.345
 7691SOL     OW23971   4.871   2.874   3.818
 7691SOL    HW123972   4.971   2.868   3.811
 7691SOL    HW223973   4.829   2.805   3.758
 7692SOL     OW23974   1.259   6.492   1.223
 7692SOL    HW123975   1.226   6.426   1.155
 7692SOL    HW223976   1.330   6.450   1.279
 7693SOL     OW23977   4.205   1.219   6.754
 7693SOL    HW123978   4.164   1.128   6.746
 7693SOL    HW223979   4.304   1.213   6.739
 7694SOL     OW23980   0.636   4.526   3.815
 7694SOL    HW123981   0.576   4.448   3.799
 7694SOL    HW223982   0.707   4.500   3.880
 7695SOL     OW23983   3.981   0.407   0.980
 7695SOL    HW123984   4.069   0.363   0.966
 7695SOL    HW223985   3.910   0.356   0.931
 7696SOL     OW23986   6.848   2.024   4.357
 7696SOL    HW123987   6.910   1.987   4.426
 7696SOL    HW223988   6.880   1.996   4.266
 7697SOL     OW23989   2.543   1.643   3.410
 7697SOL    HW123990   2.450   1.678   3.400
 7697SOL    HW223991   2.541   1.543   3.414
 7698SOL     OW23992   6.612   2.844   4.845
 7698SOL    HW123993   6.520   2.882   4.836
 7698SOL    HW223994   6.607   2.759   4.899
 7699SOL     OW23995   2.323   5.673   0.140
 7699SOL    HW123996   2.246   5.614   0.115
 7699SOL    HW223997   2.408   5.621   0.131
 7700SOL     OW23998   4.592   0.023   5.243
 7700SOL    HW123999   4.549   0.024   5.153
 7700SOL    HW224000   4.605   6.953   5.273
 7701SOL     OW24001   6.315   0.795   5.823
 7701SOL    HW124002   6.332   0.816   5.919
 7701SOL    HW224003   6.328   0.698   5.806
 7702SOL     OW24004   3.471   6.526   6.119
 7702SOL    HW124005   3.478   6.427   6.126
 7702SOL    HW224006   3.422   6.562   6.198
 7703SOL     OW24007   7.009   1.425   5.166
 7703SOL    HW124008   0.021   1.377   5.087
 7703SOL    HW224009   6.922   1.384   5.193
 7704SOL     OW24010   4.179   4.411   0.091
 7704SOL    HW124011   4.081   4.432   0.098
 7704SOL    HW224012   4.232   4.493   0.112
 7705SOL     OW24013   3.512   4.856   5.235
 7705SOL    HW124014   3.472   4.927   5.177
 7705SOL    HW224015   3.608   4.842   5.211
 7706SOL     OW24016   5.794   6.860   5.273
 7706SOL    HW124017   5.839   6.895   5.191
 7706SOL    HW224018   5.846   6.889   5.354
 7707SOL     OW24019   0.220   5.242   6.074
 7707SOL    HW124020   0.290   5.294   6.025
 7707SOL    HW224021   0.185   5.170   6.015
 7708SOL     OW24022   5.281   5.704   4.878
 7708SOL    HW124023   5.247   5.793   4.908
 7708SOL    HW224024   5.208   5.636   4.886
 7709SOL     OW24025   4.582   2.434   2.179
 7709SOL    HW124026   4.487   2.416   2.154
 7709SOL    HW224027   4.627   2.348   2.203
 7710SOL     OW24028   2.513   6.930   0.630
 7710SOL    HW124029   2.559   6.952   0.716
 7710SOL    HW224030   2.416   6.952   0.638
 7711SOL     OW24031   5.819   6.307   5.980
 7711SOL    HW124032   5.913   6.301   5.945
 7711SOL    HW224033   5.808   6.243   6.056
 7712SOL     OW24034   6.223   4.865   1.480
 7712SOL    HW124035   6.251   4.769   1.484
 7712SOL    HW224036   6.291   4.918   1.429
 7713SOL     OW24037   1.925   4.098   0.194
 7713SOL    HW124038   1.916   4.024   0.262
 7713SOL    HW224039   1.973   4.063   0.114
 7714SOL     OW24040   6.231   4.210   4.642
 7714SOL    HW124041   6.296   4.173   4.576
 7714SOL    HW224042   6.267   4.296   4.679
 7715SOL     OW24043   5.146   0.993   1.011
 7715SOL    HW124044   5.148   0.976   1.110
 7715SOL    HW224045   5.190   1.081   0.992
 7716SOL     OW24046   4.596   2.588   2.397
 7716SOL    HW124047   4.598   2.567   2.299
 7716SOL    HW224048   4.657   2.526   2.445
 7717SOL     OW24049   2.761   1.309   4.979
 7717SOL    HW124050   2.709   1.234   4.939
 7717SOL    HW224051   2.698   1.376   5.019
 7718SOL     OW24052   1.909   1.568   2.844
 7718SOL    HW124053   1.943   1.651   2.889
 7718SOL    HW224054   1.816   1.549   2.876
 7719SOL     OW24055   0.049   3.028   4.849
 7719SOL    HW124056   6.985   2.994   4.816
 7719SOL    HW224057   0.070   2.985   4.937
 7720SOL     OW24058   6.525   6.474   0.716
 7720SOL    HW124059   6.590   6.447   0.645
 7720SOL    HW224060   6.434   6.440   0.693
 7721SOL     OW24061   2.200   4.065   3.465
 7721SOL    HW124062   2.166   4.043   3.374
 7721SOL    HW224063   2.178   4.160   3.487
 7722SOL     OW24064   6.285   5.064   3.020
 7722SOL    HW124065   6.267   4.975   2.979
 7722SOL    HW224066   6.257   5.063   3.117
 7723SOL     OW24067   6.946   3.162   0.649
 7723SOL    HW124068   7.008   3.204   0.582
 7723SOL    HW224069   6.918   3.072   0.616
 7724SOL     OW24070   1.710   4.474   1.618
 7724SOL    HW124071   1.726   4.451   1.522
 7724SOL    HW224072   1.619   4.516   1.627
 7725SOL     OW24073   5.276   2.467   3.134
 7725SOL    HW124074   5.347   2.396   3.129
 7725SOL    HW224075   5.208   2.440   3.202
 7726SOL     OW24076   0.402   4.646   3.230
 7726SOL    HW124077   0.440   4.639   3.323
 7726SOL    HW224078   0.308   4.612   3.230
 7727SOL     OW24079   6.219   2.016   4.051
 7727SOL    HW124080   6.280   2.095   4.046
 7727SOL    HW224081   6.131   2.045   4.088
 7728SOL     OW24082   1.647   3.007   3.104
 7728SOL    HW124083   1.680   2.921   3.064
 7728SOL    HW224084   1.655   3.080   3.036
 7729SOL     OW24085   5.199   2.404   0.922
 7729SOL    HW124086   5.288   2.372   0.888
 7729SOL    HW224087   5.204   2.502   0.940
 7730SOL     OW24088   4.845   6.479   3.063
 7730SOL    HW124089   4.850   6.450   2.967
 7730SOL    HW224090   4.857   6.399   3.122
 7731SOL     OW24091   6.624   0.965   0.408
 7731SOL    HW124092   6.579   1.010   0.485
 7731SOL    HW224093   6.564   0.896   0.369
 7732SOL     OW24094   5.113   5.717   0.866
 7732SOL    HW124095   5.123   5.630   0.819
 7732SOL    HW224096   5.202   5.760   0.878
 7733SOL     OW24097   4.000   0.148   1.636
 7733SOL    HW124098   4.076   0.094   1.673
 7733SOL    HW224099   3.921   0.088   1.621
 7734SOL     OW24100   1.654   3.224   3.265
 7734SOL    HW124101   1.674   3.152   3.199
 7734SOL    HW224102   1.589   3.190   3.333
 7735SOL     OW24103   5.104   4.348   7.007
 7735SOL    HW124104   5.186   4.369   0.037
 7735SOL    HW224105   5.023   4.376   0.033
 7736SOL     OW24106   5.191   4.582   0.736
 7736SOL    HW124107   5.282   4.585   0.696
 7736SOL    HW224108   5.186   4.505   0.800
 7737SOL     OW24109   4.765   2.143   1.158
 7737SOL    HW124110   4.850   2.149   1.107
 7737SOL    HW224111   4.689   2.129   1.095
 7738SOL     OW24112   2.811   6.346   0.616
 7738SOL    HW124113   2.897   6.301   0.592
 7738SOL    HW224114   2.774   6.305   0.699
 7739SOL     OW24115   1.182   2.381   0.826
 7739SOL    HW124116   1.095   2.345   0.860
 7739SOL    HW224117   1.257   2.335   0.873
 7740SOL     OW24118   6.992   6.970   2.540
 7740SOL    HW124119   0.016   6.940   2.458
 7740SOL    HW224120   0.014   0.025   2.579
 7741SOL     OW24121   1.852   5.611   4.024
 7741SOL    HW124122   1.808   5.610   3.934
 7741SOL    HW224123   1.890   5.520   4.043
 7742SOL     OW24124   6.106   2.000   2.930
 7742SOL    HW124125   6.025   2.026   2.982
 7742SOL    HW224126   6.171   2.076   2.928
 7743SOL     OW24127   4.413   3.383   6.021
 7743SOL    HW124128   4.400   3.285   6.005
 7743SOL    HW224129   4.377   3.435   5.944
 7744SOL     OW24130   6.428   6.671   3.838
 7744SOL    HW124131   6.505   6.707   3.891
 7744SOL    HW224132   6.451   6.581   3.802
 7745SOL     OW24133   3.735   2.628   5.973
 7745SOL    HW124134   3.676   2.682   6.033
 7745SOL    HW224135   3.679   2.559   5.925
 7746SOL     OW24136   1.970   0.070   0.574
 7746SOL    HW124137   1.976   6.994   0.577
 7746SOL    HW224138   1.928   0.098   0.487
 7747SOL     OW24139   5.165   6.379   0.938
 7747SOL    HW124140   5.093   6.379   1.008
 7747SOL    HW224141   5.218   6.464   0.944
 7748SOL     OW24142   2.423   3.688   6.248
 7748SOL    HW124143   2.400   3.755   6.178
 7748SOL    HW224144   2.369   3.706   6.331
 7749SOL     OW24145   4.625   3.501   5.887
 7749SOL    HW124146   4.682   3.469   5.811
 7749SOL    HW224147   4.562   3.428   5.914
 7750SOL     OW24148   0.691   6.373   1.638
 7750SOL    HW124149   0.597   6.343   1.655
 7750SOL    HW224150   0.694   6.473   1.639
 7751SOL     OW24151   0.965   1.789   1.739
 7751SOL    HW124152   0.993   1.819   1.648
 7751SOL    HW224153   0.926   1.866   1.789
 7752SOL     OW24154   4.948   0.686   4.130
 7752SOL    HW124155   4.967   0.765   4.071
 7752SOL    HW224156   4.964   0.710   4.225
 7753SOL     OW24157   2.100   1.502   5.116
 7753SOL    HW124158   2.099   1.404   5.134
 7753SOL    HW224159   2.169   1.521   5.045
 7754SOL     OW24160   4.040   6.112   1.432
 7754SOL    HW124161   4.081   6.199   1.404
 7754SOL    HW224162   3.978   6.128   1.508
 7755SOL     OW24163   2.026   4.474   6.316
 7755SOL    HW124164   1.959   4.436   6.252
 7755SOL    HW224165   2.005   4.441   6.409
 7756SOL     OW24166   2.523   6.100   1.420
 7756SOL    HW124167   2.496   6.007   1.444
 7756SOL    HW224168   2.604   6.126   1.472
 7757SOL     OW24169   0.637   4.330   3.155
 7757SOL    HW124170   0.601   4.387   3.229
 7757SOL    HW224171   0.736   4.324   3.164
 7758SOL     OW24172   1.183   0.886   5.296
 7758SOL    HW124173   1.148   0.942   5.372
 7758SOL    HW224174   1.283   0.885   5.299
 7759SOL     OW24175   2.926   2.294   6.530
 7759SOL    HW124176   2.843   2.269   6.481
 7759SOL    HW224177   3.005   2.276   6.471
 7760SOL     OW24178   4.329   2.425   1.577
 7760SOL    HW124179   4.253   2.422   1.511
 7760SOL    HW224180   4.415   2.435   1.528
 7761SOL     OW24181   4.574   5.447   4.558
 7761SOL    HW124182   4.637   5.381   4.598
 7761SOL    HW224183   4.509   5.479   4.627
 7762SOL     OW24184   0.127   0.860   3.956
 7762SOL    HW124185   0.046   0.911   3.985
 7762SOL    HW224186   0.137   0.867   3.857
 7763SOL     OW24187   2.765   0.131   4.622
 7763SOL    HW124188   2.727   0.169   4.706
 7763SOL    HW224189   2.860   0.160   4.612
 7764SOL     OW24190   3.229   3.939   5.387
 7764SOL    HW124191   3.281   4.022   5.408
 7764SOL    HW224192   3.240   3.873   5.461
 7765SOL     OW24193   6.424   3.365   4.588
 7765SOL    HW124194   6.474   3.286   4.555
 7765SOL    HW224195   6.334   3.336   4.621
 7766SOL     OW24196   0.584   4.691   0.021
 7766SOL    HW124197   0.590   4.678   0.120
 7766SOL    HW224198   0.638   4.620   7.000
 7767SOL     OW24199   2.855   0.704   2.705
 7767SOL    HW124200   2.892   0.796   2.690
 7767SOL    HW224201   2.757   0.704   2.683
 7768SOL     OW24202   4.170   4.739   3.084
 7768SOL    HW124203   4.095   4.794   3.050
 7768SOL    HW224204   4.246   4.742   3.018
 7769SOL     OW24205   3.483   2.338   5.331
 7769SOL    HW124206   3.405   2.384   5.289
 7769SOL    HW224207   3.524   2.274   5.266
 7770SOL     OW24208   1.221   3.548   4.730
 7770SOL    HW124209   1.159   3.548   4.809
 7770SOL    HW224210   1.209   3.464   4.678
 7771SOL     OW24211   3.228   3.086   6.309
 7771SOL    HW124212   3.242   3.148   6.231
 7771SOL    HW224213   3.316   3.058   6.345
 7772SOL     OW24214   4.861   0.789   1.377
 7772SOL    HW124215   4.940   0.849   1.392
 7772SOL    HW224216   4.845   0.779   1.279
 7773SOL     OW24217   2.885   6.188   0.300
 7773SOL    HW124218   2.944   6.130   0.243
 7773SOL    HW224219   2.921   6.191   0.393
 7774SOL     OW24220   4.588   1.607   2.831
 7774SOL    HW124221   4.595   1.518   2.875
 7774SOL    HW224222   4.674   1.657   2.841
 7775SOL     OW24223   3.262   0.645   0.194
 7775SOL    HW124224   3.226   0.642   0.101
 7775SOL    HW224225   3.349   0.595   0.198
 7776SOL     OW24226   1.153   7.023   5.485
 7776SOL    HW124227   1.155   0.058   5.565
 7776SOL    HW224228   1.207   6.941   5.504
 7777SOL     OW24229   5.179   5.724   3.244
 7777SOL    HW124230   5.241   5.666   3.296
 7777SOL    HW224231   5.215   5.737   3.152
 7778SOL     OW24232   5.823   4.466   2.884
 7778SOL    HW124233   5.750   4.414   2.838
 7778SOL    HW224234   5.872   4.406   2.947
 7779SOL     OW24235   3.280   6.041   1.952
 7779SOL    HW124236   3.251   6.135   1.970
 7779SOL    HW224237   3.347   6.014   2.020
 7780SOL     OW24238   6.220   5.988   5.342
 7780SOL    HW124239   6.271   5.985   5.256
 7780SOL    HW224240   6.271   5.939   5.413
 7781SOL     OW24241   1.702   3.199   0.392
 7781SOL    HW124242   1.798   3.228   0.388
 7781SOL    HW224243   1.682   3.164   0.484
 7782SOL     OW24244   6.123   4.731   3.622
 7782SOL    HW124245   6.092   4.646   3.666
 7782SOL    HW224246   6.075   4.742   3.535
 7783SOL     OW24247   1.195   0.933   4.996
 7783SOL    HW124248   1.101   0.937   4.963
 7783SOL    HW224249   1.197   0.949   5.094
 7784SOL     OW24250   2.338   2.786   2.999
 7784SOL    HW124251   2.268   2.824   2.938
 7784SOL    HW224252   2.304   2.788   3.093
 7785SOL     OW24253   0.933   6.258   2.355
 7785SOL    HW124254   0.952   6.165   2.387
 7785SOL    HW224255   1.019   6.309   2.347
 7786SOL     OW24256   4.279   0.339   6.203
 7786SOL    HW124257   4.329   0.257   6.177
 7786SOL    HW224258   4.215   0.364   6.131
 7787SOL     OW24259   2.711   2.798   1.095
 7787SOL    HW124260   2.784   2.866   1.092
 7787SOL    HW224261   2.627   2.838   1.057
 7788SOL     OW24262   0.317   4.506   1.465
 7788SOL    HW124263   0.345   4.514   1.369
 7788SOL    HW224264   0.226   4.465   1.470
 7789SOL     OW24265   3.501   0.760   6.473
 7789SOL    HW124266   3.476   0.665   6.453
 7789SOL    HW224267   3.428   0.803   6.525
 7790SOL     OW24268   5.358   4.821   1.992
 7790SOL    HW124269   5.297   4.820   1.913
 7790SOL    HW224270   5.305   4.838   2.075
 7791SOL     OW24271   2.629   5.482   2.113
 7791SOL    HW124272   2.536   5.449   2.131
 7791SOL    HW224273   2.694   5.406   2.124
 7792SOL     OW24274   1.091   1.911   2.127
 7792SOL    HW124275   1.116   1.991   2.073
 7792SOL    HW224276   1.119   1.924   2.222
 7793SOL     OW24277   4.619   1.060   6.780
 7793SOL    HW124278   4.620   1.047   6.879
 7793SOL    HW224279   4.597   0.973   6.735
 7794SOL     OW24280   0.706   5.792   2.743
 7794SOL    HW124281   0.743   5.817   2.832
 7794SOL    HW224282   0.607   5.779   2.751
 7795SOL     OW24283   3.307   5.214   6.328
 7795SOL    HW124284   3.398   5.239   6.363
 7795SOL    HW224285   3.306   5.224   6.228
 7796SOL     OW24286   3.533   3.108   6.069
 7796SOL    HW124287   3.465   3.085   6.000
 7796SOL    HW224288   3.513   3.057   6.153
 7797SOL     OW24289   1.027   5.997   3.249
 7797SOL    HW124290   1.093   6.018   3.176
 7797SOL    HW224291   0.956   6.067   3.251
 7798SOL     OW24292   0.926   2.324   0.961
 7798SOL    HW124293   0.856   2.333   0.890
 7798SOL    HW224294   0.905   2.387   1.037
 7799SOL     OW24295   2.596   6.201   3.422
 7799SOL    HW124296   2.623   6.247   3.507
 7799SOL    HW224297   2.675   6.153   3.383
 7800SOL     OW24298   0.207   6.340   1.341
 7800SOL    HW124299   0.305   6.333   1.359
 7800SOL    HW224300   0.192   6.356   1.243
 7801SOL     OW24301   1.768   2.622   2.314
 7801SOL    HW124302   1.788   2.585   2.404
 7801SOL    HW224303   1.798   2.558   2.244
 7802SOL     OW24304   6.864   3.705   5.352
 7802SOL    HW124305   6.766   3.721   5.358
 7802SOL    HW224306   6.913   3.783   5.392
 7803SOL     OW24307   4.673   2.198   5.461
 7803SOL    HW124308   4.729   2.173   5.539
 7803SOL    HW224309   4.703   2.147   5.380
 7804SOL     OW24310   2.655   1.985   5.117
 7804SOL    HW124311   2.747   2.000   5.152
 7804SOL    HW224312   2.654   1.996   5.018
 7805SOL     OW24313   5.526   3.197   1.184
 7805SOL    HW124314   5.529   3.297   1.186
 7805SOL    HW224315   5.619   3.161   1.181
 7806SOL     OW24316   6.974   2.073   5.641
 7806SOL    HW124317   6.939   2.057   5.733
 7806SOL    HW224318   0.021   2.007   5.620
 7807SOL     OW24319   2.142   5.095   5.798
 7807SOL    HW124320   2.125   5.090   5.699
 7807SOL    HW224321   2.238   5.114   5.815
 7808SOL     OW24322   5.492   4.052   2.858
 7808SOL    HW124323   5.402   4.094   2.867
 7808SOL    HW224324   5.481   3.960   2.820
 7809SOL     OW24325   4.679   5.360   3.553
 7809SOL    HW124326   4.681   5.450   3.508
 7809SOL    HW224327   4.670   5.372   3.652
 7810SOL     OW24328   3.965   6.433   5.540
 7810SOL    HW124329   4.052   6.443   5.589
 7810SOL    HW224330   3.959   6.504   5.470
 7811SOL     OW24331   1.322   5.632   2.496
 7811SOL    HW124332   1.337   5.696   2.571
 7811SOL    HW224333   1.237   5.654   2.449
 7812SOL     OW24334   2.433   2.621   5.694
 7812SOL    HW124335   2.495   2.591   5.767
 7812SOL    HW224336   2.450   2.566   5.612
 7813SOL     OW24337   5.787   1.482   0.930
 7813SOL    HW124338   5.835   1.477   1.017
 7813SOL    HW224339   5.787   1.577   0.897
 7814SOL     OW24340   0.154   3.167   2.268
 7814SOL    HW124341   0.145   3.229   2.346
 7814SOL    HW224342   0.231   3.196   2.211
 7815SOL     OW24343   6.023   2.657   5.371
 7815SOL    HW124344   6.042   2.756   5.371
 7815SOL    HW224345   5.966   2.634   5.293
 7816SOL     OW24346   0.431   1.460   5.036
 7816SOL    HW124347   0.420   1.371   4.991
 7816SOL    HW224348   0.414   1.533   4.970
 7817SOL     OW24349   2.772   3.039   6.471
 7817SOL    HW124350   2.738   3.132   6.458
 7817SOL    HW224351   2.854   3.025   6.415
 7818SOL     OW24352   5.287   0.993   2.207
 7818SOL    HW124353   5.243   0.905   2.223
 7818SOL    HW224354   5.386   0.982   2.217
 7819SOL     OW24355   1.199   3.909   4.013
 7819SOL    HW124356   1.173   3.981   4.077
 7819SOL    HW224357   1.221   3.826   4.065
 7820SOL     OW24358   1.751   0.503   5.716
 7820SOL    HW124359   1.795   0.580   5.670
 7820SOL    HW224360   1.654   0.501   5.693
 7821SOL     OW24361   5.967   5.567   6.878
 7821SOL    HW124362   5.943   5.471   6.895
 7821SOL    HW224363   6.052   5.571   6.825
 7822SOL     OW24364   1.154   0.797   4.591
 7822SOL    HW124365   1.116   0.878   4.636
 7822SOL    HW224366   1.158   0.722   4.656
 7823SOL     OW24367   1.454   4.462   6.914
 7823SOL    HW124368   1.425   4.557   6.924
 7823SOL    HW224369   1.493   4.430   7.000
 7824SOL     OW24370   5.215   2.845   2.239
 7824SOL    HW124371   5.232   2.854   2.337
 7824SOL    HW224372   5.133   2.897   2.214
 7825SOL     OW24373   3.303   3.200   1.603
 7825SOL    HW124374   3.306   3.295   1.572
 7825SOL    HW224375   3.320   3.139   1.526
 7826SOL     OW24376   6.709   0.578   0.446
 7826SOL    HW124377   6.703   0.648   0.375
 7826SOL    HW224378   6.704   0.487   0.405
 7827SOL     OW24379   5.355   5.002   1.253
 7827SOL    HW124380   5.256   5.019   1.258
 7827SOL    HW224381   5.396   5.017   1.342
 7828SOL     OW24382   0.478   6.315   1.024
 7828SOL    HW124383   0.566   6.285   1.061
 7828SOL    HW224384   0.409   6.245   1.044
 7829SOL     OW24385   3.263   2.742   1.596
 7829SOL    HW124386   3.333   2.679   1.629
 7829SOL    HW224387   3.196   2.691   1.540
 7830SOL     OW24388   5.721   2.986   6.969
 7830SOL    HW124389   5.623   2.983   6.951
 7830SOL    HW224390   5.768   3.027   6.891
 7831SOL     OW24391   1.430   3.446   0.311
 7831SOL    HW124392   1.416   3.463   0.214
 7831SOL    HW224393   1.433   3.347   0.327
 7832SOL     OW24394   2.282   2.370   5.313
 7832SOL    HW124395   2.185   2.380   5.335
 7832SOL    HW224396   2.292   2.316   5.230
 7833SOL     OW24397   0.721   6.948   0.527
 7833SOL    HW124398   0.694   6.971   0.434
 7833SOL    HW224399   0.761   6.857   0.529
 7834SOL     OW24400   1.018   0.737   1.237
 7834SOL    HW124401   1.048   0.820   1.285
 7834SOL    HW224402   0.990   0.668   1.304
 7835SOL     OW24403   2.186   3.085   4.838
 7835SOL    HW124404   2.137   3.160   4.883
 7835SOL    HW224405   2.273   3.070   4.885
 7836SOL     OW24406   2.684   6.692   6.840
 7836SOL    HW124407   2.705   6.699   6.743
 7836SOL    HW224408   2.718   6.605   6.875
 7837SOL     OW24409   6.101   6.740   3.163
 7837SOL    HW124410   6.123   6.707   3.071
 7837SOL    HW224411   6.004   6.764   3.168
 7838SOL     OW24412   4.250   6.588   4.753
 7838SOL    HW124413   4.195   6.527   4.696
 7838SOL    HW224414   4.342   6.595   4.714
 7839SOL     OW24415   6.549   5.016   4.769
 7839SOL    HW124416   6.558   4.959   4.851
 7839SOL    HW224417   6.527   4.958   4.690
 7840SOL     OW24418   5.406   2.749   4.065
 7840SOL    HW124419   5.404   2.712   4.158
 7840SOL    HW224420   5.350   2.831   4.060
 7841SOL     OW24421   0.026   1.475   6.366
 7841SOL    HW124422   0.010   1.498   6.462
 7841SOL    HW224423   7.021   1.381   6.349
 7842SOL     OW24424   1.932   1.301   2.783
 7842SOL    HW124425   2.024   1.281   2.748
 7842SOL    HW224426   1.935   1.385   2.838
 7843SOL     OW24427   5.397   3.515   0.928
 7843SOL    HW124428   5.453   3.481   1.003
 7843SOL    HW224429   5.356   3.438   0.879
 7844SOL     OW24430   4.088   0.604   2.996
 7844SOL    HW124431   4.158   0.663   3.034
 7844SOL    HW224432   3.999   0.649   3.002
 7845SOL     OW24433   6.387   1.563   4.494
 7845SOL    HW124434   6.387   1.659   4.466
 7845SOL    HW224435   6.371   1.505   4.415
 7846SOL     OW24436   2.899   0.066   1.784
 7846SOL    HW124437   2.887   0.163   1.764
 7846SOL    HW224438   2.914   0.016   1.699
 7847SOL     OW24439   6.919   0.514   0.625
 7847SOL    HW124440   6.847   0.546   0.564
 7847SOL    HW224441   6.996   0.480   0.570
 7848SOL     OW24442   4.337   3.829   1.665
 7848SOL    HW124443   4.251   3.863   1.704
 7848SOL    HW224444   4.410   3.894   1.686
 7849SOL     OW24445   5.941   3.090   4.698
 7849SOL    HW124446   5.859   3.140   4.669
 7849SOL    HW224447   5.954   3.010   4.639
 7850SOL     OW24448   0.640   0.722   5.466
 7850SOL    HW124449   0.610   0.802   5.519
 7850SOL    HW224450   0.581   0.711   5.386
 7851SOL     OW24451   5.943   0.043   0.562
 7851SOL    HW124452   6.028   0.093   0.579
 7851SOL    HW224453   5.881   0.101   0.510
 7852SOL     OW24454   2.823   6.495   6.952
 7852SOL    HW124455   2.922   6.493   6.964
 7852SOL    HW224456   2.779   6.472   0.014
 7853SOL     OW24457   2.643   2.919   0.275
 7853SOL    HW124458   2.673   3.001   0.226
 7853SOL    HW224459   2.580   2.867   0.217
 7854SOL     OW24460   3.485   3.943   2.103
 7854SOL    HW124461   3.501   4.000   2.022
 7854SOL    HW224462   3.484   4.001   2.185
 7855SOL     OW24463   4.503   5.663   6.398
 7855SOL    HW124464   4.590   5.613   6.393
 7855SOL    HW224465   4.435   5.608   6.446
 7856SOL     OW24466   5.525   3.645   5.314
 7856SOL    HW124467   5.454   3.583   5.280
 7856SOL    HW224468   5.501   3.739   5.289
 7857SOL     OW24469   6.150   1.538   5.932
 7857SOL    HW124470   6.077   1.529   5.864
 7857SOL    HW224471   6.169   1.634   5.948
 7858SOL     OW24472   6.032   4.052   3.366
 7858SOL    HW124473   6.086   3.979   3.407
 7858SOL    HW224474   5.984   4.017   3.286
 7859SOL     OW24475   1.164   4.802   5.829
 7859SOL    HW124476   1.110   4.767   5.753
 7859SOL    HW224477   1.113   4.793   5.914
 7860SOL     OW24478   3.865   6.892   1.577
 7860SOL    HW124479   3.784   6.940   1.612
 7860SOL    HW224480   3.854   6.794   1.594
 7861SOL     OW24481   4.713   5.089   1.010
 7861SOL    HW124482   4.628   5.107   1.060
 7861SOL    HW224483   4.740   5.171   0.960
 7862SOL     OW24484   3.064   4.167   1.509
 7862SOL    HW124485   3.033   4.181   1.603
 7862SOL    HW224486   3.107   4.251   1.476
 7863SOL     OW24487   6.492   5.717   2.098
 7863SOL    HW124488   6.481   5.754   2.190
 7863SOL    HW224489   6.458   5.623   2.096
 7864SOL     OW24490   0.671   5.371   4.426
 7864SOL    HW124491   0.753   5.414   4.390
 7864SOL    HW224492   0.696   5.290   4.478
 7865SOL     OW24493   3.563   6.512   3.214
 7865SOL    HW124494   3.607   6.553   3.295
 7865SOL    HW224495   3.475   6.557   3.198
 7866SOL     OW24496   2.596   2.056   3.981
 7866SOL    HW124497   2.514   2.065   3.924
 7866SOL    HW224498   2.654   1.983   3.945
 7867SOL     OW24499   6.014   4.664   1.906
 7867SOL    HW124500   6.002   4.587   1.844
 7867SOL    HW224501   6.045   4.631   1.995
 7868SOL     OW24502   5.404   6.115   0.611
 7868SOL    HW124503   5.476   6.081   0.671
 7868SOL    HW224504   5.328   6.151   0.667
 7869SOL     OW24505   0.670   3.107   1.727
 7869SOL    HW124506   0.648   3.019   1.685
 7869SOL    HW224507   0.766   3.106   1.756
 7870SOL     OW24508   6.570   4.826   4.178
 7870SOL    HW124509   6.517   4.848   4.096
 7870SOL    HW224510   6.523   4.754   4.230
 7871SOL     OW24511   5.333   3.233   3.201
 7871SOL    HW124512   5.292   3.240   3.292
 7871SOL    HW224513   5.315   3.142   3.164
 7872SOL     OW24514   7.014   3.534   2.619
 7872SOL    HW124515   6.983   3.627   2.600
 7872SOL    HW224516   6.944   3.469   2.590
 7873SOL     OW24517   0.269   5.824   5.318
 7873SOL    HW124518   0.192   5.770   5.349
 7873SOL    HW224519   0.344   5.763   5.290
 7874SOL     OW24520   5.866   1.665   0.208
 7874SOL    HW124521   5.872   1.571   0.244
 7874SOL    HW224522   5.827   1.663   0.116
 7875SOL     OW24523   4.467   3.192   6.328
 7875SOL    HW124524   4.381   3.208   6.280
 7875SOL    HW224525   4.471   3.247   6.411
 7876SOL     OW24526   6.709   0.174   3.657
 7876SOL    HW124527   6.615   0.145   3.640
 7876SOL    HW224528   6.725   0.184   3.755
 7877SOL     OW24529   6.988   2.347   3.039
 7877SOL    HW124530   0.031   2.400   3.091
 7877SOL    HW224531   6.984   2.381   2.945
 7878SOL     OW24532   4.668   4.471   2.543
 7878SOL    HW124533   4.702   4.462   2.636
 7878SOL    HW224534   4.649   4.567   2.524
 7879SOL     OW24535   4.740   0.041   4.094
 7879SOL    HW124536   4.717   0.138   4.099
 7879SOL    HW224537   4.726   0.009   4.000
 7880SOL     OW24538   0.194   6.642   6.195
 7880SOL    HW124539   0.168   6.570   6.259
 7880SOL    HW224540   0.127   6.716   6.198
 7881SOL     OW24541   0.061   3.933   5.075
 7881SOL    HW124542   7.003   3.880   5.097
 7881SOL    HW224543   0.043   3.994   4.998
 7882SOL     OW24544   0.208   3.188   2.934
 7882SOL    HW124545   0.233   3.250   2.860
 7882SOL    HW224546   0.205   3.238   3.020
 7883SOL     OW24547   2.756   1.157   3.044
 7883SOL    HW124548   2.773   1.149   3.142
 7883SOL    HW224549   2.701   1.238   3.026
 7884SOL     OW24550   1.792   4.400   3.847
 7884SOL    HW124551   1.803   4.458   3.927
 7884SOL    HW224552   1.696   4.397   3.820
 7885SOL     OW24553   6.144   5.527   2.869
 7885SOL    HW124554   6.224   5.470   2.887
 7885SOL    HW224555   6.173   5.622   2.857
 7886SOL     OW24556   4.581   2.786   1.825
 7886SOL    HW124557   4.619   2.741   1.905
 7886SOL    HW224558   4.594   2.885   1.832
 7887SOL     OW24559   3.580   3.342   0.399
 7887SOL    HW124560   3.662   3.349   0.457
 7887SOL    HW224561   3.502   3.381   0.448
 7888SOL     OW24562   5.929   1.360   4.013
 7888SOL    HW124563   5.895   1.421   3.942
 7888SOL    HW224564   5.913   1.265   3.986
 7889SOL     OW24565   5.989   4.997   0.844
 7889SOL    HW124566   5.956   5.016   0.751
 7889SOL    HW224567   5.965   4.903   0.869
 7890SOL     OW24568   1.036   3.049   4.396
 7890SOL    HW124569   1.073   3.020   4.484
 7890SOL    HW224570   0.937   3.060   4.403
 7891SOL     OW24571   0.093   2.156   3.913
 7891SOL    HW124572   0.170   2.135   3.973
 7891SOL    HW224573   0.113   2.240   3.862
 7892SOL     OW24574   1.070   3.447   5.830
 7892SOL    HW124575   1.137   3.495   5.774
 7892SOL    HW224576   1.003   3.512   5.865
 7893SOL     OW24577   6.209   0.990   1.830
 7893SOL    HW124578   6.204   1.023   1.924
 7893SOL    HW224579   6.238   0.895   1.830
 7894SOL     OW24580   2.382   1.121   5.909
 7894SOL    HW124581   2.427   1.046   5.959
 7894SOL    HW224582   2.451   1.189   5.883
 7895SOL     OW24583   3.672   5.918   3.203
 7895SOL    HW124584   3.629   5.997   3.159
 7895SOL    HW224585   3.764   5.906   3.166
 7896SOL     OW24586   4.263   2.650   1.315
 7896SOL    HW124587   4.326   2.695   1.378
 7896SOL    HW224588   4.174   2.640   1.359
 7897SOL     OW24589   3.919   4.082   6.972
 7897SOL    HW124590   3.991   4.048   0.007
 7897SOL    HW224591   3.920   4.032   6.885
 7898SOL     OW24592   5.102   0.499   4.394
 7898SOL    HW124593   5.133   0.568   4.329
 7898SOL    HW224594   5.075   0.544   4.479
 7899SOL     OW24595   5.299   4.777   1.523
 7899SOL    HW124596   5.375   4.833   1.489
 7899SOL    HW224597   5.213   4.819   1.497
 7900SOL     OW24598   0.731   3.495   0.414
 7900SOL    HW124599   0.799   3.560   0.446
 7900SOL    HW224600   0.651   3.543   0.379
 7901SOL     OW24601   5.569   1.154   6.128
 7901SOL    HW124602   5.473   1.183   6.135
 7901SOL    HW224603   5.593   1.141   6.032
 7902SOL     OW24604   0.512   6.557   2.661
 7902SOL    HW124605   0.422   6.515   2.650
 7902SOL    HW224606   0.579   6.485   2.680
 7903SOL     OW24607   2.043   1.820   4.591
 7903SOL    HW124608   2.038   1.911   4.632
 7903SOL    HW224609   2.138   1.801   4.565
 7904SOL     OW24610   5.902   0.684   2.473
 7904SOL    HW124611   5.985   0.629   2.484
 7904SOL    HW224612   5.926   0.776   2.442
 7905SOL     OW24613   5.841   0.442   0.115
 7905SOL    HW124614   5.772   0.514   0.122
 7905SOL    HW224615   5.893   0.453   0.030
 7906SOL     OW24616   1.303   5.152   0.879
 7906SOL    HW124617   1.338   5.151   0.785
 7906SOL    HW224618   1.227   5.088   0.886
 7907SOL     OW24619   6.238   0.120   3.422
 7907SOL    HW124620   6.312   0.175   3.383
 7907SOL    HW224621   6.172   0.097   3.351
 7908SOL     OW24622   0.796   0.052   6.522
 7908SOL    HW124623   0.810   0.028   6.425
 7908SOL    HW224624   0.848   0.134   6.544
 7909SOL     OW24625   5.616   3.803   2.297
 7909SOL    HW124626   5.649   3.882   2.244
 7909SOL    HW224627   5.647   3.719   2.254
 7910SOL     OW24628   1.886   3.666   0.775
 7910SOL    HW124629   1.877   3.635   0.869
 7910SOL    HW224630   1.969   3.627   0.735
 7911SOL     OW24631   1.277   4.354   0.646
 7911SOL    HW124632   1.262   4.327   0.741
 7911SOL    HW224633   1.342   4.291   0.603
 7912SOL     OW24634   5.913   5.351   0.175
 7912SOL    HW124635   5.852   5.294   0.229
 7912SOL    HW224636   6.006   5.343   0.211
 7913SOL     OW24637   0.241   3.625   0.954
 7913SOL    HW124638   0.217   3.711   1.000
 7913SOL    HW224639   0.209   3.627   0.860
 7914SOL     OW24640   6.070   5.472   5.009
 7914SOL    HW124641   6.086   5.545   4.942
 7914SOL    HW224642   6.152   5.457   5.063
 7915SOL     OW24643   3.524   6.996   2.724
 7915SOL    HW124644   3.509   0.033   2.802
 7915SOL    HW224645   3.573   0.020   2.652
 7916SOL     OW24646   1.313   0.450   4.461
 7916SOL    HW124647   1.298   0.471   4.558
 7916SOL    HW224648   1.261   0.515   4.405
 7917SOL     OW24649   3.902   3.219   0.295
 7917SOL    HW124650   3.867   3.312   0.310
 7917SOL    HW224651   3.905   3.200   0.197
 7918SOL     OW24652   2.233   0.605   4.790
 7918SOL    HW124653   2.192   0.519   4.822
 7918SOL    HW224654   2.291   0.586   4.711
 7919SOL     OW24655   0.796   5.074   2.765
 7919SOL    HW124656   0.819   4.988   2.720
 7919SOL    HW224657   0.855   5.088   2.844
 7920SOL     OW24658   4.284   0.633   1.135
 7920SOL    HW124659   4.280   0.553   1.194
 7920SOL    HW224660   4.329   0.610   1.049
 7921SOL     OW24661   4.840   1.472   1.551
 7921SOL    HW124662   4.922   1.436   1.506
 7921SOL    HW224663   4.819   1.562   1.514
 7922SOL     OW24664   0.853   5.697   0.374
 7922SOL    HW124665   0.929   5.644   0.337
 7922SOL    HW224666   0.771   5.640   0.377
 7923SOL     OW24667   3.590   1.236   6.997
 7923SOL    HW124668   3.550   1.182   0.047
 7923SOL    HW224669   3.539   1.219   6.913
 7924SOL     OW24670   6.385   0.009   1.408
 7924SOL    HW124671   6.412   6.988   1.324
 7924SOL    HW224672   6.352   6.965   1.474
 7925SOL     OW24673   2.531   6.448   1.123
 7925SOL    HW124674   2.607   6.502   1.159
 7925SOL    HW224675   2.454   6.509   1.102
 7926SOL     OW24676   5.007   6.594   6.348
 7926SOL    HW124677   4.915   6.631   6.334
 7926SOL    HW224678   5.060   6.604   6.263
 7927SOL     OW24679   5.276   6.927   2.539
 7927SOL    HW124680   5.285   6.870   2.620
 7927SOL    HW224681   5.301   7.021   2.561
 7928SOL     OW24682   6.356   0.951   3.639
 7928SOL    HW124683   6.264   0.960   3.677
 7928SOL    HW224684   6.387   1.040   3.605
 7929SOL     OW24685   4.267   3.743   6.107
 7929SOL    HW124686   4.243   3.729   6.011
 7929SOL    HW224687   4.351   3.694   6.128
 7930SOL     OW24688   4.085   5.951   5.366
 7930SOL    HW124689   4.001   5.918   5.325
 7930SOL    HW224690   4.094   6.049   5.350
 7931SOL     OW24691   2.929   2.374   0.742
 7931SOL    HW124692   2.850   2.315   0.760
 7931SOL    HW224693   2.906   2.439   0.670
 7932SOL     OW24694   6.979   5.376   1.420
 7932SOL    HW124695   0.018   5.436   1.469
 7932SOL    HW224696   6.912   5.432   1.370
 7933SOL     OW24697   6.851   1.113   6.131
 7933SOL    HW124698   6.787   1.187   6.150
 7933SOL    HW224699   6.860   1.102   6.032
 7934SOL     OW24700   1.195   4.596   0.772
 7934SOL    HW124701   1.232   4.530   0.706
 7934SOL    HW224702   1.214   4.689   0.741
 7935SOL     OW24703   5.696   3.804   2.575
 7935SOL    HW124704   5.684   3.799   2.476
 7935SOL    HW224705   5.710   3.900   2.602
 7936SOL     OW24706   3.456   6.226   4.140
 7936SOL    HW124707   3.522   6.246   4.213
 7936SOL    HW224708   3.381   6.171   4.177
 7937SOL     OW24709   2.518   5.870   6.157
 7937SOL    HW124710   2.508   5.844   6.060
 7937SOL    HW224711   2.587   5.941   6.165
 7938SOL     OW24712   4.224   6.853   4.716
 7938SOL    HW124713   4.240   6.755   4.722
 7938SOL    HW224714   4.214   6.880   4.620
 7939SOL     OW24715   0.390   1.645   4.814
 7939SOL    HW124716   0.463   1.672   4.752
 7939SOL    HW224717   0.347   1.727   4.852
 7940SOL     OW24718   4.930   1.392   2.839
 7940SOL    HW124719   5.019   1.382   2.883
 7940SOL    HW224720   4.923   1.483   2.799
 7941SOL     OW24721   4.120   6.570   1.856
 7941SOL    HW124722   4.028   6.569   1.817
 7941SOL    HW224723   4.131   6.651   1.912
 7942SOL     OW24724   0.922   3.805   1.554
 7942SOL    HW124725   1.019   3.780   1.555
 7942SOL    HW224726   0.903   3.864   1.477
 7943SOL     OW24727   2.365   5.272   6.291
 7943SOL    HW124728   2.317   5.246   6.375
 7943SOL    HW224729   2.305   5.259   6.212
 7944SOL     OW24730   0.866   2.795   1.357
 7944SOL    HW124731   0.811   2.869   1.318
 7944SOL    HW224732   0.908   2.826   1.442
 7945SOL     OW24733   5.542   5.126   2.531
 7945SOL    HW124734   5.568   5.209   2.483
 7945SOL    HW224735   5.446   5.104   2.510
 7946SOL     OW24736   4.011   1.164   5.478
 7946SOL    HW124737   3.995   1.094   5.547
 7946SOL    HW224738   4.071   1.235   5.515
 7947SOL     OW24739   1.090   2.978   4.917
 7947SOL    HW124740   1.041   2.895   4.889
 7947SOL    HW224741   1.092   2.983   5.017
 7948SOL     OW24742   1.768   5.044   2.293
 7948SOL    HW124743   1.850   4.995   2.265
 7948SOL    HW224744   1.784   5.089   2.380
 7949SOL     OW24745   4.397   5.038   6.415
 7949SOL    HW124746   4.412   5.053   6.512
 7949SOL    HW224747   4.416   5.123   6.365
 7950SOL     OW24748   6.009   5.217   5.705
 7950SOL    HW124749   5.987   5.306   5.667
 7950SOL    HW224750   6.096   5.185   5.666
 7951SOL     OW24751   3.157   5.692   2.527
 7951SOL    HW124752   3.191   5.599   2.543
 7951SOL    HW224753   3.059   5.689   2.510
 7952SOL     OW24754   5.074   3.201   0.071
 7952SOL    HW124755   5.021   3.264   0.128
 7952SOL    HW224756   5.072   3.232   7.000
 7953SOL     OW24757   3.773   1.982   0.531
 7953SOL    HW124758   3.764   1.883   0.516
 7953SOL    HW224759   3.866   2.003   0.562
 7954SOL     OW24760   3.676   2.723   0.376
 7954SOL    HW124761   3.680   2.823   0.372
 7954SOL    HW224762   3.580   2.694   0.380
 7955SOL     OW24763   1.642   1.682   6.619
 7955SOL    HW124764   1.626   1.596   6.571
 7955SOL    HW224765   1.556   1.733   6.623
 7956SOL     OW24766   6.475   0.542   1.517
 7956SOL    HW124767   6.417   0.512   1.593
 7956SOL    HW224768   6.534   0.616   1.548
 7957SOL     OW24769   4.824   0.452   5.055
 7957SOL    HW124770   4.896   0.521   5.046
 7957SOL    HW224771   4.752   0.488   5.114
 7958SOL     OW24772   5.758   3.337   6.689
 7958SOL    HW124773   5.690   3.381   6.631
 7958SOL    HW224774   5.793   3.404   6.756
 7959SOL     OW24775   4.929   0.929   5.912
 7959SOL    HW124776   5.006   0.891   5.862
 7959SOL    HW224777   4.846   0.921   5.856
 7960SOL     OW24778   6.839   0.862   6.741
 7960SOL    HW124779   6.863   0.778   6.692
 7960SOL    HW224780   6.798   0.927   6.678
 7961SOL     OW24781   6.509   0.137   7.020
 7961SOL    HW124782   6.437   0.199   6.988
 7961SOL    HW224783   6.519   0.147   0.095
 7962SOL     OW24784   6.543   6.387   5.618
 7962SOL    HW124785   6.467   6.448   5.641
 7962SOL    HW224786   6.582   6.415   5.530
 7963SOL     OW24787   6.733   5.004   4.432
 7963SOL    HW124788   6.743   5.001   4.333
 7963SOL    HW224789   6.721   5.098   4.462
 7964SOL     OW24790   6.375   3.555   1.937
 7964SOL    HW124791   6.439   3.606   1.994
 7964SOL    HW224792   6.285   3.556   1.980
 7965SOL     OW24793   4.186   1.908   7.023
 7965SOL    HW124794   4.185   2.007   7.009
 7965SOL    HW224795   4.102   1.869   6.986
 7966SOL     OW24796   4.182   4.275   5.356
 7966SOL    HW124797   4.133   4.203   5.307
 7966SOL    HW224798   4.213   4.344   5.291
 7967SOL     OW24799   1.514   5.118   1.966
 7967SOL    HW124800   1.471   5.028   1.959
 7967SOL    HW224801   1.500   5.153   2.059
 7968SOL     OW24802   6.605   1.960   4.181
 7968SOL    HW124803   6.616   1.924   4.274
 7968SOL    HW224804   6.604   2.060   4.184
 7969SOL     OW24805   4.552   6.104   7.015
 7969SOL    HW124806   4.650   6.089   7.024
 7969SOL    HW224807   4.503   6.023   0.021
 7970SOL     OW24808   6.396   3.192   2.701
 7970SOL    HW124809   6.373   3.125   2.771
 7970SOL    HW224810   6.478   3.243   2.727
 7971SOL     OW24811   3.275   1.574   1.271
 7971SOL    HW124812   3.374   1.585   1.255
 7971SOL    HW224813   3.225   1.637   1.210
 7972SOL     OW24814   3.900   2.974   2.660
 7972SOL    HW124815   3.997   2.969   2.638
 7972SOL    HW224816   3.885   3.042   2.732
 7973SOL     OW24817   6.388   3.695   3.295
 7973SOL    HW124818   6.328   3.730   3.367
 7973SOL    HW224819   6.427   3.608   3.324
 7974SOL     OW24820   6.192   1.620   5.522
 7974SOL    HW124821   6.225   1.711   5.547
 7974SOL    HW224822   6.230   1.594   5.434
 7975SOL     OW24823   5.245   1.525   0.639
 7975SOL    HW124824   5.333   1.480   0.652
 7975SOL    HW224825   5.240   1.606   0.698
 7976SOL     OW24826   1.067   0.008   0.449
 7976SOL    HW124827   1.008   0.067   0.394
 7976SOL    HW224828   1.044   0.018   0.546
 7977SOL     OW24829   5.234   6.410   3.059
 7977SOL    HW124830   5.222   6.341   3.130
 7977SOL    HW224831   5.220   6.368   2.969
 7978SOL     OW24832   6.849   4.783   0.890
 7978SOL    HW124833   6.888   4.796   0.982
 7978SOL    HW224834   6.827   4.871   0.850
 7979SOL     OW24835   1.624   3.833   4.648
 7979SOL    HW124836   1.571   3.752   4.671
 7979SOL    HW224837   1.647   3.832   4.551
 7980SOL     OW24838   3.419   4.671   5.821
 7980SOL    HW124839   3.427   4.770   5.837
 7980SOL    HW224840   3.387   4.655   5.728
 7981SOL     OW24841   2.038   5.249   3.198
 7981SOL    HW124842   2.087   5.185   3.257
 7981SOL    HW224843   1.947   5.214   3.178
 7982SOL     OW24844   1.363   2.062   6.323
 7982SOL    HW124845   1.265   2.042   6.328
 7982SOL    HW224846   1.399   2.030   6.235
 7983SOL     OW24847   5.291   1.226   0.892
 7983SOL    HW124848   5.215   1.252   0.832
 7983SOL    HW224849   5.377   1.259   0.853
 7984SOL     OW24850   0.856   1.539   1.822
 7984SOL    HW124851   0.906   1.479   1.760
 7984SOL    HW224852   0.883   1.634   1.805
 7985SOL     OW24853   2.013   2.421   5.372
 7985SOL    HW124854   2.038   2.492   5.307
 7985SOL    HW224855   2.033   2.452   5.465
 7986SOL     OW24856   3.393   1.116   3.943
 7986SOL    HW124857   3.447   1.045   3.898
 7986SOL    HW224858   3.301   1.118   3.903
 7987SOL     OW24859   1.261   3.428   1.025
 7987SOL    HW124860   1.241   3.422   0.928
 7987SOL    HW224861   1.319   3.508   1.043
 7988SOL     OW24862   0.256   1.370   1.576
 7988SOL    HW124863   0.324   1.441   1.557
 7988SOL    HW224864   0.273   1.330   1.666
 7989SOL     OW24865   0.967   4.150   0.464
 7989SOL    HW124866   1.008   4.234   0.499
 7989SOL    HW224867   1.019   4.071   0.496
 7990SOL     OW24868   3.042   5.852   5.413
 7990SOL    HW124869   3.088   5.867   5.500
 7990SOL    HW224870   2.978   5.927   5.397
 7991SOL     OW24871   5.283   1.443   5.389
 7991SOL    HW124872   5.345   1.494   5.330
 7991SOL    HW224873   5.199   1.495   5.402
 7992SOL     OW24874   2.380   0.503   0.544
 7992SOL    HW124875   2.419   0.411   0.547
 7992SOL    HW224876   2.306   0.510   0.611
 7993SOL     OW24877   6.924   6.582   1.498
 7993SOL    HW124878   7.007   6.551   1.545
 7993SOL    HW224879   6.852   6.596   1.565
 7994SOL     OW24880   5.323   0.965   3.037
 7994SOL    HW124881   5.229   0.989   3.017
 7994SOL    HW224882   5.372   0.946   2.952
 7995SOL     OW24883   0.691   4.545   1.771
 7995SOL    HW124884   0.594   4.570   1.768
 7995SOL    HW224885   0.709   4.495   1.856
 7996SOL     OW24886   3.654   6.890   3.096
 7996SOL    HW124887   3.684   6.897   3.191
 7996SOL    HW224888   3.733   6.875   3.037
 7997SOL     OW24889   0.792   1.934   6.798
 7997SOL    HW124890   0.885   1.897   6.797
 7997SOL    HW224891   0.759   1.942   6.704
 7998SOL     OW24892   2.795   0.710   0.362
 7998SOL    HW124893   2.707   0.665   0.371
 7998SOL    HW224894   2.822   0.713   0.265
 7999SOL     OW24895   1.306   1.438   5.266
 7999SOL    HW124896   1.207   1.440   5.279
 7999SOL    HW224897   1.351   1.419   5.354
 8000SOL     OW24898   5.612   6.271   6.513
 8000SOL    HW124899   5.580   6.311   6.427
 8000SOL    HW224900   5.578   6.326   6.590
 8001SOL     OW24901   4.724   0.459   1.129
 8001SOL    HW124902   4.809   0.408   1.118
 8001SOL    HW224903   4.665   0.412   1.195
 8002SOL     OW24904   0.554   0.587   6.050
 8002SOL    HW124905   0.617   0.637   6.110
 8002SOL    HW224906   0.527   0.645   5.973
 8003SOL     OW24907   1.906   6.567   2.683
 8003SOL    HW124908   1.856   6.640   2.637
 8003SOL    HW224909   1.846   6.519   2.747
 8004SOL     OW24910   0.767   2.646   3.940
 8004SOL    HW124911   0.838   2.675   4.005
 8004SOL    HW224912   0.699   2.591   3.988
 8005SOL     OW24913   2.356   0.210   3.143
 8005SOL    HW124914   2.414   0.203   3.062
 8005SOL    HW224915   2.378   0.136   3.207
 8006SOL     OW24916   3.643   4.926   4.830
 8006SOL    HW124917   3.698   4.909   4.748
 8006SOL    HW224918   3.546   4.910   4.809
 8007SOL     OW24919   6.314   1.296   6.316
 8007SOL    HW124920   6.272   1.359   6.250
 8007SOL    HW224921   6.276   1.204   6.304
 8008SOL     OW24922   4.149   6.477   0.166
 8008SOL    HW124923   4.133   6.573   0.187
 8008SOL    HW224924   4.076   6.442   0.107
 8009SOL     OW24925   4.623   1.501   0.597
 8009SOL    HW124926   4.604   1.552   0.513
 8009SOL    HW224927   4.556   1.428   0.607
 8010SOL     OW24928   2.623   2.425   5.178
 8010SOL    HW124929   2.563   2.413   5.257
 8010SOL    HW224930   2.718   2.422   5.208
 8011SOL     OW24931   3.365   1.672   2.166
 8011SOL    HW124932   3.419   1.703   2.244
 8011SOL    HW224933   3.296   1.741   2.143
 8012SOL     OW24934   0.992   3.239   5.509
 8012SOL    HW124935   0.918   3.287   5.556
 8012SOL    HW224936   1.072   3.235   5.568
 8013SOL     OW24937   1.711   2.238   3.703
 8013SOL    HW124938   1.796   2.186   3.693
 8013SOL    HW224939   1.684   2.241   3.799
 8014SOL     OW24940   2.080   0.782   3.241
 8014SOL    HW124941   2.066   0.870   3.285
 8014SOL    HW224942   2.157   0.734   3.284
 8015SOL     OW24943   2.344   6.970   5.309
 8015SOL    HW124944   2.343   6.909   5.229
 8015SOL    HW224945   2.425   0.004   5.306
 8016SOL     OW24946   4.490   1.751   5.451
 8016SOL    HW124947   4.479   1.811   5.531
 8016SOL    HW224948   4.412   1.763   5.390
 8017SOL     OW24949   6.978   0.010   0.330
 8017SOL    HW124950   6.937   0.065   0.403
 8017SOL    HW224951   6.934   6.945   0.326
 8018SOL     OW24952   3.974   1.218   0.387
 8018SOL    HW124953   4.050   1.218   0.322
 8018SOL    HW224954   4.009   1.216   0.481
 8019SOL     OW24955   3.196   3.677   0.914
 8019SOL    HW124956   3.202   3.657   1.012
 8019SOL    HW224957   3.112   3.729   0.896
 8020SOL     OW24958   6.769   0.120   5.007
 8020SOL    HW124959   6.826   0.199   5.031
 8020SOL    HW224960   6.689   0.118   5.068
 8021SOL     OW24961   1.892   2.268   2.394
 8021SOL    HW124962   1.961   2.340   2.395
 8021SOL    HW224963   1.857   2.254   2.486
 8022SOL     OW24964   5.318   1.122   1.964
 8022SOL    HW124965   5.272   1.210   1.952
 8022SOL    HW224966   5.294   1.083   2.052
 8023SOL     OW24967   5.109   6.490   3.423
 8023SOL    HW124968   5.175   6.444   3.481
 8023SOL    HW224969   5.151   6.514   3.336
 8024SOL     OW24970   1.870   6.353   6.323
 8024SOL    HW124971   1.884   6.375   6.226
 8024SOL    HW224972   1.881   6.436   6.378
 8025SOL     OW24973   2.440   5.020   1.600
 8025SOL    HW124974   2.433   4.980   1.509
 8025SOL    HW224975   2.424   5.119   1.594
 8026SOL     OW24976   0.638   5.013   6.552
 8026SOL    HW124977   0.545   4.988   6.578
 8026SOL    HW224978   0.672   4.949   6.482
 8027SOL     OW24979   3.932   6.079   6.025
 8027SOL    HW124980   3.980   6.093   6.112
 8027SOL    HW224981   3.995   6.100   5.950
 8028SOL     OW24982   3.405   5.404   4.370
 8028SOL    HW124983   3.321   5.355   4.394
 8028SOL    HW224984   3.382   5.493   4.331
 8029SOL     OW24985   6.047   1.170   1.270
 8029SOL    HW124986   6.053   1.161   1.370
 8029SOL    HW224987   6.138   1.159   1.230
 8030SOL     OW24988   6.438   4.627   1.217
 8030SOL    HW124989   6.388   4.712   1.199
 8030SOL    HW224990   6.501   4.610   1.141
 8031SOL     OW24991   5.878   0.546   3.059
 8031SOL    HW124992   5.904   0.534   2.963
 8031SOL    HW224993   5.930   0.482   3.115
 8032SOL     OW24994   5.592   2.925   1.238
 8032SOL    HW124995   5.578   2.865   1.316
 8032SOL    HW224996   5.532   3.005   1.246
 8033SOL     OW24997   3.578   4.618   0.334
 8033SOL    HW124998   3.626   4.546   0.384
 8033SOL    HW224999   3.645   4.675   0.286
 8034SOL     OW25000   5.939   6.972   5.087
 8034SOL    HW125001   5.944   7.000   4.991
 8034SOL    HW225002   5.993   0.011   5.143
 8035SOL     OW25003   4.695   1.419   2.996
 8035SOL    HW125004   4.784   1.459   2.975
 8035SOL    HW225005   4.689   1.400   3.094
 8036SOL     OW25006   6.219   2.746   3.984
 8036SOL    HW125007   6.319   2.744   3.984
 8036SOL    HW225008   6.184   2.656   3.959
 8037SOL     OW25009   1.499   2.964   6.563
 8037SOL    HW125010   1.595   2.991   6.566
 8037SOL    HW225011   1.476   2.932   6.471
 8038SOL     OW25012   5.852   5.967   2.278
 8038SOL    HW125013   5.869   6.052   2.228
 8038SOL    HW225014   5.923   5.900   2.255
 8039SOL     OW25015   0.980   2.004   5.751
 8039SOL    HW125016   0.940   2.006   5.842
 8039SOL    HW225017   1.080   2.008   5.757
 8040SOL     OW25018   1.386   5.674   5.814
 8040SOL    HW125019   1.445   5.750   5.785
 8040SOL    HW225020   1.439   5.610   5.870
 8041SOL     OW25021   3.465   1.767   3.176
 8041SOL    HW125022   3.552   1.724   3.154
 8041SOL    HW225023   3.420   1.797   3.092
 8042SOL     OW25024   4.593   4.330   6.203
 8042SOL    HW125025   4.508   4.297   6.162
 8042SOL    HW225026   4.572   4.399   6.272
 8043SOL     OW25027   5.220   4.615   1.164
 8043SOL    HW125028   5.204   4.533   1.109
 8043SOL    HW225029   5.307   4.606   1.213
 8044SOL     OW25030   3.494   3.680   1.009
 8044SOL    HW125031   3.439   3.758   1.039
 8044SOL    HW225032   3.433   3.608   0.976
 8045SOL     OW25033   0.594   0.882   2.508
 8045SOL    HW125034   0.586   0.919   2.600
 8045SOL    HW225035   0.652   0.800   2.510
 8046SOL     OW25036   0.370   5.376   2.246
 8046SOL    HW125037   0.406   5.354   2.336
 8046SOL    HW225038   0.357   5.291   2.194
 8047SOL     OW25039   3.975   0.059   5.578
 8047SOL    HW125040   3.925   0.122   5.520
 8047SOL    HW225041   4.067   0.094   5.595
 8048SOL     OW25042   3.366   3.574   0.225
 8048SOL    HW125043   3.427   3.525   0.164
 8048SOL    HW225044   3.280   3.595   0.177
 8049SOL     OW25045   1.778   0.064   0.791
 8049SOL    HW125046   1.842   0.063   0.713
 8049SOL    HW225047   1.810   0.131   0.858
 8050SOL     OW25048   1.727   4.399   4.119
 8050SOL    HW125049   1.640   4.421   4.162
 8050SOL    HW225050   1.734   4.300   4.108
 8051SOL     OW25051   3.959   5.989   4.390
 8051SOL    HW125052   4.048   6.032   4.407
 8051SOL    HW225053   3.956   5.957   4.295
 8052SOL     OW25054   1.960   1.809   2.083
 8052SOL    HW125055   1.863   1.794   2.069
 8052SOL    HW225056   1.978   1.824   2.180
 8053SOL     OW25057   2.893   3.366   6.241
 8053SOL    HW125058   2.876   3.319   6.327
 8053SOL    HW225059   2.849   3.316   6.166
 8054SOL     OW25060   5.359   4.020   5.020
 8054SOL    HW125061   5.403   4.107   5.044
 8054SOL    HW225062   5.428   3.956   4.987
 8055SOL     OW25063   0.412   0.434   5.671
 8055SOL    HW125064   0.451   0.368   5.736
 8055SOL    HW225065   0.339   0.486   5.715
 8056SOL     OW25066   2.289   0.643   3.367
 8056SOL    HW125067   2.230   0.664   3.445
 8056SOL    HW225068   2.366   0.706   3.365
 8057SOL     OW25069   2.433   2.683   1.889
 8057SOL    HW125070   2.358   2.659   1.950
 8057SOL    HW225071   2.510   2.620   1.904
 8058SOL     OW25072   2.895   6.951   3.659
 8058SOL    HW125073   2.873   7.004   3.577
 8058SOL    HW225074   2.967   6.998   3.711
 8059SOL     OW25075   2.837   2.471   6.277
 8059SOL    HW125076   2.892   2.486   6.359
 8059SOL    HW225077   2.791   2.556   6.252
 8060SOL     OW25078   6.916   0.345   6.116
 8060SOL    HW125079   6.917   0.253   6.078
 8060SOL    HW225080   6.875   0.408   6.050
 8061SOL     OW25081   0.378   0.795   2.094
 8061SOL    HW125082   0.474   0.816   2.077
 8061SOL    HW225083   0.322   0.874   2.071
 8062SOL     OW25084   4.255   5.551   5.003
 8062SOL    HW125085   4.221   5.463   5.037
 8062SOL    HW225086   4.298   5.538   4.914
 8063SOL     OW25087   3.646   0.744   2.967
 8063SOL    HW125088   3.619   0.655   3.003
 8063SOL    HW225089   3.567   0.791   2.929
 8064SOL     OW25090   6.250   3.263   0.134
 8064SOL    HW125091   6.191   3.209   0.073
 8064SOL    HW225092   6.346   3.244   0.113
 8065SOL     OW25093   3.313   6.966   4.465
 8065SOL    HW125094   3.241   6.896   4.457
 8065SOL    HW225095   3.399   6.928   4.431
 8066SOL     OW25096   0.118   1.060   5.003
 8066SOL    HW125097   0.085   1.026   5.091
 8066SOL    HW225098   0.060   1.024   4.930
 8067SOL     OW25099   4.880   3.111   3.569
 8067SOL    HW125100   4.930   3.194   3.593
 8067SOL    HW225101   4.847   3.066   3.652
 8068SOL     OW25102   0.024   4.457   1.467
 8068SOL    HW125103   7.004   4.369   1.451
 8068SOL    HW225104   7.020   4.522   1.396
 8069SOL     OW25105   3.101   5.338   2.362
 8069SOL    HW125106   3.119   5.251   2.316
 8069SOL    HW225107   3.031   5.325   2.433
 8070SOL     OW25108   5.072   4.788   0.921
 8070SOL    HW125109   5.123   4.749   0.997
 8070SOL    HW225110   5.013   4.718   0.880
 8071SOL     OW25111   3.960   6.828   5.679
 8071SOL    HW125112   3.995   6.909   5.631
 8071SOL    HW225113   3.994   6.827   5.773
 8072SOL     OW25114   2.299   3.179   6.857
 8072SOL    HW125115   2.353   3.250   6.812
 8072SOL    HW225116   2.204   3.184   6.824
 8073SOL     OW25117   2.786   0.180   6.682
 8073SOL    HW125118   2.837   0.103   6.642
 8073SOL    HW225119   2.824   0.266   6.649
 8074SOL     OW25120   1.855   2.085   0.544
 8074SOL    HW125121   1.811   2.164   0.502
 8074SOL    HW225122   1.883   2.021   0.473
 8075SOL     OW25123   6.855   6.432   0.001
 8075SOL    HW125124   6.942   6.473   6.997
 8075SOL    HW225125   6.850   6.338   6.991
 8076SOL     OW25126   6.849   7.017   6.763
 8076SOL    HW125127   6.930   7.013   6.821
 8076SOL    HW225128   6.876   7.003   6.667
 8077SOL     OW25129   4.077   5.732   1.817
 8077SOL    HW125130   4.063   5.773   1.907
 8077SOL    HW225131   4.096   5.804   1.750
 8078SOL     OW25132   1.202   1.219   0.931
 8078SOL    HW125133   1.202   1.166   0.846
 8078SOL    HW225134   1.233   1.312   0.913
 8079SOL     OW25135   1.260   1.247   4.753
 8079SOL    HW125136   1.342   1.292   4.719
 8079SOL    HW225137   1.204   1.313   4.804
 8080SOL     OW25138   1.299   3.491   2.334
 8080SOL    HW125139   1.396   3.513   2.332
 8080SOL    HW225140   1.245   3.573   2.318
 8081SOL     OW25141   5.992   4.865   4.816
 8081SOL    HW125142   6.013   4.823   4.904
 8081SOL    HW225143   5.902   4.909   4.821
 8082SOL     OW25144   2.585   1.272   2.354
 8082SOL    HW125145   2.596   1.346   2.420
 8082SOL    HW225146   2.555   1.309   2.266
 8083SOL     OW25147   5.329   2.367   4.391
 8083SOL    HW125148   5.344   2.307   4.469
 8083SOL    HW225149   5.272   2.320   4.323
 8084SOL     OW25150   2.330   0.215   6.027
 8084SOL    HW125151   2.251   0.216   5.966
 8084SOL    HW225152   2.322   0.139   6.091
 8085SOL     OW25153   0.511   5.556   3.820
 8085SOL    HW125154   0.509   5.495   3.900
 8085SOL    HW225155   0.587   5.531   3.761
 8086SOL     OW25156   0.642   0.918   1.805
 8086SOL    HW125157   0.636   0.908   1.905
 8086SOL    HW225158   0.558   0.961   1.771
 8087SOL     OW25159   1.116   0.635   6.910
 8087SOL    HW125160   1.084   0.598   6.997
 8087SOL    HW225161   1.210   0.607   6.893
 8088SOL     OW25162   5.339   6.764   6.464
 8088SOL    HW125163   5.328   6.858   6.430
 8088SOL    HW225164   5.310   6.700   6.393
 8089SOL     OW25165   5.907   2.762   6.254
 8089SOL    HW125166   5.816   2.741   6.217
 8089SOL    HW225167   5.940   2.848   6.216
 8090SOL     OW25168   3.990   1.771   6.934
 8090SOL    HW125169   4.003   1.723   7.020
 8090SOL    HW225170   3.980   1.704   6.860
 8091SOL     OW25171   1.677   4.534   4.499
 8091SOL    HW125172   1.681   4.446   4.453
 8091SOL    HW225173   1.717   4.605   4.440
 8092SOL     OW25174   4.739   1.788   5.344
 8092SOL    HW125175   4.803   1.772   5.419
 8092SOL    HW225176   4.646   1.798   5.381
 8093SOL     OW25177   2.995   5.948   3.038
 8093SOL    HW125178   3.094   5.933   3.038
 8093SOL    HW225179   2.954   5.892   2.966
 8094SOL     OW25180   1.462   3.619   4.596
 8094SOL    HW125181   1.446   3.533   4.548
 8094SOL    HW225182   1.396   3.628   4.671
 8095SOL     OW25183   1.239   4.217   5.076
 8095SOL    HW125184   1.332   4.253   5.087
 8095SOL    HW225185   1.174   4.292   5.073
 8096SOL     OW25186   1.674   6.995   1.999
 8096SOL    HW125187   1.684   0.057   1.948
 8096SOL    HW225188   1.730   6.998   2.081
 8097SOL     OW25189   3.376   6.981   5.336
 8097SOL    HW125190   3.386   6.909   5.267
 8097SOL    HW225191   3.280   7.008   5.341
 8098SOL     OW25192   0.576   6.128   3.746
 8098SOL    HW125193   0.599   6.047   3.692
 8098SOL    HW225194   0.541   6.100   3.836
 8099SOL     OW25195   4.039   5.600   3.656
 8099SOL    HW125196   3.955   5.588   3.603
 8099SOL    HW225197   4.047   5.525   3.721
 8100SOL     OW25198   6.003   1.132   6.264
 8100SOL    HW125199   6.081   1.070   6.269
 8100SOL    HW225200   6.030   1.216   6.216
 8101SOL     OW25201   2.389   5.864   0.895
 8101SOL    HW125202   2.486   5.869   0.919
 8101SOL    HW225203   2.363   5.946   0.844
 8102SOL     OW25204   1.179   3.288   4.627
 8102SOL    HW125205   1.234   3.264   4.706
 8102SOL    HW225206   1.092   3.238   4.629
 8103SOL     OW25207   3.602   1.119   2.332
 8103SOL    HW125208   3.615   1.214   2.359
 8103SOL    HW225209   3.644   1.059   2.400
 8104SOL     OW25210   1.922   6.760   5.768
 8104SOL    HW125211   1.967   6.802   5.690
 8104SOL    HW225212   1.946   6.663   5.773
 8105SOL     OW25213   6.645   1.898   3.204
 8105SOL    HW125214   6.571   1.961   3.225
 8105SOL    HW225215   6.637   1.867   3.109
 8106SOL     OW25216   2.817   6.310   4.191
 8106SOL    HW125217   2.888   6.323   4.122
 8106SOL    HW225218   2.821   6.216   4.226
 8107SOL     OW25219   1.653   5.633   4.248
 8107SOL    HW125220   1.670   5.646   4.346
 8107SOL    HW225221   1.735   5.657   4.197
 8108SOL     OW25222   6.822   1.301   6.762
 8108SOL    HW125223   6.737   1.250   6.774
 8108SOL    HW225224   6.897   1.251   6.804
 8109SOL     OW25225   6.794   3.527   6.742
 8109SOL    HW125226   6.884   3.520   6.700
 8109SOL    HW225227   6.778   3.447   6.800
 8110SOL     OW25228   4.554   4.584   0.787
 8110SOL    HW125229   4.536   4.676   0.823
 8110SOL    HW225230   4.650   4.577   0.761
 8111SOL     OW25231   5.589   0.956   3.403
 8111SOL    HW125232   5.550   1.019   3.336
 8111SOL    HW225233   5.680   0.928   3.373
 8112SOL     OW25234   0.477   2.836   4.768
 8112SOL    HW125235   0.545   2.900   4.802
 8112SOL    HW225236   0.513   2.743   4.773
 8113SOL     OW25237   6.431   2.821   1.179
 8113SOL    HW125238   6.422   2.731   1.220
 8113SOL    HW225239   6.412   2.891   1.248
 8114SOL     OW25240   1.523   4.474   2.192
 8114SOL    HW125241   1.608   4.426   2.214
 8114SOL    HW225242   1.452   4.447   2.257
 8115SOL     OW25243   3.113   6.870   6.684
 8115SOL    HW125244   3.189   6.825   6.635
 8115SOL    HW225245   3.132   6.868   6.782
 8116SOL     OW25246   3.739   5.417   0.544
 8116SOL    HW125247   3.758   5.437   0.448
 8116SOL    HW225248   3.767   5.323   0.564
 8117SOL     OW25249   2.131   7.014   2.990
 8117SOL    HW125250   2.056   6.975   2.937
 8117SOL    HW225251   2.179   0.058   2.935
 8118SOL     OW25252   6.229   4.214   6.633
 8118SOL    HW125253   6.211   4.175   6.543
 8118SOL    HW225254   6.257   4.141   6.696
 8119SOL     OW25255   5.253   6.149   6.064
 8119SOL    HW125256   5.268   6.079   6.134
 8119SOL    HW225257   5.341   6.188   6.037
 8120SOL     OW25258   2.149   5.528   0.648
 8120SOL    HW125259   2.185   5.489   0.564
 8120SOL    HW225260   2.050   5.522   0.648
 8121SOL     OW25261   1.165   4.042   3.207
 8121SOL    HW125262   1.203   3.950   3.200
 8121SOL    HW225263   1.080   4.047   3.156
 8122SOL     OW25264   1.128   4.723   2.685
 8122SOL    HW125265   1.136   4.625   2.669
 8122SOL    HW225266   1.216   4.758   2.720
 8123SOL     OW25267   1.038   1.962   0.079
 8123SOL    HW125268   1.127   1.981   0.121
 8123SOL    HW225269   1.046   1.881   0.021
 8124SOL     OW25270   5.405   5.871   4.126
 8124SOL    HW125271   5.382   5.961   4.089
 8124SOL    HW225272   5.336   5.804   4.098
 8125SOL     OW25273   0.718   0.824   2.935
 8125SOL    HW125274   0.742   0.734   2.973
 8125SOL    HW225275   0.768   0.839   2.850
 8126SOL     OW25276   4.297   4.931   3.736
 8126SOL    HW125277   4.279   4.991   3.814
 8126SOL    HW225278   4.325   4.841   3.769
 8127SOL     OW25279   2.544   2.643   6.931
 8127SOL    HW125280   2.507   2.574   6.870
 8127SOL    HW225281   2.619   2.604   6.984
 8128SOL     OW25282   3.321   2.443   1.418
 8128SOL    HW125283   3.347   2.383   1.494
 8128SOL    HW225284   3.236   2.491   1.441
 8129SOL     OW25285   1.575   2.163   0.197
 8129SOL    HW125286   1.519   2.154   0.279
 8129SOL    HW225287   1.636   2.084   0.190
 8130SOL     OW25288   1.644   5.638   0.191
 8130SOL    HW125289   1.546   5.652   0.205
 8130SOL    HW225290   1.663   5.637   0.093
 8131SOL     OW25291   2.804   2.560   1.105
 8131SOL    HW125292   2.857   2.548   1.020
 8131SOL    HW225293   2.762   2.651   1.105
 8132SOL     OW25294   6.426   6.947   4.028
 8132SOL    HW125295   6.346   6.920   3.974
 8132SOL    HW225296   6.501   6.883   4.009
 8133SOL     OW25297   4.050   5.275   2.083
 8133SOL    HW125298   4.109   5.196   2.067
 8133SOL    HW225299   4.035   5.287   2.181
 8134SOL     OW25300   6.158   1.224   5.892
 8134SOL    HW125301   6.249   1.264   5.901
 8134SOL    HW225302   6.108   1.233   5.978
 8135SOL     OW25303   2.242   0.246   1.903
 8135SOL    HW125304   2.267   0.261   1.807
 8135SOL    HW225305   2.179   0.318   1.932
 8136SOL     OW25306   5.463   5.448   2.669
 8136SOL    HW125307   5.515   5.479   2.589
 8136SOL    HW225308   5.524   5.399   2.732
 8137SOL     OW25309   3.144   1.258   5.312
 8137SOL    HW125310   3.109   1.178   5.360
 8137SOL    HW225311   3.068   1.310   5.273
 8138SOL     OW25312   5.288   1.394   1.381
 8138SOL    HW125313   5.328   1.303   1.392
 8138SOL    HW225314   5.257   1.406   1.287
 8139SOL     OW25315   0.441   1.490   2.513
 8139SOL    HW125316   0.370   1.560   2.520
 8139SOL    HW225317   0.406   1.412   2.461
 8140SOL     OW25318   4.613   1.363   4.655
 8140SOL    HW125319   4.649   1.433   4.593
 8140SOL    HW225320   4.520   1.388   4.683
 8141SOL     OW25321   4.022   5.237   5.549
 8141SOL    HW125322   4.068   5.325   5.562
 8141SOL    HW225323   3.923   5.250   5.557
 8142SOL     OW25324   6.460   4.457   0.597
 8142SOL    HW125325   6.366   4.439   0.628
 8142SOL    HW225326   6.457   4.496   0.505
 8143SOL     OW25327   6.093   4.238   6.121
 8143SOL    HW125328   6.105   4.321   6.067
 8143SOL    HW225329   6.030   4.257   6.196
 8144SOL     OW25330   5.362   6.947   6.912
 8144SOL    HW125331   5.334   0.017   6.894
 8144SOL    HW225332   5.335   6.921   7.004
 8145SOL     OW25333   5.972   5.651   2.672
 8145SOL    HW125334   6.021   5.611   2.750
 8145SOL    HW225335   5.873   5.648   2.690
 8146SOL     OW25336   3.441   0.817   5.690
 8146SOL    HW125337   3.415   0.904   5.649
 8146SOL    HW225338   3.420   0.742   5.627
 8147SOL     OW25339   4.599   1.660   3.519
 8147SOL    HW125340   4.595   1.561   3.507
 8147SOL    HW225341   4.515   1.701   3.484
 8148SOL     OW25342   5.637   3.127   2.666
 8148SOL    HW125343   5.587   3.193   2.722
 8148SOL    HW225344   5.586   3.040   2.664
 8149SOL     OW25345   3.608   5.757   2.363
 8149SOL    HW125346   3.623   5.669   2.316
 8149SOL    HW225347   3.511   5.780   2.360
 8150SOL     OW25348   0.300   4.846   0.724
 8150SOL    HW125349   0.374   4.857   0.658
 8150SOL    HW225350   0.256   4.935   0.739
 8151SOL     OW25351   0.825   2.338   3.683
 8151SOL    HW125352   0.806   2.292   3.770
 8151SOL    HW225353   0.804   2.436   3.692
 8152SOL     OW25354   1.940   1.143   3.018
 8152SOL    HW125355   1.999   1.210   3.063
 8152SOL    HW225356   1.915   1.176   2.927
 8153SOL     OW25357   3.035   0.342   2.042
 8153SOL    HW125358   2.937   0.322   2.043
 8153SOL    HW225359   3.084   0.267   1.999
 8154SOL     OW25360   2.607   6.329   4.034
 8154SOL    HW125361   2.689   6.363   4.080
 8154SOL    HW225362   2.540   6.300   4.102
 8155SOL     OW25363   3.079   3.005   1.966
 8155SOL    HW125364   3.040   3.001   2.058
 8155SOL    HW225365   3.127   2.919   1.947
 8156SOL     OW25366   5.585   0.635   5.198
 8156SOL    HW125367   5.638   0.706   5.149
 8156SOL    HW225368   5.618   0.545   5.170
 8157SOL     OW25369   5.684   4.276   6.580
 8157SOL    HW125370   5.744   4.207   6.620
 8157SOL    HW225371   5.697   4.363   6.628
 8158SOL     OW25372   1.298   5.819   1.279
 8158SOL    HW125373   1.331   5.741   1.332
 8158SOL    HW225374   1.349   5.901   1.306
 8159SOL     OW25375   2.312   5.544   2.342
 8159SOL    HW125376   2.314   5.505   2.250
 8159SOL    HW225377   2.231   5.510   2.391
 8160SOL     OW25378   4.799   2.404   0.958
 8160SOL    HW125379   4.726   2.441   0.900
 8160SOL    HW225380   4.843   2.479   1.007
 8161SOL     OW25381   4.761   1.147   0.722
 8161SOL    HW125382   4.668   1.177   0.705
 8161SOL    HW225383   4.825   1.204   0.669
 8162SOL     OW25384   6.008   0.298   0.879
 8162SOL    HW125385   6.030   0.207   0.914
 8162SOL    HW225386   5.941   0.341   0.938
 8163SOL     OW25387   2.627   4.249   5.344
 8163SOL    HW125388   2.564   4.192   5.396
 8163SOL    HW225389   2.698   4.191   5.303
 8164SOL     OW25390   5.217   2.669   1.413
 8164SOL    HW125391   5.193   2.617   1.495
 8164SOL    HW225392   5.233   2.606   1.337
 8165SOL     OW25393   1.564   4.488   1.195
 8165SOL    HW125394   1.642   4.551   1.203
 8165SOL    HW225395   1.515   4.507   1.110
 8166SOL     OW25396   2.185   0.138   2.152
 8166SOL    HW125397   2.212   0.149   2.056
 8166SOL    HW225398   2.221   0.051   2.187
 8167SOL     OW25399   5.686   2.483   3.312
 8167SOL    HW125400   5.760   2.444   3.256
 8167SOL    HW225401   5.700   2.582   3.319
 8168SOL     OW25402   3.562   1.413   3.194
 8168SOL    HW125403   3.522   1.446   3.109
 8168SOL    HW225404   3.599   1.321   3.181
 8169SOL     OW25405   4.504   4.044   0.419
 8169SOL    HW125406   4.528   3.984   0.495
 8169SOL    HW225407   4.467   4.130   0.455
 8170SOL     OW25408   0.914   6.134   3.974
 8170SOL    HW125409   0.980   6.066   3.943
 8170SOL    HW225410   0.833   6.088   4.010
 8171SOL     OW25411   0.408   1.598   6.557
 8171SOL    HW125412   0.491   1.592   6.612
 8171SOL    HW225413   0.425   1.560   6.467
 8172SOL     OW25414   0.183   0.172   0.741
 8172SOL    HW125415   0.202   0.166   0.839
 8172SOL    HW225416   0.085   0.186   0.726
 8173SOL     OW25417   3.683   2.516   0.018
 8173SOL    HW125418   3.740   2.438   7.016
 8173SOL    HW225419   3.633   2.549   6.963
 8174SOL     OW25420   5.399   1.590   0.879
 8174SOL    HW125421   5.453   1.520   0.926
 8174SOL    HW225422   5.372   1.661   0.944
 8175SOL     OW25423   0.296   2.491   6.380
 8175SOL    HW125424   0.332   2.426   6.313
 8175SOL    HW225425   0.200   2.510   6.360
 8176SOL     OW25426   2.863   5.580   2.030
 8176SOL    HW125427   2.774   5.559   2.071
 8176SOL    HW225428   2.933   5.584   2.102
 8177SOL     OW25429   1.075   6.770   4.296
 8177SOL    HW125430   1.060   6.825   4.378
 8177SOL    HW225431   1.147   6.811   4.240
 8178SOL     OW25432   1.465   6.835   6.681
 8178SOL    HW125433   1.465   6.931   6.709
 8178SOL    HW225434   1.558   6.798   6.690
 8179SOL     OW25435   3.082   2.932   0.354
 8179SOL    HW125436   3.090   2.832   0.355
 8179SOL    HW225437   3.150   2.971   0.417
 8180SOL     OW25438   0.392   6.907   4.212
 8180SOL    HW125439   0.358   6.953   4.293
 8180SOL    HW225440   0.477   6.860   4.233
 8181SOL     OW25441   2.770   1.922   2.856
 8181SOL    HW125442   2.735   1.960   2.942
 8181SOL    HW225443   2.727   1.968   2.779
 8182SOL     OW25444   3.398   2.114   5.882
 8182SOL    HW125445   3.426   2.132   5.787
 8182SOL    HW225446   3.461   2.047   5.922
 8183SOL     OW25447   1.096   3.565   4.978
 8183SOL    HW125448   1.146   3.625   5.041
 8183SOL    HW225449   1.045   3.497   5.031
 8184SOL     OW25450   0.153   0.648   5.522
 8184SOL    HW125451   0.143   0.724   5.586
 8184SOL    HW225452   0.089   0.661   5.445
 8185SOL     OW25453   3.175   1.353   2.386
 8185SOL    HW125454   3.091   1.404   2.369
 8185SOL    HW225455   3.177   1.270   2.330
 8186SOL     OW25456   3.032   5.906   5.875
 8186SOL    HW125457   3.001   5.972   5.943
 8186SOL    HW225458   3.020   5.944   5.783
 8187SOL     OW25459   1.273   2.117   5.403
 8187SOL    HW125460   1.288   2.038   5.343
 8187SOL    HW225461   1.350   2.128   5.465
 8188SOL     OW25462   5.778   2.005   2.671
 8188SOL    HW125463   5.699   2.002   2.609
 8188SOL    HW225464   5.783   2.095   2.715
 8189SOL     OW25465   5.919   4.621   2.663
 8189SOL    HW125466   5.879   4.556   2.728
 8189SOL    HW225467   6.014   4.595   2.644
 8190SOL     OW25468   5.220   3.269   3.482
 8190SOL    HW125469   5.213   3.231   3.575
 8190SOL    HW225470   5.169   3.355   3.478
 8191SOL     OW25471   0.762   5.402   3.797
 8191SOL    HW125472   0.849   5.406   3.748
 8191SOL    HW225473   0.727   5.309   3.797
 8192SOL     OW25474   2.615   5.735   2.264
 8192SOL    HW125475   2.694   5.731   2.325
 8192SOL    HW225476   2.620   5.660   2.198
 8193SOL     OW25477   4.604   6.781   5.283
 8193SOL    HW125478   4.583   6.788   5.380
 8193SOL    HW225479   4.700   6.753   5.272
 8194SOL     OW25480   6.692   0.772   6.949
 8194SOL    HW125481   6.707   0.799   6.854
 8194SOL    HW225482   6.609   0.817   6.984
 8195SOL     OW25483   6.686   6.977   6.962
 8195SOL    HW125484   6.619   0.027   6.962
 8195SOL    HW225485   6.752   6.992   6.889
 8196SOL     OW25486   3.484   6.464   6.493
 8196SOL    HW125487   3.512   6.403   6.568
 8196SOL    HW225488   3.385   6.477   6.496
 8197SOL     OW25489   6.928   0.714   6.406
 8197SOL    HW125490   6.883   0.796   6.371
 8197SOL    HW225491   0.003   0.725   6.400
 8198SOL     OW25492   2.365   6.709   3.339
 8198SOL    HW125493   2.296   6.775   3.369
 8198SOL    HW225494   2.444   6.757   3.301
 8199SOL     OW25495   0.284   3.476   0.131
 8199SOL    HW125496   0.279   3.565   0.176
 8199SOL    HW225497   0.324   3.409   0.194
 8200SOL     OW25498   5.224   4.090   1.402
 8200SOL    HW125499   5.312   4.057   1.436
 8200SOL    HW225500   5.213   4.062   1.307
 8201SOL     OW25501   5.785   7.000   3.681
 8201SOL    HW125502   5.847   0.044   3.642
 8201SOL    HW225503   5.702   0.020   3.713
 8202SOL     OW25504   1.435   4.719   3.069
 8202SOL    HW125505   1.520   4.765   3.043
 8202SOL    HW225506   1.410   4.745   3.162
 8203SOL     OW25507   5.274   4.082   1.868
 8203SOL    HW125508   5.248   4.007   1.929
 8203SOL    HW225509   5.373   4.089   1.865
 8204SOL     OW25510   3.314   6.549   2.615
 8204SOL    HW125511   3.371   6.627   2.641
 8204SOL    HW225512   3.223   6.582   2.587
 8205SOL     OW25513   5.734   5.323   1.857
 8205SOL    HW125514   5.807   5.258   1.835
 8205SOL    HW225515   5.713   5.317   1.955
 8206SOL     OW25516   4.101   1.978   5.175
 8206SOL    HW125517   4.015   1.975   5.227
 8206SOL    HW225518   4.123   1.886   5.142
 8207SOL     OW25519   3.556   4.916   6.332
 8207SOL    HW125520   3.652   4.904   6.305
 8207SOL    HW225521   3.542   5.008   6.367
 8208SOL     OW25522   1.936   4.807   1.209
 8208SOL    HW125523   1.876   4.884   1.230
 8208SOL    HW225524   2.027   4.825   1.245
 8209SOL     OW25525   1.267   0.684   4.906
 8209SOL    HW125526   1.363   0.708   4.896
 8209SOL    HW225527   1.219   0.757   4.956
 8210SOL     OW25528   2.208   1.538   0.252
 8210SOL    HW125529   2.270   1.463   0.274
 8210SOL    HW225530   2.226   1.570   0.159
 8211SOL     OW25531   3.163   3.095   4.385
 8211SOL    HW125532   3.147   3.076   4.482
 8211SOL    HW225533   3.154   3.010   4.333
 8212SOL     OW25534   2.495   0.190   1.389
 8212SOL    HW125535   2.400   0.186   1.357
 8212SOL    HW225536   2.505   0.133   1.471
 8213SOL     OW25537   4.101   4.383   1.510
 8213SOL    HW125538   4.073   4.461   1.566
 8213SOL    HW225539   4.143   4.314   1.570
 8214SOL     OW25540   3.350   5.729   4.305
 8214SOL    HW125541   3.432   5.781   4.326
 8214SOL    HW225542   3.294   5.779   4.239
 8215SOL     OW25543   4.141   6.693   6.761
 8215SOL    HW125544   4.052   6.665   6.798
 8215SOL    HW225545   4.191   6.743   6.832
 8216SOL     OW25546   4.742   5.825   1.601
 8216SOL    HW125547   4.838   5.796   1.598
 8216SOL    HW225548   4.730   5.908   1.546
 8217SOL     OW25549   2.965   5.315   3.122
 8217SOL    HW125550   3.024   5.237   3.146
 8217SOL    HW225551   2.871   5.284   3.111
 8218SOL     OW25552   1.545   0.594   5.156
 8218SOL    HW125553   1.503   0.655   5.089
 8218SOL    HW225554   1.639   0.573   5.127
 8219SOL     OW25555   3.799   3.950   0.653
 8219SOL    HW125556   3.817   3.885   0.726
 8219SOL    HW225557   3.821   3.909   0.565
 8220SOL     OW25558   3.732   3.713   4.314
 8220SOL    HW125559   3.713   3.776   4.389
 8220SOL    HW225560   3.825   3.677   4.322
 8221SOL     OW25561   6.272   3.170   3.299
 8221SOL    HW125562   6.235   3.150   3.390
 8221SOL    HW225563   6.245   3.096   3.236
 8222SOL     OW25564   6.344   2.512   1.050
 8222SOL    HW125565   6.349   2.427   1.101
 8222SOL    HW225566   6.272   2.570   1.088
 8223SOL     OW25567   0.178   6.222   4.827
 8223SOL    HW125568   0.208   6.133   4.862
 8223SOL    HW225569   0.248   6.291   4.847
 8224SOL     OW25570   5.574   2.023   0.314
 8224SOL    HW125571   5.618   2.066   0.392
 8224SOL    HW225572   5.514   2.089   0.268
 8225SOL     OW25573   5.182   1.707   0.220
 8225SOL    HW125574   5.194   1.615   0.256
 8225SOL    HW225575   5.272   1.745   0.197
 8226SOL     OW25576   3.722   0.184   0.627
 8226SOL    HW125577   3.631   0.226   0.622
 8226SOL    HW225578   3.715   0.088   0.600
 8227SOL     OW25579   5.126   2.228   2.555
 8227SOL    HW125580   5.030   2.255   2.544
 8227SOL    HW225581   5.143   2.203   2.650
 8228SOL     OW25582   1.664   0.722   5.368
 8228SOL    HW125583   1.597   0.712   5.442
 8228SOL    HW225584   1.622   0.695   5.282
 8229SOL     OW25585   4.071   4.628   1.042
 8229SOL    HW125586   4.123   4.713   1.032
 8229SOL    HW225587   4.122   4.553   0.999
 8230SOL     OW25588   4.354   0.936   5.787
 8230SOL    HW125589   4.322   0.972   5.699
 8230SOL    HW225590   4.454   0.940   5.790
 8231SOL     OW25591   2.654   1.421   3.022
 8231SOL    HW125592   2.641   1.519   3.006
 8231SOL    HW225593   2.695   1.408   3.113
 8232SOL     OW25594   4.144   6.496   2.692
 8232SOL    HW125595   4.156   6.592   2.718
 8232SOL    HW225596   4.140   6.489   2.592
 8233SOL     OW25597   0.896   0.676   5.669
 8233SOL    HW125598   0.927   0.588   5.705
 8233SOL    HW225599   0.833   0.660   5.593
 8234SOL     OW25600   2.092   2.595   0.270
 8234SOL    HW125601   2.081   2.502   0.234
 8234SOL    HW225602   2.186   2.607   0.303
 8235SOL     OW25603   6.879   5.716   0.583
 8235SOL    HW125604   6.904   5.713   0.680
 8235SOL    HW225605   6.780   5.707   0.573
 8236SOL     OW25606   0.984   6.498   0.030
 8236SOL    HW125607   0.947   6.583   0.068
 8236SOL    HW225608   0.939   6.420   0.074
 8237SOL     OW25609   4.521   5.380   6.564
 8237SOL    HW125610   4.618   5.397   6.585
 8237SOL    HW225611   4.514   5.347   6.470
 8238SOL     OW25612   1.592   4.658   0.613
 8238SOL    HW125613   1.581   4.588   0.684
 8238SOL    HW225614   1.689   4.664   0.588
 8239SOL     OW25615   0.624   1.441   5.247
 8239SOL    HW125616   0.640   1.539   5.262
 8239SOL    HW225617   0.561   1.428   5.171
 8240SOL     OW25618   3.332   3.896   4.449
 8240SOL    HW125619   3.411   3.893   4.510
 8240SOL    HW225620   3.256   3.848   4.491
 8241SOL     OW25621   2.116   3.914   6.295
 8241SOL    HW125622   2.070   3.988   6.245
 8241SOL    HW225623   2.212   3.911   6.268
 8242SOL     OW25624   0.166   3.310   4.121
 8242SOL    HW125625   0.167   3.284   4.218
 8242SOL    HW225626   0.254   3.352   4.097
 8243SOL     OW25627   0.855   4.602   4.693
 8243SOL    HW125628   0.852   4.702   4.701
 8243SOL    HW225629   0.902   4.577   4.608
 8244SOL     OW25630   1.330   0.432   3.925
 8244SOL    HW125631   1.312   0.527   3.952
 8244SOL    HW225632   1.373   0.383   4.000
 8245SOL     OW25633   5.370   1.452   4.098
 8245SOL    HW125634   5.388   1.422   4.005
 8245SOL    HW225635   5.341   1.374   4.154
 8246SOL     OW25636   1.566   4.675   6.430
 8246SOL    HW125637   1.570   4.602   6.498
 8246SOL    HW225638   1.624   4.652   6.352
 8247SOL     OW25639   3.350   5.606   3.012
 8247SOL    HW125640   3.400   5.538   3.066
 8247SOL    HW225641   3.400   5.624   2.927
 8248SOL     OW25642   0.923   5.406   3.305
 8248SOL    HW125643   0.905   5.349   3.384
 8248SOL    HW225644   1.014   5.447   3.313
 8249SOL     OW25645   2.629   2.005   6.307
 8249SOL    HW125646   2.722   2.016   6.342
 8249SOL    HW225647   2.633   1.969   6.214
 8250SOL     OW25648   1.934   1.469   6.275
 8250SOL    HW125649   1.989   1.477   6.191
 8250SOL    HW225650   1.838   1.484   6.254
 8251SOL     OW25651   0.164   2.091   4.702
 8251SOL    HW125652   0.115   2.120   4.784
 8251SOL    HW225653   0.112   2.019   4.655
 8252SOL     OW25654   1.708   2.356   6.596
 8252SOL    HW125655   1.775   2.338   6.525
 8252SOL    HW225656   1.625   2.395   6.556
 8253SOL     OW25657   4.311   6.066   0.674
 8253SOL    HW125658   4.277   6.066   0.768
 8253SOL    HW225659   4.356   5.979   0.655
 8254SOL     OW25660   5.247   5.148   6.775
 8254SOL    HW125661   5.241   5.227   6.713
 8254SOL    HW225662   5.169   5.149   6.837
 8255SOL     OW25663   0.594   6.049   6.433
 8255SOL    HW125664   0.620   5.962   6.475
 8255SOL    HW225665   0.506   6.040   6.387
 8256SOL     OW25666   1.846   5.708   3.145
 8256SOL    HW125667   1.933   5.687   3.190
 8256SOL    HW225668   1.859   5.783   3.080
 8257SOL     OW25669   4.997   3.666   3.484
 8257SOL    HW125670   4.933   3.669   3.407
 8257SOL    HW225671   5.014   3.570   3.509
 8258SOL     OW25672   6.624   3.206   2.095
 8258SOL    HW125673   6.706   3.226   2.149
 8258SOL    HW225674   6.633   3.247   2.005
 8259SOL     OW25675   4.252   1.564   4.068
 8259SOL    HW125676   4.228   1.468   4.079
 8259SOL    HW225677   4.343   1.580   4.107
 8260SOL     OW25678   3.982   1.245   1.469
 8260SOL    HW125679   4.045   1.309   1.423
 8260SOL    HW225680   3.972   1.271   1.564
 8261SOL     OW25681   5.238   0.150   3.232
 8261SOL    HW125682   5.289   0.198   3.303
 8261SOL    HW225683   5.174   0.085   3.275
 8262SOL     OW25684   6.629   4.055   2.128
 8262SOL    HW125685   6.628   4.092   2.221
 8262SOL    HW225686   6.719   4.018   2.107
 8263SOL     OW25687   0.533   2.268   6.382
 8263SOL    HW125688   0.569   2.360   6.401
 8263SOL    HW225689   0.549   2.209   6.462
 8264SOL     OW25690   2.396   6.762   2.803
 8264SOL    HW125691   2.477   6.761   2.744
 8264SOL    HW225692   2.345   6.677   2.791
 8265SOL     OW25693   5.671   0.869   0.512
 8265SOL    HW125694   5.606   0.922   0.459
 8265SOL    HW225695   5.764   0.898   0.489
 8266SOL     OW25696   2.512   0.515   3.106
 8266SOL    HW125697   2.508   0.610   3.076
 8266SOL    HW225698   2.607   0.485   3.108
 8267SOL     OW25699   1.322   4.157   3.377
 8267SOL    HW125700   1.353   4.240   3.332
 8267SOL    HW225701   1.269   4.101   3.313
 8268SOL     OW25702   3.307   4.779   6.380
 8268SOL    HW125703   3.389   4.826   6.349
 8268SOL    HW225704   3.325   4.681   6.385
 8269SOL     OW25705   5.092   2.386   3.321
 8269SOL    HW125706   5.016   2.406   3.384
 8269SOL    HW225707   5.177   2.381   3.373
 8270SOL     OW25708   3.385   0.633   5.906
 8270SOL    HW125709   3.418   0.695   5.834
 8270SOL    HW225710   3.307   0.580   5.871
 8271SOL     OW25711   3.789   6.579   5.752
 8271SOL    HW125712   3.842   6.661   5.732
 8271SOL    HW225713   3.711   6.602   5.810
 8272SOL     OW25714   0.988   0.076   1.498
 8272SOL    HW125715   1.036   0.068   1.411
 8272SOL    HW225716   0.988   0.172   1.527
 8273SOL     OW25717   2.992   0.093   7.006
 8273SOL    HW125718   2.941   0.015   6.969
 8273SOL    HW225719   3.032   0.069   0.070
 8274SOL     OW25720   5.453   6.380   6.322
 8274SOL    HW125721   5.418   6.467   6.288
 8274SOL    HW225722   5.396   6.348   6.398
 8275SOL     OW25723   5.485   0.612   4.259
 8275SOL    HW125724   5.437   0.629   4.345
 8275SOL    HW225725   5.421   0.575   4.192
 8276SOL     OW25726   0.051   2.595   6.268
 8276SOL    HW125727   0.077   2.565   6.177
 8276SOL    HW225728   7.020   2.678   6.261
 8277SOL     OW25729   1.340   5.935   6.335
 8277SOL    HW125730   1.370   5.985   6.416
 8277SOL    HW225731   1.354   5.992   6.253
 8278SOL     OW25732   3.746   1.392   0.781
 8278SOL    HW125733   3.819   1.334   0.819
 8278SOL    HW225734   3.783   1.482   0.759
 8279SOL     OW25735   4.963   5.342   5.726
 8279SOL    HW125736   4.969   5.397   5.809
 8279SOL    HW225737   4.931   5.399   5.651
 8280SOL     OW25738   5.254   3.042   6.856
 8280SOL    HW125739   5.166   2.996   6.871
 8280SOL    HW225740   5.323   3.002   6.917
 8281SOL     OW25741   2.309   4.984   6.832
 8281SOL    HW125742   2.377   4.918   6.798
 8281SOL    HW225743   2.350   5.076   6.833
 8282SOL     OW25744   3.237   2.449   0.796
 8282SOL    HW125745   3.174   2.439   0.873
 8282SOL    HW225746   3.188   2.487   0.718
 8283SOL     OW25747   0.510   5.312   2.857
 8283SOL    HW125748   0.513   5.255   2.776
 8283SOL    HW225749   0.578   5.384   2.850
 8284SOL     OW25750   2.532   1.981   2.416
 8284SOL    HW125751   2.476   2.023   2.487
 8284SOL    HW225752   2.473   1.930   2.353
 8285SOL     OW25753   3.579   4.464   5.990
 8285SOL    HW125754   3.670   4.505   6.002
 8285SOL    HW225755   3.516   4.534   5.957
 8286SOL     OW25756   5.350   1.119   5.622
 8286SOL    HW125757   5.406   1.036   5.626
 8286SOL    HW225758   5.292   1.116   5.541
 8287SOL     OW25759   1.840   0.431   3.265
 8287SOL    HW125760   1.860   0.484   3.348
 8287SOL    HW225761   1.911   0.448   3.197
 8288SOL     OW25762   1.344   1.197   2.821
 8288SOL    HW125763   1.408   1.150   2.882
 8288SOL    HW225764   1.356   1.296   2.829
 8289SOL     OW25765   6.166   1.344   5.624
 8289SOL    HW125766   6.141   1.441   5.624
 8289SOL    HW225767   6.181   1.314   5.718
 8290SOL     OW25768   4.110   2.321   1.744
 8290SOL    HW125769   4.041   2.279   1.686
 8290SOL    HW225770   4.191   2.343   1.690
 8291SOL     OW25771   5.244   5.504   5.965
 8291SOL    HW125772   5.273   5.476   5.874
 8291SOL    HW225773   5.180   5.580   5.958
 8292SOL     OW25774   0.811   4.047   4.251
 8292SOL    HW125775   0.795   3.948   4.254
 8292SOL    HW225776   0.723   4.095   4.260
 8293SOL     OW25777   3.225   5.306   3.847
 8293SOL    HW125778   3.205   5.364   3.768
 8293SOL    HW225779   3.244   5.363   3.926
 8294SOL     OW25780   5.725   3.645   5.872
 8294SOL    HW125781   5.629   3.668   5.854
 8294SOL    HW225782   5.732   3.599   5.961
 8295SOL     OW25783   4.784   4.483   1.953
 8295SOL    HW125784   4.731   4.399   1.959
 8295SOL    HW225785   4.836   4.484   1.867
 8296SOL     OW25786   3.884   6.612   1.466
 8296SOL    HW125787   3.832   6.652   1.391
 8296SOL    HW225788   3.936   6.533   1.431
 8297SOL     OW25789   5.634   4.303   2.755
 8297SOL    HW125790   5.607   4.209   2.736
 8297SOL    HW225791   5.554   4.362   2.751
 8298SOL     OW25792   5.937   0.648   6.015
 8298SOL    HW125793   5.868   0.587   6.054
 8298SOL    HW225794   5.932   0.645   5.915
 8299SOL     OW25795   1.463   3.480   1.378
 8299SOL    HW125796   1.413   3.408   1.331
 8299SOL    HW225797   1.409   3.565   1.376
 8300SOL     OW25798   5.713   5.043   2.997
 8300SOL    HW125799   5.811   5.030   3.011
 8300SOL    HW225800   5.665   4.956   3.010
 8301SOL     OW25801   4.107   6.580   0.531
 8301SOL    HW125802   4.073   6.573   0.437
 8301SOL    HW225803   4.147   6.671   0.545
 8302SOL     OW25804   3.684   6.735   5.233
 8302SOL    HW125805   3.762   6.729   5.171
 8302SOL    HW225806   3.714   6.772   5.321
 8303SOL     OW25807   7.021   6.121   3.193
 8303SOL    HW125808   0.087   6.136   3.153
 8303SOL    HW225809   6.976   6.210   3.205
 8304SOL     OW25810   5.382   3.494   3.602
 8304SOL    HW125811   5.461   3.458   3.552
 8304SOL    HW225812   5.343   3.570   3.551
 8305SOL     OW25813   5.286   5.561   4.426
 8305SOL    HW125814   5.208   5.523   4.376
 8305SOL    HW225815   5.370   5.542   4.377
 8306SOL     OW25816   6.785   0.626   2.323
 8306SOL    HW125817   6.718   0.692   2.358
 8306SOL    HW225818   6.862   0.675   2.284
 8307SOL     OW25819   1.947   4.613   3.025
 8307SOL    HW125820   2.017   4.682   3.045
 8307SOL    HW225821   1.933   4.608   2.926
 8308SOL     OW25822   1.153   5.270   0.172
 8308SOL    HW125823   1.222   5.320   0.120
 8308SOL    HW225824   1.072   5.326   0.183
 8309SOL     OW25825   6.212   4.349   4.308
 8309SOL    HW125826   6.195   4.407   4.388
 8309SOL    HW225827   6.197   4.253   4.332
 8310SOL     OW25828   0.982   6.729   0.182
 8310SOL    HW125829   0.955   6.723   0.278
 8310SOL    HW225830   1.080   6.715   0.173
 8311SOL     OW25831   5.523   0.190   3.359
 8311SOL    HW125832   5.576   0.254   3.416
 8311SOL    HW225833   5.535   0.214   3.263
 8312SOL     OW25834   5.486   1.788   6.607
 8312SOL    HW125835   5.421   1.820   6.537
 8312SOL    HW225836   5.476   1.844   6.689
 8313SOL     OW25837   4.801   1.935   4.993
 8313SOL    HW125838   4.801   2.014   5.055
 8313SOL    HW225839   4.890   1.927   4.949
 8314SOL     OW25840   4.652   5.946   5.195
 8314SOL    HW125841   4.686   6.038   5.214
 8314SOL    HW225842   4.659   5.890   5.278
 8315SOL     OW25843   3.815   4.145   4.998
 8315SOL    HW125844   3.765   4.071   5.043
 8315SOL    HW225845   3.911   4.120   4.990
 8316SOL     OW25846   1.808   2.778   6.570
 8316SOL    HW125847   1.823   2.711   6.498
 8316SOL    HW225848   1.868   2.758   6.647
 8317SOL     OW25849   2.197   1.215   3.321
 8317SOL    HW125850   2.175   1.288   3.385
 8317SOL    HW225851   2.212   1.130   3.373
 8318SOL     OW25852   3.790   7.018   6.600
 8318SOL    HW125853   3.810   0.068   6.537
 8318SOL    HW225854   3.735   6.948   6.553
 8319SOL     OW25855   1.253   0.026   6.583
 8319SOL    HW125856   1.187   6.980   6.609
 8319SOL    HW225857   1.333   0.020   6.643
 8320SOL     OW25858   2.870   3.555   4.539
 8320SOL    HW125859   2.873   3.593   4.447
 8320SOL    HW225860   2.891   3.626   4.606
 8321SOL     OW25861   6.901   6.702   0.558
 8321SOL    HW125862   6.974   6.743   0.504
 8321SOL    HW225863   6.894   6.605   0.537
 8322SOL     OW25864   0.889   0.348   6.704
 8322SOL    HW125865   0.917   0.297   6.785
 8322SOL    HW225866   0.949   0.427   6.690
 8323SOL     OW25867   4.953   4.674   1.264
 8323SOL    HW125868   4.906   4.587   1.277
 8323SOL    HW225869   5.048   4.657   1.239
 8324SOL     OW25870   5.041   6.329   6.453
 8324SOL    HW125871   5.027   6.410   6.395
 8324SOL    HW225872   4.962   6.268   6.444
 8325SOL     OW25873   1.274   5.931   5.792
 8325SOL    HW125874   1.235   5.944   5.701
 8325SOL    HW225875   1.373   5.918   5.784
 8326SOL     OW25876   1.624   3.989   1.928
 8326SOL    HW125877   1.588   4.006   2.019
 8326SOL    HW225878   1.618   4.072   1.872
 8327SOL     OW25879   1.068   6.935   4.509
 8327SOL    HW125880   1.168   6.935   4.513
 8327SOL    HW225881   1.036   7.020   4.466
 8328SOL     OW25882   1.674   0.363   6.685
 8328SOL    HW125883   1.771   0.347   6.663
 8328SOL    HW225884   1.669   0.420   6.767
 8329SOL     OW25885   1.440   2.771   5.104
 8329SOL    HW125886   1.463   2.860   5.143
 8329SOL    HW225887   1.389   2.718   5.172
 8330SOL     OW25888   3.154   1.457   6.329
 8330SOL    HW125889   3.089   1.396   6.285
 8330SOL    HW225890   3.154   1.440   6.427
 8331SOL     OW25891   1.850   2.595   7.003
 8331SOL    HW125892   1.772   2.561   6.951
 8331SOL    HW225893   1.835   2.579   0.076
 8332SOL     OW25894   5.983   5.476   1.759
 8332SOL    HW125895   5.886   5.451   1.754
 8332SOL    HW225896   6.037   5.396   1.782
 8333SOL     OW25897   2.777   4.985   1.313
 8333SOL    HW125898   2.779   5.017   1.407
 8333SOL    HW225899   2.859   4.931   1.294
 8334SOL     OW25900   4.184   2.103   6.241
 8334SOL    HW125901   4.112   2.084   6.308
 8334SOL    HW225902   4.252   2.163   6.281
 8335SOL     OW25903   4.938   3.961   6.112
 8335SOL    HW125904   4.976   3.896   6.046
 8335SOL    HW225905   4.855   3.923   6.153
 8336SOL     OW25906   0.998   3.592   3.473
 8336SOL    HW125907   1.061   3.661   3.507
 8336SOL    HW225908   0.922   3.581   3.537
 8337SOL     OW25909   0.897   1.430   4.467
 8337SOL    HW125910   0.894   1.484   4.383
 8337SOL    HW225911   0.961   1.473   4.531
 8338SOL     OW25912   4.755   5.561   2.736
 8338SOL    HW125913   4.671   5.616   2.736
 8338SOL    HW225914   4.810   5.584   2.816
 8339SOL     OW25915   6.243   0.040   0.902
 8339SOL    HW125916   6.237   0.067   0.806
 8339SOL    HW225917   6.321   0.086   0.944
 8340SOL     OW25918   5.994   2.543   0.185
 8340SOL    HW125919   6.024   2.627   0.230
 8340SOL    HW225920   6.067   2.510   0.124
 8341SOL     OW25921   3.273   1.558   0.430
 8341SOL    HW125922   3.180   1.568   0.464
 8341SOL    HW225923   3.320   1.487   0.484
 8342SOL     OW25924   4.712   0.275   0.326
 8342SOL    HW125925   4.642   0.267   0.256
 8342SOL    HW225926   4.782   0.205   0.312
 8343SOL     OW25927   6.141   3.795   3.787
 8343SOL    HW125928   6.136   3.868   3.856
 8343SOL    HW225929   6.049   3.763   3.766
 8344SOL     OW25930   1.160   4.775   5.130
 8344SOL    HW125931   1.228   4.702   5.141
 8344SOL    HW225932   1.163   4.835   5.210
 8345SOL     OW25933   4.380   0.736   3.164
 8345SOL    HW125934   4.408   0.651   3.120
 8345SOL    HW225935   4.410   0.814   3.109
 8346SOL     OW25936   5.192   2.919   5.048
 8346SOL    HW125937   5.095   2.893   5.045
 8346SOL    HW225938   5.213   2.961   5.137
 8347SOL     OW25939   2.530   0.063   6.326
 8347SOL    HW125940   2.553   7.015   6.391
 8347SOL    HW225941   2.536   0.152   6.371
 8348SOL     OW25942   3.351   6.940   1.748
 8348SOL    HW125943   3.378   6.947   1.844
 8348SOL    HW225944   3.349   0.007   1.707
 8349SOL     OW25945   0.918   6.381   1.799
 8349SOL    HW125946   0.836   6.366   1.743
 8349SOL    HW225947   0.899   6.353   1.893
 8350SOL     OW25948   2.436   0.080   0.198
 8350SOL    HW125949   2.486   0.020   0.261
 8350SOL    HW225950   2.500   0.140   0.151
 8351SOL     OW25951   6.684   3.993   2.769
 8351SOL    HW125952   6.617   3.921   2.754
 8351SOL    HW225953   6.728   3.979   2.858
 8352SOL     OW25954   2.530   5.647   1.717
 8352SOL    HW125955   2.560   5.558   1.751
 8352SOL    HW225956   2.574   5.720   1.769
 8353SOL     OW25957   1.768   4.301   2.183
 8353SOL    HW125958   1.728   4.209   2.181
 8353SOL    HW225959   1.822   4.315   2.100
 8354SOL     OW25960   3.533   0.502   3.703
 8354SOL    HW125961   3.461   0.438   3.730
 8354SOL    HW225962   3.609   0.451   3.662
 8355SOL     OW25963   2.238   5.854   6.167
 8355SOL    HW125964   2.222   5.759   6.193
 8355SOL    HW225965   2.336   5.872   6.165
 8356SOL     OW25966   1.900   5.580   1.188
 8356SOL    HW125967   1.968   5.508   1.203
 8356SOL    HW225968   1.821   5.565   1.247
 8357SOL     OW25969   4.312   5.958   5.856
 8357SOL    HW125970   4.379   5.888   5.830
 8357SOL    HW225971   4.302   6.023   5.780
 8358SOL     OW25972   0.954   1.917   5.317
 8358SOL    HW125973   0.965   2.016   5.311
 8358SOL    HW225974   1.038   1.875   5.353
 8359SOL     OW25975   2.961   2.004   5.373
 8359SOL    HW125976   2.875   1.994   5.424
 8359SOL    HW225977   2.946   2.066   5.296
 8360SOL     OW25978   4.894   0.746   0.880
 8360SOL    HW125979   4.993   0.750   0.869
 8360SOL    HW225980   4.871   0.739   0.977
 8361SOL     OW25981   3.251   0.261   0.249
 8361SOL    HW125982   3.199   0.306   0.322
 8361SOL    HW225983   3.347   0.252   0.277
 8362SOL     OW25984   6.808   4.026   1.693
 8362SOL    HW125985   6.877   4.046   1.763
 8362SOL    HW225986   6.741   4.100   1.692
 8363SOL     OW25987   2.441   2.990   6.700
 8363SOL    HW125988   2.522   2.963   6.753
 8363SOL    HW225989   2.396   3.067   6.746
 8364SOL     OW25990   6.851   2.997   4.503
 8364SOL    HW125991   6.883   2.981   4.596
 8364SOL    HW225992   6.796   2.919   4.473
 8365SOL     OW25993   1.913   2.519   2.746
 8365SOL    HW125994   1.877   2.590   2.686
 8365SOL    HW225995   1.846   2.497   2.816
 8366SOL     OW25996   5.237   5.787   1.915
 8366SOL    HW125997   5.178   5.719   1.870
 8366SOL    HW225998   5.191   5.820   1.998
 8367SOL     OW25999   4.092   4.859   4.471
 8367SOL    HW126000   4.088   4.831   4.567
 8367SOL    HW226001   4.138   4.788   4.417
 8368SOL     OW26002   0.083   6.778   0.391
 8368SOL    HW126003   0.054   6.872   0.408
 8368SOL    HW226004   0.092   6.763   0.292
 8369SOL     OW26005   2.194   0.906   0.255
 8369SOL    HW126006   2.202   0.994   0.207
 8369SOL    HW226007   2.147   0.920   0.342
 8370SOL     OW26008   2.838   2.974   0.469
 8370SOL    HW126009   2.752   2.944   0.428
 8370SOL    HW226010   2.911   2.968   0.400
 8371SOL     OW26011   1.967   4.579   5.967
 8371SOL    HW126012   1.884   4.559   5.915
 8371SOL    HW226013   1.943   4.596   6.062
 8372SOL     OW26014   2.229   5.842   2.306
 8372SOL    HW126015   2.267   5.752   2.288
 8372SOL    HW226016   2.265   5.877   2.392
 8373SOL     OW26017   6.860   0.762   4.265
 8373SOL    HW126018   6.946   0.749   4.216
 8373SOL    HW226019   6.879   0.801   4.355
 8374SOL     OW26020   1.602   0.365   4.361
 8374SOL    HW126021   1.677   0.417   4.320
 8374SOL    HW226022   1.534   0.428   4.397
 8375SOL     OW26023   3.984   1.165   4.395
 8375SOL    HW126024   3.924   1.239   4.424
 8375SOL    HW226025   3.950   1.125   4.310
 8376SOL     OW26026   2.114   0.946   3.018
 8376SOL    HW126027   2.097   0.878   3.089
 8376SOL    HW226028   2.040   1.013   3.017
 8377SOL     OW26029   4.688   5.823   6.956
 8377SOL    HW126030   4.730   5.906   6.993
 8377SOL    HW226031   4.674   5.757   0.006
 8378SOL     OW26032   6.356   5.764   3.620
 8378SOL    HW126033   6.322   5.689   3.562
 8378SOL    HW226034   6.333   5.745   3.715
 8379SOL     OW26035   5.891   1.272   1.712
 8379SOL    HW126036   5.806   1.324   1.712
 8379SOL    HW226037   5.946   1.298   1.792
 8380SOL     OW26038   6.362   5.457   0.117
 8380SOL    HW126039   6.414   5.410   0.045
 8380SOL    HW226040   6.385   5.554   0.116
 8381SOL     OW26041   6.851   1.519   2.353
 8381SOL    HW126042   6.766   1.496   2.306
 8381SOL    HW226043   6.886   1.606   2.318
 8382SOL     OW26044   2.295   0.637   0.897
 8382SOL    HW126045   2.280   0.576   0.975
 8382SOL    HW226046   2.230   0.713   0.901
 8383SOL     OW26047   2.410   6.036   5.887
 8383SOL    HW126048   2.324   6.085   5.907
 8383SOL    HW226049   2.483   6.073   5.944
 8384SOL     OW26050   0.895   2.608   0.809
 8384SOL    HW126051   0.938   2.584   0.722
 8384SOL    HW226052   0.813   2.552   0.822
 8385SOL     OW26053   4.183   3.852   0.840
 8385SOL    HW126054   4.103   3.793   0.852
 8385SOL    HW226055   4.161   3.925   0.775
 8386SOL     OW26056   2.078   5.597   1.727
 8386SOL    HW126057   2.014   5.522   1.710
 8386SOL    HW226058   2.046   5.679   1.679
 8387SOL     OW26059   1.454   1.379   2.213
 8387SOL    HW126060   1.373   1.435   2.199
 8387SOL    HW226061   1.507   1.416   2.289
 8388SOL     OW26062   3.487   6.886   1.159
 8388SOL    HW126063   3.488   6.935   1.246
 8388SOL    HW226064   3.393   6.882   1.124
 8389SOL     OW26065   0.661   2.417   4.047
 8389SOL    HW126066   0.602   2.387   4.122
 8389SOL    HW226067   0.749   2.370   4.053
 8390SOL     OW26068   2.465   0.947   5.498
 8390SOL    HW126069   2.407   0.917   5.574
 8390SOL    HW226070   2.507   0.867   5.454
 8391SOL     OW26071   4.961   5.638   1.505
 8391SOL    HW126072   5.052   5.618   1.468
 8391SOL    HW226073   4.932   5.563   1.564
 8392SOL     OW26074   5.426   6.433   5.570
 8392SOL    HW126075   5.445   6.358   5.506
 8392SOL    HW226076   5.505   6.445   5.630
 8393SOL     OW26077   0.234   6.197   3.023
 8393SOL    HW126078   0.286   6.282   3.016
 8393SOL    HW226079   0.282   6.125   2.971
 8394SOL     OW26080   0.916   1.714   2.801
 8394SOL    HW126081   0.820   1.707   2.774
 8394SOL    HW226082   0.948   1.807   2.786
 8395SOL     OW26083   6.897   5.991   5.314
 8395SOL    HW126084   6.829   6.064   5.308
 8395SOL    HW226085   6.986   6.026   5.286
 8396SOL     OW26086   4.985   4.149   2.618
 8396SOL    HW126087   5.081   4.162   2.644
 8396SOL    HW226088   4.970   4.188   2.527
 8397SOL     OW26089   2.234   5.984   3.071
 8397SOL    HW126090   2.148   6.035   3.079
 8397SOL    HW226091   2.214   5.887   3.061
 8398SOL     OW26092   4.207   1.217   0.250
 8398SOL    HW126093   4.205   1.144   0.181
 8398SOL    HW226094   4.244   1.300   0.209
 8399SOL     OW26095   5.814   6.229   0.262
 8399SOL    HW126096   5.775   6.137   0.263
 8399SOL    HW226097   5.740   6.296   0.255
 8400SOL     OW26098   0.114   0.116   2.663
 8400SOL    HW126099   0.104   0.190   2.730
 8400SOL    HW226100   0.163   0.040   2.705
 8401SOL     OW26101   3.798   4.092   6.242
 8401SOL    HW126102   3.896   4.111   6.246
 8401SOL    HW226103   3.766   4.066   6.333
 8402SOL     OW26104   4.469   1.872   6.606
 8402SOL    HW126105   4.386   1.837   6.563
 8402SOL    HW226106   4.454   1.883   6.704
 8403SOL     OW26107   1.518   1.318   4.695
 8403SOL    HW126108   1.569   1.397   4.730
 8403SOL    HW226109   1.582   1.246   4.669
 8404SOL     OW26110   4.767   5.622   5.713
 8404SOL    HW126111   4.690   5.558   5.715
 8404SOL    HW226112   4.783   5.652   5.619
 8405SOL     OW26113   0.362   2.289   6.165
 8405SOL    HW126114   0.398   2.340   6.087
 8405SOL    HW226115   0.436   2.270   6.229
 8406SOL     OW26116   5.279   2.232   1.489
 8406SOL    HW126117   5.206   2.229   1.558
 8406SOL    HW226118   5.262   2.162   1.420
 8407SOL     OW26119   4.822   3.864   3.141
 8407SOL    HW126120   4.874   3.782   3.164
 8407SOL    HW226121   4.735   3.863   3.191
 8408SOL     OW26122   4.745   2.029   3.680
 8408SOL    HW126123   4.749   2.057   3.776
 8408SOL    HW226124   4.660   2.064   3.639
 8409SOL     OW26125   1.441   1.627   4.125
 8409SOL    HW126126   1.391   1.542   4.144
 8409SOL    HW226127   1.400   1.701   4.178
 8410SOL     OW26128   4.114   6.925   1.374
 8410SOL    HW126129   4.032   6.894   1.421
 8410SOL    HW226130   4.096   7.014   1.331
 8411SOL     OW26131   2.020   4.732   4.435
 8411SOL    HW126132   2.061   4.675   4.507
 8411SOL    HW226133   2.082   4.808   4.413
 8412SOL     OW26134   5.118   2.405   2.347
 8412SOL    HW126135   5.032   2.377   2.304
 8412SOL    HW226136   5.140   2.342   2.422
 8413SOL     OW26137   3.780   4.866   0.618
 8413SOL    HW126138   3.837   4.819   0.684
 8413SOL    HW226139   3.815   4.849   0.525
 8414SOL     OW26140   4.144   6.432   3.161
 8414SOL    HW126141   4.052   6.403   3.133
 8414SOL    HW226142   4.145   6.530   3.176
 8415SOL     OW26143   6.216   4.083   3.138
 8415SOL    HW126144   6.267   4.062   3.055
 8415SOL    HW226145   6.276   4.074   3.217
 8416SOL     OW26146   5.176   3.864   2.385
 8416SOL    HW126147   5.187   3.803   2.307
 8416SOL    HW226148   5.084   3.854   2.423
 8417SOL     OW26149   2.084   6.204   6.430
 8417SOL    HW126150   2.133   6.256   6.500
 8417SOL    HW226151   2.002   6.254   6.402
 8418SOL     OW26152   6.617   5.620   2.619
 8418SOL    HW126153   6.706   5.587   2.649
 8418SOL    HW226154   6.577   5.555   2.555
 8419SOL     OW26155   4.511   0.576   2.708
 8419SOL    HW126156   4.590   0.521   2.737
 8419SOL    HW226157   4.438   0.567   2.775
 8420SOL     OW26158   3.607   0.566   6.024
 8420SOL    HW126159   3.649   0.657   6.016
 8420SOL    HW226160   3.511   0.572   5.997
 8421SOL     OW26161   1.900   6.483   2.334
 8421SOL    HW126162   1.961   6.560   2.353
 8421SOL    HW226163   1.861   6.449   2.419
 8422SOL     OW26164   4.492   6.994   0.598
 8422SOL    HW126165   4.565   6.948   0.548
 8422SOL    HW226166   4.527   0.001   0.686
 8423SOL     OW26167   3.345   4.692   0.834
 8423SOL    HW126168   3.260   4.690   0.886
 8423SOL    HW226169   3.325   4.680   0.736
 8424SOL     OW26170   3.723   1.638   3.115
 8424SOL    HW126171   3.775   1.672   3.036
 8424SOL    HW226172   3.704   1.540   3.103
 8425SOL     OW26173   5.884   5.183   1.180
 8425SOL    HW126174   5.881   5.136   1.268
 8425SOL    HW226175   5.974   5.168   1.137
 8426SOL     OW26176   3.678   3.250   3.721
 8426SOL    HW126177   3.597   3.208   3.761
 8426SOL    HW226178   3.665   3.349   3.716
 8427SOL     OW26179   2.518   4.003   6.410
 8427SOL    HW126180   2.511   3.970   6.504
 8427SOL    HW226181   2.598   3.962   6.366
 8428SOL     OW26182   0.540   4.076   2.002
 8428SOL    HW126183   0.555   4.018   2.082
 8428SOL    HW226184   0.628   4.113   1.971
 8429SOL     OW26185   1.954   5.982   3.837
 8429SOL    HW126186   1.991   6.051   3.900
 8429SOL    HW226187   1.966   6.014   3.743
 8430SOL     OW26188   4.345   4.673   2.850
 8430SOL    HW126189   4.397   4.593   2.880
 8430SOL    HW226190   4.293   4.650   2.768
 8431SOL     OW26191   3.570   4.971   1.351
 8431SOL    HW126192   3.570   4.871   1.340
 8431SOL    HW226193   3.531   5.014   1.269
 8432SOL     OW26194   3.720   6.088   6.283
 8432SOL    HW126195   3.735   6.066   6.186
 8432SOL    HW226196   3.804   6.071   6.334
 8433SOL     OW26197   1.436   2.612   5.827
 8433SOL    HW126198   1.509   2.678   5.808
 8433SOL    HW226199   1.422   2.605   5.926
 8434SOL     OW26200   4.790   5.854   5.446
 8434SOL    HW126201   4.753   5.899   5.527
 8434SOL    HW226202   4.750   5.763   5.436
 8435SOL     OW26203   4.701   2.405   1.702
 8435SOL    HW126204   4.786   2.379   1.748
 8435SOL    HW226205   4.634   2.435   1.770
 8436SOL     OW26206   4.434   4.509   1.884
 8436SOL    HW126207   4.419   4.494   1.787
 8436SOL    HW226208   4.471   4.426   1.926
 8437SOL     OW26209   0.820   1.750   0.821
 8437SOL    HW126210   0.727   1.716   0.837
 8437SOL    HW226211   0.886   1.687   0.860
 8438SOL     OW26212   2.238   4.887   2.241
 8438SOL    HW126213   2.259   4.847   2.330
 8438SOL    HW226214   2.139   4.883   2.225
 8439SOL     OW26215   6.796   5.469   2.362
 8439SOL    HW126216   6.700   5.446   2.379
 8439SOL    HW226217   6.847   5.463   2.448
 8440SOL     OW26218   0.831   0.702   1.804
 8440SOL    HW126219   0.871   0.686   1.714
 8440SOL    HW226220   0.782   0.789   1.804
 8441SOL     OW26221   4.955   5.646   6.328
 8441SOL    HW126222   5.019   5.659   6.252
 8441SOL    HW226223   4.876   5.593   6.296
 8442SOL     OW26224   2.109   4.389   6.964
 8442SOL    HW126225   2.106   4.485   6.993
 8442SOL    HW226226   2.111   4.384   6.865
 8443SOL     OW26227   1.266   0.557   2.714
 8443SOL    HW126228   1.254   0.497   2.793
 8443SOL    HW226229   1.208   0.638   2.725
 8444SOL     OW26230   3.915   6.431   3.690
 8444SOL    HW126231   3.874   6.520   3.669
 8444SOL    HW226232   3.936   6.383   3.605
 8445SOL     OW26233   3.740   4.863   2.754
 8445SOL    HW126234   3.836   4.837   2.744
 8445SOL    HW226235   3.730   4.961   2.735
 8446SOL     OW26236   5.228   5.009   2.651
 8446SOL    HW126237   5.153   4.946   2.672
 8446SOL    HW226238   5.280   5.027   2.735
 8447SOL     OW26239   4.918   2.340   1.856
 8447SOL    HW126240   4.914   2.293   1.944
 8447SOL    HW226241   4.935   2.438   1.872
 8448SOL     OW26242   0.565   3.520   6.612
 8448SOL    HW126243   0.483   3.568   6.642
 8448SOL    HW226244   0.548   3.421   6.612
 8449SOL     OW26245   0.618   3.064   4.864
 8449SOL    HW126246   0.560   3.134   4.822
 8449SOL    HW226247   0.708   3.103   4.884
 8450SOL     OW26248   2.192   6.252   2.803
 8450SOL    HW126249   2.274   6.193   2.802
 8450SOL    HW226250   2.149   6.246   2.893
 8451SOL     OW26251   3.842   3.111   1.350
 8451SOL    HW126252   3.844   3.083   1.254
 8451SOL    HW226253   3.747   3.114   1.382
 8452SOL     OW26254   6.543   0.291   1.264
 8452SOL    HW126255   6.487   0.300   1.347
 8452SOL    HW226256   6.541   0.377   1.213
 8453SOL     OW26257   6.511   4.264   6.233
 8453SOL    HW126258   6.484   4.169   6.247
 8453SOL    HW226259   6.431   4.324   6.242
 8454SOL     OW26260   1.488   6.942   3.708
 8454SOL    HW126261   1.393   6.973   3.712
 8454SOL    HW226262   1.548   7.019   3.688
 8455SOL     OW26263   4.711   1.893   0.900
 8455SOL    HW126264   4.633   1.956   0.906
 8455SOL    HW226265   4.677   1.801   0.881
 8456SOL     OW26266   5.623   5.234   3.485
 8456SOL    HW126267   5.544   5.273   3.533
 8456SOL    HW226268   5.615   5.253   3.387
 8457SOL     OW26269   0.167   6.635   5.677
 8457SOL    HW126270   0.084   6.668   5.724
 8457SOL    HW226271   0.239   6.619   5.745
 8458SOL     OW26272   1.741   2.282   0.390
 8458SOL    HW126273   1.683   2.235   0.324
 8458SOL    HW226274   1.794   2.352   0.344
 8459SOL     OW26275   3.698   5.342   2.294
 8459SOL    HW126276   3.749   5.390   2.222
 8459SOL    HW226277   3.600   5.361   2.282
 8460SOL     OW26278   4.484   2.077   0.218
 8460SOL    HW126279   4.425   1.997   0.205
 8460SOL    HW226280   4.488   2.101   0.315
 8461SOL     OW26281   0.180   3.841   1.488
 8461SOL    HW126282   0.199   3.762   1.429
 8461SOL    HW226283   0.088   3.832   1.526
 8462SOL     OW26284   3.473   3.968   6.508
 8462SOL    HW126285   3.451   3.992   6.414
 8462SOL    HW226286   3.558   4.014   6.535
 8463SOL     OW26287   0.235   1.818   0.002
 8463SOL    HW126288   0.225   1.889   0.071
 8463SOL    HW226289   0.151   1.812   6.972
 8464SOL     OW26290   0.227   2.881   0.049
 8464SOL    HW126291   0.274   2.855   0.134
 8464SOL    HW226292   0.153   2.945   0.070
 8465SOL     OW26293   3.896   2.465   1.211
 8465SOL    HW126294   3.870   2.561   1.223
 8465SOL    HW226295   3.820   2.407   1.240
 8466SOL     OW26296   5.632   0.857   5.014
 8466SOL    HW126297   5.704   0.792   4.989
 8466SOL    HW226298   5.673   0.936   5.060
 8467SOL     OW26299   3.238   0.966   0.979
 8467SOL    HW126300   3.178   1.011   0.914
 8467SOL    HW226301   3.333   0.970   0.947
 8468SOL     OW26302   6.231   3.638   6.501
 8468SOL    HW126303   6.195   3.545   6.516
 8468SOL    HW226304   6.288   3.664   6.578
 8469SOL     OW26305   3.945   2.475   5.710
 8469SOL    HW126306   3.945   2.567   5.749
 8469SOL    HW226307   3.968   2.479   5.613
 8470SOL     OW26308   0.678   4.760   0.943
 8470SOL    HW126309   0.584   4.793   0.951
 8470SOL    HW226310   0.739   4.836   0.922
 8471SOL     OW26311   3.000   0.664   5.151
 8471SOL    HW126312   2.936   0.599   5.193
 8471SOL    HW226313   3.014   0.638   5.055
 8472SOL     OW26314   5.570   1.508   6.443
 8472SOL    HW126315   5.585   1.607   6.438
 8472SOL    HW226316   5.654   1.460   6.420
 8473SOL     OW26317   4.901   4.670   6.989
 8473SOL    HW126318   4.865   4.763   6.988
 8473SOL    HW226319   4.965   4.660   0.040
 8474SOL     OW26320   2.886   3.354   2.224
 8474SOL    HW126321   2.787   3.342   2.230
 8474SOL    HW226322   2.918   3.407   2.303
 8475SOL     OW26323   0.023   3.213   1.537
 8475SOL    HW126324   0.031   3.119   1.505
 8475SOL    HW226325   6.950   3.239   1.541
 8476SOL     OW26326   6.278   6.877   1.591
 8476SOL    HW126327   6.203   6.920   1.641
 8476SOL    HW226328   6.308   6.795   1.639
 8477SOL     OW26329   5.078   6.676   1.094
 8477SOL    HW126330   4.997   6.624   1.122
 8477SOL    HW226331   5.139   6.687   1.172
 8478SOL     OW26332   0.463   0.127   5.584
 8478SOL    HW126333   0.377   0.160   5.545
 8478SOL    HW226334   0.511   0.072   5.516
 8479SOL     OW26335   1.940   2.185   1.373
 8479SOL    HW126336   1.857   2.170   1.319
 8479SOL    HW226337   1.914   2.228   1.460
 8480SOL     OW26338   4.894   3.438   0.131
 8480SOL    HW126339   4.986   3.476   0.127
 8480SOL    HW226340   4.828   3.512   0.149
 8481SOL     OW26341   3.812   2.145   4.159
 8481SOL    HW126342   3.846   2.178   4.071
 8481SOL    HW226343   3.884   2.155   4.228
 8482SOL     OW26344   4.686   1.187   0.103
 8482SOL    HW126345   4.656   1.110   0.159
 8482SOL    HW226346   4.760   1.157   0.042
 8483SOL     OW26347   3.519   5.933   4.008
 8483SOL    HW126348   3.424   5.960   4.022
 8483SOL    HW226349   3.561   5.993   3.940
 8484SOL     OW26350   6.465   5.905   4.644
 8484SOL    HW126351   6.562   5.919   4.626
 8484SOL    HW226352   6.425   5.991   4.676
 8485SOL     OW26353   3.263   2.494   0.180
 8485SOL    HW126354   3.210   2.426   0.230
 8485SOL    HW226355   3.301   2.453   0.097
 8486SOL     OW26356   1.259   1.337   2.536
 8486SOL    HW126357   1.225   1.257   2.585
 8486SOL    HW226358   1.219   1.339   2.444
 8487SOL     OW26359   5.582   2.039   5.838
 8487SOL    HW126360   5.641   1.985   5.779
 8487SOL    HW226361   5.638   2.099   5.896
 8488SOL     OW26362   5.350   6.062   2.304
 8488SOL    HW126363   5.371   5.986   2.365
 8488SOL    HW226364   5.435   6.112   2.284
 8489SOL     OW26365   5.374   1.179   1.240
 8489SOL    HW126366   5.452   1.116   1.234
 8489SOL    HW226367   5.401   1.269   1.205
 8490SOL     OW26368   2.329   6.840   6.793
 8490SOL    HW126369   2.389   6.837   6.713
 8490SOL    HW226370   2.351   6.764   6.854
 8491SOL     OW26371   2.388   6.000   2.562
 8491SOL    HW126372   2.315   6.066   2.544
 8491SOL    HW226373   2.445   5.990   2.480
 8492SOL     OW26374   5.976   4.179   4.784
 8492SOL    HW126375   5.992   4.254   4.848
 8492SOL    HW226376   6.054   4.169   4.723
 8493SOL     OW26377   3.380   0.752   0.633
 8493SOL    HW126378   3.358   0.790   0.543
 8493SOL    HW226379   3.307   0.690   0.662
 8494SOL     OW26380   6.006   5.094   2.145
 8494SOL    HW126381   5.965   5.037   2.074
 8494SOL    HW226382   6.003   5.190   2.116
 8495SOL     OW26383   6.299   5.680   0.446
 8495SOL    HW126384   6.218   5.694   0.503
 8495SOL    HW226385   6.329   5.585   0.454
 8496SOL     OW26386   5.149   1.339   1.933
 8496SOL    HW126387   5.199   1.416   1.971
 8496SOL    HW226388   5.126   1.358   1.837
 8497SOL     OW26389   6.856   0.562   3.799
 8497SOL    HW126390   6.905   0.499   3.859
 8497SOL    HW226391   6.914   0.588   3.723
 8498SOL     OW26392   4.896   6.969   4.531
 8498SOL    HW126393   4.880   0.016   4.599
 8498SOL    HW226394   4.914   6.882   4.577
 8499SOL     OW26395   0.117   5.931   0.006
 8499SOL    HW126396   0.212   5.962   7.021
 8499SOL    HW226397   0.113   5.833   7.014
 8500SOL     OW26398   1.556   0.716   5.673
 8500SOL    HW126399   1.462   0.697   5.642
 8500SOL    HW226400   1.565   0.689   5.769
 8501SOL     OW26401   0.623   1.424   0.312
 8501SOL    HW126402   0.702   1.372   0.280
 8501SOL    HW226403   0.645   1.467   0.400
 8502SOL     OW26404   0.553   2.931   6.491
 8502SOL    HW126405   0.499   2.858   6.448
 8502SOL    HW226406   0.555   2.917   6.590
 8503SOL     OW26407   6.469   6.461   4.636
 8503SOL    HW126408   6.437   6.381   4.585
 8503SOL    HW226409   6.397   6.492   4.698
 8504SOL     OW26410   2.398   5.354   2.507
 8504SOL    HW126411   2.491   5.321   2.493
 8504SOL    HW226412   2.379   5.428   2.442
 8505SOL     OW26413   5.210   3.817   2.777
 8505SOL    HW126414   5.168   3.737   2.735
 8505SOL    HW226415   5.308   3.817   2.758
 8506SOL     OW26416   2.179   0.657   0.135
 8506SOL    HW126417   2.182   0.738   0.192
 8506SOL    HW226418   2.271   0.630   0.109
 8507SOL     OW26419   4.757   6.957   5.615
 8507SOL    HW126420   4.815   6.935   5.537
 8507SOL    HW226421   4.702   0.013   5.593
 8508SOL     OW26422   4.434   1.901   6.880
 8508SOL    HW126423   4.355   1.874   6.934
 8508SOL    HW226424   4.443   2.001   6.880
 8509SOL     OW26425   5.912   0.265   3.404
 8509SOL    HW126426   5.882   0.173   3.377
 8509SOL    HW226427   5.950   0.262   3.496
 8510SOL     OW26428   5.414   2.636   4.338
 8510SOL    HW126429   5.414   2.536   4.343
 8510SOL    HW226430   5.508   2.670   4.340
 8511SOL     OW26431   5.769   3.052   2.101
 8511SOL    HW126432   5.834   3.065   2.025
 8511SOL    HW226433   5.716   3.136   2.115
 8512SOL     OW26434   2.137   0.127   3.955
 8512SOL    HW126435   2.205   0.181   3.907
 8512SOL    HW226436   2.071   0.091   3.889
 8513SOL     OW26437   6.288   6.292   0.147
 8513SOL    HW126438   6.294   6.231   0.225
 8513SOL    HW226439   6.192   6.312   0.127
 8514SOL     OW26440   2.922   6.325   3.754
 8514SOL    HW126441   2.998   6.357   3.698
 8514SOL    HW226442   2.938   6.347   3.850
 8515SOL     OW26443   5.401   1.880   1.045
 8515SOL    HW126444   5.324   1.939   1.018
 8515SOL    HW226445   5.487   1.931   1.036
 8516SOL     OW26446   6.344   2.486   2.225
 8516SOL    HW126447   6.320   2.540   2.305
 8516SOL    HW226448   6.443   2.491   2.208
 8517SOL     OW26449   1.477   2.877   6.302
 8517SOL    HW126450   1.383   2.873   6.268
 8517SOL    HW226451   1.510   2.784   6.318
 8518SOL     OW26452   3.216   5.477   0.034
 8518SOL    HW126453   3.268   5.555   0.071
 8518SOL    HW226454   3.243   5.460   6.964
 8519SOL     OW26455   1.343   5.349   2.147
 8519SOL    HW126456   1.387   5.278   2.201
 8519SOL    HW226457   1.252   5.319   2.120
 8520SOL     OW26458   4.400   0.870   0.507
 8520SOL    HW126459   4.450   0.798   0.555
 8520SOL    HW226460   4.311   0.835   0.478
 8521SOL     OW26461   1.151   6.179   5.882
 8521SOL    HW126462   1.215   6.239   5.832
 8521SOL    HW226463   1.166   6.084   5.854
 8522SOL     OW26464   1.292   6.114   4.552
 8522SOL    HW126465   1.377   6.165   4.564
 8522SOL    HW226466   1.238   6.155   4.478
 8523SOL     OW26467   1.296   6.755   6.887
 8523SOL    HW126468   1.329   6.785   6.797
 8523SOL    HW226469   1.335   6.666   6.909
 8524SOL     OW26470   1.565   3.414   5.866
 8524SOL    HW126471   1.563   3.428   5.965
 8524SOL    HW226472   1.513   3.486   5.821
 8525SOL     OW26473   5.932   3.420   2.653
 8525SOL    HW126474   5.910   3.333   2.611
 8525SOL    HW226475   5.859   3.447   2.716
 8526SOL     OW26476   2.334   2.797   2.576
 8526SOL    HW126477   2.363   2.734   2.648
 8526SOL    HW226478   2.402   2.869   2.564
 8527SOL     OW26479   4.672   0.924   4.338
 8527SOL    HW126480   4.656   0.997   4.405
 8527SOL    HW226481   4.623   0.842   4.367
 8528SOL     OW26482   4.588   2.881   6.062
 8528SOL    HW126483   4.559   2.887   6.157
 8528SOL    HW226484   4.520   2.830   6.009
 8529SOL     OW26485   1.547   5.042   6.760
 8529SOL    HW126486   1.513   4.990   6.682
 8529SOL    HW226487   1.587   5.128   6.727
 8530SOL     OW26488   1.403   3.840   4.862
 8530SOL    HW126489   1.466   3.774   4.901
 8530SOL    HW226490   1.454   3.917   4.825
 8531SOL     OW26491   5.302   5.082   2.396
 8531SOL    HW126492   5.262   5.052   2.483
 8531SOL    HW226493   5.260   5.030   2.321
 8532SOL     OW26494   3.087   4.357   5.531
 8532SOL    HW126495   3.170   4.413   5.533
 8532SOL    HW226496   3.044   4.358   5.621
 8533SOL     OW26497   3.373   1.040   4.858
 8533SOL    HW126498   3.360   1.088   4.944
 8533SOL    HW226499   3.467   1.051   4.827
 8534SOL     OW26500   1.387   3.315   2.560
 8534SOL    HW126501   1.296   3.276   2.546
 8534SOL    HW226502   1.398   3.396   2.502
 8535SOL     OW26503   0.177   1.858   4.365
 8535SOL    HW126504   0.209   1.945   4.328
 8535SOL    HW226505   0.255   1.795   4.373
 8536SOL     OW26506   6.896   1.341   5.467
 8536SOL    HW126507   6.992   1.358   5.490
 8536SOL    HW226508   6.853   1.427   5.441
 8537SOL     OW26509   5.390   0.677   1.427
 8537SOL    HW126510   5.451   0.712   1.355
 8537SOL    HW226511   5.343   0.754   1.471
 8538SOL     OW26512   6.511   0.573   4.758
 8538SOL    HW126513   6.508   0.667   4.792
 8538SOL    HW226514   6.595   0.559   4.705
 8539SOL     OW26515   0.448   2.838   1.741
 8539SOL    HW126516   0.493   2.806   1.658
 8539SOL    HW226517   0.392   2.765   1.779
 8540SOL     OW26518   3.593   0.484   0.526
 8540SOL    HW126519   3.501   0.464   0.560
 8540SOL    HW226520   3.605   0.441   0.437
 8541SOL     OW26521   2.882   1.110   4.432
 8541SOL    HW126522   2.923   1.201   4.429
 8541SOL    HW226523   2.897   1.070   4.522
 8542SOL     OW26524   2.163   4.956   6.379
 8542SOL    HW126525   2.129   5.050   6.384
 8542SOL    HW226526   2.242   4.945   6.438
 8543SOL     OW26527   1.780   2.221   5.548
 8543SOL    HW126528   1.824   2.205   5.637
 8543SOL    HW226529   1.803   2.313   5.516
 8544SOL     OW26530   5.036   3.871   5.507
 8544SOL    HW126531   5.108   3.893   5.572
 8544SOL    HW226532   4.987   3.954   5.482
 8545SOL     OW26533   3.100   7.018   6.002
 8545SOL    HW126534   3.186   0.041   5.984
 8545SOL    HW226535   3.115   6.944   6.067
 8546SOL     OW26536   5.596   0.503   1.507
 8546SOL    HW126537   5.531   0.563   1.460
 8546SOL    HW226538   5.683   0.504   1.458
 8547SOL     OW26539   6.089   6.343   5.920
 8547SOL    HW126540   6.138   6.278   5.862
 8547SOL    HW226541   6.142   6.360   6.003
 8548SOL     OW26542   0.492   3.184   5.713
 8548SOL    HW126543   0.505   3.145   5.804
 8548SOL    HW226544   0.475   3.111   5.647
 8549SOL     OW26545   1.791   0.868   3.369
 8549SOL    HW126546   1.709   0.879   3.426
 8549SOL    HW226547   1.840   0.786   3.399
 8550SOL     OW26548   0.872   4.220   6.742
 8550SOL    HW126549   0.910   4.191   6.654
 8550SOL    HW226550   0.892   4.317   6.756
 8551SOL     OW26551   2.163   1.873   5.876
 8551SOL    HW126552   2.114   1.817   5.809
 8551SOL    HW226553   2.166   1.968   5.844
 8552SOL     OW26554   2.389   1.651   3.120
 8552SOL    HW126555   2.484   1.678   3.101
 8552SOL    HW226556   2.373   1.655   3.219
 8553SOL     OW26557   5.182   2.921   0.787
 8553SOL    HW126558   5.124   2.859   0.734
 8553SOL    HW226559   5.135   2.946   0.872
 8554SOL     OW26560   0.965   6.788   0.462
 8554SOL    HW126561   0.998   6.881   0.443
 8554SOL    HW226562   1.026   6.744   0.528
 8555SOL     OW26563   4.846   0.823   3.732
 8555SOL    HW126564   4.937   0.838   3.770
 8555SOL    HW226565   4.786   0.900   3.755
 8556SOL     OW26566   1.809   6.308   0.472
 8556SOL    HW126567   1.755   6.233   0.434
 8556SOL    HW226568   1.808   6.385   0.408
 8557SOL     OW26569   0.549   0.719   0.012
 8557SOL    HW126570   0.614   0.652   7.000
 8557SOL    HW226571   0.558   0.805   6.988
 8558SOL     OW26572   2.977   5.012   3.331
 8558SOL    HW126573   3.058   4.991   3.386
 8558SOL    HW226574   2.997   4.993   3.235
 8559SOL     OW26575   0.923   5.300   2.708
 8559SOL    HW126576   0.840   5.247   2.728
 8559SOL    HW226577   0.952   5.283   2.614
 8560SOL     OW26578   2.764   4.063   1.672
 8560SOL    HW126579   2.769   4.004   1.591
 8560SOL    HW226580   2.838   4.130   1.669
 8561SOL     OW26581   4.733   6.774   2.141
 8561SOL    HW126582   4.771   6.699   2.195
 8561SOL    HW226583   4.778   6.859   2.167
 8562SOL     OW26584   4.383   0.869   6.942
 8562SOL    HW126585   4.386   0.777   6.902
 8562SOL    HW226586   4.472   0.890   6.983
 8563SOL     OW26587   1.660   5.739   2.597
 8563SOL    HW126588   1.612   5.797   2.662
 8563SOL    HW226589   1.606   5.730   2.514
 8564SOL     OW26590   4.275   0.639   6.735
 8564SOL    HW126591   4.373   0.626   6.750
 8564SOL    HW226592   4.224   0.597   6.810
 8565SOL     OW26593   2.959   5.494   1.407
 8565SOL    HW126594   3.052   5.479   1.442
 8565SOL    HW226595   2.920   5.407   1.379
 8566SOL     OW26596   3.371   1.181   2.970
 8566SOL    HW126597   3.453   1.155   3.021
 8566SOL    HW226598   3.310   1.233   3.029
 8567SOL     OW26599   1.803   2.132   1.742
 8567SOL    HW126600   1.856   2.047   1.754
 8567SOL    HW226601   1.753   2.152   1.826
 8568SOL     OW26602   0.024   1.173   6.878
 8568SOL    HW126603   0.088   1.196   6.805
 8568SOL    HW226604   0.055   1.215   6.963
 8569SOL     OW26605   4.848   2.311   6.605
 8569SOL    HW126606   4.899   2.237   6.648
 8569SOL    HW226607   4.849   2.299   6.506
 8570SOL     OW26608   1.389   3.171   3.845
 8570SOL    HW126609   1.481   3.155   3.810
 8570SOL    HW226610   1.336   3.221   3.777
 8571SOL     OW26611   1.719   0.512   3.666
 8571SOL    HW126612   1.691   0.460   3.747
 8571SOL    HW226613   1.650   0.581   3.644
 8572SOL     OW26614   2.814   3.832   5.748
 8572SOL    HW126615   2.866   3.782   5.679
 8572SOL    HW226616   2.819   3.930   5.729
 8573SOL     OW26617   3.623   6.117   0.691
 8573SOL    HW126618   3.531   6.097   0.726
 8573SOL    HW226619   3.629   6.089   0.596
 8574SOL     OW26620   6.280   6.223   5.460
 8574SOL    HW126621   6.282   6.136   5.410
 8574SOL    HW226622   6.341   6.288   5.416
 8575SOL     OW26623   3.023   6.221   3.000
 8575SOL    HW126624   2.991   6.130   3.028
 8575SOL    HW226625   2.991   6.289   3.066
 8576SOL     OW26626   0.885   3.953   3.391
 8576SOL    HW126627   0.852   3.904   3.472
 8576SOL    HW226628   0.912   3.887   3.321
 8577SOL     OW26629   2.087   1.701   6.716
 8577SOL    HW126630   2.097   1.609   6.754
 8577SOL    HW226631   2.105   1.698   6.618
 8578SOL     OW26632   6.546   6.996   5.131
 8578SOL    HW126633   6.559   6.897   5.140
 8578SOL    HW226634   6.451   7.015   5.109
 8579SOL     OW26635   3.211   6.147   2.486
 8579SOL    HW126636   3.304   6.149   2.449
 8579SOL    HW226637   3.214   6.137   2.585
 8580SOL     OW26638   1.722   0.098   1.248
 8580SOL    HW126639   1.645   0.158   1.269
 8580SOL    HW226640   1.687   0.008   1.220
 8581SOL     OW26641   3.501   5.010   0.990
 8581SOL    HW126642   3.555   5.068   0.929
 8581SOL    HW226643   3.439   4.953   0.937
 8582SOL     OW26644   3.797   4.322   5.397
 8582SOL    HW126645   3.834   4.235   5.429
 8582SOL    HW226646   3.764   4.311   5.303
 8583SOL     OW26647   4.231   0.901   2.886
 8583SOL    HW126648   4.224   0.896   2.786
 8583SOL    HW226649   4.139   0.897   2.925
 8584SOL     OW26650   6.733   0.869   4.691
 8584SOL    HW126651   6.663   0.934   4.662
 8584SOL    HW226652   6.718   0.781   4.646
 8585SOL     OW26653   5.376   2.028   1.763
 8585SOL    HW126654   5.356   1.930   1.757
 8585SOL    HW226655   5.314   2.078   1.702
 8586SOL     OW26656   5.607   5.936   1.051
 8586SOL    HW126657   5.571   5.983   1.132
 8586SOL    HW226658   5.703   5.959   1.039
 8587SOL     OW26659   1.594   1.324   5.772
 8587SOL    HW126660   1.534   1.401   5.749
 8587SOL    HW226661   1.562   1.242   5.724
 8588SOL     OW26662   3.187   1.643   6.822
 8588SOL    HW126663   3.202   1.740   6.799
 8588SOL    HW226664   3.253   1.615   6.892
 8589SOL     OW26665   0.408   3.154   5.998
 8589SOL    HW126666   0.494   3.126   6.041
 8589SOL    HW226667   0.407   3.253   5.986
 8590SOL     OW26668   1.091   1.591   2.470
 8590SOL    HW126669   1.107   1.513   2.530
 8590SOL    HW226670   0.995   1.619   2.476
 8591SOL     OW26671   6.553   5.152   0.222
 8591SOL    HW126672   6.615   5.228   0.242
 8591SOL    HW226673   6.469   5.162   0.275
 8592SOL     OW26674   1.774   2.369   6.139
 8592SOL    HW126675   1.753   2.358   6.042
 8592SOL    HW226676   1.721   2.304   6.193
 8593SOL     OW26677   3.259   0.710   6.630
 8593SOL    HW126678   3.261   0.636   6.697
 8593SOL    HW226679   3.201   0.784   6.663
 8594SOL     OW26680   6.415   2.660   5.916
 8594SOL    HW126681   6.424   2.758   5.900
 8594SOL    HW226682   6.385   2.643   6.010
 8595SOL     OW26683   5.143   6.475   2.457
 8595SOL    HW126684   5.058   6.515   2.493
 8595SOL    HW226685   5.205   6.548   2.428
 8596SOL     OW26686   0.539   2.804   3.400
 8596SOL    HW126687   0.619   2.808   3.340
 8596SOL    HW226688   0.567   2.825   3.493
 8597SOL     OW26689   5.783   3.192   1.113
 8597SOL    HW126690   5.782   3.168   1.015
 8597SOL    HW226691   5.850   3.134   1.160
 8598SOL     OW26692   5.371   0.402   4.621
 8598SOL    HW126693   5.402   0.309   4.602
 8598SOL    HW226694   5.318   0.436   4.543
 8599SOL     OW26695   1.597   2.860   3.874
 8599SOL    HW126696   1.559   2.830   3.961
 8599SOL    HW226697   1.695   2.840   3.871
 8600SOL     OW26698   4.117   3.007   1.305
 8600SOL    HW126699   4.030   3.049   1.329
 8600SOL    HW226700   4.175   3.001   1.386
 8601SOL     OW26701   0.794   0.274   3.619
 8601SOL    HW126702   0.753   0.201   3.564
 8601SOL    HW226703   0.723   0.337   3.649
 8602SOL     OW26704   2.806   6.755   4.309
 8602SOL    HW126705   2.812   6.657   4.329
 8602SOL    HW226706   2.781   6.804   4.393
 8603SOL     OW26707   6.901   0.889   0.436
 8603SOL    HW126708   6.935   0.845   0.352
 8603SOL    HW226709   6.801   0.896   0.431
 8604SOL     OW26710   0.621   4.118   6.103
 8604SOL    HW126711   0.557   4.070   6.042
 8604SOL    HW226712   0.628   4.067   6.189
 8605SOL     OW26713   0.086   5.014   4.286
 8605SOL    HW126714   0.094   5.083   4.214
 8605SOL    HW226715   0.032   5.051   4.361
 8606SOL     OW26716   1.996   2.243   6.710
 8606SOL    HW126717   2.035   2.311   6.771
 8606SOL    HW226718   1.927   2.287   6.652
 8607SOL     OW26719   2.534   4.705   1.276
 8607SOL    HW126720   2.586   4.766   1.217
 8607SOL    HW226721   2.542   4.611   1.242
 8608SOL     OW26722   2.571   5.176   3.350
 8608SOL    HW126723   2.484   5.225   3.348
 8608SOL    HW226724   2.554   5.078   3.367
 8609SOL     OW26725   4.658   1.018   3.766
 8609SOL    HW126726   4.658   1.090   3.697
 8609SOL    HW226727   4.565   0.982   3.776
 8610SOL     OW26728   0.532   6.783   2.833
 8610SOL    HW126729   0.613   6.841   2.831
 8610SOL    HW226730   0.535   6.719   2.756
 8611SOL     OW26731   3.006   1.637   4.062
 8611SOL    HW126732   2.916   1.654   4.100
 8611SOL    HW226733   3.075   1.683   4.118
 8612SOL     OW26734   3.927   3.017   3.374
 8612SOL    HW126735   3.994   3.068   3.320
 8612SOL    HW226736   3.853   3.079   3.403
 8613SOL     OW26737   3.356   2.859   0.746
 8613SOL    HW126738   3.334   2.872   0.842
 8613SOL    HW226739   3.425   2.788   0.736
 8614SOL     OW26740   1.509   2.512   1.844
 8614SOL    HW126741   1.465   2.599   1.869
 8614SOL    HW226742   1.491   2.492   1.747
 8615SOL     OW26743   3.998   1.473   3.641
 8615SOL    HW126744   4.018   1.531   3.562
 8615SOL    HW226745   4.071   1.406   3.653
 8616SOL     OW26746   4.246   4.983   2.698
 8616SOL    HW126747   4.212   4.998   2.791
 8616SOL    HW226748   4.345   4.999   2.696
 8617SOL     OW26749   4.578   0.493   4.479
 8617SOL    HW126750   4.675   0.490   4.454
 8617SOL    HW226751   4.564   0.442   4.564
 8618SOL     OW26752   5.437   3.729   1.176
 8618SOL    HW126753   5.387   3.776   1.249
 8618SOL    HW226754   5.392   3.746   1.089
 8619SOL     OW26755   5.846   4.559   1.642
 8619SOL    HW126756   5.826   4.650   1.677
 8619SOL    HW226757   5.886   4.565   1.550
 8620SOL     OW26758   2.027   0.917   4.387
 8620SOL    HW126759   1.969   0.856   4.333
 8620SOL    HW226760   2.123   0.893   4.371
 8621SOL     OW26761   5.033   2.592   1.925
 8621SOL    HW126762   5.028   2.634   2.015
 8621SOL    HW226763   4.959   2.627   1.867
 8622SOL     OW26764   6.535   5.147   2.965
 8622SOL    HW126765   6.563   5.170   3.058
 8622SOL    HW226766   6.443   5.108   2.967
 8623SOL     OW26767   6.367   3.197   5.246
 8623SOL    HW126768   6.459   3.236   5.253
 8623SOL    HW226769   6.373   3.103   5.213
 8624SOL     OW26770   3.013   3.584   6.074
 8624SOL    HW126771   2.973   3.498   6.105
 8624SOL    HW226772   3.022   3.646   6.152
 8625SOL     OW26773   4.026   1.650   5.543
 8625SOL    HW126774   4.008   1.701   5.628
 8625SOL    HW226775   3.941   1.643   5.490
 8626SOL     OW26776   4.748   3.948   0.807
 8626SOL    HW126777   4.753   3.934   0.906
 8626SOL    HW226778   4.669   3.898   0.771
 8627SOL     OW26779   1.647   0.935   2.716
 8627SOL    HW126780   1.582   0.871   2.676
 8627SOL    HW226781   1.740   0.909   2.688
 8628SOL     OW26782   0.421   6.399   0.280
 8628SOL    HW126783   0.471   6.382   0.365
 8628SOL    HW226784   0.325   6.415   0.300
 8629SOL     OW26785   0.267   0.012   4.428
 8629SOL    HW126786   0.289   7.021   4.525
 8629SOL    HW226787   0.182   0.064   4.421
 8630SOL     OW26788   4.877   3.132   2.684
 8630SOL    HW126789   4.838   3.156   2.773
 8630SOL    HW226790   4.922   3.043   2.691
 8631SOL     OW26791   2.788   6.052   6.688
 8631SOL    HW126792   2.728   5.974   6.673
 8631SOL    HW226793   2.852   6.060   6.611
 8632SOL     OW26794   4.792   4.488   5.312
 8632SOL    HW126795   4.879   4.467   5.266
 8632SOL    HW226796   4.805   4.483   5.411
 8633SOL     OW26797   5.843   3.827   5.681
 8633SOL    HW126798   5.764   3.869   5.636
 8633SOL    HW226799   5.815   3.739   5.720
 8634SOL     OW26800   5.436   4.952   1.003
 8634SOL    HW126801   5.395   4.976   1.091
 8634SOL    HW226802   5.531   4.985   1.000
 8635SOL     OW26803   5.824   2.694   6.692
 8635SOL    HW126804   5.905   2.752   6.701
 8635SOL    HW226805   5.843   2.619   6.629
 8636SOL     OW26806   4.975   6.397   1.137
 8636SOL    HW126807   5.015   6.321   1.189
 8636SOL    HW226808   4.886   6.420   1.176
 8637SOL     OW26809   2.333   1.834   6.264
 8637SOL    HW126810   2.371   1.896   6.195
 8637SOL    HW226811   2.310   1.886   6.346
 8638SOL     OW26812   4.409   3.177   5.325
 8638SOL    HW126813   4.465   3.096   5.305
 8638SOL    HW226814   4.313   3.151   5.326
 8639SOL     OW26815   4.105   2.990   6.518
 8639SOL    HW126816   4.122   2.961   6.424
 8639SOL    HW226817   4.137   3.084   6.531
 8640SOL     OW26818   2.528   3.399   1.390
 8640SOL    HW126819   2.551   3.314   1.437
 8640SOL    HW226820   2.498   3.467   1.458
 8641SOL     OW26821   4.603   5.824   2.466
 8641SOL    HW126822   4.702   5.825   2.452
 8641SOL    HW226823   4.558   5.779   2.388
 8642SOL     OW26824   1.423   6.601   4.616
 8642SOL    HW126825   1.444   6.691   4.577
 8642SOL    HW226826   1.496   6.574   4.679
 8643SOL     OW26827   2.792   0.170   0.636
 8643SOL    HW126828   2.875   0.227   0.639
 8643SOL    HW226829   2.814   0.083   0.593
 8644SOL     OW26830   6.083   1.561   6.899
 8644SOL    HW126831   6.088   1.478   6.954
 8644SOL    HW226832   6.059   1.638   6.958
 8645SOL     OW26833   5.934   4.344   2.000
 8645SOL    HW126834   5.949   4.414   2.069
 8645SOL    HW226835   6.004   4.274   2.008
 8646SOL     OW26836   0.167   1.883   5.604
 8646SOL    HW126837   0.260   1.858   5.629
 8646SOL    HW226838   0.102   1.828   5.657
 8647SOL     OW26839   2.463   4.597   1.672
 8647SOL    HW126840   2.379   4.650   1.684
 8647SOL    HW226841   2.452   4.532   1.597
 8648SOL     OW26842   5.993   5.450   1.113
 8648SOL    HW126843   5.980   5.367   1.166
 8648SOL    HW226844   5.929   5.520   1.144
 8649SOL     OW26845   4.243   6.840   0.531
 8649SOL    HW126846   4.188   6.869   0.454
 8649SOL    HW226847   4.310   6.911   0.554
 8650SOL     OW26848   2.226   6.741   4.300
 8650SOL    HW126849   2.211   6.674   4.227
 8650SOL    HW226850   2.279   6.817   4.263
 8651SOL     OW26851   3.030   1.589   1.042
 8651SOL    HW126852   3.104   1.645   1.006
 8651SOL    HW226853   3.009   1.515   0.977
 8652SOL     OW26854   1.740   4.148   3.969
 8652SOL    HW126855   1.773   4.235   3.932
 8652SOL    HW226856   1.788   4.073   3.925
 8653SOL     OW26857   0.009   1.523   6.101
 8653SOL    HW126858   0.029   1.529   6.199
 8653SOL    HW226859   6.994   1.609   6.070
 8654SOL     OW26860   1.254   4.978   1.735
 8654SOL    HW126861   1.308   4.919   1.675
 8654SOL    HW226862   1.157   4.954   1.727
 8655SOL     OW26863   6.989   0.950   5.223
 8655SOL    HW126864   6.925   0.908   5.159
 8655SOL    HW226865   6.937   0.996   5.296
 8656SOL     OW26866   5.079   0.168   1.328
 8656SOL    HW126867   5.030   0.118   1.400
 8656SOL    HW226868   5.103   0.259   1.361
 8657SOL     OW26869   5.436   0.907   2.454
 8657SOL    HW126870   5.374   0.859   2.516
 8657SOL    HW226871   5.502   0.842   2.416
 8658SOL     OW26872   6.601   5.261   0.861
 8658SOL    HW126873   6.695   5.270   0.896
 8658SOL    HW226874   6.598   5.286   0.765
 8659SOL     OW26875   4.900   1.514   1.939
 8659SOL    HW126876   4.821   1.495   1.881
 8659SOL    HW226877   4.869   1.526   2.033
 8660SOL     OW26878   0.743   3.062   1.373
 8660SOL    HW126879   0.677   2.987   1.381
 8660SOL    HW226880   0.694   3.148   1.364
 8661SOL     OW26881   6.190   3.552   2.933
 8661SOL    HW126882   6.240   3.507   2.859
 8661SOL    HW226883   6.158   3.484   2.998
 8662SOL     OW26884   3.134   5.580   2.846
 8662SOL    HW126885   3.168   5.487   2.830
 8662SOL    HW226886   3.205   5.633   2.893
 8663SOL     OW26887   3.624   5.669   3.289
 8663SOL    HW126888   3.623   5.767   3.272
 8663SOL    HW226889   3.709   5.630   3.254
 8664SOL     OW26890   2.706   5.647   3.101
 8664SOL    HW126891   2.784   5.597   3.063
 8664SOL    HW226892   2.736   5.698   3.182
 8665SOL     OW26893   6.103   3.770   6.064
 8665SOL    HW126894   6.047   3.853   6.060
 8665SOL    HW226895   6.146   3.763   6.153
 8666SOL     OW26896   5.114   6.984   3.395
 8666SOL    HW126897   5.166   6.901   3.416
 8666SOL    HW226898   5.044   6.999   3.465
 8667SOL     OW26899   4.784   1.664   4.157
 8667SOL    HW126900   4.748   1.758   4.158
 8667SOL    HW226901   4.714   1.602   4.191
 8668SOL     OW26902   4.884   2.823   5.049
 8668SOL    HW126903   4.919   2.794   5.138
 8668SOL    HW226904   4.786   2.801   5.042
 8669SOL     OW26905   6.079   6.470   6.302
 8669SOL    HW126906   6.150   6.456   6.233
 8669SOL    HW226907   5.989   6.449   6.263
 8670SOL     OW26908   6.249   4.487   6.040
 8670SOL    HW126909   6.262   4.458   6.135
 8670SOL    HW226910   6.312   4.561   6.019
 8671SOL     OW26911   0.357   2.114   2.547
 8671SOL    HW126912   0.288   2.072   2.488
 8671SOL    HW226913   0.313   2.150   2.629
 8672SOL     OW26914   6.821   0.972   3.659
 8672SOL    HW126915   6.891   0.908   3.629
 8672SOL    HW226916   6.824   0.981   3.758
 8673SOL     OW26917   0.959   2.099   0.588
 8673SOL    HW126918   1.051   2.137   0.583
 8673SOL    HW226919   0.947   2.052   0.675
 8674SOL     OW26920   0.197   4.946   2.964
 8674SOL    HW126921   0.276   4.993   3.003
 8674SOL    HW226922   0.223   4.903   2.878
 8675SOL     OW26923   4.091   2.060   5.794
 8675SOL    HW126924   4.186   2.047   5.767
 8675SOL    HW226925   4.031   2.027   5.722
 8676SOL     OW26926   5.817   0.770   0.826
 8676SOL    HW126927   5.844   0.740   0.917
 8676SOL    HW226928   5.720   0.794   0.826
 8677SOL     OW26929   1.297   6.773   5.547
 8677SOL    HW126930   1.362   6.763   5.622
 8677SOL    HW226931   1.345   6.764   5.460
 8678SOL     OW26932   1.637   0.861   1.154
 8678SOL    HW126933   1.727   0.841   1.116
 8678SOL    HW226934   1.581   0.905   1.085
 8679SOL     OW26935   2.106   1.371   4.214
 8679SOL    HW126936   2.068   1.280   4.228
 8679SOL    HW226937   2.034   1.439   4.226
 8680SOL     OW26938   6.694   2.397   6.092
 8680SOL    HW126939   6.723   2.429   6.182
 8680SOL    HW226940   6.600   2.363   6.097
 8681SOL     OW26941   5.782   5.662   1.076
 8681SOL    HW126942   5.695   5.652   1.124
 8681SOL    HW226943   5.822   5.751   1.096
 8682SOL     OW26944   0.449   0.578   1.016
 8682SOL    HW126945   0.494   0.666   1.031
 8682SOL    HW226946   0.509   0.518   0.963
 8683SOL     OW26947   2.131   4.538   4.591
 8683SOL    HW126948   2.203   4.539   4.660
 8683SOL    HW226949   2.136   4.452   4.539
 8684SOL     OW26950   0.618   4.024   4.484
 8684SOL    HW126951   0.582   4.069   4.402
 8684SOL    HW226952   0.567   4.055   4.564
 8685SOL     OW26953   4.855   2.403   5.726
 8685SOL    HW126954   4.798   2.389   5.645
 8685SOL    HW226955   4.797   2.420   5.806
 8686SOL     OW26956   6.582   6.072   2.694
 8686SOL    HW126957   6.602   6.005   2.623
 8686SOL    HW226958   6.613   6.163   2.663
 8687SOL     OW26959   6.030   3.349   3.099
 8687SOL    HW126960   5.943   3.302   3.081
 8687SOL    HW226961   6.106   3.293   3.067
 8688SOL     OW26962   1.228   4.185   6.217
 8688SOL    HW126963   1.172   4.102   6.220
 8688SOL    HW226964   1.208   4.242   6.296
 8689SOL     OW26965   4.713   3.668   0.140
 8689SOL    HW126966   4.743   3.744   0.082
 8689SOL    HW226967   4.627   3.631   0.105
 8690SOL     OW26968   1.934   2.043   3.288
 8690SOL    HW126969   1.891   2.131   3.268
 8690SOL    HW226970   1.877   1.992   3.352
 8691SOL     OW26971   2.771   2.262   5.018
 8691SOL    HW126972   2.773   2.300   4.926
 8691SOL    HW226973   2.689   2.294   5.066
 8692SOL     OW26974   4.389   2.160   5.831
 8692SOL    HW126975   4.414   2.233   5.896
 8692SOL    HW226976   4.383   2.198   5.739
 8693SOL     OW26977   6.147   0.819   6.140
 8693SOL    HW126978   6.055   0.836   6.105
 8693SOL    HW226979   6.159   0.720   6.155
 8694SOL     OW26980   5.657   3.131   3.949
 8694SOL    HW126981   5.679   3.227   3.930
 8694SOL    HW226982   5.600   3.125   4.031
 8695SOL     OW26983   4.069   4.001   6.181
 8695SOL    HW126984   4.148   3.944   6.158
 8695SOL    HW226985   4.092   4.097   6.167
 8696SOL     OW26986   2.986   5.636   5.937
 8696SOL    HW126987   3.080   5.620   5.966
 8696SOL    HW226988   2.979   5.726   5.894
 8697SOL     OW26989   1.718   4.096   5.747
 8697SOL    HW126990   1.763   4.094   5.658
 8697SOL    HW226991   1.646   4.166   5.747
 8698SOL     OW26992   5.256   6.019   5.196
 8698SOL    HW126993   5.185   5.977   5.251
 8698SOL    HW226994   5.219   6.046   5.107
 8699SOL     OW26995   2.037   3.352   0.050
 8699SOL    HW126996   1.962   3.302   0.007
 8699SOL    HW226997   2.009   3.446   0.068
 8700SOL     OW26998   0.902   0.075   4.995
 8700SOL    HW126999   0.972   0.102   5.062
 8700SOL    HW227000   0.946   0.060   4.906
 8701SOL     OW27001   1.210   2.096   6.648
 8701SOL    HW127002   1.122   2.053   6.629
 8701SOL    HW227003   1.200   2.160   6.725
 8702SOL     OW27004   5.712   4.165   1.911
 8702SOL    HW127005   5.730   4.250   1.961
 8702SOL    HW227006   5.798   4.128   1.875
 8703SOL     OW27007   2.893   4.673   1.457
 8703SOL    HW127008   2.822   4.709   1.517
 8703SOL    HW227009   2.962   4.743   1.441
 8704SOL     OW27010   1.026   1.894   3.845
 8704SOL    HW127011   0.984   1.841   3.771
 8704SOL    HW227012   1.058   1.981   3.809
 8705SOL     OW27013   4.274   2.674   0.273
 8705SOL    HW127014   4.352   2.645   0.329
 8705SOL    HW227015   4.282   2.772   0.253
 8706SOL     OW27016   4.505   2.924   6.313
 8706SOL    HW127017   4.476   2.871   6.393
 8706SOL    HW227018   4.506   3.021   6.336
 8707SOL     OW27019   1.379   2.264   4.196
 8707SOL    HW127020   1.440   2.341   4.180
 8707SOL    HW227021   1.376   2.242   4.293
 8708SOL     OW27022   6.024   2.530   2.344
 8708SOL    HW127023   6.087   2.483   2.406
 8708SOL    HW227024   5.931   2.496   2.358
 8709SOL     OW27025   6.598   0.138   5.580
 8709SOL    HW127026   6.670   0.070   5.593
 8709SOL    HW227027   6.570   0.175   5.669
 8710SOL     OW27028   2.377   1.260   3.668
 8710SOL    HW127029   2.307   1.204   3.710
 8710SOL    HW227030   2.467   1.233   3.701
 8711SOL     OW27031   1.254   0.417   1.689
 8711SOL    HW127032   1.289   0.326   1.710
 8711SOL    HW227033   1.261   0.433   1.591
 8712SOL     OW27034   1.747   2.991   5.302
 8712SOL    HW127035   1.809   2.984   5.224
 8712SOL    HW227036   1.731   2.900   5.340
 8713SOL     OW27037   1.018   4.858   1.783
 8713SOL    HW127038   0.919   4.868   1.777
 8713SOL    HW227039   1.041   4.765   1.811
 8714SOL     OW27040   6.718   6.650   6.686
 8714SOL    HW127041   6.684   6.557   6.703
 8714SOL    HW227042   6.682   6.712   6.757
 8715SOL     OW27043   2.681   2.240   0.525
 8715SOL    HW127044   2.746   2.315   0.513
 8715SOL    HW227045   2.590   2.278   0.539
 8716SOL     OW27046   6.702   6.630   1.276
 8716SOL    HW127047   6.717   6.542   1.231
 8716SOL    HW227048   6.786   6.684   1.272
 8717SOL     OW27049   2.655   4.921   0.393
 8717SOL    HW127050   2.559   4.947   0.378
 8717SOL    HW227051   2.666   4.823   0.377
 8718SOL     OW27052   2.275   4.615   6.234
 8718SOL    HW127053   2.192   4.560   6.238
 8718SOL    HW227054   2.300   4.645   6.326
 8719SOL     OW27055   3.713   0.915   5.725
 8719SOL    HW127056   3.683   1.006   5.696
 8719SOL    HW227057   3.650   0.846   5.689
 8720SOL     OW27058   0.028   4.143   4.871
 8720SOL    HW127059   6.959   4.178   4.873
 8720SOL    HW227060   0.083   4.192   4.939
 8721SOL     OW27061   6.945   6.975   6.516
 8721SOL    HW127062   6.944   6.915   6.436
 8721SOL    HW227063   6.967   0.044   6.487
 8722SOL     OW27064   3.991   1.333   1.753
 8722SOL    HW127065   4.053   1.301   1.825
 8722SOL    HW227066   3.930   1.403   1.789
 8723SOL     OW27067   5.096   6.966   2.281
 8723SOL    HW127068   4.999   6.988   2.266
 8723SOL    HW227069   5.111   6.940   2.376
 8724SOL     OW27070   3.818   0.563   4.805
 8724SOL    HW127071   3.874   0.622   4.748
 8724SOL    HW227072   3.862   0.473   4.814
 8725SOL     OW27073   0.553   6.508   4.323
 8725SOL    HW127074   0.555   6.554   4.412
 8725SOL    HW227075   0.503   6.422   4.331
 8726SOL     OW27076   0.977   0.979   0.502
 8726SOL    HW127077   1.005   0.963   0.407
 8726SOL    HW227078   0.889   1.027   0.504
 8727SOL     OW27079   5.049   5.715   5.970
 8727SOL    HW127080   5.023   5.778   5.897
 8727SOL    HW227081   5.099   5.764   6.042
 8728SOL     OW27082   6.299   0.475   3.102
 8728SOL    HW127083   6.271   0.568   3.125
 8728SOL    HW227084   6.218   0.416   3.099
 8729SOL     OW27085   3.570   5.216   6.396
 8729SOL    HW127086   3.621   5.218   6.310
 8729SOL    HW227087   3.633   5.226   6.473
 8730SOL     OW27088   4.720   4.925   1.942
 8730SOL    HW127089   4.624   4.899   1.951
 8730SOL    HW227090   4.730   4.988   1.865
 8731SOL     OW27091   0.274   1.911   3.154
 8731SOL    HW127092   0.217   1.923   3.235
 8731SOL    HW227093   0.310   1.817   3.152
 8732SOL     OW27094   5.408   5.554   0.983
 8732SOL    HW127095   5.417   5.624   0.912
 8732SOL    HW227096   5.451   5.470   0.952
 8733SOL     OW27097   0.135   4.878   2.209
 8733SOL    HW127098   0.056   4.817   2.212
 8733SOL    HW227099   0.215   4.831   2.245
 8734SOL     OW27100   6.937   3.560   2.124
 8734SOL    HW127101   6.938   3.522   2.217
 8734SOL    HW227102   0.006   3.572   2.092
 8735SOL     OW27103   1.798   3.823   5.742
 8735SOL    HW127104   1.890   3.840   5.777
 8735SOL    HW227105   1.754   3.910   5.719
 8736SOL     OW27106   0.859   5.646   2.533
 8736SOL    HW127107   0.931   5.603   2.587
 8736SOL    HW227108   0.802   5.703   2.593
 8737SOL     OW27109   1.419   5.494   6.530
 8737SOL    HW127110   1.424   5.491   6.430
 8737SOL    HW227111   1.326   5.520   6.558
 8738SOL     OW27112   1.239   3.754   3.525
 8738SOL    HW127113   1.226   3.709   3.613
 8738SOL    HW227114   1.335   3.784   3.517
 8739SOL     OW27115   5.279   4.211   5.474
 8739SOL    HW127116   5.332   4.170   5.548
 8739SOL    HW227117   5.224   4.141   5.429
 8740SOL     OW27118   3.387   1.554   4.113
 8740SOL    HW127119   3.461   1.612   4.148
 8740SOL    HW227120   3.316   1.545   4.183
 8741SOL     OW27121   0.888   0.059   2.310
 8741SOL    HW127122   0.824   0.111   2.252
 8741SOL    HW227123   0.907   6.995   2.267
 8742SOL     OW27124   3.043   1.288   2.719
 8742SOL    HW127125   3.023   1.199   2.759
 8742SOL    HW227126   3.045   1.280   2.619
 8743SOL     OW27127   1.625   0.725   1.826
 8743SOL    HW127128   1.591   0.633   1.804
 8743SOL    HW227129   1.551   0.791   1.815
 8744SOL     OW27130   3.714   4.088   6.552
 8744SOL    HW127131   3.782   4.024   6.588
 8744SOL    HW227132   3.759   4.174   6.528
 8745SOL     OW27133   6.699   1.336   6.191
 8745SOL    HW127134   6.736   1.427   6.174
 8745SOL    HW227135   6.669   1.330   6.286
 8746SOL     OW27136   4.898   5.018   4.541
 8746SOL    HW127137   4.944   5.007   4.452
 8746SOL    HW227138   4.911   4.935   4.596
 8747SOL     OW27139   6.717   0.588   1.869
 8747SOL    HW127140   6.759   0.533   1.941
 8747SOL    HW227141   6.773   0.584   1.786
 8748SOL     OW27142   0.983   2.097   3.614
 8748SOL    HW127143   1.063   2.105   3.673
 8748SOL    HW227144   0.929   2.182   3.619
 8749SOL     OW27145   2.538   1.541   5.399
 8749SOL    HW127146   2.583   1.533   5.489
 8749SOL    HW227147   2.592   1.602   5.341
 8750SOL     OW27148   4.351   2.730   6.090
 8750SOL    HW127149   4.355   2.657   6.159
 8750SOL    HW227150   4.340   2.818   6.135
 8751SOL     OW27151   0.300   6.236   2.123
 8751SOL    HW127152   0.309   6.232   2.223
 8751SOL    HW227153   0.228   6.300   2.098
 8752SOL     OW27154   4.617   3.250   6.714
 8752SOL    HW127155   4.557   3.178   6.750
 8752SOL    HW227156   4.673   3.287   6.788
 8753SOL     OW27157   1.572   3.229   7.011
 8753SOL    HW127158   1.503   3.298   0.010
 8753SOL    HW227159   1.539   3.138   0.013
 8754SOL     OW27160   2.884   5.376   6.799
 8754SOL    HW127161   2.928   5.445   6.855
 8754SOL    HW227162   2.922   5.286   6.821
 8755SOL     OW27163   0.083   1.740   2.385
 8755SOL    HW127164   7.018   1.755   2.344
 8755SOL    HW227165   0.144   1.698   2.318
 8756SOL     OW27166   2.140   2.751   3.807
 8756SOL    HW127167   2.087   2.785   3.729
 8756SOL    HW227168   2.201   2.678   3.776
 8757SOL     OW27169   4.850   6.434   5.175
 8757SOL    HW127170   4.856   6.445   5.076
 8757SOL    HW227171   4.781   6.364   5.196
 8758SOL     OW27172   3.754   6.961   4.024
 8758SOL    HW127173   3.695   7.007   4.090
 8758SOL    HW227174   3.849   6.967   4.054
 8759SOL     OW27175   6.262   1.210   0.350
 8759SOL    HW127176   6.176   1.254   0.376
 8759SOL    HW227177   6.339   1.268   0.377
 8760SOL     OW27178   2.122   2.209   4.496
 8760SOL    HW127179   2.032   2.197   4.453
 8760SOL    HW227180   2.111   2.255   4.584
 8761SOL     OW27181   4.613   0.892   2.162
 8761SOL    HW127182   4.677   0.961   2.197
 8761SOL    HW227183   4.579   0.921   2.073
 8762SOL     OW27184   1.333   4.769   3.360
 8762SOL    HW127185   1.331   4.866   3.383
 8762SOL    HW227186   1.246   4.726   3.383
 8763SOL     OW27187   0.270   1.085   5.672
 8763SOL    HW127188   0.264   1.059   5.575
 8763SOL    HW227189   0.241   1.180   5.683
 8764SOL     OW27190   3.721   4.768   5.581
 8764SOL    HW127191   3.761   4.791   5.492
 8764SOL    HW227192   3.697   4.671   5.582
 8765SOL     OW27193   5.131   6.526   4.819
 8765SOL    HW127194   5.185   6.551   4.738
 8765SOL    HW227195   5.036   6.554   4.805
 8766SOL     OW27196   4.698   4.703   5.694
 8766SOL    HW127197   4.631   4.674   5.763
 8766SOL    HW227198   4.739   4.622   5.652
 8767SOL     OW27199   3.218   0.665   3.605
 8767SOL    HW127200   3.126   0.691   3.634
 8767SOL    HW227201   3.270   0.746   3.579
 8768SOL     OW27202   6.673   2.741   0.410
 8768SOL    HW127203   6.744   2.795   0.366
 8768SOL    HW227204   6.714   2.660   0.451
 8769SOL     OW27205   6.960   1.214   0.508
 8769SOL    HW127206   7.020   1.204   0.428
 8769SOL    HW227207   6.905   1.131   0.518
 8770SOL     OW27208   4.919   3.512   2.339
 8770SOL    HW127209   5.014   3.513   2.371
 8770SOL    HW227210   4.902   3.429   2.287
 8771SOL     OW27211   0.179   3.285   6.413
 8771SOL    HW127212   0.241   3.364   6.408
 8771SOL    HW227213   0.228   3.207   6.452
 8772SOL     OW27214   5.540   0.070   4.144
 8772SOL    HW127215   5.625   0.037   4.104
 8772SOL    HW227216   5.533   0.037   4.239
 8773SOL     OW27217   0.045   1.427   4.330
 8773SOL    HW127218   0.019   1.523   4.333
 8773SOL    HW227219   0.054   1.398   4.234
 8774SOL     OW27220   1.812   0.345   0.593
 8774SOL    HW127221   1.755   0.265   0.577
 8774SOL    HW227222   1.876   0.357   0.517
 8775SOL     OW27223   5.188   2.077   4.522
 8775SOL    HW127224   5.146   2.117   4.440
 8775SOL    HW227225   5.143   2.114   4.603
 8776SOL     OW27226   4.624   2.920   0.189
 8776SOL    HW127227   4.610   3.019   0.193
 8776SOL    HW227228   4.707   2.897   0.240
 8777SOL     OW27229   1.063   1.957   3.350
 8777SOL    HW127230   1.156   1.945   3.387
 8777SOL    HW227231   1.010   2.016   3.411
 8778SOL     OW27232   4.274   4.474   5.950
 8778SOL    HW127233   4.224   4.419   6.017
 8778SOL    HW227234   4.231   4.564   5.942
 8779SOL     OW27235   3.304   4.875   3.221
 8779SOL    HW127236   3.270   4.862   3.314
 8779SOL    HW227237   3.247   4.942   3.173
 8780SOL     OW27238   6.567   5.418   3.290
 8780SOL    HW127239   6.584   5.495   3.229
 8780SOL    HW227240   6.652   5.389   3.334
 8781SOL     OW27241   3.973   6.176   2.303
 8781SOL    HW127242   3.941   6.205   2.213
 8781SOL    HW227243   4.068   6.146   2.297
 8782SOL     OW27244   4.766   0.484   1.797
 8782SOL    HW127245   4.678   0.445   1.768
 8782SOL    HW227246   4.753   0.578   1.826
 8783SOL     OW27247   4.934   3.398   4.945
 8783SOL    HW127248   4.870   3.473   4.963
 8783SOL    HW227249   4.926   3.370   4.850
 8784SOL     OW27250   5.500   6.451   0.689
 8784SOL    HW127251   5.454   6.407   0.767
 8784SOL    HW227252   5.555   6.528   0.722
 8785SOL     OW27253   0.811   5.505   6.005
 8785SOL    HW127254   0.792   5.603   6.005
 8785SOL    HW227255   0.773   5.464   6.088
 8786SOL     OW27256   4.100   1.925   2.033
 8786SOL    HW127257   4.035   1.857   2.001
 8786SOL    HW227258   4.068   2.017   2.009
 8787SOL     OW27259   3.544   0.428   1.693
 8787SOL    HW127260   3.516   0.453   1.601
 8787SOL    HW227261   3.642   0.408   1.693
 8788SOL     OW27262   0.740   0.041   4.558
 8788SOL    HW127263   0.693   0.121   4.521
 8788SOL    HW227264   0.706   6.983   4.513
 8789SOL     OW27265   0.476   3.255   4.708
 8789SOL    HW127266   0.511   3.342   4.673
 8789SOL    HW227267   0.442   3.200   4.632
 8790SOL     OW27268   5.497   2.903   6.400
 8790SOL    HW127269   5.595   2.911   6.418
 8790SOL    HW227270   5.447   2.895   6.486
 8791SOL     OW27271   4.193   5.608   5.323
 8791SOL    HW127272   4.159   5.669   5.252
 8791SOL    HW227273   4.223   5.662   5.402
 8792SOL     OW27274   5.064   5.350   1.454
 8792SOL    HW127275   5.132   5.424   1.458
 8792SOL    HW227276   5.013   5.345   1.540
 8793SOL     OW27277   0.384   4.737   4.414
 8793SOL    HW127278   0.350   4.681   4.490
 8793SOL    HW227279   0.482   4.752   4.425
 8794SOL     OW27280   0.212   0.263   1.561
 8794SOL    HW127281   0.225   0.277   1.659
 8794SOL    HW227282   0.301   0.261   1.515
 8795SOL     OW27283   1.622   5.514   5.586
 8795SOL    HW127284   1.656   5.563   5.506
 8795SOL    HW227285   1.687   5.522   5.661
 8796SOL     OW27286   0.004   3.755   3.631
 8796SOL    HW127287   6.990   3.696   3.702
 8796SOL    HW227288   7.004   3.850   3.650
 8797SOL     OW27289   5.739   6.709   4.006
 8797SOL    HW127290   5.817   6.694   3.945
 8797SOL    HW227291   5.658   6.734   3.952
 8798SOL     OW27292   4.290   6.271   5.764
 8798SOL    HW127293   4.265   6.366   5.786
 8798SOL    HW227294   4.383   6.254   5.797
 8799SOL     OW27295   2.353   5.393   2.133
 8799SOL    HW127296   2.310   5.416   2.046
 8799SOL    HW227297   2.354   5.294   2.144
 8800SOL     OW27298   0.016   5.730   5.340
 8800SOL    HW127299   6.995   5.816   5.360
 8800SOL    HW227300   7.018   5.700   5.248
 8801SOL     OW27301   6.104   2.240   5.305
 8801SOL    HW127302   6.173   2.312   5.300
 8801SOL    HW227303   6.048   2.253   5.386
 8802SOL     OW27304   1.586   6.200   5.403
 8802SOL    HW127305   1.489   6.184   5.388
 8802SOL    HW227306   1.598   6.283   5.459
 8803SOL     OW27307   6.305   0.502   6.067
 8803SOL    HW127308   6.359   0.527   6.146
 8803SOL    HW227309   6.261   0.413   6.083
 8804SOL     OW27310   1.361   5.682   2.008
 8804SOL    HW127311   1.383   5.584   2.005
 8804SOL    HW227312   1.267   5.697   1.978
 8805SOL     OW27313   4.902   5.519   2.476
 8805SOL    HW127314   4.855   5.584   2.535
 8805SOL    HW227315   4.909   5.431   2.523
 8806SOL     OW27316   2.153   6.705   0.133
 8806SOL    HW127317   2.253   6.697   0.134
 8806SOL    HW227318   2.120   6.716   0.227
 8807SOL     OW27319   4.953   2.633   1.084
 8807SOL    HW127320   4.938   2.672   1.174
 8807SOL    HW227321   5.048   2.646   1.057
 8808SOL     OW27322   2.304   2.230   0.731
 8808SOL    HW127323   2.260   2.249   0.819
 8808SOL    HW227324   2.245   2.170   0.677
 8809SOL     OW27325   1.481   3.907   3.452
 8809SOL    HW127326   1.461   4.000   3.421
 8809SOL    HW227327   1.517   3.853   3.376
 8810SOL     OW27328   0.142   1.302   5.691
 8810SOL    HW127329   0.118   1.307   5.788
 8810SOL    HW227330   0.127   1.391   5.648
 8811SOL     OW27331   4.279   5.995   2.223
 8811SOL    HW127332   4.353   5.950   2.174
 8811SOL    HW227333   4.301   5.999   2.320
 8812SOL     OW27334   3.907   1.265   6.549
 8812SOL    HW127335   3.828   1.256   6.610
 8812SOL    HW227336   3.991   1.262   6.603
 8813SOL     OW27337   2.512   4.495   3.207
 8813SOL    HW127338   2.476   4.409   3.243
 8813SOL    HW227339   2.571   4.538   3.276
 8814SOL     OW27340   5.610   6.855   6.844
 8814SOL    HW127341   5.614   6.800   6.761
 8814SOL    HW227342   5.518   6.893   6.854
 8815SOL     OW27343   5.314   1.191   0.300
 8815SOL    HW127344   5.278   1.136   0.376
 8815SOL    HW227345   5.299   1.143   0.214
 8816SOL     OW27346   0.728   6.424   5.497
 8816SOL    HW127347   0.633   6.395   5.505
 8816SOL    HW227348   0.782   6.378   5.568
 8817SOL     OW27349   1.615   3.193   4.339
 8817SOL    HW127350   1.608   3.150   4.249
 8817SOL    HW227351   1.613   3.292   4.330
 8818SOL     OW27352   2.293   6.958   4.108
 8818SOL    HW127353   2.381   6.962   4.061
 8818SOL    HW227354   2.226   7.013   4.058
 8819SOL     OW27355   5.325   4.210   6.326
 8819SOL    HW127356   5.259   4.278   6.358
 8819SOL    HW227357   5.417   4.248   6.334
 8820SOL     OW27358   3.375   0.919   4.459
 8820SOL    HW127359   3.362   0.888   4.365
 8820SOL    HW227360   3.463   0.884   4.493
 8821SOL     OW27361   0.883   4.583   0.362
 8821SOL    HW127362   0.930   4.671   0.349
 8821SOL    HW227363   0.875   4.565   0.460
 8822SOL     OW27364   6.953   6.670   3.739
 8822SOL    HW127365   6.919   6.761   3.715
 8822SOL    HW227366   6.917   6.603   3.675
 8823SOL     OW27367   3.623   1.160   3.081
 8823SOL    HW127368   3.666   1.095   3.143
 8823SOL    HW227369   3.663   1.151   2.990
 8824SOL     OW27370   2.277   1.225   1.677
 8824SOL    HW127371   2.291   1.142   1.622
 8824SOL    HW227372   2.302   1.305   1.622
 8825SOL     OW27373   0.031   0.003   6.937
 8825SOL    HW127374   0.057   6.931   6.931
 8825SOL    HW227375   0.063   0.040   7.024
 8826SOL     OW27376   0.939   3.285   0.826
 8826SOL    HW127377   0.963   3.279   0.923
 8826SOL    HW227378   1.014   3.250   0.771
 8827SOL     OW27379   4.279   0.201   2.413
 8827SOL    HW127380   4.271   0.286   2.362
 8827SOL    HW227381   4.301   0.126   2.350
 8828SOL     OW27382   4.154   2.916   6.264
 8828SOL    HW127383   4.117   2.834   6.221
 8828SOL    HW227384   4.166   2.988   6.196
 8829SOL     OW27385   0.084   1.802   2.067
 8829SOL    HW127386   0.053   1.796   1.972
 8829SOL    HW227387   0.160   1.738   2.081
 8830SOL     OW27388   3.015   1.863   3.208
 8830SOL    HW127389   3.057   1.781   3.169
 8830SOL    HW227390   2.948   1.836   3.277
 8831SOL     OW27391   0.263   2.129   1.732
 8831SOL    HW127392   0.323   2.143   1.811
 8831SOL    HW227393   0.169   2.115   1.762
 8832SOL     OW27394   6.621   0.052   4.208
 8832SOL    HW127395   6.646   0.131   4.152
 8832SOL    HW227396   6.562   7.016   4.155
 8833SOL     OW27397   3.454   2.520   0.574
 8833SOL    HW127398   3.384   2.480   0.633
 8833SOL    HW227399   3.495   2.449   0.517
 8834SOL     OW27400   5.353   3.848   5.513
 8834SOL    HW127401   5.295   3.767   5.523
 8834SOL    HW227402   5.337   3.910   5.589
 8835SOL     OW27403   6.034   0.818   5.501
 8835SOL    HW127404   6.057   0.847   5.408
 8835SOL    HW227405   6.042   0.895   5.564
 8836SOL     OW27406   5.163   1.895   6.855
 8836SOL    HW127407   5.129   1.890   6.949
 8836SOL    HW227408   5.129   1.978   6.811
 8837SOL     OW27409   5.685   6.988   1.663
 8837SOL    HW127410   5.704   0.051   1.708
 8837SOL    HW227411   5.764   6.962   1.607
 8838SOL     OW27412   0.054   4.155   3.091
 8838SOL    HW127413   0.080   4.065   3.057
 8838SOL    HW227414   0.136   4.209   3.109
 8839SOL     OW27415   4.956   6.286   3.239
 8839SOL    HW127416   5.054   6.265   3.245
 8839SOL    HW227417   4.918   6.293   3.331
 8840SOL     OW27418   0.117   0.961   1.390
 8840SOL    HW127419   0.042   0.988   1.329
 8840SOL    HW227420   0.182   0.905   1.339
 8841SOL     OW27421   3.603   1.592   2.028
 8841SOL    HW127422   3.512   1.606   2.068
 8841SOL    HW227423   3.665   1.559   2.099
 8842SOL     OW27424   3.937   3.109   4.066
 8842SOL    HW127425   3.941   3.117   4.166
 8842SOL    HW227426   4.027   3.128   4.027
 8843SOL     OW27427   2.223   4.327   5.322
 8843SOL    HW127428   2.315   4.288   5.323
 8843SOL    HW227429   2.203   4.364   5.413
 8844SOL     OW27430   5.099   1.608   5.120
 8844SOL    HW127431   5.005   1.636   5.100
 8844SOL    HW227432   5.156   1.690   5.135
 8845SOL     OW27433   1.169   5.427   1.726
 8845SOL    HW127434   1.155   5.499   1.793
 8845SOL    HW227435   1.217   5.350   1.768
 8846SOL     OW27436   5.486   4.817   2.992
 8846SOL    HW127437   5.570   4.794   3.041
 8846SOL    HW227438   5.408   4.777   3.039
 8847SOL     OW27439   2.381   2.035   2.670
 8847SOL    HW127440   2.324   2.101   2.719
 8847SOL    HW227441   2.469   2.024   2.718
 8848SOL     OW27442   3.618   1.839   1.262
 8848SOL    HW127443   3.538   1.815   1.318
 8848SOL    HW227444   3.587   1.878   1.175
 8849SOL     OW27445   3.195   5.609   4.600
 8849SOL    HW127446   3.173   5.527   4.548
 8849SOL    HW227447   3.278   5.651   4.562
 8850SOL     OW27448   3.041   1.979   0.619
 8850SOL    HW127449   3.065   2.070   0.654
 8850SOL    HW227450   3.111   1.948   0.554
 8851SOL     OW27451   0.718   4.991   3.394
 8851SOL    HW127452   0.722   4.901   3.351
 8851SOL    HW227453   0.623   5.021   3.401
 8852SOL     OW27454   5.637   2.684   5.813
 8852SOL    HW127455   5.568   2.611   5.816
 8852SOL    HW227456   5.613   2.750   5.741
 8853SOL     OW27457   4.313   0.989   5.501
 8853SOL    HW127458   4.384   0.944   5.446
 8853SOL    HW227459   4.223   0.963   5.467
 8854SOL     OW27460   1.647   1.988   5.999
 8854SOL    HW127461   1.733   2.037   6.015
 8854SOL    HW227462   1.625   1.991   5.902
 8855SOL     OW27463   6.312   5.827   6.639
 8855SOL    HW127464   6.264   5.812   6.553
 8855SOL    HW227465   6.293   5.919   6.673
 8856SOL     OW27466   5.973   1.083   5.050
 8856SOL    HW127467   5.884   1.078   5.094
 8856SOL    HW227468   5.962   1.077   4.951
 8857SOL     OW27469   6.119   1.841   3.861
 8857SOL    HW127470   6.021   1.825   3.858
 8857SOL    HW227471   6.143   1.886   3.947
 8858SOL     OW27472   0.885   3.672   5.823
 8858SOL    HW127473   0.915   3.637   5.734
 8858SOL    HW227474   0.950   3.741   5.855
 8859SOL     OW27475   1.125   5.987   5.578
 8859SOL    HW127476   1.120   5.916   5.508
 8859SOL    HW227477   1.065   6.063   5.553
 8860SOL     OW27478   1.155   2.056   2.730
 8860SOL    HW127479   1.177   2.153   2.721
 8860SOL    HW227480   1.063   2.046   2.768
 8861SOL     OW27481   4.185   3.515   0.345
 8861SOL    HW127482   4.223   3.583   0.407
 8861SOL    HW227483   4.147   3.561   0.264
 8862SOL     OW27484   5.822   1.421   4.777
 8862SOL    HW127485   5.905   1.380   4.740
 8862SOL    HW227486   5.825   1.520   4.762
 8863SOL     OW27487   1.873   5.837   4.744
 8863SOL    HW127488   1.952   5.847   4.683
 8863SOL    HW227489   1.903   5.850   4.838
 8864SOL     OW27490   2.034   3.262   6.355
 8864SOL    HW127491   2.101   3.227   6.421
 8864SOL    HW227492   2.082   3.309   6.281
 8865SOL     OW27493   2.498   1.954   5.621
 8865SOL    HW127494   2.547   2.032   5.661
 8865SOL    HW227495   2.420   1.987   5.568
 8866SOL     OW27496   3.588   6.623   3.478
 8866SOL    HW127497   3.553   6.552   3.539
 8866SOL    HW227498   3.522   6.699   3.475
 8867SOL     OW27499   5.866   2.143   3.177
 8867SOL    HW127500   5.778   2.102   3.154
 8867SOL    HW227501   5.859   2.243   3.173
 8868SOL     OW27502   4.861   4.240   0.931
 8868SOL    HW127503   4.790   4.256   1.000
 8868SOL    HW227504   4.823   4.186   0.856
 8869SOL     OW27505   4.865   3.324   3.196
 8869SOL    HW127506   4.778   3.278   3.178
 8869SOL    HW227507   4.931   3.259   3.235
 8870SOL     OW27508   4.150   1.608   0.833
 8870SOL    HW127509   4.144   1.635   0.929
 8870SOL    HW227510   4.197   1.520   0.827
 8871SOL     OW27511   2.288   1.700   3.373
 8871SOL    HW127512   2.243   1.772   3.320
 8871SOL    HW227513   2.220   1.633   3.403
 8872SOL     OW27514   1.884   4.163   4.452
 8872SOL    HW127515   1.888   4.158   4.552
 8872SOL    HW227516   1.789   4.174   4.423
 8873SOL     OW27517   0.406   5.324   4.423
 8873SOL    HW127518   0.505   5.336   4.436
 8873SOL    HW227519   0.390   5.269   4.341
 8874SOL     OW27520   2.633   0.819   0.815
 8874SOL    HW127521   2.558   0.791   0.755
 8874SOL    HW227522   2.717   0.827   0.761
 8875SOL     OW27523   1.286   2.857   4.499
 8875SOL    HW127524   1.269   2.905   4.413
 8875SOL    HW227525   1.363   2.899   4.546
 8876SOL     OW27526   0.823   1.003   4.620
 8876SOL    HW127527   0.911   1.051   4.621
 8876SOL    HW227528   0.838   0.908   4.593
 8877SOL     OW27529   3.161   0.672   4.323
 8877SOL    HW127530   3.203   0.757   4.291
 8877SOL    HW227531   3.066   0.669   4.294
 8878SOL     OW27532   0.037   4.096   6.977
 8878SOL    HW127533   0.063   4.034   0.028
 8878SOL    HW227534   0.103   4.085   6.902
 8879SOL     OW27535   5.619   6.429   0.135
 8879SOL    HW127536   5.553   6.354   0.130
 8879SOL    HW227537   5.622   6.465   0.229
 8880SOL     OW27538   6.809   4.488   4.516
 8880SOL    HW127539   6.903   4.454   4.511
 8880SOL    HW227540   6.804   4.577   4.470
 8881SOL     OW27541   0.242   1.312   1.837
 8881SOL    HW127542   0.286   1.314   1.927
 8881SOL    HW227543   0.143   1.310   1.849
 8882SOL     OW27544   5.274   2.255   6.559
 8882SOL    HW127545   5.272   2.194   6.480
 8882SOL    HW227546   5.360   2.244   6.608
 8883SOL     OW27547   6.028   0.630   5.703
 8883SOL    HW127548   6.038   0.722   5.665
 8883SOL    HW227549   6.119   0.595   5.728
 8884SOL     OW27550   5.672   6.995   6.065
 8884SOL    HW127551   5.741   0.023   6.015
 8884SOL    HW227552   5.691   7.002   6.163
 8885SOL     OW27553   5.547   3.759   1.742
 8885SOL    HW127554   5.593   3.769   1.654
 8885SOL    HW227555   5.613   3.727   1.810
 8886SOL     OW27556   2.786   6.649   5.948
 8886SOL    HW127557   2.749   6.687   6.033
 8886SOL    HW227558   2.792   6.721   5.879
 8887SOL     OW27559   3.208   0.963   1.243
 8887SOL    HW127560   3.227   0.956   1.145
 8887SOL    HW227561   3.240   1.052   1.277
 8888SOL     OW27562   2.341   1.444   1.555
 8888SOL    HW127563   2.290   1.524   1.522
 8888SOL    HW227564   2.438   1.456   1.536
 8889SOL     OW27565   4.605   0.188   4.617
 8889SOL    HW127566   4.571   0.096   4.634
 8889SOL    HW227567   4.704   0.187   4.606
 8890SOL     OW27568   0.304   5.451   4.801
 8890SOL    HW127569   0.293   5.382   4.872
 8890SOL    HW227570   0.387   5.431   4.748
 8891SOL     OW27571   5.079   3.044   6.310
 8891SOL    HW127572   5.046   3.029   6.404
 8891SOL    HW227573   5.153   2.979   6.290
 8892SOL     OW27574   1.897   0.615   3.471
 8892SOL    HW127575   1.984   0.649   3.508
 8892SOL    HW227576   1.841   0.580   3.546
 8893SOL     OW27577   0.276   1.484   0.815
 8893SOL    HW127578   0.201   1.419   0.813
 8893SOL    HW227579   0.243   1.575   0.788
 8894SOL     OW27580   4.405   2.533   6.258
 8894SOL    HW127581   4.327   2.488   6.304
 8894SOL    HW227582   4.489   2.511   6.307
 8895SOL     OW27583   0.924   6.635   1.703
 8895SOL    HW127584   0.919   6.544   1.742
 8895SOL    HW227585   1.020   6.659   1.688
 8896SOL     OW27586   1.998   4.150   4.732
 8896SOL    HW127587   1.971   4.080   4.798
 8896SOL    HW227588   2.090   4.129   4.698
 8897SOL     OW27589   1.430   1.412   1.523
 8897SOL    HW127590   1.441   1.505   1.558
 8897SOL    HW227591   1.518   1.365   1.527
 8898SOL     OW27592   6.105   3.461   4.317
 8898SOL    HW127593   6.070   3.533   4.257
 8898SOL    HW227594   6.205   3.463   4.318
 8899SOL     OW27595   1.836   4.740   0.305
 8899SOL    HW127596   1.803   4.655   0.346
 8899SOL    HW227597   1.930   4.758   0.337
 8900SOL     OW27598   4.620   2.437   2.991
 8900SOL    HW127599   4.644   2.344   2.963
 8900SOL    HW227600   4.536   2.434   3.046
 8901SOL     OW27601   1.217   0.363   2.517
 8901SOL    HW127602   1.133   0.361   2.571
 8901SOL    HW227603   1.282   0.426   2.559
 8902SOL     OW27604   1.708   5.666   6.152
 8902SOL    HW127605   1.802   5.654   6.120
 8902SOL    HW227606   1.644   5.632   6.083
 8903SOL     OW27607   1.736   1.802   3.664
 8903SOL    HW127608   1.780   1.714   3.646
 8903SOL    HW227609   1.671   1.792   3.739
 8904SOL     OW27610   6.859   5.664   3.897
 8904SOL    HW127611   6.815   5.683   3.810
 8904SOL    HW227612   6.913   5.744   3.925
 8905SOL     OW27613   2.514   3.317   5.602
 8905SOL    HW127614   2.590   3.380   5.616
 8905SOL    HW227615   2.435   3.348   5.655
 8906SOL     OW27616   6.861   5.958   6.083
 8906SOL    HW127617   6.921   5.994   6.012
 8906SOL    HW227618   6.894   5.987   6.173
 8907SOL     OW27619   3.293   2.711   5.271
 8907SOL    HW127620   3.283   2.621   5.228
 8907SOL    HW227621   3.358   2.704   5.347
 8908SOL     OW27622   1.361   2.086   1.427
 8908SOL    HW127623   1.439   2.134   1.385
 8908SOL    HW227624   1.306   2.151   1.479
 8909SOL     OW27625   2.515   0.886   5.958
 8909SOL    HW127626   2.462   0.815   5.913
 8909SOL    HW227627   2.598   0.845   5.998
 8910SOL     OW27628   2.750   2.946   6.782
 8910SOL    HW127629   2.706   3.021   6.833
 8910SOL    HW227630   2.768   2.975   6.688
 8911SOL     OW27631   3.332   2.091   4.636
 8911SOL    HW127632   3.400   2.099   4.564
 8911SOL    HW227633   3.368   2.129   4.721
 8912SOL     OW27634   4.474   1.712   6.172
 8912SOL    HW127635   4.380   1.682   6.190
 8912SOL    HW227636   4.478   1.812   6.176
 8913SOL     OW27637   4.908   4.430   1.638
 8913SOL    HW127638   4.988   4.369   1.634
 8913SOL    HW227639   4.825   4.376   1.628
 8914SOL     OW27640   3.660   1.575   4.943
 8914SOL    HW127641   3.578   1.629   4.924
 8914SOL    HW227642   3.739   1.618   4.900
 8915SOL     OW27643   2.126   3.274   3.115
 8915SOL    HW127644   2.220   3.240   3.105
 8915SOL    HW227645   2.089   3.243   3.202
 8916SOL     OW27646   6.861   4.665   2.965
 8916SOL    HW127647   6.804   4.604   3.020
 8916SOL    HW227648   6.927   4.711   3.025
 8917SOL     OW27649   6.036   6.439   6.875
 8917SOL    HW127650   6.032   6.402   6.968
 8917SOL    HW227651   6.114   6.400   6.827
 8918SOL     OW27652   5.195   5.984   6.348
 8918SOL    HW127653   5.102   5.995   6.383
 8918SOL    HW227654   5.260   6.029   6.410
 8919SOL     OW27655   3.525   4.747   1.154
 8919SOL    HW127656   3.495   4.672   1.095
 8919SOL    HW227657   3.525   4.833   1.102
 8920SOL     OW27658   6.237   4.911   5.873
 8920SOL    HW127659   6.172   4.979   5.908
 8920SOL    HW227660   6.320   4.958   5.844
 8921SOL     OW27661   1.198   0.720   3.808
 8921SOL    HW127662   1.165   0.812   3.786
 8921SOL    HW227663   1.120   0.658   3.818
 8922SOL     OW27664   1.614   4.784   0.927
 8922SOL    HW127665   1.580   4.839   1.003
 8922SOL    HW227666   1.561   4.698   0.922
 8923SOL     OW27667   1.896   4.003   6.484
 8923SOL    HW127668   1.889   4.078   6.418
 8923SOL    HW227669   1.972   3.943   6.457
 8924SOL     OW27670   3.338   5.005   5.071
 8924SOL    HW127671   3.254   4.950   5.082
 8924SOL    HW227672   3.314   5.101   5.066
 8925SOL     OW27673   6.739   0.006   2.007
 8925SOL    HW127674   6.836   7.006   2.000
 8925SOL    HW227675   6.727   0.102   1.983
 8926SOL     OW27676   5.477   2.146   1.991
 8926SOL    HW127677   5.570   2.128   2.022
 8926SOL    HW227678   5.465   2.110   1.899
 8927SOL     OW27679   2.301   2.739   4.874
 8927SOL    HW127680   2.389   2.698   4.894
 8927SOL    HW227681   2.315   2.829   4.833
 8928SOL     OW27682   0.708   0.426   5.901
 8928SOL    HW127683   0.643   0.363   5.860
 8928SOL    HW227684   0.658   0.499   5.948
 8929SOL     OW27685   6.946   3.843   4.188
 8929SOL    HW127686   6.887   3.861   4.267
 8929SOL    HW227687   6.892   3.850   4.104
 8930SOL     OW27688   1.432   5.066   4.722
 8930SOL    HW127689   1.370   5.007   4.773
 8930SOL    HW227690   1.482   5.124   4.786
 8931SOL     OW27691   4.770   1.500   1.203
 8931SOL    HW127692   4.794   1.437   1.129
 8931SOL    HW227693   4.846   1.508   1.267
 8932SOL     OW27694   6.031   0.579   6.270
 8932SOL    HW127695   5.998   0.614   6.182
 8932SOL    HW227696   6.009   0.481   6.277
 8933SOL     OW27697   1.778   0.582   4.665
 8933SOL    HW127698   1.733   0.494   4.649
 8933SOL    HW227699   1.841   0.601   4.590
 8934SOL     OW27700   3.354   5.818   2.742
 8934SOL    HW127701   3.320   5.792   2.651
 8934SOL    HW227702   3.432   5.760   2.766
 8935SOL     OW27703   4.135   2.235   2.597
 8935SOL    HW127704   4.194   2.263   2.522
 8935SOL    HW227705   4.052   2.192   2.560
 8936SOL     OW27706   0.779   5.024   1.464
 8936SOL    HW127707   0.830   5.108   1.449
 8936SOL    HW227708   0.761   4.980   1.376
 8937SOL     OW27709   0.092   6.531   3.895
 8937SOL    HW127710   0.033   6.585   3.834
 8937SOL    HW227711   0.187   6.558   3.880
 8938SOL     OW27712   6.443   1.053   0.603
 8938SOL    HW127713   6.489   1.129   0.650
 8938SOL    HW227714   6.349   1.079   0.582
 8939SOL     OW27715   6.997   2.544   4.026
 8939SOL    HW127716   0.065   2.518   3.999
 8939SOL    HW227717   6.998   2.635   4.067
 8940SOL     OW27718   6.743   3.084   1.033
 8940SOL    HW127719   6.658   3.069   0.983
 8940SOL    HW227720   6.793   2.998   1.041
 8941SOL     OW27721   5.223   2.317   2.000
 8941SOL    HW127722   5.315   2.303   1.963
 8941SOL    HW227723   5.174   2.383   1.943
 8942SOL     OW27724   6.564   4.463   3.449
 8942SOL    HW127725   6.598   4.513   3.528
 8942SOL    HW227726   6.616   4.489   3.368
 8943SOL     OW27727   4.497   3.926   7.008
 8943SOL    HW127728   4.591   3.893   6.997
 8943SOL    HW227729   4.439   3.852   0.015
 8944SOL     OW27730   4.618   5.103   4.100
 8944SOL    HW127731   4.610   5.077   4.197
 8944SOL    HW227732   4.619   5.021   4.044
 8945SOL     OW27733   6.221   4.141   5.108
 8945SOL    HW127734   6.262   4.052   5.127
 8945SOL    HW227735   6.150   4.161   5.176
 8946SOL     OW27736   5.227   1.294   4.268
 8946SOL    HW127737   5.187   1.372   4.316
 8946SOL    HW227738   5.184   1.209   4.301
 8947SOL     OW27739   1.399   5.289   5.941
 8947SOL    HW127740   1.442   5.202   5.967
 8947SOL    HW227741   1.359   5.280   5.850
 8948SOL     OW27742   6.663   0.346   3.437
 8948SOL    HW127743   6.692   0.299   3.521
 8948SOL    HW227744   6.569   0.378   3.448
 8949SOL     OW27745   3.042   6.113   0.015
 8949SOL    HW127746   3.087   6.202   0.017
 8949SOL    HW227747   2.944   6.126   0.031
 8950SOL     OW27748   4.735   4.206   1.418
 8950SOL    HW127749   4.635   4.217   1.416
 8950SOL    HW227750   4.778   4.287   1.379
 8951SOL     OW27751   1.651   1.548   4.398
 8951SOL    HW127752   1.695   1.612   4.460
 8951SOL    HW227753   1.552   1.551   4.412
 8952SOL     OW27754   2.005   5.058   3.743
 8952SOL    HW127755   1.989   5.057   3.841
 8952SOL    HW227756   2.068   5.132   3.720
 8953SOL     OW27757   2.263   5.144   2.141
 8953SOL    HW127758   2.175   5.172   2.103
 8953SOL    HW227759   2.262   5.046   2.158
 8954SOL     OW27760   1.205   5.279   5.103
 8954SOL    HW127761   1.290   5.226   5.098
 8954SOL    HW227762   1.145   5.237   5.171
 8955SOL     OW27763   4.886   2.508   3.527
 8955SOL    HW127764   4.971   2.550   3.558
 8955SOL    HW227765   4.867   2.426   3.581
 8956SOL     OW27766   1.218   5.790   6.058
 8956SOL    HW127767   1.239   5.793   5.960
 8956SOL    HW227768   1.290   5.837   6.109
 8957SOL     OW27769   0.933   5.451   2.192
 8957SOL    HW127770   0.844   5.410   2.211
 8957SOL    HW227771   0.962   5.425   2.100
 8958SOL     OW27772   1.588   3.967   5.141
 8958SOL    HW127773   1.592   3.965   5.041
 8958SOL    HW227774   1.657   3.904   5.177
 8959SOL     OW27775   0.445   3.226   2.611
 8959SOL    HW127776   0.347   3.246   2.603
 8959SOL    HW227777   0.498   3.298   2.567
 8960SOL     OW27778   5.701   4.194   4.363
 8960SOL    HW127779   5.657   4.284   4.352
 8960SOL    HW227780   5.650   4.126   4.311
 8961SOL     OW27781   3.375   6.996   4.894
 8961SOL    HW127782   3.418   6.954   4.974
 8961SOL    HW227783   3.293   6.944   4.870
 8962SOL     OW27784   1.040   5.618   1.342
 8962SOL    HW127785   1.065   5.678   1.266
 8962SOL    HW227786   0.996   5.672   1.414
 8963SOL     OW27787   3.335   6.047   4.406
 8963SOL    HW127788   3.414   6.004   4.363
 8963SOL    HW227789   3.251   6.000   4.378
 8964SOL     OW27790   0.010   3.073   4.314
 8964SOL    HW127791   0.020   3.170   4.333
 8964SOL    HW227792   6.945   3.041   4.346
 8965SOL     OW27793   4.457   5.254   0.256
 8965SOL    HW127794   4.472   5.229   0.161
 8965SOL    HW227795   4.387   5.325   0.262
 8966SOL     OW27796   4.928   5.456   6.001
 8966SOL    HW127797   4.831   5.473   6.019
 8966SOL    HW227798   4.979   5.542   6.004
 8967SOL     OW27799   3.527   0.135   3.013
 8967SOL    HW127800   3.555   0.039   3.013
 8967SOL    HW227801   3.585   0.186   3.076
 8968SOL     OW27802   3.407   4.963   2.023
 8968SOL    HW127803   3.318   4.933   1.989
 8968SOL    HW227804   3.476   4.895   2.000
 8969SOL     OW27805   6.802   1.052   3.168
 8969SOL    HW127806   6.706   1.051   3.139
 8969SOL    HW227807   6.808   1.088   3.262
 8970SOL     OW27808   1.790   1.089   6.043
 8970SOL    HW127809   1.866   1.135   5.996
 8970SOL    HW227810   1.792   0.991   6.021
 8971SOL     OW27811   4.387   5.697   0.464
 8971SOL    HW127812   4.485   5.677   0.462
 8971SOL    HW227813   4.366   5.750   0.546
 8972SOL     OW27814   6.424   4.032   0.894
 8972SOL    HW127815   6.446   3.936   0.874
 8972SOL    HW227816   6.435   4.048   0.992
 8973SOL     OW27817   0.235   2.450   2.189
 8973SOL    HW127818   0.273   2.379   2.130
 8973SOL    HW227819   0.257   2.540   2.152
 8974SOL     OW27820   2.286   4.275   4.476
 8974SOL    HW127821   2.281   4.238   4.383
 8974SOL    HW227822   2.266   4.203   4.542
 8975SOL     OW27823   0.375   6.780   6.344
 8975SOL    HW127824   0.348   6.872   6.373
 8975SOL    HW227825   0.307   6.743   6.282
 8976SOL     OW27826   6.603   6.412   1.987
 8976SOL    HW127827   6.691   6.422   2.032
 8976SOL    HW227828   6.598   6.478   1.911
 8977SOL     OW27829   0.268   4.792   6.103
 8977SOL    HW127830   0.222   4.880   6.093
 8977SOL    HW227831   0.367   4.805   6.104
 8978SOL     OW27832   5.689   5.396   5.565
 8978SOL    HW127833   5.788   5.408   5.573
 8978SOL    HW227834   5.652   5.465   5.502
 8979SOL     OW27835   1.000   5.244   5.715
 8979SOL    HW127836   0.942   5.169   5.683
 8979SOL    HW227837   0.981   5.262   5.812
 8980SOL     OW27838   3.522   0.507   5.410
 8980SOL    HW127839   3.577   0.443   5.465
 8980SOL    HW227840   3.541   0.493   5.313
 8981SOL     OW27841   4.298   3.152   7.013
 8981SOL    HW127842   4.252   3.229   6.968
 8981SOL    HW227843   4.230   3.090   0.027
 8982SOL     OW27844   0.555   1.276   1.329
 8982SOL    HW127845   0.487   1.205   1.347
 8982SOL    HW227846   0.519   1.364   1.362
 8983SOL     OW27847   1.003   6.803   3.146
 8983SOL    HW127848   0.946   6.720   3.152
 8983SOL    HW227849   1.095   6.781   3.176
 8984SOL     OW27850   5.778   6.974   4.094
 8984SOL    HW127851   5.762   6.882   4.060
 8984SOL    HW227852   5.867   6.978   4.140
 8985SOL     OW27853   4.499   2.808   0.997
 8985SOL    HW127854   4.467   2.843   0.909
 8985SOL    HW227855   4.599   2.801   0.995
 8986SOL     OW27856   6.806   4.995   0.755
 8986SOL    HW127857   6.790   4.953   0.666
 8986SOL    HW227858   6.858   5.079   0.744
 8987SOL     OW27859   2.198   0.168   1.382
 8987SOL    HW127860   2.253   0.090   1.411
 8987SOL    HW227861   2.107   0.136   1.353
 8988SOL     OW27862   0.888   5.406   1.145
 8988SOL    HW127863   0.892   5.500   1.110
 8988SOL    HW227864   0.931   5.344   1.080
 8989SOL     OW27865   5.577   1.708   1.830
 8989SOL    HW127866   5.487   1.742   1.806
 8989SOL    HW227867   5.644   1.738   1.762
 8990SOL     OW27868   3.426   0.087   2.281
 8990SOL    HW127869   3.491   0.043   2.342
 8990SOL    HW227870   3.458   0.179   2.260
 8991SOL     OW27871   2.391   2.772   0.781
 8991SOL    HW127872   2.363   2.797   0.874
 8991SOL    HW227873   2.464   2.833   0.751
 8992SOL     OW27874   0.391   3.259   0.288
 8992SOL    HW127875   0.423   3.206   0.366
 8992SOL    HW227876   0.448   3.238   0.208
 8993SOL     OW27877   5.519   2.269   3.686
 8993SOL    HW127878   5.528   2.281   3.785
 8993SOL    HW227879   5.606   2.291   3.642
 8994SOL     OW27880   0.978   4.978   3.233
 8994SOL    HW127881   0.974   4.883   3.263
 8994SOL    HW227882   0.941   5.038   3.305
 8995SOL     OW27883   1.938   3.943   4.917
 8995SOL    HW127884   2.017   3.906   4.966
 8995SOL    HW227885   1.900   3.873   4.857
 8996SOL     OW27886   0.478   3.821   2.771
 8996SOL    HW127887   0.430   3.848   2.854
 8996SOL    HW227888   0.434   3.864   2.692
 8997SOL     OW27889   4.434   1.774   5.041
 8997SOL    HW127890   4.449   1.675   5.045
 8997SOL    HW227891   4.478   1.812   4.960
 8998SOL     OW27892   1.476   1.931   5.702
 8998SOL    HW127893   1.557   1.978   5.667
 8998SOL    HW227894   1.454   1.854   5.643
 8999SOL     OW27895   6.297   1.107   4.650
 8999SOL    HW127896   6.308   1.078   4.745
 8999SOL    HW227897   6.238   1.188   4.647
 9000SOL     OW27898   2.823   4.350   0.468
 9000SOL    HW127899   2.736   4.371   0.512
 9000SOL    HW227900   2.845   4.253   0.481
 9001SOL     OW27901   1.856   5.464   3.789
 9001SOL    HW127902   1.946   5.455   3.831
 9001SOL    HW227903   1.866   5.492   3.694
 9002SOL     OW27904   5.830   4.393   6.048
 9002SOL    HW127905   5.746   4.364   6.004
 9002SOL    HW227906   5.830   4.363   6.143
 9003SOL     OW27907   5.650   2.674   6.886
 9003SOL    HW127908   5.701   2.689   6.801
 9003SOL    HW227909   5.713   2.672   6.963
 9004SOL     OW27910   4.507   6.696   1.003
 9004SOL    HW127911   4.421   6.725   0.961
 9004SOL    HW227912   4.527   6.602   0.976
 9005SOL     OW27913   4.864   1.924   3.423
 9005SOL    HW127914   4.879   2.022   3.424
 9005SOL    HW227915   4.836   1.894   3.515
 9006SOL     OW27916   1.123   5.235   1.145
 9006SOL    HW127917   1.162   5.144   1.139
 9006SOL    HW227918   1.073   5.245   1.231
 9007SOL     OW27919   3.266   6.447   3.923
 9007SOL    HW127920   3.338   6.382   3.948
 9007SOL    HW227921   3.305   6.520   3.866
 9008SOL     OW27922   0.275   4.613   2.368
 9008SOL    HW127923   0.203   4.545   2.353
 9008SOL    HW227924   0.358   4.568   2.399
 9009SOL     OW27925   2.728   6.394   0.167
 9009SOL    HW127926   2.652   6.393   0.233
 9009SOL    HW227927   2.796   6.327   0.195
 9010SOL     OW27928   1.232   6.234   5.233
 9010SOL    HW127929   1.320   6.264   5.196
 9010SOL    HW227930   1.164   6.229   5.159
 9011SOL     OW27931   4.565   1.897   0.547
 9011SOL    HW127932   4.533   1.841   0.623
 9011SOL    HW227933   4.627   1.843   0.490
 9012SOL     OW27934   0.493   4.857   1.564
 9012SOL    HW127935   0.441   4.939   1.590
 9012SOL    HW227936   0.589   4.882   1.550
 9013SOL     OW27937   6.398   5.914   3.189
 9013SOL    HW127938   6.481   5.960   3.157
 9013SOL    HW227939   6.343   5.885   3.111
 9014SOL     OW27940   1.872   0.809   1.010
 9014SOL    HW127941   1.816   0.807   0.926
 9014SOL    HW227942   1.922   0.723   1.018
 9015SOL     OW27943   0.380   1.127   6.103
 9015SOL    HW127944   0.312   1.056   6.124
 9015SOL    HW227945   0.444   1.093   6.034
 9016SOL     OW27946   6.028   6.173   6.387
 9016SOL    HW127947   6.004   6.270   6.388
 9016SOL    HW227948   5.955   6.120   6.430
 9017SOL     OW27949   6.486   2.269   3.793
 9017SOL    HW127950   6.447   2.255   3.884
 9017SOL    HW227951   6.477   2.185   3.739
 9018SOL     OW27952   3.813   2.422   5.420
 9018SOL    HW127953   3.802   2.335   5.470
 9018SOL    HW227954   3.725   2.468   5.414
 9019SOL     OW27955   2.340   0.169   0.431
 9019SOL    HW127956   2.355   0.141   0.336
 9019SOL    HW227957   2.427   0.169   0.480
 9020SOL     OW27958   1.111   4.440   2.717
 9020SOL    HW127959   1.156   4.358   2.680
 9020SOL    HW227960   1.029   4.413   2.767
 9021SOL     OW27961   6.567   5.684   5.147
 9021SOL    HW127962   6.505   5.619   5.104
 9021SOL    HW227963   6.652   5.688   5.095
 9022SOL     OW27964   2.602   0.878   0.089
 9022SOL    HW127965   2.531   0.946   0.068
 9022SOL    HW227966   2.564   0.786   0.077
 9023SOL     OW27967   3.781   2.928   3.745
 9023SOL    HW127968   3.849   2.947   3.673
 9023SOL    HW227969   3.694   2.903   3.703
 9024SOL     OW27970   1.774   6.875   6.773
 9024SOL    HW127971   1.771   6.845   6.677
 9024SOL    HW227972   1.804   6.970   6.778
 9025SOL     OW27973   6.026   5.198   1.546
 9025SOL    HW127974   6.074   5.160   1.624
 9025SOL    HW227975   5.983   5.123   1.494
 9026SOL     OW27976   3.321   3.020   4.913
 9026SOL    HW127977   3.332   2.961   4.993
 9026SOL    HW227978   3.248   3.086   4.931
 9027SOL     OW27979   2.785   2.253   3.258
 9027SOL    HW127980   2.873   2.238   3.212
 9027SOL    HW227981   2.718   2.282   3.190
 9028SOL     OW27982   2.929   4.791   5.282
 9028SOL    HW127983   2.904   4.739   5.363
 9028SOL    HW227984   2.928   4.730   5.202
 9029SOL     OW27985   4.637   6.415   3.379
 9029SOL    HW127986   4.666   6.325   3.349
 9029SOL    HW227987   4.574   6.454   3.311
 9030SOL     OW27988   2.272   0.621   2.169
 9030SOL    HW127989   2.371   0.632   2.174
 9030SOL    HW227990   2.228   0.706   2.196
 9031SOL     OW27991   2.613   6.151   6.028
 9031SOL    HW127992   2.652   6.238   6.000
 9031SOL    HW227993   2.671   6.109   6.098
 9032SOL     OW27994   2.334   1.824   1.573
 9032SOL    HW127995   2.318   1.918   1.603
 9032SOL    HW227996   2.387   1.775   1.643
 9033SOL     OW27997   2.025   3.520   3.145
 9033SOL    HW127998   2.064   3.552   3.232
 9033SOL    HW227999   2.085   3.452   3.104
 9034SOL     OW28000   3.182   6.578   5.901
 9034SOL    HW128001   3.122   6.566   5.981
 9034SOL    HW228002   3.217   6.671   5.900
 9035SOL     OW28003   0.168   0.972   4.453
 9035SOL    HW128004   0.168   0.996   4.356
 9035SOL    HW228005   0.074   0.957   4.484
 9036SOL     OW28006   0.862   3.033   5.661
 9036SOL    HW128007   0.952   3.076   5.663
 9036SOL    HW228008   0.824   3.040   5.569
 9037SOL     OW28009   2.395   4.239   6.518
 9037SOL    HW128010   2.454   4.315   6.492
 9037SOL    HW228011   2.433   4.153   6.482
 9038SOL     OW28012   4.648   6.287   5.289
 9038SOL    HW128013   4.613   6.294   5.382
 9038SOL    HW228014   4.570   6.282   5.225
 9039SOL     OW28015   1.909   5.326   4.868
 9039SOL    HW128016   1.869   5.241   4.902
 9039SOL    HW228017   1.936   5.315   4.772
 9040SOL     OW28018   1.710   1.583   2.616
 9040SOL    HW128019   1.635   1.517   2.614
 9040SOL    HW228020   1.783   1.549   2.675
 9041SOL     OW28021   1.399   3.268   0.783
 9041SOL    HW128022   1.381   3.189   0.843
 9041SOL    HW228023   1.445   3.339   0.835
 9042SOL     OW28024   2.684   4.855   3.224
 9042SOL    HW128025   2.772   4.893   3.253
 9042SOL    HW228026   2.649   4.794   3.296
 9043SOL     OW28027   0.714   2.680   5.936
 9043SOL    HW128028   0.660   2.745   5.989
 9043SOL    HW228029   0.703   2.698   5.838
 9044SOL     OW28030   6.329   0.672   0.826
 9044SOL    HW128031   6.329   0.576   0.853
 9044SOL    HW228032   6.422   0.700   0.801
 9045SOL     OW28033   2.792   0.061   3.446
 9045SOL    HW128034   2.750   0.081   3.357
 9045SOL    HW228035   2.725   0.072   3.519
 9046SOL     OW28036   3.420   4.120   5.107
 9046SOL    HW128037   3.347   4.107   5.040
 9046SOL    HW228038   3.380   4.138   5.197
 9047SOL     OW28039   1.226   4.293   4.304
 9047SOL    HW128040   1.215   4.304   4.403
 9047SOL    HW228041   1.283   4.366   4.268
 9048SOL     OW28042   0.827   3.910   4.631
 9048SOL    HW128043   0.812   3.862   4.717
 9048SOL    HW228044   0.738   3.936   4.592
 9049SOL     OW28045   5.772   6.734   6.218
 9049SOL    HW128046   5.792   6.772   6.127
 9049SOL    HW228047   5.723   6.801   6.273
 9050SOL     OW28048   6.977   4.671   6.705
 9050SOL    HW128049   7.003   4.628   6.791
 9050SOL    HW228050   6.897   4.624   6.667
 9051SOL     OW28051   5.840   5.919   0.061
 9051SOL    HW128052   5.779   5.898   7.008
 9051SOL    HW228053   5.786   5.955   0.137
 9052SOL     OW28054   2.325   5.203   4.562
 9052SOL    HW128055   2.388   5.126   4.555
 9052SOL    HW228056   2.375   5.289   4.549
 9053SOL     OW28057   2.269   2.637   4.236
 9053SOL    HW128058   2.267   2.707   4.165
 9053SOL    HW228059   2.340   2.660   4.302
 9054SOL     OW28060   2.252   0.324   1.648
 9054SOL    HW128061   2.231   0.268   1.568
 9054SOL    HW228062   2.208   0.414   1.639
 9055SOL     OW28063   0.486   2.367   3.844
 9055SOL    HW128064   0.455   2.449   3.797
 9055SOL    HW228065   0.560   2.390   3.907
 9056SOL     OW28066   4.947   0.331   2.897
 9056SOL    HW128067   4.874   0.301   2.959
 9056SOL    HW228068   5.030   0.347   2.950
 9057SOL     OW28069   6.286   6.147   6.437
 9057SOL    HW128070   6.357   6.157   6.368
 9057SOL    HW228071   6.200   6.186   6.403
 9058SOL     OW28072   1.884   2.993   5.061
 9058SOL    HW128073   1.801   2.960   5.015
 9058SOL    HW228074   1.920   3.072   5.011
 9059SOL     OW28075   6.411   1.961   2.729
 9059SOL    HW128076   6.503   1.966   2.691
 9059SOL    HW228077   6.387   1.865   2.746
 9060SOL     OW28078   0.515   3.555   1.881
 9060SOL    HW128079   0.501   3.458   1.862
 9060SOL    HW228080   0.433   3.607   1.857
 9061SOL     OW28081   5.075   5.601   1.798
 9061SOL    HW128082   5.106   5.512   1.831
 9061SOL    HW228083   5.116   5.620   1.709
 9062SOL     OW28084   0.509   4.655   3.468
 9062SOL    HW128085   0.519   4.683   3.564
 9062SOL    HW228086   0.525   4.557   3.460
 9063SOL     OW28087   2.946   0.814   2.350
 9063SOL    HW128088   3.014   0.838   2.419
 9063SOL    HW228089   2.886   0.741   2.385
 9064SOL     OW28090   0.552   3.883   3.563
 9064SOL    HW128091   0.482   3.854   3.628
 9064SOL    HW228092   0.642   3.865   3.602
 9065SOL     OW28093   2.575   5.657   4.961
 9065SOL    HW128094   2.587   5.676   5.058
 9065SOL    HW228095   2.559   5.559   4.948
 9066SOL     OW28096   5.332   5.049   6.151
 9066SOL    HW128097   5.419   5.006   6.125
 9066SOL    HW228098   5.261   5.023   6.085
 9067SOL     OW28099   6.516   0.403   5.014
 9067SOL    HW128100   6.512   0.474   4.943
 9067SOL    HW228101   6.604   0.356   5.009
 9068SOL     OW28102   4.884   0.194   4.637
 9068SOL    HW128103   4.965   0.200   4.695
 9068SOL    HW228104   4.900   0.245   4.552
 9069SOL     OW28105   4.669   1.993   2.074
 9069SOL    HW128106   4.688   1.919   2.011
 9069SOL    HW228107   4.626   2.069   2.025
 9070SOL     OW28108   1.163   1.762   5.413
 9070SOL    HW128109   1.245   1.770   5.470
 9070SOL    HW228110   1.131   1.667   5.414
 9071SOL     OW28111   4.730   1.376   5.852
 9071SOL    HW128112   4.735   1.427   5.938
 9071SOL    HW228113   4.822   1.359   5.817
 9072SOL     OW28114   5.357   0.450   2.194
 9072SOL    HW128115   5.379   0.489   2.104
 9072SOL    HW228116   5.424   0.483   2.261
 9073SOL     OW28117   3.753   0.942   6.836
 9073SOL    HW128118   3.721   0.927   6.930
 9073SOL    HW228119   3.851   0.963   6.837
 9074SOL     OW28120   1.334   6.889   1.130
 9074SOL    HW128121   1.363   6.979   1.097
 9074SOL    HW228122   1.243   6.896   1.170
 9075SOL     OW28123   6.694   0.682   1.563
 9075SOL    HW128124   6.631   0.725   1.498
 9075SOL    HW228125   6.769   0.639   1.512
 9076SOL     OW28126   5.810   6.867   2.523
 9076SOL    HW128127   5.710   6.872   2.528
 9076SOL    HW228128   5.847   6.956   2.496
 9077SOL     OW28129   5.785   1.405   6.182
 9077SOL    HW128130   5.764   1.311   6.156
 9077SOL    HW228131   5.711   1.465   6.152
 9078SOL     OW28132   4.825   6.037   0.006
 9078SOL    HW128133   4.871   6.103   6.971
 9078SOL    HW228134   4.886   6.014   0.083
 9079SOL     OW28135   1.413   0.343   5.862
 9079SOL    HW128136   1.407   0.352   5.762
 9079SOL    HW228137   1.436   0.249   5.886
 9080SOL     OW28138   6.489   3.477   1.244
 9080SOL    HW128139   6.555   3.550   1.228
 9080SOL    HW228140   6.406   3.515   1.286
 9081SOL     OW28141   3.824   2.029   1.277
 9081SOL    HW128142   3.755   1.960   1.255
 9081SOL    HW228143   3.852   2.076   1.193
 9082SOL     OW28144   3.055   6.054   6.128
 9082SOL    HW128145   3.069   6.133   6.069
 9082SOL    HW228146   3.135   6.041   6.187
 9083SOL     OW28147   4.593   4.616   6.157
 9083SOL    HW128148   4.624   4.527   6.189
 9083SOL    HW228149   4.555   4.668   6.234
 9084SOL     OW28150   0.688   2.804   5.693
 9084SOL    HW128151   0.703   2.755   5.607
 9084SOL    HW228152   0.734   2.893   5.689
 9085SOL     OW28153   3.146   5.100   0.014
 9085SOL    HW128154   3.226   5.148   0.051
 9085SOL    HW228155   3.068   5.112   0.075
 9086SOL     OW28156   6.717   4.856   0.460
 9086SOL    HW128157   6.745   4.930   0.398
 9086SOL    HW228158   6.755   4.769   0.426
 9087SOL     OW28159   6.036   2.053   1.852
 9087SOL    HW128160   5.957   2.037   1.792
 9087SOL    HW228161   6.081   1.967   1.871
 9088SOL     OW28162   6.166   0.558   1.958
 9088SOL    HW128163   6.131   0.552   1.865
 9088SOL    HW228164   6.098   0.600   2.017
 9089SOL     OW28165   4.171   5.522   3.419
 9089SOL    HW128166   4.106   5.559   3.485
 9089SOL    HW228167   4.172   5.423   3.424
 9090SOL     OW28168   5.824   6.487   4.830
 9090SOL    HW128169   5.823   6.429   4.912
 9090SOL    HW228170   5.830   6.429   4.749
 9091SOL     OW28171   3.046   2.335   0.285
 9091SOL    HW128172   3.084   2.270   0.219
 9091SOL    HW228173   2.954   2.305   0.312
 9092SOL     OW28174   1.549   6.632   5.473
 9092SOL    HW128175   1.528   6.550   5.525
 9092SOL    HW228176   1.629   6.615   5.415
 9093SOL     OW28177   1.629   5.794   0.649
 9093SOL    HW128178   1.673   5.756   0.567
 9093SOL    HW228179   1.593   5.720   0.705
 9094SOL     OW28180   0.221   5.787   2.111
 9094SOL    HW128181   0.197   5.813   2.204
 9094SOL    HW228182   0.307   5.830   2.085
 9095SOL     OW28183   4.891   3.340   6.519
 9095SOL    HW128184   4.835   3.415   6.484
 9095SOL    HW228185   4.845   3.296   6.596
 9096SOL     OW28186   5.789   3.209   3.076
 9096SOL    HW128187   5.701   3.163   3.086
 9096SOL    HW228188   5.857   3.143   3.045
 9097SOL     OW28189   0.648   3.895   0.179
 9097SOL    HW128190   0.675   3.844   0.097
 9097SOL    HW228191   0.673   3.991   0.169
 9098SOL     OW28192   3.835   3.825   2.150
 9098SOL    HW128193   3.783   3.910   2.146
 9098SOL    HW228194   3.880   3.818   2.239
 9099SOL     OW28195   2.791   3.401   0.762
 9099SOL    HW128196   2.704   3.389   0.712
 9099SOL    HW228197   2.867   3.386   0.699
 9100SOL     OW28198   0.682   3.336   1.342
 9100SOL    HW128199   0.779   3.359   1.345
 9100SOL    HW228200   0.631   3.416   1.308
 9101SOL     OW28201   1.529   2.624   2.706
 9101SOL    HW128202   1.496   2.683   2.779
 9101SOL    HW228203   1.554   2.681   2.627
 9102SOL     OW28204   3.818   5.516   2.129
 9102SOL    HW128205   3.884   5.570   2.182
 9102SOL    HW228206   3.821   5.544   2.033
 9103SOL     OW28207   0.021   3.935   1.209
 9103SOL    HW128208   0.015   3.996   1.288
 9103SOL    HW228209   0.089   3.971   1.145
 9104SOL     OW28210   4.300   6.101   1.792
 9104SOL    HW128211   4.262   6.155   1.867
 9104SOL    HW228212   4.399   6.093   1.804
 9105SOL     OW28213   1.616   0.429   6.425
 9105SOL    HW128214   1.626   0.403   6.521
 9105SOL    HW228215   1.646   0.524   6.413
 9106SOL     OW28216   5.954   4.521   0.668
 9106SOL    HW128217   5.895   4.600   0.685
 9106SOL    HW228218   5.944   4.493   0.572
 9107SOL     OW28219   4.020   6.870   6.551
 9107SOL    HW128220   3.935   6.920   6.568
 9107SOL    HW228221   4.040   6.811   6.630
 9108SOL     OW28222   5.026   4.437   5.184
 9108SOL    HW128223   5.007   4.365   5.118
 9108SOL    HW228224   5.081   4.509   5.141
 9109SOL     OW28225   2.552   1.924   3.213
 9109SOL    HW128226   2.651   1.936   3.225
 9109SOL    HW228227   2.531   1.828   3.199
 9110SOL     OW28228   2.613   4.937   3.550
 9110SOL    HW128229   2.610   4.867   3.621
 9110SOL    HW228230   2.705   4.942   3.512
 9111SOL     OW28231   3.560   4.281   1.564
 9111SOL    HW128232   3.622   4.357   1.550
 9111SOL    HW228233   3.606   4.195   1.541
 9112SOL     OW28234   0.842   3.308   3.679
 9112SOL    HW128235   0.861   3.234   3.744
 9112SOL    HW228236   0.768   3.280   3.618
 9113SOL     OW28237   4.916   1.104   0.016
 9113SOL    HW128238   4.913   1.005   0.006
 9113SOL    HW228239   4.958   1.127   0.104
 9114SOL     OW28240   2.476   4.490   2.198
 9114SOL    HW128241   2.506   4.486   2.103
 9114SOL    HW228242   2.510   4.574   2.240
 9115SOL     OW28243   1.061   5.402   4.134
 9115SOL    HW128244   1.073   5.307   4.106
 9115SOL    HW228245   1.147   5.451   4.120
 9116SOL     OW28246   6.761   1.652   6.518
 9116SOL    HW128247   6.792   1.731   6.465
 9116SOL    HW228248   6.840   1.601   6.551
 9117SOL     OW28249   6.387   3.037   6.585
 9117SOL    HW128250   6.409   3.086   6.670
 9117SOL    HW228251   6.376   2.940   6.604
 9118SOL     OW28252   6.456   0.099   1.044
 9118SOL    HW128253   6.498   0.125   1.132
 9118SOL    HW228254   6.489   0.008   1.018
 9119SOL     OW28255   5.772   1.011   1.975
 9119SOL    HW128256   5.749   1.108   1.973
 9119SOL    HW228257   5.699   0.960   2.021
 9120SOL     OW28258   5.752   2.684   6.048
 9120SOL    HW128259   5.725   2.588   6.061
 9120SOL    HW228260   5.712   2.718   5.963
 9121SOL     OW28261   0.451   3.321   5.411
 9121SOL    HW128262   0.442   3.339   5.313
 9121SOL    HW228263   0.482   3.227   5.425
 9122SOL     OW28264   1.823   2.406   2.130
 9122SOL    HW128265   1.733   2.364   2.121
 9122SOL    HW228266   1.861   2.422   2.039
 9123SOL     OW28267   3.353   6.429   5.263
 9123SOL    HW128268   3.425   6.453   5.198
 9123SOL    HW228269   3.313   6.513   5.300
 9124SOL     OW28270   6.061   5.586   5.319
 9124SOL    HW128271   6.000   5.665   5.322
 9124SOL    HW228272   6.155   5.616   5.336
 9125SOL     OW28273   4.647   4.273   3.824
 9125SOL    HW128274   4.573   4.247   3.762
 9125SOL    HW228275   4.697   4.191   3.852
 9126SOL     OW28276   6.128   1.223   2.284
 9126SOL    HW128277   6.031   1.203   2.299
 9126SOL    HW228278   6.136   1.303   2.224
 9127SOL     OW28279   5.937   6.967   5.679
 9127SOL    HW128280   5.917   6.880   5.634
 9127SOL    HW228281   5.989   6.950   5.763
 9128SOL     OW28282   4.070   1.682   5.113
 9128SOL    HW128283   4.104   1.626   5.037
 9128SOL    HW228284   4.134   1.676   5.190
 9129SOL     OW28285   1.933   3.352   0.694
 9129SOL    HW128286   1.869   3.311   0.629
 9129SOL    HW228287   1.999   3.284   0.725
 9130SOL     OW28288   0.176   4.360   6.615
 9130SOL    HW128289   0.169   4.321   6.707
 9130SOL    HW228290   0.265   4.404   6.604
 9131SOL     OW28291   0.453   4.214   5.004
 9131SOL    HW128292   0.359   4.234   5.033
 9131SOL    HW228293   0.476   4.120   5.027
 9132SOL     OW28294   6.896   3.976   3.413
 9132SOL    HW128295   6.942   3.890   3.393
 9132SOL    HW228296   6.858   4.015   3.328
 9133SOL     OW28297   3.080   4.994   0.941
 9133SOL    HW128298   3.036   5.081   0.963
 9133SOL    HW228299   3.152   5.010   0.873
 9134SOL     OW28300   3.366   0.062   0.817
 9134SOL    HW128301   3.338   6.991   0.807
 9134SOL    HW228302   3.435   0.069   0.889
 9135SOL     OW28303   0.109   6.414   2.093
 9135SOL    HW128304   0.067   6.495   2.052
 9135SOL    HW228305   0.038   6.350   2.120
 9136SOL     OW28306   4.648   5.192   5.748
 9136SOL    HW128307   4.744   5.173   5.728
 9136SOL    HW228308   4.621   5.278   5.704
 9137SOL     OW28309   5.549   1.359   0.911
 9137SOL    HW128310   5.633   1.396   0.873
 9137SOL    HW228311   5.562   1.263   0.936
 9138SOL     OW28312   6.628   4.818   5.869
 9138SOL    HW128313   6.689   4.740   5.852
 9138SOL    HW228314   6.662   4.870   5.947
 9139SOL     OW28315   2.435   1.400   4.772
 9139SOL    HW128316   2.447   1.488   4.725
 9139SOL    HW228317   2.371   1.343   4.721
 9140SOL     OW28318   6.699   2.418   2.759
 9140SOL    HW128319   6.644   2.416   2.675
 9140SOL    HW228320   6.787   2.460   2.740
 9141SOL     OW28321   5.622   6.761   6.593
 9141SOL    HW128322   5.538   6.764   6.539
 9141SOL    HW228323   5.681   6.687   6.559
 9142SOL     OW28324   0.275   2.620   5.574
 9142SOL    HW128325   0.233   2.642   5.485
 9142SOL    HW228326   0.366   2.581   5.559
 9143SOL     OW28327   4.777   3.880   7.014
 9143SOL    HW128328   4.824   3.916   0.071
 9143SOL    HW228329   4.843   3.874   6.938
 9144SOL     OW28330   2.066   5.366   6.257
 9144SOL    HW128331   1.971   5.335   6.250
 9144SOL    HW228332   2.096   5.360   6.352
 9145SOL     OW28333   0.128   5.076   0.969
 9145SOL    HW128334   0.128   4.992   1.022
 9145SOL    HW228335   0.115   5.154   1.030
 9146SOL     OW28336   5.047   1.793   1.580
 9146SOL    HW128337   5.118   1.732   1.545
 9146SOL    HW228338   5.051   1.795   1.679
 9147SOL     OW28339   5.631   7.022   4.426
 9147SOL    HW128340   5.724   6.985   4.420
 9147SOL    HW228341   5.572   6.956   4.473
 9148SOL     OW28342   5.630   6.951   1.182
 9148SOL    HW128343   5.726   6.945   1.209
 9148SOL    HW228344   5.592   6.860   1.167
 9149SOL     OW28345   5.104   2.545   4.425
 9149SOL    HW128346   5.105   2.633   4.378
 9149SOL    HW228347   5.193   2.500   4.413
 9150SOL     OW28348   3.839   5.530   3.498
 9150SOL    HW128349   3.740   5.532   3.513
 9150SOL    HW228350   3.858   5.556   3.403
 9151SOL     OW28351   1.331   4.172   3.006
 9151SOL    HW128352   1.320   4.239   3.079
 9151SOL    HW228353   1.250   4.114   3.001
 9152SOL     OW28354   2.484   5.458   4.605
 9152SOL    HW128355   2.470   5.556   4.619
 9152SOL    HW228356   2.563   5.427   4.657
 9153SOL     OW28357   1.589   3.458   0.890
 9153SOL    HW128358   1.592   3.503   0.801
 9153SOL    HW228359   1.517   3.499   0.945
 9154SOL     OW28360   2.783   5.019   6.827
 9154SOL    HW128361   2.799   4.976   6.916
 9154SOL    HW228362   2.870   5.053   6.790
 9155SOL     OW28363   1.961   3.560   0.481
 9155SOL    HW128364   1.927   3.525   0.568
 9155SOL    HW228365   2.049   3.607   0.496
 9156SOL     OW28366   2.911   2.969   0.957
 9156SOL    HW128367   2.893   2.963   0.859
 9156SOL    HW228368   2.969   3.049   0.975
 9157SOL     OW28369   6.284   4.797   5.534
 9157SOL    HW128370   6.317   4.703   5.530
 9157SOL    HW228371   6.316   4.840   5.619
 9158SOL     OW28372   6.349   3.475   4.997
 9158SOL    HW128373   6.269   3.533   5.008
 9158SOL    HW228374   6.332   3.386   5.040
 9159SOL     OW28375   1.117   6.633   3.965
 9159SOL    HW128376   1.166   6.699   4.022
 9159SOL    HW228377   1.154   6.541   3.980
 9160SOL     OW28378   6.406   0.371   5.277
 9160SOL    HW128379   6.418   0.375   5.177
 9160SOL    HW228380   6.463   0.298   5.314
 9161SOL     OW28381   4.771   4.138   4.039
 9161SOL    HW128382   4.809   4.046   4.039
 9161SOL    HW228383   4.840   4.202   4.075
 9162SOL     OW28384   4.806   1.756   3.685
 9162SOL    HW128385   4.794   1.852   3.708
 9162SOL    HW228386   4.738   1.729   3.617
 9163SOL     OW28387   1.997   3.244   3.550
 9163SOL    HW128388   1.927   3.176   3.527
 9163SOL    HW228389   1.957   3.315   3.608
 9164SOL     OW28390   3.106   0.919   6.738
 9164SOL    HW128391   3.153   0.923   6.826
 9164SOL    HW228392   3.091   1.013   6.705
 9165SOL     OW28393   6.429   1.246   5.567
 9165SOL    HW128394   6.335   1.276   5.580
 9165SOL    HW228395   6.437   1.149   5.592
 9166SOL     OW28396   4.920   6.124   0.971
 9166SOL    HW128397   4.825   6.139   0.998
 9166SOL    HW228398   4.981   6.149   1.046
 9167SOL     OW28399   1.757   3.048   6.580
 9167SOL    HW128400   1.800   3.114   6.518
 9167SOL    HW228401   1.782   2.955   6.553
 9168SOL     OW28402   0.777   6.996   5.739
 9168SOL    HW128403   0.690   6.947   5.748
 9168SOL    HW228404   0.786   0.008   5.646
 9169SOL     OW28405   6.885   1.289   4.781
 9169SOL    HW128406   6.890   1.281   4.681
 9169SOL    HW228407   6.975   1.310   4.817
 9170SOL     OW28408   0.607   4.760   0.306
 9170SOL    HW128409   0.707   4.764   0.300
 9170SOL    HW228410   0.572   4.847   0.340
 9171SOL     OW28411   3.032   5.419   0.285
 9171SOL    HW128412   3.045   5.320   0.297
 9171SOL    HW228413   3.066   5.446   0.195
 9172SOL     OW28414   3.052   0.533   4.908
 9172SOL    HW128415   3.053   0.593   4.828
 9172SOL    HW228416   2.978   0.467   4.899
 9173SOL     OW28417   6.331   4.066   4.883
 9173SOL    HW128418   6.278   4.105   4.807
 9173SOL    HW228419   6.314   4.119   4.966
 9174SOL     OW28420   6.508   4.250   1.122
 9174SOL    HW128421   6.410   4.240   1.137
 9174SOL    HW228422   6.524   4.313   1.047
 9175SOL     OW28423   1.618   6.846   4.903
 9175SOL    HW128424   1.644   6.929   4.854
 9175SOL    HW228425   1.647   6.766   4.852
 9176SOL     OW28426   2.811   0.832   5.044
 9176SOL    HW128427   2.843   0.923   5.070
 9176SOL    HW228428   2.860   0.762   5.096
 9177SOL     OW28429   1.666   5.164   4.578
 9177SOL    HW128430   1.694   5.259   4.568
 9177SOL    HW228431   1.574   5.159   4.617
 9178SOL     OW28432   2.014   5.911   0.721
 9178SOL    HW128433   2.073   5.922   0.801
 9178SOL    HW228434   2.071   5.902   0.639
 9179SOL     OW28435   3.560   5.454   3.862
 9179SOL    HW128436   3.521   5.546   3.867
 9179SOL    HW228437   3.627   5.442   3.935
 9180SOL     OW28438   5.596   2.051   3.109
 9180SOL    HW128439   5.541   2.058   3.025
 9180SOL    HW228440   5.601   1.955   3.137
 9181SOL     OW28441   3.963   2.151   3.617
 9181SOL    HW128442   3.865   2.152   3.601
 9181SOL    HW228443   3.994   2.056   3.628
 9182SOL     OW28444   2.328   6.591   2.401
 9182SOL    HW128445   2.299   6.519   2.464
 9182SOL    HW228446   2.427   6.604   2.407
 9183SOL     OW28447   4.778   6.761   0.325
 9183SOL    HW128448   4.814   6.822   0.395
 9183SOL    HW228449   4.815   6.787   0.236
 9184SOL     OW28450   5.272   1.610   6.794
 9184SOL    HW128451   5.249   1.707   6.796
 9184SOL    HW228452   5.348   1.593   6.857
 9185SOL     OW28453   4.433   6.367   5.090
 9185SOL    HW128454   4.441   6.444   5.153
 9185SOL    HW228455   4.360   6.306   5.121
 9186SOL     OW28456   5.969   0.396   3.858
 9186SOL    HW128457   6.044   0.419   3.920
 9186SOL    HW228458   5.959   0.468   3.789
 9187SOL     OW28459   2.738   0.980   1.229
 9187SOL    HW128460   2.833   0.969   1.258
 9187SOL    HW228461   2.696   1.056   1.279
 9188SOL     OW28462   2.343   6.623   2.128
 9188SOL    HW128463   2.291   6.549   2.086
 9188SOL    HW228464   2.326   6.625   2.227
 9189SOL     OW28465   5.799   6.113   1.584
 9189SOL    HW128466   5.813   6.076   1.492
 9189SOL    HW228467   5.799   6.213   1.580
 9190SOL     OW28468   1.778   4.933   0.120
 9190SOL    HW128469   1.828   4.876   0.185
 9190SOL    HW228470   1.796   5.029   0.138
 9191SOL     OW28471   5.652   0.662   5.897
 9191SOL    HW128472   5.569   0.717   5.891
 9191SOL    HW228473   5.727   0.718   5.932
 9192SOL     OW28474   0.587   4.255   5.854
 9192SOL    HW128475   0.635   4.244   5.941
 9192SOL    HW228476   0.568   4.352   5.838
 9193SOL     OW28477   4.767   4.958   0.673
 9193SOL    HW128478   4.706   4.975   0.595
 9193SOL    HW228479   4.825   4.880   0.653
 9194SOL     OW28480   2.760   0.368   3.115
 9194SOL    HW128481   2.749   0.367   3.015
 9194SOL    HW228482   2.824   0.440   3.140
 9195SOL     OW28483   1.774   2.403   4.407
 9195SOL    HW128484   1.817   2.315   4.386
 9195SOL    HW228485   1.711   2.428   4.333
 9196SOL     OW28486   4.362   0.460   4.089
 9196SOL    HW128487   4.308   0.456   4.173
 9196SOL    HW228488   4.377   0.367   4.054
 9197SOL     OW28489   2.149   4.604   1.668
 9197SOL    HW128490   2.051   4.610   1.688
 9197SOL    HW228491   2.174   4.507   1.657
 9198SOL     OW28492   6.535   4.776   6.201
 9198SOL    HW128493   6.462   4.764   6.134
 9198SOL    HW228494   6.591   4.693   6.204
 9199SOL     OW28495   1.378   3.674   6.057
 9199SOL    HW128496   1.348   3.597   6.000
 9199SOL    HW228497   1.449   3.725   6.009
 9200SOL     OW28498   2.547   0.254   0.593
 9200SOL    HW128499   2.638   0.218   0.615
 9200SOL    HW228500   2.510   0.302   0.672
 9201SOL     OW28501   0.548   2.713   0.660
 9201SOL    HW128502   0.511   2.650   0.728
 9201SOL    HW228503   0.474   2.772   0.626
 9202SOL     OW28504   1.534   6.486   3.000
 9202SOL    HW128505   1.584   6.498   3.086
 9202SOL    HW228506   1.482   6.569   2.981
 9203SOL     OW28507   0.532   4.972   0.089
 9203SOL    HW128508   0.466   4.971   0.163
 9203SOL    HW228509   0.565   4.879   0.071
 9204SOL     OW28510   4.068   2.657   0.021
 9204SOL    HW128511   4.050   2.599   0.101
 9204SOL    HW228512   4.150   2.626   6.999
 9205SOL     OW28513   5.729   4.875   2.463
 9205SOL    HW128514   5.698   4.861   2.557
 9205SOL    HW228515   5.741   4.973   2.446
 9206SOL     OW28516   4.091   5.350   1.824
 9206SOL    HW128517   4.019   5.326   1.759
 9206SOL    HW228518   4.056   5.340   1.917
 9207SOL     OW28519   4.367   4.882   6.849
 9207SOL    HW128520   4.449   4.829   6.873
 9207SOL    HW228521   4.340   4.861   6.755
 9208SOL     OW28522   5.863   3.937   4.062
 9208SOL    HW128523   5.824   4.018   4.019
 9208SOL    HW228524   5.961   3.934   4.044
 9209SOL     OW28525   2.848   0.832   0.006
 9209SOL    HW128526   2.887   0.909   0.056
 9209SOL    HW228527   2.751   0.823   0.029
 9210SOL     OW28528   6.527   1.038   3.127
 9210SOL    HW128529   6.483   1.103   3.065
 9210SOL    HW228530   6.477   1.037   3.214
 9211SOL     OW28531   6.235   3.223   4.703
 9211SOL    HW128532   6.231   3.130   4.667
 9211SOL    HW228533   6.220   3.221   4.802
 9212SOL     OW28534   4.108   5.201   4.251
 9212SOL    HW128535   4.208   5.207   4.253
 9212SOL    HW228536   4.076   5.157   4.335
 9213SOL     OW28537   5.239   3.702   6.113
 9213SOL    HW128538   5.219   3.749   6.199
 9213SOL    HW228539   5.309   3.632   6.129
 9214SOL     OW28540   0.237   5.666   5.815
 9214SOL    HW128541   0.311   5.681   5.881
 9214SOL    HW228542   0.151   5.651   5.864
 9215SOL     OW28543   1.533   2.385   0.070
 9215SOL    HW128544   1.544   2.297   0.117
 9215SOL    HW228545   1.614   2.403   0.014
 9216SOL     OW28546   2.668   0.369   2.836
 9216SOL    HW128547   2.599   0.432   2.801
 9216SOL    HW228548   2.721   0.332   2.759
 9217SOL     OW28549   0.678   0.970   6.451
 9217SOL    HW128550   0.750   1.019   6.403
 9217SOL    HW228551   0.589   0.996   6.413
 9218SOL     OW28552   3.452   6.416   0.785
 9218SOL    HW128553   3.361   6.454   0.800
 9218SOL    HW228554   3.493   6.393   0.874
 9219SOL     OW28555   0.028   2.666   0.970
 9219SOL    HW128556   0.048   2.637   0.876
 9219SOL    HW228557   0.024   2.586   1.030
 9220SOL     OW28558   2.177   6.780   0.900
 9220SOL    HW128559   2.224   6.856   0.855
 9220SOL    HW228560   2.079   6.786   0.880
 9221SOL     OW28561   2.982   0.919   4.233
 9221SOL    HW128562   2.974   0.992   4.301
 9221SOL    HW228563   2.891   0.884   4.210
 9222SOL     OW28564   2.229   0.152   6.477
 9222SOL    HW128565   2.238   0.251   6.460
 9222SOL    HW228566   2.300   0.123   6.541
 9223SOL     OW28567   1.572   1.980   4.228
 9223SOL    HW128568   1.643   1.938   4.171
 9223SOL    HW228569   1.486   1.982   4.178
 9224SOL     OW28570   2.697   5.222   5.102
 9224SOL    HW128571   2.603   5.187   5.095
 9224SOL    HW228572   2.727   5.217   5.197
 9225SOL     OW28573   3.964   6.984   6.025
 9225SOL    HW128574   3.944   0.025   6.097
 9225SOL    HW228575   3.955   6.891   6.061
 9226SOL     OW28576   5.559   0.091   2.056
 9226SOL    HW128577   5.493   0.049   2.120
 9226SOL    HW228578   5.651   0.079   2.092
 9227SOL     OW28579   0.939   5.236   1.384
 9227SOL    HW128580   1.009   5.300   1.415
 9227SOL    HW228581   0.882   5.280   1.315
 9228SOL     OW28582   1.853   0.841   6.000
 9228SOL    HW128583   1.947   0.834   6.033
 9228SOL    HW228584   1.817   0.750   5.982
 9229SOL     OW28585   1.328   5.635   4.786
 9229SOL    HW128586   1.426   5.649   4.773
 9229SOL    HW228587   1.277   5.714   4.751
 9230SOL     OW28588   5.808   0.876   3.292
 9230SOL    HW128589   5.883   0.810   3.292
 9230SOL    HW228590   5.820   0.941   3.216
 9231SOL     OW28591   1.428   4.905   4.488
 9231SOL    HW128592   1.407   4.899   4.391
 9231SOL    HW228593   1.392   4.990   4.525
 9232SOL     OW28594   3.212   5.218   0.588
 9232SOL    HW128595   3.211   5.175   0.498
 9232SOL    HW228596   3.263   5.305   0.583
 9233SOL     OW28597   5.233   5.597   1.513
 9233SOL    HW128598   5.292   5.673   1.485
 9233SOL    HW228599   5.288   5.515   1.524
 9234SOL     OW28600   3.844   5.383   5.088
 9234SOL    HW128601   3.925   5.359   5.036
 9234SOL    HW228602   3.772   5.416   5.026
 9235SOL     OW28603   1.462   2.611   3.887
 9235SOL    HW128604   1.414   2.663   3.816
 9235SOL    HW228605   1.452   2.657   3.975
 9236SOL     OW28606   2.731   4.168   5.669
 9236SOL    HW128607   2.693   4.109   5.598
 9236SOL    HW228608   2.799   4.228   5.629
 9237SOL     OW28609   2.325   4.945   5.120
 9237SOL    HW128610   2.402   4.917   5.178
 9237SOL    HW228611   2.305   4.872   5.054
 9238SOL     OW28612   4.214   1.612   6.238
 9238SOL    HW128613   4.138   1.670   6.268
 9238SOL    HW228614   4.216   1.528   6.292
 9239SOL     OW28615   0.652   3.855   1.334
 9239SOL    HW128616   0.607   3.807   1.410
 9239SOL    HW228617   0.700   3.789   1.277
 9240SOL     OW28618   5.481   1.758   0.650
 9240SOL    HW128619   5.439   1.738   0.738
 9240SOL    HW228620   5.413   1.797   0.588
 9241SOL     OW28621   0.852   5.509   6.351
 9241SOL    HW128622   0.927   5.561   6.311
 9241SOL    HW228623   0.872   5.411   6.345
 9242SOL     OW28624   6.705   5.564   0.922
 9242SOL    HW128625   6.610   5.545   0.896
 9242SOL    HW228626   6.735   5.497   0.989
 9243SOL     OW28627   5.776   6.077   2.705
 9243SOL    HW128628   5.735   6.108   2.791
 9243SOL    HW228629   5.874   6.062   2.718
 9244SOL     OW28630   4.655   5.536   6.025
 9244SOL    HW128631   4.608   5.456   5.989
 9244SOL    HW228632   4.588   5.606   6.048
 9245SOL     OW28633   1.364   5.618   3.143
 9245SOL    HW128634   1.309   5.634   3.061
 9245SOL    HW228635   1.452   5.578   3.118
 9246SOL     OW28636   0.034   4.788   3.113
 9246SOL    HW128637   0.067   4.787   3.207
 9246SOL    HW228638   0.100   4.838   3.056
 9247SOL     OW28639   0.970   0.104   3.338
 9247SOL    HW128640   1.063   0.067   3.341
 9247SOL    HW228641   0.915   0.050   3.275
 9248SOL     OW28642   1.969   2.822   6.223
 9248SOL    HW128643   1.987   2.828   6.321
 9248SOL    HW228644   1.895   2.757   6.206
 9249SOL     OW28645   5.396   3.296   6.339
 9249SOL    HW128646   5.426   3.206   6.306
 9249SOL    HW228647   5.296   3.298   6.345
 9250SOL     OW28648   5.200   3.347   5.015
 9250SOL    HW128649   5.105   3.365   4.992
 9250SOL    HW228650   5.231   3.265   4.965
 9251SOL     OW28651   3.629   2.090   3.199
 9251SOL    HW128652   3.607   2.013   3.259
 9251SOL    HW228653   3.724   2.119   3.215
 9252SOL     OW28654   6.313   0.048   4.248
 9252SOL    HW128655   6.382   0.059   4.319
 9252SOL    HW228656   6.358   0.025   4.162
 9253SOL     OW28657   4.689   5.831   5.874
 9253SOL    HW128658   4.634   5.815   5.956
 9253SOL    HW228659   4.708   5.743   5.830
 9254SOL     OW28660   6.188   4.502   1.684
 9254SOL    HW128661   6.215   4.598   1.685
 9254SOL    HW228662   6.176   4.471   1.590
 9255SOL     OW28663   5.566   2.804   0.339
 9255SOL    HW128664   5.474   2.830   0.370
 9255SOL    HW228665   5.615   2.885   0.307
 9256SOL     OW28666   3.927   4.890   3.065
 9256SOL    HW128667   3.868   4.809   3.064
 9256SOL    HW228668   3.870   4.972   3.072
 9257SOL     OW28669   0.785   3.609   2.832
 9257SOL    HW128670   0.864   3.556   2.800
 9257SOL    HW228671   0.772   3.688   2.773
 9258SOL     OW28672   4.145   3.321   4.103
 9258SOL    HW128673   4.240   3.293   4.105
 9258SOL    HW228674   4.111   3.330   4.197
 9259SOL     OW28675   1.784   2.249   0.941
 9259SOL    HW128676   1.841   2.322   0.903
 9259SOL    HW228677   1.841   2.175   0.975
 9260SOL     OW28678   5.056   1.529   5.672
 9260SOL    HW128679   5.027   1.440   5.706
 9260SOL    HW228680   5.057   1.528   5.572
 9261SOL     OW28681   4.828   0.618   6.545
 9261SOL    HW128682   4.863   0.665   6.464
 9261SOL    HW228683   4.757   0.553   6.518
 9262SOL     OW28684   6.264   3.171   5.502
 9262SOL    HW128685   6.240   3.267   5.515
 9262SOL    HW228686   6.303   3.159   5.410
 9263SOL     OW28687   6.223   3.765   1.064
 9263SOL    HW128688   6.303   3.806   1.107
 9263SOL    HW228689   6.165   3.836   1.025
 9264SOL     OW28690   5.482   4.094   0.347
 9264SOL    HW128691   5.457   4.072   0.253
 9264SOL    HW228692   5.576   4.065   0.365
 9265SOL     OW28693   3.447   1.766   0.386
 9265SOL    HW128694   3.539   1.757   0.425
 9265SOL    HW228695   3.401   1.678   0.392
 9266SOL     OW28696   1.838   5.976   1.962
 9266SOL    HW128697   1.746   6.003   1.936
 9266SOL    HW228698   1.833   5.899   2.025
 9267SOL     OW28699   6.727   4.084   5.670
 9267SOL    HW128700   6.645   4.044   5.630
 9267SOL    HW228701   6.706   4.175   5.705
 9268SOL     OW28702   1.022   5.929   1.240
 9268SOL    HW128703   1.002   5.957   1.334
 9268SOL    HW228704   1.109   5.880   1.238
 9269SOL     OW28705   3.354   2.735   6.362
 9269SOL    HW128706   3.391   2.800   6.296
 9269SOL    HW228707   3.414   2.730   6.442
 9270SOL     OW28708   5.110   0.145   5.628
 9270SOL    HW128709   5.102   0.107   5.536
 9270SOL    HW228710   5.112   0.245   5.622
 9271SOL     OW28711   1.702   5.679   6.911
 9271SOL    HW128712   1.693   5.777   6.926
 9271SOL    HW228713   1.716   5.661   6.814
 9272SOL     OW28714   3.310   5.111   5.701
 9272SOL    HW128715   3.238   5.046   5.723
 9272SOL    HW228716   3.278   5.204   5.718
 9273SOL     OW28717   5.206   5.877   3.785
 9273SOL    HW128718   5.220   5.802   3.720
 9273SOL    HW228719   5.280   5.943   3.776
 9274SOL     OW28720   6.549   2.650   0.115
 9274SOL    HW128721   6.489   2.592   0.061
 9274SOL    HW228722   6.498   2.691   0.190
 9275SOL     OW28723   0.408   1.617   7.006
 9275SOL    HW128724   0.507   1.633   7.002
 9275SOL    HW228725   0.361   1.705   7.018
 9276SOL     OW28726   2.795   4.817   4.061
 9276SOL    HW128727   2.764   4.726   4.088
 9276SOL    HW228728   2.721   4.865   4.014
 9277SOL     OW28729   3.920   3.500   0.390
 9277SOL    HW128730   4.015   3.471   0.386
 9277SOL    HW228731   3.897   3.525   0.484
 9278SOL     OW28732   1.735   1.253   4.133
 9278SOL    HW128733   1.763   1.172   4.082
 9278SOL    HW228734   1.700   1.322   4.069
 9279SOL     OW28735   4.518   0.391   1.692
 9279SOL    HW128736   4.478   0.320   1.633
 9279SOL    HW228737   4.449   0.460   1.712
 9280SOL     OW28738   1.843   0.232   3.501
 9280SOL    HW128739   1.887   0.311   3.545
 9280SOL    HW228740   1.871   0.227   3.405
 9281SOL     OW28741   3.357   3.851   1.187
 9281SOL    HW128742   3.288   3.918   1.216
 9281SOL    HW228743   3.319   3.759   1.195
 9282SOL     OW28744   4.291   2.183   4.471
 9282SOL    HW128745   4.238   2.165   4.554
 9282SOL    HW228746   4.307   2.282   4.463
 9283SOL     OW28747   5.818   0.723   2.823
 9283SOL    HW128748   5.798   0.715   2.920
 9283SOL    HW228749   5.736   0.697   2.770
 9284SOL     OW28750   3.696   5.236   6.695
 9284SOL    HW128751   3.685   5.213   6.792
 9284SOL    HW228752   3.687   5.334   6.683
 9285SOL     OW28753   4.972   3.326   0.345
 9285SOL    HW128754   4.918   3.383   0.284
 9285SOL    HW228755   5.034   3.383   0.398
 9286SOL     OW28756   5.143   0.410   5.634
 9286SOL    HW128757   5.102   0.495   5.602
 9286SOL    HW228758   5.211   0.430   5.704
 9287SOL     OW28759   2.955   5.884   0.567
 9287SOL    HW128760   2.902   5.913   0.646
 9287SOL    HW228761   2.934   5.788   0.546
 9288SOL     OW28762   2.692   1.712   5.245
 9288SOL    HW128763   2.662   1.793   5.194
 9288SOL    HW228764   2.785   1.689   5.218
 9289SOL     OW28765   3.675   1.875   2.200
 9289SOL    HW128766   3.730   1.795   2.175
 9289SOL    HW228767   3.598   1.846   2.256
 9290SOL     OW28768   4.710   2.028   4.060
 9290SOL    HW128769   4.647   2.096   4.097
 9290SOL    HW228770   4.766   1.990   4.135
 9291SOL     OW28771   2.588   0.207   4.843
 9291SOL    HW128772   2.530   0.135   4.804
 9291SOL    HW228773   2.556   0.297   4.812
 9292SOL     OW28774   6.724   3.409   6.378
 9292SOL    HW128775   6.666   3.457   6.443
 9292SOL    HW228776   6.818   3.441   6.387
 9293SOL     OW28777   6.407   3.914   1.211
 9293SOL    HW128778   6.378   3.985   1.274
 9293SOL    HW228779   6.492   3.873   1.242
 9294SOL     OW28780   3.360   6.232   5.867
 9294SOL    HW128781   3.275   6.283   5.885
 9294SOL    HW228782   3.438   6.290   5.888
 9295SOL     OW28783   5.128   1.960   3.751
 9295SOL    HW128784   5.202   1.979   3.816
 9295SOL    HW228785   5.109   1.862   3.750
 9296SOL     OW28786   0.186   5.962   6.632
 9296SOL    HW128787   0.126   5.884   6.644
 9296SOL    HW228788   0.280   5.937   6.657
 9297SOL     OW28789   6.863   0.642   1.032
 9297SOL    HW128790   6.892   0.547   1.029
 9297SOL    HW228791   6.879   0.685   0.943
 9298SOL     OW28792   2.136   6.812   5.550
 9298SOL    HW128793   2.122   6.895   5.495
 9298SOL    HW228794   2.165   6.737   5.490
 9299SOL     OW28795   0.745   2.475   4.391
 9299SOL    HW128796   0.732   2.447   4.486
 9299SOL    HW228797   0.660   2.463   4.340
 9300SOL     OW28798   0.339   4.784   4.752
 9300SOL    HW128799   0.260   4.844   4.764
 9300SOL    HW228800   0.309   4.697   4.712
 9301SOL     OW28801   4.765   4.497   3.713
 9301SOL    HW128802   4.722   4.426   3.769
 9301SOL    HW228803   4.753   4.474   3.616
 9302SOL     OW28804   2.117   3.238   4.290
 9302SOL    HW128805   2.115   3.209   4.386
 9302SOL    HW228806   2.098   3.336   4.284
 9303SOL     OW28807   3.824   6.107   0.887
 9303SOL    HW128808   3.870   6.195   0.881
 9303SOL    HW228809   3.737   6.110   0.837
 9304SOL     OW28810   4.233   4.025   1.101
 9304SOL    HW128811   4.142   4.054   1.128
 9304SOL    HW228812   4.227   3.963   1.023
 9305SOL     OW28813   3.932   1.619   1.745
 9305SOL    HW128814   4.006   1.672   1.702
 9305SOL    HW228815   3.905   1.545   1.683
 9306SOL     OW28816   0.516   4.786   4.973
 9306SOL    HW128817   0.450   4.806   4.901
 9306SOL    HW228818   0.552   4.693   4.961
 9307SOL     OW28819   1.578   3.498   1.624
 9307SOL    HW128820   1.544   3.504   1.530
 9307SOL    HW228821   1.573   3.588   1.667
 9308SOL     OW28822   1.033   3.964   1.046
 9308SOL    HW128823   1.006   3.901   0.973
 9308SOL    HW228824   1.128   3.949   1.071
 9309SOL     OW28825   3.484   5.105   5.443
 9309SOL    HW128826   3.502   5.010   5.415
 9309SOL    HW228827   3.402   5.107   5.501
 9310SOL     OW28828   4.495   5.897   6.273
 9310SOL    HW128829   4.509   5.818   6.332
 9310SOL    HW228830   4.579   5.917   6.223
 9311SOL     OW28831   6.017   4.862   1.696
 9311SOL    HW128832   6.088   4.883   1.629
 9311SOL    HW228833   6.053   4.799   1.765
 9312SOL     OW28834   1.565   4.185   1.560
 9312SOL    HW128835   1.505   4.233   1.496
 9312SOL    HW228836   1.622   4.120   1.510
 9313SOL     OW28837   0.539   0.842   1.073
 9313SOL    HW128838   0.498   0.853   0.983
 9313SOL    HW228839   0.634   0.875   1.071
 9314SOL     OW28840   3.871   5.309   5.903
 9314SOL    HW128841   3.851   5.237   5.970
 9314SOL    HW228842   3.787   5.332   5.854
 9315SOL     OW28843   6.555   0.779   5.166
 9315SOL    HW128844   6.630   0.744   5.222
 9315SOL    HW228845   6.468   0.763   5.213
 9316SOL     OW28846   4.068   5.142   5.305
 9316SOL    HW128847   4.083   5.159   5.402
 9316SOL    HW228848   3.972   5.157   5.283
 9317SOL     OW28849   6.628   5.642   3.163
 9317SOL    HW128850   6.586   5.701   3.232
 9317SOL    HW228851   6.573   5.645   3.079
 9318SOL     OW28852   6.599   1.103   5.004
 9318SOL    HW128853   6.513   1.105   5.056
 9318SOL    HW228854   6.608   1.187   4.951
 9319SOL     OW28855   0.424   2.751   5.776
 9319SOL    HW128856   0.399   2.688   5.703
 9319SOL    HW228857   0.513   2.792   5.756
 9320SOL     OW28858   4.737   1.755   6.680
 9320SOL    HW128859   4.759   1.815   6.603
 9320SOL    HW228860   4.639   1.734   6.679
 9321SOL     OW28861   6.180   6.880   2.606
 9321SOL    HW128862   6.234   6.901   2.524
 9321SOL    HW228863   6.134   6.963   2.638
 9322SOL     OW28864   0.020   6.033   6.298
 9322SOL    HW128865   6.970   5.988   6.347
 9322SOL    HW228866   0.090   6.062   6.363
 9323SOL     OW28867   2.068   0.231   5.537
 9323SOL    HW128868   2.106   0.324   5.546
 9323SOL    HW228869   1.969   0.236   5.533
 9324SOL     OW28870   1.716   5.325   0.471
 9324SOL    HW128871   1.662   5.348   0.552
 9324SOL    HW228872   1.654   5.296   0.398
 9325SOL     OW28873   5.435   1.892   6.860
 9325SOL    HW128874   5.335   1.896   6.860
 9325SOL    HW228875   5.466   1.821   6.922
 9326SOL     OW28876   2.259   0.002   0.771
 9326SOL    HW128877   2.231   0.084   0.721
 9326SOL    HW228878   2.282   0.027   0.866
 9327SOL     OW28879   4.867   6.526   2.537
 9327SOL    HW128880   4.768   6.534   2.531
 9327SOL    HW228881   4.891   6.472   2.618
 9328SOL     OW28882   3.609   1.035   6.412
 9328SOL    HW128883   3.563   0.947   6.411
 9328SOL    HW228884   3.660   1.047   6.327
 9329SOL     OW28885   0.088   4.026   2.243
 9329SOL    HW128886   0.118   3.968   2.167
 9329SOL    HW228887   0.164   4.084   2.273
 9330SOL     OW28888   0.399   5.987   6.950
 9330SOL    HW128889   0.436   6.019   0.013
 9330SOL    HW228890   0.365   6.066   6.898
 9331SOL     OW28891   1.284   1.467   5.951
 9331SOL    HW128892   1.298   1.416   6.036
 9331SOL    HW228893   1.214   1.421   5.896
 9332SOL     OW28894   3.683   3.979   2.897
 9332SOL    HW128895   3.642   3.888   2.902
 9332SOL    HW228896   3.724   4.002   2.985
 9333SOL     OW28897   4.656   3.930   1.457
 9333SOL    HW128898   4.716   4.010   1.449
 9333SOL    HW228899   4.612   3.931   1.547
 9334SOL     OW28900   4.022   7.004   4.066
 9334SOL    HW128901   4.059   0.064   4.103
 9334SOL    HW228902   4.095   6.936   4.058
 9335SOL     OW28903   1.020   1.001   6.239
 9335SOL    HW128904   1.081   0.924   6.220
 9335SOL    HW228905   1.038   1.037   6.330
 9336SOL     OW28906   3.541   5.698   6.513
 9336SOL    HW128907   3.576   5.780   6.558
 9336SOL    HW228908   3.533   5.714   6.415
 9337SOL     OW28909   4.954   0.687   3.339
 9337SOL    HW128910   5.044   0.728   3.357
 9337SOL    HW228911   4.882   0.749   3.371
 9338SOL     OW28912   4.346   0.883   1.939
 9338SOL    HW128913   4.252   0.856   1.918
 9338SOL    HW228914   4.385   0.931   1.860
 9339SOL     OW28915   5.381   6.821   0.765
 9339SOL    HW128916   5.435   6.905   0.761
 9339SOL    HW228917   5.311   6.823   0.694
 9340SOL     OW28918   5.115   3.587   5.106
 9340SOL    HW128919   5.019   3.574   5.081
 9340SOL    HW228920   5.167   3.504   5.085
 9341SOL     OW28921   0.523   5.461   6.392
 9341SOL    HW128922   0.488   5.553   6.410
 9341SOL    HW228923   0.506   5.403   6.471
 9342SOL     OW28924   2.356   0.894   4.059
 9342SOL    HW128925   2.408   0.963   4.010
 9342SOL    HW228926   2.417   0.823   4.094
 9343SOL     OW28927   6.093   4.619   3.310
 9343SOL    HW128928   6.066   4.557   3.383
 9343SOL    HW228929   6.100   4.569   3.224
 9344SOL     OW28930   4.496   5.731   1.571
 9344SOL    HW128931   4.468   5.823   1.545
 9344SOL    HW228932   4.595   5.721   1.558
 9345SOL     OW28933   6.326   3.872   1.761
 9345SOL    HW128934   6.281   3.803   1.817
 9345SOL    HW228935   6.413   3.899   1.803
 9346SOL     OW28936   6.281   1.060   1.131
 9346SOL    HW128937   6.234   1.087   1.048
 9346SOL    HW228938   6.254   0.967   1.156
 9347SOL     OW28939   1.277   5.418   0.902
 9347SOL    HW128940   1.269   5.319   0.901
 9347SOL    HW228941   1.266   5.452   0.995
 9348SOL     OW28942   4.152   5.466   1.360
 9348SOL    HW128943   4.067   5.416   1.345
 9348SOL    HW228944   4.152   5.549   1.304
 9349SOL     OW28945   0.585   0.110   2.468
 9349SOL    HW128946   0.533   0.025   2.475
 9349SOL    HW228947   0.633   0.113   2.380
 9350SOL     OW28948   0.503   3.066   5.337
 9350SOL    HW128949   0.595   3.028   5.350
 9350SOL    HW228950   0.468   3.036   5.248
 9351SOL     OW28951   3.288   1.123   6.247
 9351SOL    HW128952   3.212   1.129   6.182
 9351SOL    HW228953   3.362   1.068   6.208
 9352SOL     OW28954   2.801   3.675   0.503
 9352SOL    HW128955   2.841   3.592   0.543
 9352SOL    HW228956   2.804   3.749   0.571
 9353SOL     OW28957   0.908   5.442   1.633
 9353SOL    HW128958   1.000   5.433   1.671
 9353SOL    HW228959   0.852   5.499   1.694
 9354SOL     OW28960   6.746   2.267   6.609
 9354SOL    HW128961   6.719   2.221   6.525
 9354SOL    HW228962   6.840   2.300   6.600
 9355SOL     OW28963   0.650   2.625   5.145
 9355SOL    HW128964   0.573   2.579   5.189
 9355SOL    HW228965   0.693   2.687   5.210
 9356SOL     OW28966   3.666   0.212   1.476
 9356SOL    HW128967   3.721   0.235   1.557
 9356SOL    HW228968   3.623   0.296   1.441
 9357SOL     OW28969   1.131   3.239   6.069
 9357SOL    HW128970   1.206   3.178   6.093
 9357SOL    HW228971   1.047   3.185   6.058
 9358SOL     OW28972   0.791   4.001   2.188
 9358SOL    HW128973   0.815   4.030   2.096
 9358SOL    HW228974   0.791   3.901   2.193
 9359SOL     OW28975   1.883   5.344   6.500
 9359SOL    HW128976   1.906   5.257   6.456
 9359SOL    HW228977   1.856   5.327   6.595
 9360SOL     OW28978   1.515   6.338   6.504
 9360SOL    HW128979   1.446   6.289   6.557
 9360SOL    HW228980   1.484   6.432   6.488
 9361SOL     OW28981   2.098   5.623   3.256
 9361SOL    HW128982   2.132   5.681   3.182
 9361SOL    HW228983   2.166   5.617   3.329
 9362SOL     OW28984   1.527   1.680   2.349
 9362SOL    HW128985   1.440   1.633   2.339
 9362SOL    HW228986   1.532   1.723   2.439
 9363SOL     OW28987   3.423   5.260   1.635
 9363SOL    HW128988   3.383   5.266   1.543
 9363SOL    HW228989   3.356   5.220   1.698
 9364SOL     OW28990   2.528   2.903   1.743
 9364SOL    HW128991   2.504   2.818   1.789
 9364SOL    HW228992   2.460   2.922   1.672
 9365SOL     OW28993   2.936   1.918   4.470
 9365SOL    HW128994   2.841   1.909   4.498
 9365SOL    HW228995   2.994   1.924   4.551
 9366SOL     OW28996   3.069   5.948   0.293
 9366SOL    HW128997   3.013   5.880   0.246
 9366SOL    HW228998   3.104   5.908   0.378
 9367SOL     OW28999   5.616   0.751   1.207
 9367SOL    HW129000   5.591   0.659   1.176
 9367SOL    HW229001   5.709   0.772   1.178
 9368SOL     OW29002   3.880   6.962   2.436
 9368SOL    HW129003   3.969   7.007   2.433
 9368SOL    HW229004   3.808   0.005   2.451
 9369SOL     OW29005   0.459   5.827   5.052
 9369SOL    HW129006   0.516   5.836   5.134
 9369SOL    HW229007   0.399   5.907   5.045
 9370SOL     OW29008   4.884   1.108   3.470
 9370SOL    HW129009   4.876   1.203   3.500
 9370SOL    HW229010   4.976   1.075   3.488
 9371SOL     OW29011   3.458   5.341   1.316
 9371SOL    HW129012   3.415   5.255   1.289
 9371SOL    HW229013   3.477   5.396   1.234
 9372SOL     OW29014   4.425   0.165   1.527
 9372SOL    HW129015   4.387   0.113   1.450
 9372SOL    HW229016   4.393   0.125   1.613
 9373SOL     OW29017   6.421   2.782   0.310
 9373SOL    HW129018   6.495   2.782   0.377
 9373SOL    HW229019   6.358   2.707   0.330
 9374SOL     OW29020   0.548   4.085   5.646
 9374SOL    HW129021   0.570   4.117   5.738
 9374SOL    HW229022   0.475   4.141   5.607
 9375SOL     OW29023   6.950   1.922   0.222
 9375SOL    HW129024   6.856   1.956   0.225
 9375SOL    HW229025   7.009   1.991   0.181
 9376SOL     OW29026   2.092   3.521   2.253
 9376SOL    HW129027   2.135   3.510   2.163
 9376SOL    HW229028   2.089   3.618   2.277
 9377SOL     OW29029   2.740   5.030   2.700
 9377SOL    HW129030   2.673   5.060   2.768
 9377SOL    HW229031   2.759   4.933   2.712
 9378SOL     OW29032   3.549   0.948   3.730
 9378SOL    HW129033   3.571   1.026   3.670
 9378SOL    HW229034   3.624   0.936   3.795
 9379SOL     OW29035   4.524   6.533   4.676
 9379SOL    HW129036   4.596   6.596   4.648
 9379SOL    HW229037   4.562   6.441   4.688
 9380SOL     OW29038   3.620   5.417   5.779
 9380SOL    HW129039   3.664   5.482   5.716
 9380SOL    HW229040   3.565   5.467   5.845
 9381SOL     OW29041   4.837   1.793   4.540
 9381SOL    HW129042   4.830   1.832   4.631
 9381SOL    HW229043   4.786   1.850   4.475
 9382SOL     OW29044   3.689   0.717   4.043
 9382SOL    HW129045   3.713   0.669   4.127
 9382SOL    HW229046   3.734   0.672   3.965
 9383SOL     OW29047   4.940   3.970   3.537
 9383SOL    HW129048   4.960   3.872   3.537
 9383SOL    HW229049   4.932   4.002   3.442
 9384SOL     OW29050   2.043   6.760   2.133
 9384SOL    HW129051   2.135   6.719   2.130
 9384SOL    HW229052   2.006   6.766   2.040
 9385SOL     OW29053   3.920   1.339   4.120
 9385SOL    HW129054   3.867   1.254   4.133
 9385SOL    HW229055   4.015   1.316   4.103
 9386SOL     OW29056   3.741   6.154   5.275
 9386SOL    HW129057   3.686   6.138   5.193
 9386SOL    HW229058   3.742   6.071   5.331
 9387SOL     OW29059   3.995   2.123   0.300
 9387SOL    HW129060   4.014   2.116   0.203
 9387SOL    HW229061   3.924   2.057   0.325
 9388SOL     OW29062   1.885   0.123   4.177
 9388SOL    HW129063   1.786   0.123   4.191
 9388SOL    HW229064   1.915   0.032   4.148
 9389SOL     OW29065   3.477   5.285   2.620
 9389SOL    HW129066   3.408   5.357   2.618
 9389SOL    HW229067   3.478   5.237   2.532
 9390SOL     OW29068   5.200   4.612   5.416
 9390SOL    HW129069   5.243   4.555   5.346
 9390SOL    HW229070   5.268   4.637   5.485
 9391SOL     OW29071   1.066   6.728   4.927
 9391SOL    HW129072   1.015   6.743   5.012
 9391SOL    HW229073   1.011   6.674   4.864
 9392SOL     OW29074   5.155   4.309   3.595
 9392SOL    HW129075   5.102   4.289   3.513
 9392SOL    HW229076   5.094   4.343   3.667
 9393SOL     OW29077   3.198   6.344   6.267
 9393SOL    HW129078   3.142   6.264   6.290
 9393SOL    HW229079   3.290   6.314   6.241
 9394SOL     OW29080   5.825   0.550   1.382
 9394SOL    HW129081   5.859   0.577   1.292
 9394SOL    HW229082   5.871   0.603   1.453
 9395SOL     OW29083   3.114   1.697   0.668
 9395SOL    HW129084   3.187   1.762   0.685
 9395SOL    HW229085   3.030   1.746   0.646
 9396SOL     OW29086   1.706   6.152   6.503
 9396SOL    HW129087   1.642   6.229   6.503
 9396SOL    HW229088   1.765   6.159   6.422
 9397SOL     OW29089   3.521   0.251   6.109
 9397SOL    HW129090   3.510   0.234   6.206
 9397SOL    HW229091   3.576   0.334   6.096
 9398SOL     OW29092   6.407   0.987   6.515
 9398SOL    HW129093   6.490   0.930   6.512
 9398SOL    HW229094   6.368   0.983   6.607
 9399SOL     OW29095   1.668   3.144   4.045
 9399SOL    HW129096   1.679   3.215   3.974
 9399SOL    HW229097   1.747   3.083   4.044
 9400SOL     OW29098   5.479   1.361   0.095
 9400SOL    HW129099   5.499   1.288   0.029
 9400SOL    HW229100   5.422   1.324   0.169
 9401SOL     OW29101   0.865   2.732   2.609
 9401SOL    HW129102   0.781   2.747   2.661
 9401SOL    HW229103   0.850   2.658   2.543
 9402SOL     OW29104   1.610   5.524   3.082
 9402SOL    HW129105   1.686   5.563   3.134
 9402SOL    HW229106   1.640   5.439   3.038
 9403SOL     OW29107   6.816   1.197   2.069
 9403SOL    HW129108   6.778   1.205   1.977
 9403SOL    HW229109   6.768   1.123   2.118
 9404SOL     OW29110   1.353   3.270   1.257
 9404SOL    HW129111   1.293   3.193   1.281
 9404SOL    HW229112   1.313   3.320   1.180
 9405SOL     OW29113   0.307   4.639   5.068
 9405SOL    HW129114   0.375   4.576   5.031
 9405SOL    HW229115   0.354   4.716   5.112
 9406SOL     OW29116   0.615   3.131   6.341
 9406SOL    HW129117   0.585   3.056   6.401
 9406SOL    HW229118   0.706   3.160   6.369
 9407SOL     OW29119   2.383   5.181   4.925
 9407SOL    HW129120   2.364   5.245   4.999
 9407SOL    HW229121   2.297   5.146   4.888
 9408SOL     OW29122   6.866   4.031   5.421
 9408SOL    HW129123   6.828   4.041   5.512
 9408SOL    HW229124   6.795   3.998   5.358
 9409SOL     OW29125   6.587   5.392   2.025
 9409SOL    HW129126   6.652   5.463   2.051
 9409SOL    HW229127   6.635   5.306   2.008
 9410SOL     OW29128   4.168   0.481   1.846
 9410SOL    HW129129   4.212   0.524   1.925
 9410SOL    HW229130   4.089   0.427   1.877
 9411SOL     OW29131   3.952   3.174   3.685
 9411SOL    HW129132   3.855   3.181   3.710
 9411SOL    HW229133   3.993   3.096   3.731
 9412SOL     OW29134   0.270   0.787   1.247
 9412SOL    HW129135   0.359   0.825   1.221
 9412SOL    HW229136   0.228   0.745   1.167
 9413SOL     OW29137   4.257   4.967   4.054
 9413SOL    HW129138   4.271   4.991   4.150
 9413SOL    HW229139   4.159   4.962   4.035
 9414SOL     OW29140   2.333   2.290   5.006
 9414SOL    HW129141   2.288   2.371   4.969
 9414SOL    HW229142   2.264   2.219   5.026
 9415SOL     OW29143   3.760   0.170   2.237
 9415SOL    HW129144   3.834   0.103   2.238
 9415SOL    HW229145   3.760   0.219   2.150
 9416SOL     OW29146   0.386   5.993   6.253
 9416SOL    HW129147   0.373   6.048   6.170
 9416SOL    HW229148   0.312   6.012   6.317
 9417SOL     OW29149   2.852   6.687   0.959
 9417SOL    HW129150   2.888   6.601   0.921
 9417SOL    HW229151   2.912   6.762   0.933
 9418SOL     OW29152   3.066   1.858   4.229
 9418SOL    HW129153   3.029   1.898   4.313
 9418SOL    HW229154   3.101   1.931   4.170
 9419SOL     OW29155   3.035   2.359   6.775
 9419SOL    HW129156   2.966   2.291   6.797
 9419SOL    HW229157   3.025   2.386   6.679
 9420SOL     OW29158   5.412   3.200   0.291
 9420SOL    HW129159   5.398   3.164   0.383
 9420SOL    HW229160   5.324   3.211   0.246
 9421SOL     OW29161   3.786   6.221   5.678
 9421SOL    HW129162   3.881   6.199   5.703
 9421SOL    HW229163   3.730   6.138   5.686
 9422SOL     OW29164   2.788   6.047   4.312
 9422SOL    HW129165   2.699   6.057   4.358
 9422SOL    HW229166   2.861   6.048   4.380
 9423SOL     OW29167   3.919   6.035   2.917
 9423SOL    HW129168   4.011   6.009   2.888
 9423SOL    HW229169   3.909   6.021   3.015
 9424SOL     OW29170   5.315   1.141   4.531
 9424SOL    HW129171   5.339   1.226   4.580
 9424SOL    HW229172   5.218   1.143   4.506
 9425SOL     OW29173   6.517   4.736   0.652
 9425SOL    HW129174   6.595   4.782   0.610
 9425SOL    HW229175   6.527   4.637   0.642
 9426SOL     OW29176   0.498   1.912   6.169
 9426SOL    HW129177   0.545   1.988   6.127
 9426SOL    HW229178   0.560   1.834   6.177
 9427SOL     OW29179   3.776   5.827   2.784
 9427SOL    HW129180   3.802   5.917   2.819
 9427SOL    HW229181   3.858   5.771   2.773
 9428SOL     OW29182   6.346   6.915   6.705
 9428SOL    HW129183   6.343   6.901   6.605
 9428SOL    HW229184   6.436   6.888   6.739
 9429SOL     OW29185   1.133   2.307   4.092
 9429SOL    HW129186   1.166   2.366   4.019
 9429SOL    HW229187   1.210   2.278   4.149
 9430SOL     OW29188   0.251   2.118   4.271
 9430SOL    HW129189   0.286   2.081   4.185
 9430SOL    HW229190   0.175   2.180   4.251
 9431SOL     OW29191   6.705   4.573   6.768
 9431SOL    HW129192   6.640   4.498   6.781
 9431SOL    HW229193   6.722   4.618   6.856
 9432SOL     OW29194   6.641   1.601   3.531
 9432SOL    HW129195   6.706   1.637   3.464
 9432SOL    HW229196   6.565   1.664   3.542
 9433SOL     OW29197   4.140   6.147   2.613
 9433SOL    HW129198   4.238   6.130   2.617
 9433SOL    HW229199   4.123   6.245   2.610
 9434SOL     OW29200   4.851   5.752   3.904
 9434SOL    HW129201   4.785   5.700   3.849
 9434SOL    HW229202   4.806   5.833   3.942
 9435SOL     OW29203   0.587   2.562   2.000
 9435SOL    HW129204   0.569   2.659   2.017
 9435SOL    HW229205   0.543   2.507   2.071
 9436SOL     OW29206   0.518   0.990   2.738
 9436SOL    HW129207   0.504   1.086   2.762
 9436SOL    HW229208   0.445   0.935   2.778
 9437SOL     OW29209   0.248   5.075   4.514
 9437SOL    HW129210   0.254   5.173   4.496
 9437SOL    HW229211   0.212   5.028   4.433
 9438SOL     OW29212   2.278   6.343   1.757
 9438SOL    HW129213   2.216   6.266   1.748
 9438SOL    HW229214   2.372   6.311   1.756
 9439SOL     OW29215   0.689   3.034   6.992
 9439SOL    HW129216   0.759   3.014   6.923
 9439SOL    HW229217   0.692   2.964   0.039
 9440SOL     OW29218   3.246   4.921   3.496
 9440SOL    HW129219   3.342   4.923   3.523
 9440SOL    HW229220   3.191   4.887   3.573
 9441SOL     OW29221   6.504   5.635   4.231
 9441SOL    HW129222   6.506   5.703   4.157
 9441SOL    HW229223   6.572   5.659   4.300
 9442SOL     OW29224   4.687   3.638   0.636
 9442SOL    HW129225   4.701   3.574   0.712
 9442SOL    HW229226   4.761   3.626   0.569
 9443SOL     OW29227   2.891   4.763   2.469
 9443SOL    HW129228   2.889   4.761   2.369
 9443SOL    HW229229   2.800   4.784   2.504
 9444SOL     OW29230   2.201   3.694   0.538
 9444SOL    HW129231   2.245   3.760   0.599
 9444SOL    HW229232   2.240   3.702   0.446
 9445SOL     OW29233   0.458   1.481   3.818
 9445SOL    HW129234   0.557   1.480   3.806
 9445SOL    HW229235   0.426   1.389   3.841
 9446SOL     OW29236   6.381   4.805   3.576
 9446SOL    HW129237   6.290   4.766   3.588
 9446SOL    HW229238   6.379   4.902   3.601
 9447SOL     OW29239   5.632   5.219   2.768
 9447SOL    HW129240   5.595   5.165   2.692
 9447SOL    HW229241   5.675   5.157   2.835
 9448SOL     OW29242   5.704   0.390   5.817
 9448SOL    HW129243   5.663   0.469   5.862
 9448SOL    HW229244   5.752   0.419   5.734
 9449SOL     OW29245   5.885   6.890   1.207
 9449SOL    HW129246   5.922   6.798   1.191
 9449SOL    HW229247   5.949   6.958   1.173
 9450SOL     OW29248   1.230   5.804   4.177
 9450SOL    HW129249   1.294   5.867   4.133
 9450SOL    HW229250   1.234   5.817   4.276
 9451SOL     OW29251   3.778   5.437   6.184
 9451SOL    HW129252   3.859   5.401   6.230
 9451SOL    HW229253   3.735   5.364   6.130
 9452SOL     OW29254   0.183   4.231   1.238
 9452SOL    HW129255   0.098   4.271   1.203
 9452SOL    HW229256   0.243   4.210   1.161
 9453SOL     OW29257   3.830   5.238   2.936
 9453SOL    HW129258   3.900   5.275   2.997
 9453SOL    HW229259   3.768   5.179   2.987
 9454SOL     OW29260   4.440   4.320   0.752
 9454SOL    HW129261   4.469   4.416   0.760
 9454SOL    HW229262   4.428   4.282   0.844
 9455SOL     OW29263   2.725   2.295   2.291
 9455SOL    HW129264   2.647   2.253   2.246
 9455SOL    HW229265   2.798   2.310   2.225
 9456SOL     OW29266   6.015   3.288   2.184
 9456SOL    HW129267   5.999   3.199   2.226
 9456SOL    HW229268   6.051   3.275   2.092
 9457SOL     OW29269   0.985   4.730   3.904
 9457SOL    HW129270   0.918   4.789   3.859
 9457SOL    HW229271   0.940   4.650   3.942
 9458SOL     OW29272   6.607   3.855   0.364
 9458SOL    HW129273   6.583   3.787   0.432
 9458SOL    HW229274   6.526   3.907   0.337
 9459SOL     OW29275   5.244   4.553   4.632
 9459SOL    HW129276   5.332   4.529   4.593
 9459SOL    HW229277   5.247   4.648   4.664
 9460SOL     OW29278   0.974   2.676   3.120
 9460SOL    HW129279   1.034   2.738   3.069
 9460SOL    HW229280   0.903   2.641   3.060
 9461SOL     OW29281   1.787   2.367   1.619
 9461SOL    HW129282   1.809   2.281   1.666
 9461SOL    HW229283   1.689   2.370   1.600
 9462SOL     OW29284   2.032   1.770   4.315
 9462SOL    HW129285   2.049   1.766   4.414
 9462SOL    HW229286   2.117   1.792   4.268
 9463SOL     OW29287   5.304   6.637   0.959
 9463SOL    HW129288   5.211   6.658   0.990
 9463SOL    HW229289   5.329   6.700   0.886
 9464SOL     OW29290   0.197   0.798   1.656
 9464SOL    HW129291   0.179   0.853   1.574
 9464SOL    HW229292   0.120   0.736   1.672
 9465SOL     OW29293   0.523   4.124   1.538
 9465SOL    HW129294   0.560   4.123   1.445
 9465SOL    HW229295   0.423   4.131   1.534
 9466SOL     OW29296   4.008   5.203   6.803
 9466SOL    HW129297   4.067   5.255   6.740
 9466SOL    HW229298   3.926   5.174   6.754
 9467SOL     OW29299   2.162   3.159   0.819
 9467SOL    HW129300   2.260   3.173   0.806
 9467SOL    HW229301   2.148   3.092   0.892
 9468SOL     OW29302   6.446   3.147   0.456
 9468SOL    HW129303   6.522   3.202   0.422
 9468SOL    HW229304   6.481   3.077   0.518
 9469SOL     OW29305   0.100   5.902   0.761
 9469SOL    HW129306   0.007   5.886   0.794
 9469SOL    HW229307   0.096   5.938   0.668
 9470SOL     OW29308   4.978   3.862   0.631
 9470SOL    HW129309   4.952   3.789   0.568
 9470SOL    HW229310   4.897   3.913   0.659
 9471SOL     OW29311   6.090   2.054   5.119
 9471SOL    HW129312   6.151   1.975   5.122
 9471SOL    HW229313   6.122   2.123   5.183
 9472SOL     OW29314   1.522   3.991   6.118
 9472SOL    HW129315   1.431   4.033   6.110
 9472SOL    HW229316   1.559   4.009   6.209
 9473SOL     OW29317   2.733   4.641   0.349
 9473SOL    HW129318   2.677   4.561   0.371
 9473SOL    HW229319   2.816   4.640   0.403
 9474SOL     OW29320   5.767   3.590   1.849
 9474SOL    HW129321   5.826   3.639   1.785
 9474SOL    HW229322   5.735   3.505   1.806
 9475SOL     OW29323   4.893   3.512   5.764
 9475SOL    HW129324   4.931   3.460   5.688
 9475SOL    HW229325   4.867   3.603   5.732
 9476SOL     OW29326   3.628   4.268   5.799
 9476SOL    HW129327   3.636   4.327   5.879
 9476SOL    HW229328   3.532   4.246   5.783
 9477SOL     OW29329   2.078   3.991   1.475
 9477SOL    HW129330   2.075   4.071   1.534
 9477SOL    HW229331   2.108   3.911   1.529
 9478SOL     OW29332   5.290   2.582   0.441
 9478SOL    HW129333   5.203   2.554   0.401
 9478SOL    HW229334   5.299   2.682   0.435
 9479SOL     OW29335   4.446   0.989   1.713
 9479SOL    HW129336   4.525   0.952   1.665
 9479SOL    HW229337   4.451   1.089   1.713
 9480SOL     OW29338   6.277   6.385   6.791
 9480SOL    HW129339   6.259   6.426   6.701
 9480SOL    HW229340   6.353   6.434   6.835
 9481SOL     OW29341   4.456   1.889   3.389
 9481SOL    HW129342   4.477   1.975   3.435
 9481SOL    HW229343   4.359   1.886   3.365
 9482SOL     OW29344   5.786   1.099   0.627
 9482SOL    HW129345   5.851   1.173   0.643
 9482SOL    HW229346   5.822   1.013   0.663
 9483SOL     OW29347   0.858   0.631   0.225
 9483SOL    HW129348   0.810   0.718   0.220
 9483SOL    HW229349   0.858   0.598   0.320
 9484SOL     OW29350   2.911   6.057   4.540
 9484SOL    HW129351   2.855   6.113   4.601
 9484SOL    HW229352   2.966   5.994   4.593
 9485SOL     OW29353   6.594   1.357   0.055
 9485SOL    HW129354   6.502   1.349   0.093
 9485SOL    HW229355   6.654   1.287   0.095
 9486SOL     OW29356   4.596   5.666   0.142
 9486SOL    HW129357   4.604   5.636   0.238
 9486SOL    HW229358   4.541   5.748   0.138
 9487SOL     OW29359   3.015   3.418   4.211
 9487SOL    HW129360   2.993   3.437   4.116
 9487SOL    HW229361   3.096   3.360   4.216
 9488SOL     OW29362   1.559   1.264   0.924
 9488SOL    HW129363   1.497   1.251   0.847
 9488SOL    HW229364   1.520   1.222   1.006
 9489SOL     OW29365   5.189   3.944   0.783
 9489SOL    HW129366   5.118   3.891   0.737
 9489SOL    HW229367   5.256   3.976   0.717
 9490SOL     OW29368   6.103   4.327   3.801
 9490SOL    HW129369   6.038   4.384   3.751
 9490SOL    HW229370   6.125   4.246   3.747
 9491SOL     OW29371   5.224   6.758   3.492
 9491SOL    HW129372   5.306   6.719   3.450
 9491SOL    HW229373   5.243   6.778   3.588
 9492SOL     OW29374   4.805   2.934   4.366
 9492SOL    HW129375   4.818   3.031   4.387
 9492SOL    HW229376   4.845   2.879   4.439
 9493SOL     OW29377   4.228   6.442   4.069
 9493SOL    HW129378   4.316   6.477   4.099
 9493SOL    HW229379   4.184   6.510   4.009
 9494SOL     OW29380   5.080   3.094   2.058
 9494SOL    HW129381   5.024   3.171   2.090
 9494SOL    HW229382   5.032   3.047   1.984
 9495SOL     OW29383   0.547   0.350   2.041
 9495SOL    HW129384   0.584   0.386   1.955
 9495SOL    HW229385   0.453   0.381   2.053
 9496SOL     OW29386   4.161   1.918   2.390
 9496SOL    HW129387   4.241   1.940   2.334
 9496SOL    HW229388   4.105   2.000   2.401
 9497SOL     OW29389   5.740   5.673   4.632
 9497SOL    HW129390   5.732   5.626   4.720
 9497SOL    HW229391   5.675   5.749   4.628
 9498SOL     OW29392   6.968   5.174   4.485
 9498SOL    HW129393   6.997   5.251   4.429
 9498SOL    HW229394   6.987   5.193   4.581
 9499SOL     OW29395   6.208   5.702   5.604
 9499SOL    HW129396   6.112   5.691   5.628
 9499SOL    HW229397   6.244   5.616   5.568
 9500SOL     OW29398   4.216   0.311   0.952
 9500SOL    HW129399   4.279   0.335   1.025
 9500SOL    HW229400   4.267   0.297   0.867
 9501SOL     OW29401   1.390   1.586   4.455
 9501SOL    HW129402   1.360   1.493   4.434
 9501SOL    HW229403   1.342   1.650   4.395
 9502SOL     OW29404   5.366   4.612   5.872
 9502SOL    HW129405   5.421   4.623   5.789
 9502SOL    HW229406   5.271   4.595   5.846
 9503SOL     OW29407   0.654   1.957   0.117
 9503SOL    HW129408   0.575   1.969   0.058
 9503SOL    HW229409   0.728   2.017   0.088
 9504SOL     OW29410   6.767   4.771   1.544
 9504SOL    HW129411   6.736   4.688   1.497
 9504SOL    HW229412   6.718   4.850   1.507
 9505SOL     OW29413   4.526   4.619   5.396
 9505SOL    HW129414   4.606   4.664   5.434
 9505SOL    HW229415   4.443   4.660   5.434
 9506SOL     OW29416   2.931   2.176   1.207
 9506SOL    HW129417   2.895   2.159   1.115
 9506SOL    HW229418   2.893   2.109   1.270
 9507SOL     OW29419   6.159   0.115   1.679
 9507SOL    HW129420   6.198   0.168   1.603
 9507SOL    HW229421   6.193   0.153   1.766
 9508SOL     OW29422   4.577   1.507   2.565
 9508SOL    HW129423   4.659   1.451   2.553
 9508SOL    HW229424   4.575   1.542   2.659
 9509SOL     OW29425   6.581   0.453   2.807
 9509SOL    HW129426   6.553   0.455   2.903
 9509SOL    HW229427   6.503   0.472   2.748
 9510SOL     OW29428   0.135   3.027   3.888
 9510SOL    HW129429   0.233   3.030   3.868
 9510SOL    HW229430   0.085   3.022   3.802
 9511SOL     OW29431   1.166   1.073   0.686
 9511SOL    HW129432   1.171   0.979   0.721
 9511SOL    HW229433   1.084   1.082   0.629
 9512SOL     OW29434   6.504   3.019   0.944
 9512SOL    HW129435   6.416   3.066   0.936
 9512SOL    HW229436   6.502   2.958   1.024
 9513SOL     OW29437   4.521   4.775   6.380
 9513SOL    HW129438   4.491   4.869   6.371
 9513SOL    HW229439   4.451   4.721   6.426
 9514SOL     OW29440   3.099   3.126   6.979
 9514SOL    HW129441   3.043   3.154   0.033
 9514SOL    HW229442   3.116   3.205   6.921
 9515SOL     OW29443   2.741   5.205   3.926
 9515SOL    HW129444   2.832   5.209   3.885
 9515SOL    HW229445   2.711   5.298   3.949
 9516SOL     OW29446   5.994   4.140   0.096
 9516SOL    HW129447   5.975   4.045   0.072
 9516SOL    HW229448   5.914   4.180   0.141
 9517SOL     OW29449   0.880   4.197   1.069
 9517SOL    HW129450   0.903   4.100   1.080
 9517SOL    HW229451   0.889   4.222   0.972
 9518SOL     OW29452   2.473   1.418   0.648
 9518SOL    HW129453   2.545   1.454   0.708
 9518SOL    HW229454   2.400   1.379   0.703
 9519SOL     OW29455   0.765   3.066   5.406
 9519SOL    HW129456   0.783   3.162   5.385
 9519SOL    HW229457   0.760   3.014   5.321
 9520SOL     OW29458   2.509   0.190   2.918
 9520SOL    HW129459   2.560   0.271   2.888
 9520SOL    HW229460   2.566   0.108   2.906
 9521SOL     OW29461   5.683   5.776   4.065
 9521SOL    HW129462   5.588   5.783   4.096
 9521SOL    HW229463   5.742   5.758   4.143
 9522SOL     OW29464   3.297   5.934   1.282
 9522SOL    HW129465   3.346   6.021   1.282
 9522SOL    HW229466   3.284   5.903   1.188
 9523SOL     OW29467   3.499   5.257   4.581
 9523SOL    HW129468   3.474   5.161   4.568
 9523SOL    HW229469   3.459   5.311   4.507
 9524SOL     OW29470   3.496   3.228   1.258
 9524SOL    HW129471   3.577   3.265   1.212
 9524SOL    HW229472   3.524   3.181   1.342
 9525SOL     OW29473   1.994   0.904   5.690
 9525SOL    HW129474   2.093   0.909   5.700
 9525SOL    HW229475   1.951   0.900   5.780
 9526SOL     OW29476   4.655   6.166   3.298
 9526SOL    HW129477   4.655   6.152   3.199
 9526SOL    HW229478   4.707   6.093   3.342
 9527SOL     OW29479   1.022   1.081   1.917
 9527SOL    HW129480   1.083   1.007   1.944
 9527SOL    HW229481   1.066   1.169   1.936
 9528SOL     OW29482   6.268   0.257   1.453
 9528SOL    HW129483   6.195   0.274   1.387
 9528SOL    HW229484   6.308   0.167   1.436
 9529SOL     OW29485   0.855   3.225   6.397
 9529SOL    HW129486   0.870   3.294   6.327
 9529SOL    HW229487   0.930   3.226   6.463
 9530SOL     OW29488   1.585   2.579   3.066
 9530SOL    HW129489   1.574   2.485   3.033
 9530SOL    HW229490   1.514   2.599   3.133
 9531SOL     OW29491   3.397   0.185   3.311
 9531SOL    HW129492   3.370   0.165   3.217
 9531SOL    HW229493   3.491   0.155   3.326
 9532SOL     OW29494   1.969   0.041   1.334
 9532SOL    HW129495   1.877   0.077   1.321
 9532SOL    HW229496   1.980   6.981   1.281
 9533SOL     OW29497   1.595   1.072   5.683
 9533SOL    HW129498   1.649   0.994   5.651
 9533SOL    HW229499   1.508   1.039   5.719
 9534SOL     OW29500   5.215   2.211   4.918
 9534SOL    HW129501   5.237   2.302   4.883
 9534SOL    HW229502   5.192   2.217   5.015
 9535SOL     OW29503   2.342   1.381   5.512
 9535SOL    HW129504   2.409   1.426   5.453
 9535SOL    HW229505   2.279   1.449   5.549
 9536SOL     OW29506   1.911   5.838   5.458
 9536SOL    HW129507   2.002   5.817   5.424
 9536SOL    HW229508   1.911   5.836   5.558
 9537SOL     OW29509   3.038   0.535   2.296
 9537SOL    HW129510   2.940   0.555   2.288
 9537SOL    HW229511   3.085   0.560   2.212
 9538SOL     OW29512   6.712   2.221   4.456
 9538SOL    HW129513   6.768   2.146   4.419
 9538SOL    HW229514   6.678   2.196   4.547
 9539SOL     OW29515   0.838   5.852   0.035
 9539SOL    HW129516   0.934   5.858   0.008
 9539SOL    HW229517   0.806   5.942   0.065
 9540SOL     OW29518   4.490   4.966   4.849
 9540SOL    HW129519   4.468   4.915   4.766
 9540SOL    HW229520   4.413   4.960   4.913
 9541SOL     OW29521   1.903   2.871   4.259
 9541SOL    HW129522   1.913   2.940   4.332
 9541SOL    HW229523   1.913   2.916   4.170
 9542SOL     OW29524   4.967   3.178   4.506
 9542SOL    HW129525   4.961   3.269   4.546
 9542SOL    HW229526   5.045   3.129   4.546
 9543SOL     OW29527   4.887   1.187   3.034
 9543SOL    HW129528   4.871   1.242   2.952
 9543SOL    HW229529   4.910   1.247   3.110
 9544SOL     OW29530   5.179   1.254   2.283
 9544SOL    HW129531   5.209   1.165   2.248
 9544SOL    HW229532   5.127   1.241   2.367
 9545SOL     OW29533   6.919   0.320   3.242
 9545SOL    HW129534   6.859   0.305   3.321
 9545SOL    HW229535   6.870   0.293   3.159
 9546SOL     OW29536   2.779   5.617   6.692
 9546SOL    HW129537   2.714   5.649   6.761
 9546SOL    HW229538   2.816   5.529   6.720
 9547SOL     OW29539   0.544   6.059   4.810
 9547SOL    HW129540   0.492   6.016   4.884
 9547SOL    HW229541   0.641   6.039   4.820
 9548SOL     OW29542   5.162   5.730   4.062
 9548SOL    HW129543   5.126   5.777   3.982
 9548SOL    HW229544   5.205   5.643   4.034
 9549SOL     OW29545   2.338   5.810   0.555
 9549SOL    HW129546   2.284   5.741   0.603
 9549SOL    HW229547   2.317   5.807   0.457
 9550SOL     OW29548   1.313   1.797   0.356
 9550SOL    HW129549   1.248   1.822   0.427
 9550SOL    HW229550   1.405   1.799   0.393
 9551SOL     OW29551   0.681   6.744   4.796
 9551SOL    HW129552   0.779   6.731   4.777
 9551SOL    HW229553   0.667   6.833   4.838
 9552SOL     OW29554   2.023   6.170   3.076
 9552SOL    HW129555   1.962   6.124   3.011
 9552SOL    HW229556   1.981   6.169   3.167
 9553SOL     OW29557   5.998   4.426   5.778
 9553SOL    HW129558   6.001   4.498   5.708
 9553SOL    HW229559   6.049   4.457   5.858
 9554SOL     OW29560   2.387   1.492   1.970
 9554SOL    HW129561   2.469   1.460   2.019
 9554SOL    HW229562   2.351   1.417   1.915
 9555SOL     OW29563   6.730   2.022   0.659
 9555SOL    HW129564   6.773   2.049   0.572
 9555SOL    HW229565   6.676   1.940   0.646
 9556SOL     OW29566   2.654   1.135   1.444
 9556SOL    HW129567   2.701   1.075   1.508
 9556SOL    HW229568   2.635   1.223   1.488
 9557SOL     OW29569   5.297   0.203   2.292
 9557SOL    HW129570   5.292   0.114   2.247
 9557SOL    HW229571   5.332   0.271   2.228
 9558SOL     OW29572   6.694   4.861   2.798
 9558SOL    HW129573   6.743   4.844   2.884
 9558SOL    HW229574   6.686   4.776   2.746
 9559SOL     OW29575   6.712   3.071   1.695
 9559SOL    HW129576   6.789   3.071   1.759
 9559SOL    HW229577   6.725   3.145   1.629
 9560SOL     OW29578   2.695   1.173   3.352
 9560SOL    HW129579   2.639   1.251   3.380
 9560SOL    HW229580   2.789   1.186   3.383
 9561SOL     OW29581   4.262   6.808   0.828
 9561SOL    HW129582   4.227   6.733   0.884
 9561SOL    HW229583   4.238   6.791   0.732
 9562SOL     OW29584   4.951   5.181   2.598
 9562SOL    HW129585   4.986   5.210   2.687
 9562SOL    HW229586   5.027   5.162   2.537
 9563SOL     OW29587   6.838   5.915   6.392
 9563SOL    HW129588   6.749   5.953   6.418
 9563SOL    HW229589   6.828   5.818   6.372
 9564SOL     OW29590   3.121   6.807   6.998
 9564SOL    HW129591   3.139   6.817   0.072
 9564SOL    HW229592   3.026   6.829   6.980
 9565SOL     OW29593   3.538   6.050   4.639
 9565SOL    HW129594   3.449   6.067   4.598
 9565SOL    HW229595   3.527   6.026   4.736
 9566SOL     OW29596   2.952   4.714   5.585
 9566SOL    HW129597   2.900   4.662   5.652
 9566SOL    HW229598   3.049   4.691   5.593
 9567SOL     OW29599   6.002   5.888   6.001
 9567SOL    HW129600   5.945   5.808   5.982
 9567SOL    HW229601   6.070   5.899   5.929
 9568SOL     OW29602   4.806   3.756   6.539
 9568SOL    HW129603   4.848   3.844   6.564
 9568SOL    HW229604   4.757   3.720   6.618
 9569SOL     OW29605   6.325   0.613   6.985
 9569SOL    HW129606   6.362   0.541   0.020
 9569SOL    HW229607   6.379   0.697   6.997
 9570SOL     OW29608   1.397   1.292   0.191
 9570SOL    HW129609   1.365   1.214   0.137
 9570SOL    HW229610   1.449   1.354   0.131
 9571SOL     OW29611   2.273   3.621   0.288
 9571SOL    HW129612   2.369   3.612   0.314
 9571SOL    HW229613   2.238   3.531   0.259
 9572SOL     OW29614   1.420   4.317   1.865
 9572SOL    HW129615   1.403   4.288   1.771
 9572SOL    HW229616   1.517   4.304   1.886
 9573SOL     OW29617   1.955   1.653   0.318
 9573SOL    HW129618   2.040   1.600   0.317
 9573SOL    HW229619   1.898   1.627   0.240
 9574SOL     OW29620   2.789   3.086   5.867
 9574SOL    HW129621   2.815   3.033   5.786
 9574SOL    HW229622   2.765   3.024   5.942
 9575SOL     OW29623   5.174   0.746   2.227
 9575SOL    HW129624   5.195   0.748   2.130
 9575SOL    HW229625   5.104   0.677   2.245
 9576SOL     OW29626   2.886   1.062   5.142
 9576SOL    HW129627   2.930   1.096   5.226
 9576SOL    HW229628   2.858   1.140   5.086
 9577SOL     OW29629   0.776   6.331   2.984
 9577SOL    HW129630   0.749   6.427   2.987
 9577SOL    HW229631   0.739   6.288   2.902
 9578SOL     OW29632   6.134   2.931   2.134
 9578SOL    HW129633   6.152   2.832   2.134
 9578SOL    HW229634   6.077   2.954   2.213
 9579SOL     OW29635   0.983   6.771   2.492
 9579SOL    HW129636   0.956   6.776   2.396
 9579SOL    HW229637   0.901   6.773   2.550
 9580SOL     OW29638   4.010   3.702   6.191
 9580SOL    HW129639   3.953   3.777   6.159
 9580SOL    HW229640   4.097   3.702   6.141
 9581SOL     OW29641   1.380   4.271   6.000
 9581SOL    HW129642   1.322   4.289   5.920
 9581SOL    HW229643   1.326   4.223   6.070
 9582SOL     OW29644   4.258   4.687   4.338
 9582SOL    HW129645   4.289   4.600   4.376
 9582SOL    HW229646   4.287   4.693   4.242
 9583SOL     OW29647   2.197   4.203   2.123
 9583SOL    HW129648   2.224   4.257   2.203
 9583SOL    HW229649   2.256   4.228   2.046
 9584SOL     OW29650   6.204   5.566   6.736
 9584SOL    HW129651   6.267   5.503   6.690
 9584SOL    HW229652   6.241   5.659   6.732
 9585SOL     OW29653   6.037   0.214   4.455
 9585SOL    HW129654   6.036   0.276   4.533
 9585SOL    HW229655   5.944   0.188   4.431
 9586SOL     OW29656   5.669   3.191   3.365
 9586SOL    HW129657   5.626   3.268   3.320
 9586SOL    HW229658   5.762   3.215   3.393
 9587SOL     OW29659   5.294   0.176   2.553
 9587SOL    HW129660   5.302   0.194   2.455
 9587SOL    HW229661   5.204   0.204   2.584
 9588SOL     OW29662   0.904   0.622   1.506
 9588SOL    HW129663   0.983   0.666   1.549
 9588SOL    HW229664   0.918   0.523   1.504
 9589SOL     OW29665   2.817   0.983   6.773
 9589SOL    HW129666   2.809   0.943   6.864
 9589SOL    HW229667   2.853   0.914   6.710
 9590SOL     OW29668   0.243   4.005   3.328
 9590SOL    HW129669   0.199   4.090   3.300
 9590SOL    HW229670   0.342   4.014   3.317
 9591SOL     OW29671   1.554   5.452   1.210
 9591SOL    HW129672   1.551   5.378   1.143
 9591SOL    HW229673   1.465   5.498   1.214
 9592SOL     OW29674   4.984   5.574   2.070
 9592SOL    HW129675   4.991   5.615   1.980
 9592SOL    HW229676   5.055   5.504   2.081
 9593SOL     OW29677   6.872   2.341   4.731
 9593SOL    HW129678   6.871   2.424   4.674
 9593SOL    HW229679   6.780   2.301   4.732
 9594SOL     OW29680   6.407   6.864   2.406
 9594SOL    HW129681   6.385   6.767   2.392
 9594SOL    HW229682   6.438   6.903   2.320
 9595SOL     OW29683   1.312   5.538   4.116
 9595SOL    HW129684   1.316   5.629   4.157
 9595SOL    HW229685   1.368   5.536   4.033
 9596SOL     OW29686   5.769   6.051   5.052
 9596SOL    HW129687   5.763   6.016   5.146
 9596SOL    HW229688   5.716   5.992   4.991
 9597SOL     OW29689   1.828   4.084   1.387
 9597SOL    HW129690   1.822   4.183   1.401
 9597SOL    HW229691   1.920   4.053   1.412
 9598SOL     OW29692   6.896   5.381   5.841
 9598SOL    HW129693   6.900   5.467   5.790
 9598SOL    HW229694   6.854   5.398   5.930
 9599SOL     OW29695   4.630   1.630   5.740
 9599SOL    HW129696   4.728   1.643   5.729
 9599SOL    HW229697   4.581   1.712   5.708
 9600SOL     OW29698   1.408   0.639   6.655
 9600SOL    HW129699   1.386   0.604   6.746
 9600SOL    HW229700   1.507   0.641   6.643
 9601SOL     OW29701   0.245   5.496   5.252
 9601SOL    HW129702   0.210   5.405   5.228
 9601SOL    HW229703   0.214   5.563   5.185
 9602SOL     OW29704   1.198   5.634   6.979
 9602SOL    HW129705   1.223   5.548   6.935
 9602SOL    HW229706   1.167   5.699   6.910
 9603SOL     OW29707   1.809   6.068   4.572
 9603SOL    HW129708   1.898   6.091   4.534
 9603SOL    HW229709   1.819   5.997   4.642
 9604SOL     OW29710   5.797   1.613   6.969
 9604SOL    HW129711   5.706   1.587   6.935
 9604SOL    HW229712   5.866   1.556   6.925
 9605SOL     OW29713   1.851   5.928   6.643
 9605SOL    HW129714   1.919   5.991   6.681
 9605SOL    HW229715   1.821   5.962   6.554
 9606SOL     OW29716   6.777   6.264   4.156
 9606SOL    HW129717   6.744   6.289   4.066
 9606SOL    HW229718   6.763   6.166   4.172
 9607SOL     OW29719   1.080   2.283   2.141
 9607SOL    HW129720   1.110   2.377   2.157
 9607SOL    HW229721   1.159   2.227   2.114
 9608SOL     OW29722   0.640   6.820   2.262
 9608SOL    HW129723   0.736   6.797   2.249
 9608SOL    HW229724   0.607   6.876   2.186
 9609SOL     OW29725   1.618   4.203   4.382
 9609SOL    HW129726   1.597   4.138   4.309
 9609SOL    HW229727   1.553   4.189   4.458
 9610SOL     OW29728   2.305   1.655   6.074
 9610SOL    HW129729   2.331   1.726   6.139
 9610SOL    HW229730   2.228   1.687   6.018
 9611SOL     OW29731   6.143   0.443   1.121
 9611SOL    HW129732   6.217   0.493   1.165
 9611SOL    HW229733   6.091   0.505   1.062
 9612SOL     OW29734   5.889   2.782   1.834
 9612SOL    HW129735   5.977   2.804   1.875
 9612SOL    HW229736   5.901   2.763   1.736
 9613SOL     OW29737   6.148   6.560   5.209
 9613SOL    HW129738   6.132   6.640   5.150
 9613SOL    HW229739   6.062   6.509   5.219
 9614SOL     OW29740   3.827   3.604   2.419
 9614SOL    HW129741   3.737   3.573   2.389
 9614SOL    HW229742   3.830   3.609   2.519
 9615SOL     OW29743   1.043   5.843   2.918
 9615SOL    HW129744   0.973   5.789   2.965
 9615SOL    HW229745   1.059   5.928   2.969
 9616SOL     OW29746   3.778   3.246   0.652
 9616SOL    HW129747   3.777   3.150   0.681
 9616SOL    HW229748   3.727   3.301   0.717
 9617SOL     OW29749   0.995   3.572   3.940
 9617SOL    HW129750   0.937   3.501   3.979
 9617SOL    HW229751   1.030   3.630   4.012
 9618SOL     OW29752   4.205   6.486   6.564
 9618SOL    HW129753   4.222   6.578   6.599
 9618SOL    HW229754   4.118   6.452   6.601
 9619SOL     OW29755   2.590   6.382   0.421
 9619SOL    HW129756   2.657   6.359   0.491
 9619SOL    HW229757   2.539   6.464   0.448
 9620SOL     OW29758   2.932   1.351   6.108
 9620SOL    HW129759   2.966   1.275   6.052
 9620SOL    HW229760   2.852   1.322   6.160
 9621SOL     OW29761   0.695   0.546   1.222
 9621SOL    HW129762   0.714   0.567   1.318
 9621SOL    HW229763   0.659   0.628   1.177
 9622SOL     OW29764   5.919   0.342   6.267
 9622SOL    HW129765   5.917   0.247   6.298
 9622SOL    HW229766   5.827   0.372   6.244
 9623SOL     OW29767   4.233   6.117   6.091
 9623SOL    HW129768   4.231   6.070   6.179
 9623SOL    HW229769   4.282   6.060   6.024
 9624SOL     OW29770   3.972   5.003   4.929
 9624SOL    HW129771   3.928   5.003   4.839
 9624SOL    HW229772   3.935   4.929   4.985
 9625SOL     OW29773   5.112   4.646   5.777
 9625SOL    HW129774   5.051   4.643   5.856
 9625SOL    HW229775   5.091   4.569   5.716
 9626SOL     OW29776   2.641   4.204   5.946
 9626SOL    HW129777   2.660   4.212   5.849
 9626SOL    HW229778   2.550   4.242   5.965
 9627SOL     OW29779   0.624   5.269   0.068
 9627SOL    HW129780   0.609   5.296   0.163
 9627SOL    HW229781   0.657   5.175   0.065
 9628SOL     OW29782   5.744   2.963   6.451
 9628SOL    HW129783   5.712   3.053   6.424
 9628SOL    HW229784   5.844   2.961   6.452
 9629SOL     OW29785   0.240   5.522   3.704
 9629SOL    HW129786   0.241   5.579   3.622
 9629SOL    HW229787   0.334   5.509   3.737
 9630SOL     OW29788   6.530   5.963   6.403
 9630SOL    HW129789   6.434   5.974   6.430
 9630SOL    HW229790   6.535   5.936   6.307
 9631SOL     OW29791   4.308   1.039   0.826
 9631SOL    HW129792   4.340   0.955   0.784
 9631SOL    HW229793   4.305   1.028   0.926
 9632SOL     OW29794   3.495   6.429   1.480
 9632SOL    HW129795   3.536   6.361   1.540
 9632SOL    HW229796   3.397   6.435   1.499
 9633SOL     OW29797   3.071   3.054   2.508
 9633SOL    HW129798   3.048   3.149   2.529
 9633SOL    HW229799   3.115   3.050   2.418
 9634SOL     OW29800   5.218   4.490   2.216
 9634SOL    HW129801   5.223   4.450   2.308
 9634SOL    HW229802   5.201   4.418   2.149
 9635SOL     OW29803   0.813   3.835   3.640
 9635SOL    HW129804   0.881   3.882   3.696
 9635SOL    HW229805   0.808   3.739   3.666
 9636SOL     OW29806   4.822   2.481   4.718
 9636SOL    HW129807   4.834   2.531   4.633
 9636SOL    HW229808   4.837   2.383   4.701
 9637SOL     OW29809   2.474   3.122   0.507
 9637SOL    HW129810   2.448   3.029   0.533
 9637SOL    HW229811   2.551   3.119   0.444
 9638SOL     OW29812   0.114   4.385   5.595
 9638SOL    HW129813   0.017   4.395   5.570
 9638SOL    HW229814   0.140   4.459   5.657
 9639SOL     OW29815   4.306   1.802   2.583
 9639SOL    HW129816   4.245   1.823   2.506
 9639SOL    HW229817   4.323   1.703   2.586
 9640SOL     OW29818   3.427   0.531   2.390
 9640SOL    HW129819   3.489   0.598   2.352
 9640SOL    HW229820   3.433   0.446   2.338
 9641SOL     OW29821   6.172   4.574   2.593
 9641SOL    HW129822   6.221   4.493   2.625
 9641SOL    HW229823   6.236   4.651   2.588
 9642SOL     OW29824   2.052   0.361   3.729
 9642SOL    HW129825   2.091   0.282   3.683
 9642SOL    HW229826   2.126   0.412   3.775
 9643SOL     OW29827   5.540   4.429   4.291
 9643SOL    HW129828   5.451   4.385   4.276
 9643SOL    HW229829   5.541   4.469   4.383
 9644SOL     OW29830   1.346   5.530   5.144
 9644SOL    HW129831   1.276   5.458   5.152
 9644SOL    HW229832   1.318   5.595   5.074
 9645SOL     OW29833   0.710   5.638   0.099
 9645SOL    HW129834   0.755   5.726   0.080
 9645SOL    HW229835   0.740   5.570   0.032
 9646SOL     OW29836   3.416   6.105   5.655
 9646SOL    HW129837   3.400   6.166   5.734
 9646SOL    HW229838   3.379   6.148   5.573
 9647SOL     OW29839   6.157   6.756   3.653
 9647SOL    HW129840   6.223   6.682   3.667
 9647SOL    HW229841   6.174   6.801   3.565
 9648SOL     OW29842   4.709   2.459   1.227
 9648SOL    HW129843   4.618   2.482   1.191
 9648SOL    HW229844   4.760   2.409   1.157
 9649SOL     OW29845   1.985   4.355   0.212
 9649SOL    HW129846   2.006   4.353   0.114
 9649SOL    HW229847   1.972   4.262   0.245
 9650SOL     OW29848   6.958   4.584   4.777
 9650SOL    HW129849   6.913   4.655   4.723
 9650SOL    HW229850   6.914   4.496   4.760
 9651SOL     OW29851   3.371   1.125   0.672
 9651SOL    HW129852   3.396   1.036   0.711
 9651SOL    HW229853   3.364   1.116   0.572
 9652SOL     OW29854   6.854   3.649   0.701
 9652SOL    HW129855   6.813   3.594   0.774
 9652SOL    HW229856   6.806   3.629   0.615
 9653SOL     OW29857   4.405   3.706   6.491
 9653SOL    HW129858   4.459   3.636   6.445
 9653SOL    HW229859   4.396   3.683   6.588
 9654SOL     OW29860   3.302   3.444   3.885
 9654SOL    HW129861   3.306   3.543   3.893
 9654SOL    HW229862   3.391   3.410   3.855
 9655SOL     OW29863   4.430   1.390   1.861
 9655SOL    HW129864   4.411   1.334   1.780
 9655SOL    HW229865   4.348   1.441   1.886
 9656SOL     OW29866   5.760   4.085   1.538
 9656SOL    HW129867   5.754   4.100   1.439
 9656SOL    HW229868   5.824   4.150   1.578
 9657SOL     OW29869   5.930   3.240   3.442
 9657SOL    HW129870   5.962   3.331   3.416
 9657SOL    HW229871   6.009   3.179   3.452
 9658SOL     OW29872   4.927   1.966   2.214
 9658SOL    HW129873   4.863   1.917   2.156
 9658SOL    HW229874   4.976   1.902   2.273
 9659SOL     OW29875   3.133   3.193   0.690
 9659SOL    HW129876   3.200   3.257   0.726
 9659SOL    HW229877   3.178   3.125   0.632
 9660SOL     OW29878   0.173   5.596   1.270
 9660SOL    HW129879   0.091   5.541   1.289
 9660SOL    HW229880   0.192   5.655   1.349
 9661SOL     OW29881   4.537   4.890   0.849
 9661SOL    HW129882   4.614   4.934   0.804
 9661SOL    HW229883   4.541   4.907   0.947
 9662SOL     OW29884   5.171   4.360   6.749
 9662SOL    HW129885   5.244   4.291   6.757
 9662SOL    HW229886   5.118   4.361   6.833
 9663SOL     OW29887   0.741   4.834   3.769
 9663SOL    HW129888   0.671   4.782   3.719
 9663SOL    HW229889   0.734   4.931   3.743
 9664SOL     OW29890   5.617   3.977   3.330
 9664SOL    HW129891   5.715   3.958   3.331
 9664SOL    HW229892   5.598   4.053   3.268
 9665SOL     OW29893   5.383   6.049   6.549
 9665SOL    HW129894   5.299   6.041   6.603
 9665SOL    HW229895   5.425   6.138   6.565
 9666SOL     OW29896   6.082   3.705   0.538
 9666SOL    HW129897   6.062   3.649   0.619
 9666SOL    HW229898   6.054   3.655   0.456
 9667SOL     OW29899   5.394   5.622   0.210
 9667SOL    HW129900   5.432   5.580   0.127
 9667SOL    HW229901   5.469   5.652   0.269
 9668SOL     OW29902   0.872   0.191   5.842
 9668SOL    HW129903   0.807   0.260   5.874
 9668SOL    HW229904   0.823   0.115   5.801
 9669SOL     OW29905   3.541   0.233   0.373
 9669SOL    HW129906   3.551   0.153   0.432
 9669SOL    HW229907   3.561   0.208   0.278
 9670SOL     OW29908   0.375   0.393   6.138
 9670SOL    HW129909   0.419   0.474   6.099
 9670SOL    HW229910   0.445   0.325   6.161
 9671SOL     OW29911   1.226   5.029   6.421
 9671SOL    HW129912   1.283   5.107   6.394
 9671SOL    HW229913   1.160   5.010   6.348
 9672SOL     OW29914   0.355   3.949   4.803
 9672SOL    HW129915   0.274   3.981   4.753
 9672SOL    HW229916   0.326   3.895   4.882
 9673SOL     OW29917   2.364   4.092   1.268
 9673SOL    HW129918   2.378   4.099   1.170
 9673SOL    HW229919   2.298   4.020   1.287
 9674SOL     OW29920   3.487   6.401   3.684
 9674SOL    HW129921   3.566   6.357   3.727
 9674SOL    HW229922   3.424   6.331   3.651
 9675SOL     OW29923   4.549   4.004   1.709
 9675SOL    HW129924   4.643   4.038   1.712
 9675SOL    HW229925   4.488   4.070   1.753
 9676SOL     OW29926   1.435   3.196   5.440
 9676SOL    HW129927   1.517   3.252   5.447
 9676SOL    HW229928   1.361   3.251   5.402
 9677SOL     OW29929   6.313   4.885   0.530
 9677SOL    HW129930   6.249   4.825   0.484
 9677SOL    HW229931   6.386   4.831   0.572
 9678SOL     OW29932   3.531   3.755   4.875
 9678SOL    HW129933   3.597   3.680   4.875
 9678SOL    HW229934   3.565   3.830   4.931
 9679SOL     OW29935   1.875   1.393   4.907
 9679SOL    HW129936   1.878   1.323   4.836
 9679SOL    HW229937   1.921   1.476   4.874
 9680SOL     OW29938   4.185   5.985   2.833
 9680SOL    HW129939   4.191   6.077   2.797
 9680SOL    HW229940   4.223   5.920   2.767
 9681SOL     OW29941   1.914   1.718   2.363
 9681SOL    HW129942   1.820   1.695   2.336
 9681SOL    HW229943   1.924   1.704   2.462
 9682SOL     OW29944   5.603   5.911   4.840
 9682SOL    HW129945   5.558   5.867   4.762
 9682SOL    HW229946   5.698   5.933   4.816
 9683SOL     OW29947   2.744   6.838   1.193
 9683SOL    HW129948   2.798   6.920   1.174
 9683SOL    HW229949   2.763   6.770   1.123
 9684SOL     OW29950   1.552   4.327   5.746
 9684SOL    HW129951   1.483   4.354   5.678
 9684SOL    HW229952   1.506   4.297   5.830
 9685SOL     OW29953   3.754   4.799   1.552
 9685SOL    HW129954   3.696   4.766   1.478
 9685SOL    HW229955   3.850   4.792   1.524
 9686SOL     OW29956   6.724   1.713   5.629
 9686SOL    HW129957   6.634   1.726   5.588
 9686SOL    HW229958   6.714   1.666   5.716
 9687SOL     OW29959   5.904   0.453   2.250
 9687SOL    HW129960   5.919   0.541   2.204
 9687SOL    HW229961   5.964   0.447   2.330
 9688SOL     OW29962   1.141   4.549   1.309
 9688SOL    HW129963   1.089   4.630   1.336
 9688SOL    HW229964   1.079   4.477   1.281
 9689SOL     OW29965   1.133   6.320   0.596
 9689SOL    HW129966   1.156   6.238   0.647
 9689SOL    HW229967   1.175   6.400   0.640
 9690SOL     OW29968   5.663   5.584   5.349
 9690SOL    HW129969   5.589   5.641   5.386
 9690SOL    HW229970   5.731   5.643   5.306
 9691SOL     OW29971   3.465   3.364   2.134
 9691SOL    HW129972   3.520   3.428   2.079
 9691SOL    HW229973   3.465   3.274   2.090
 9692SOL     OW29974   4.538   5.152   0.494
 9692SOL    HW129975   4.506   5.188   0.406
 9692SOL    HW229976   4.497   5.062   0.510
 9693SOL     OW29977   5.428   4.112   3.930
 9693SOL    HW129978   5.494   4.044   3.897
 9693SOL    HW229979   5.428   4.190   3.867
 9694SOL     OW29980   3.369   6.565   1.855
 9694SOL    HW129981   3.309   6.622   1.799
 9694SOL    HW229982   3.356   6.588   1.952
 9695SOL     OW29983   0.381   2.591   3.717
 9695SOL    HW129984   0.401   2.539   3.634
 9695SOL    HW229985   0.433   2.677   3.716
 9696SOL     OW29986   5.795   1.793   2.864
 9696SOL    HW129987   5.779   1.867   2.799
 9696SOL    HW229988   5.893   1.774   2.870
 9697SOL     OW29989   0.005   6.019   0.229
 9697SOL    HW129990   0.028   5.985   0.138
 9697SOL    HW229991   7.022   6.119   0.227
 9698SOL     OW29992   5.519   3.757   0.170
 9698SOL    HW129993   5.435   3.780   0.122
 9698SOL    HW229994   5.510   3.780   0.267
 9699SOL     OW29995   1.090   5.149   0.404
 9699SOL    HW129996   1.121   5.054   0.397
 9699SOL    HW229997   1.093   5.193   0.314
 9700SOL     OW29998   5.749   6.465   4.541
 9700SOL    HW129999   5.756   6.424   4.449
 9700SOL    HW230000   5.821   6.533   4.552
 9701SOL     OW30001   4.893   3.251   6.231
 9701SOL    HW130002   4.863   3.281   6.321
 9701SOL    HW230003   4.969   3.187   6.241
 9702SOL     OW30004   3.076   3.188   0.950
 9702SOL    HW130005   3.046   3.276   0.986
 9702SOL    HW230006   3.074   3.190   0.851
 9703SOL     OW30007   6.322   3.800   5.174
 9703SOL    HW130008   6.311   3.852   5.089
 9703SOL    HW230009   6.238   3.748   5.193
 9704SOL     OW30010   2.781   4.763   2.764
 9704SOL    HW130011   2.751   4.702   2.837
 9704SOL    HW230012   2.873   4.738   2.735
 9705SOL     OW30013   5.899   4.171   5.673
 9705SOL    HW130014   5.855   4.145   5.759
 9705SOL    HW230015   5.959   4.250   5.690
 9706SOL     OW30016   1.276   1.593   2.277
 9706SOL    HW130017   1.218   1.653   2.223
 9706SOL    HW230018   1.235   1.579   2.367
 9707SOL     OW30019   6.320   4.782   2.224
 9707SOL    HW130020   6.234   4.814   2.265
 9707SOL    HW230021   6.377   4.741   2.294
 9708SOL     OW30022   2.134   0.463   1.986
 9708SOL    HW130023   2.181   0.537   2.035
 9708SOL    HW230024   2.077   0.502   1.913
 9709SOL     OW30025   5.616   2.701   2.377
 9709SOL    HW130026   5.664   2.739   2.298
 9709SOL    HW230027   5.536   2.650   2.346
 9710SOL     OW30028   6.163   5.832   5.068
 9710SOL    HW130029   6.255   5.865   5.092
 9710SOL    HW230030   6.147   5.744   5.112
 9711SOL     OW30031   3.861   6.580   6.762
 9711SOL    HW130032   3.801   6.627   6.826
 9711SOL    HW230033   3.827   6.591   6.669
 9712SOL     OW30034   6.322   2.338   0.550
 9712SOL    HW130035   6.406   2.297   0.585
 9712SOL    HW230036   6.244   2.307   0.605
 9713SOL     OW30037   1.801   6.421   3.661
 9713SOL    HW130038   1.725   6.444   3.601
 9713SOL    HW230039   1.766   6.410   3.755
 9714SOL     OW30040   3.357   4.915   4.797
 9714SOL    HW130041   3.279   4.876   4.749
 9714SOL    HW230042   3.327   4.956   4.883
 9715SOL     OW30043   6.012   4.294   1.214
 9715SOL    HW130044   6.095   4.271   1.164
 9715SOL    HW230045   5.934   4.296   1.151
 9716SOL     OW30046   3.149   4.753   6.690
 9716SOL    HW130047   3.113   4.834   6.645
 9716SOL    HW230048   3.159   4.771   6.788
 9717SOL     OW30049   3.965   0.944   5.653
 9717SOL    HW130050   4.033   0.936   5.726
 9717SOL    HW230051   3.873   0.940   5.692
 9718SOL     OW30052   3.444   1.893   0.121
 9718SOL    HW130053   3.498   1.865   0.041
 9718SOL    HW230054   3.467   1.835   0.199
 9719SOL     OW30055   4.275   6.109   5.166
 9719SOL    HW130056   4.286   6.009   5.165
 9719SOL    HW230057   4.220   6.137   5.087
 9720SOL     OW30058   1.654   4.694   2.831
 9720SOL    HW130059   1.681   4.712   2.737
 9720SOL    HW230060   1.673   4.775   2.887
 9721SOL     OW30061   0.907   2.078   0.327
 9721SOL    HW130062   0.944   2.087   0.419
 9721SOL    HW230063   0.850   2.158   0.306
 9722SOL     OW30064   3.786   2.952   5.280
 9722SOL    HW130065   3.778   2.976   5.377
 9722SOL    HW230066   3.762   2.856   5.267
 9723SOL     OW30067   6.397   5.188   4.919
 9723SOL    HW130068   6.307   5.202   4.877
 9723SOL    HW230069   6.447   5.119   4.866
 9724SOL     OW30070   1.002   5.515   0.196
 9724SOL    HW130071   1.056   5.565   0.128
 9724SOL    HW230072   0.911   5.497   0.160
 9725SOL     OW30073   3.173   5.410   4.940
 9725SOL    HW130074   3.083   5.383   4.975
 9725SOL    HW230075   3.244   5.350   4.978
 9726SOL     OW30076   6.267   1.068   4.214
 9726SOL    HW130077   6.227   1.150   4.254
 9726SOL    HW230078   6.344   1.093   4.156
 9727SOL     OW30079   0.902   1.446   6.652
 9727SOL    HW130080   0.940   1.424   6.742
 9727SOL    HW230081   0.836   1.521   6.661
 9728SOL     OW30082   5.102   0.535   5.927
 9728SOL    HW130083   5.042   0.493   5.995
 9728SOL    HW230084   5.190   0.487   5.926
 9729SOL     OW30085   0.746   4.740   3.250
 9729SOL    HW130086   0.762   4.718   3.346
 9729SOL    HW230087   0.789   4.671   3.192
 9730SOL     OW30088   0.933   4.284   3.148
 9730SOL    HW130089   0.951   4.330   3.062
 9730SOL    HW230090   0.991   4.322   3.220
 9731SOL     OW30091   4.948   4.118   2.953
 9731SOL    HW130092   4.954   4.171   2.868
 9731SOL    HW230093   4.910   4.027   2.933
 9732SOL     OW30094   1.393   2.899   2.293
 9732SOL    HW130095   1.294   2.895   2.283
 9732SOL    HW230096   1.419   2.987   2.332
 9733SOL     OW30097   6.398   5.180   2.610
 9733SOL    HW130098   6.313   5.207   2.655
 9733SOL    HW230099   6.381   5.164   2.513
 9734SOL     OW30100   5.993   6.897   6.707
 9734SOL    HW130101   6.003   6.798   6.695
 9734SOL    HW230102   6.083   6.938   6.722
 9735SOL     OW30103   0.815   1.659   2.474
 9735SOL    HW130104   0.768   1.660   2.386
 9735SOL    HW230105   0.826   1.753   2.507
 9736SOL     OW30106   4.625   2.379   5.266
 9736SOL    HW130107   4.529   2.408   5.257
 9736SOL    HW230108   4.631   2.303   5.330
 9737SOL     OW30109   6.002   1.934   2.528
 9737SOL    HW130110   5.918   1.977   2.563
 9737SOL    HW230111   6.080   1.994   2.545
 9738SOL     OW30112   1.945   5.841   1.181
 9738SOL    HW130113   1.949   5.870   1.277
 9738SOL    HW230114   1.929   5.742   1.178
 9739SOL     OW30115   5.021   0.121   6.995
 9739SOL    HW130116   4.935   0.171   7.002
 9739SOL    HW230117   5.062   0.112   0.061
 9740SOL     OW30118   6.825   0.631   2.787
 9740SOL    HW130119   6.875   0.606   2.704
 9740SOL    HW230120   6.749   0.568   2.800
 9741SOL     OW30121   3.223   1.387   4.697
 9741SOL    HW130122   3.291   1.363   4.627
 9741SOL    HW230123   3.262   1.373   4.788
 9742SOL     OW30124   4.019   1.791   6.316
 9742SOL    HW130125   4.029   1.890   6.317
 9742SOL    HW230126   3.923   1.767   6.307
 9743SOL     OW30127   6.248   2.917   3.150
 9743SOL    HW130128   6.334   2.919   3.201
 9743SOL    HW230129   6.198   2.834   3.173
 9744SOL     OW30130   1.771   6.835   3.673
 9744SOL    HW130131   1.779   6.778   3.755
 9744SOL    HW230132   1.675   6.837   3.643
 9745SOL     OW30133   5.854   0.858   5.852
 9745SOL    HW130134   5.953   0.863   5.839
 9745SOL    HW230135   5.808   0.885   5.767
 9746SOL     OW30136   4.880   5.983   6.349
 9746SOL    HW130137   4.943   5.923   6.398
 9746SOL    HW230138   4.839   6.049   6.412
 9747SOL     OW30139   2.463   2.193   2.188
 9747SOL    HW130140   2.492   2.112   2.240
 9747SOL    HW230141   2.427   2.165   2.100
 9748SOL     OW30142   1.080   0.598   3.102
 9748SOL    HW130143   1.114   0.548   3.022
 9748SOL    HW230144   1.054   0.533   3.173
 9749SOL     OW30145   6.993   1.736   3.002
 9749SOL    HW130146   0.013   1.693   3.081
 9749SOL    HW230147   7.010   1.681   2.920
 9750SOL     OW30148   6.431   4.568   3.977
 9750SOL    HW130149   6.525   4.596   3.957
 9750SOL    HW230150   6.397   4.512   3.902
 9751SOL     OW30151   2.528   0.896   1.791
 9751SOL    HW130152   2.577   0.949   1.721
 9751SOL    HW230153   2.469   0.958   1.844
 9752SOL     OW30154   4.260   2.860   0.852
 9752SOL    HW130155   4.238   2.868   0.755
 9752SOL    HW230156   4.234   2.769   0.885
 9753SOL     OW30157   6.628   6.125   6.052
 9753SOL    HW130158   6.659   6.176   5.971
 9753SOL    HW230159   6.681   6.041   6.060
 9754SOL     OW30160   3.891   0.450   1.224
 9754SOL    HW130161   3.931   0.459   1.133
 9754SOL    HW230162   3.947   0.388   1.279
 9755SOL     OW30163   3.279   3.975   5.769
 9755SOL    HW130164   3.293   4.064   5.727
 9755SOL    HW230165   3.361   3.950   5.822
 9756SOL     OW30166   5.734   1.067   6.349
 9756SOL    HW130167   5.820   1.102   6.313
 9756SOL    HW230168   5.657   1.109   6.300
 9757SOL     OW30169   5.187   4.104   4.036
 9757SOL    HW130170   5.284   4.119   4.018
 9757SOL    HW230171   5.138   4.093   3.950
 9758SOL     OW30172   1.738   0.865   0.777
 9758SOL    HW130173   1.798   0.944   0.787
 9758SOL    HW230174   1.772   0.806   0.704
 9759SOL     OW30175   1.298   1.861   0.717
 9759SOL    HW130176   1.237   1.854   0.638
 9759SOL    HW230177   1.366   1.788   0.713
 9760SOL     OW30178   4.874   2.296   0.158
 9760SOL    HW130179   4.840   2.203   0.141
 9760SOL    HW230180   4.811   2.362   0.119
 9761SOL     OW30181   1.361   1.133   1.925
 9761SOL    HW130182   1.439   1.195   1.924
 9761SOL    HW230183   1.289   1.167   1.865
 9762SOL     OW30184   2.961   1.635   5.244
 9762SOL    HW130185   3.019   1.615   5.165
 9762SOL    HW230186   3.015   1.629   5.328
 9763SOL     OW30187   6.071   1.147   1.537
 9763SOL    HW130188   6.157   1.157   1.587
 9763SOL    HW230189   5.996   1.187   1.590
 9764SOL     OW30190   5.577   2.009   2.451
 9764SOL    HW130191   5.599   1.954   2.370
 9764SOL    HW230192   5.478   2.019   2.459
 9765SOL     OW30193   6.691   1.427   2.155
 9765SOL    HW130194   6.709   1.329   2.150
 9765SOL    HW230195   6.737   1.473   2.079
 9766SOL     OW30196   2.058   0.986   3.697
 9766SOL    HW130197   2.130   1.013   3.761
 9766SOL    HW230198   1.985   0.940   3.747
 9767SOL     OW30199   1.848   3.017   5.730
 9767SOL    HW130200   1.786   3.070   5.789
 9767SOL    HW230201   1.940   3.020   5.769
 9768SOL     OW30202   6.018   2.176   0.776
 9768SOL    HW130203   5.941   2.223   0.732
 9768SOL    HW230204   6.084   2.243   0.808
 9769SOL     OW30205   2.796   1.724   4.959
 9769SOL    HW130206   2.769   1.685   4.870
 9769SOL    HW230207   2.872   1.787   4.947
 9770SOL     OW30208   3.501   2.309   6.407
 9770SOL    HW130209   3.447   2.362   6.341
 9770SOL    HW230210   3.443   2.239   6.449
 9771SOL     OW30211   2.578   6.272   2.583
 9771SOL    HW130212   2.627   6.191   2.614
 9771SOL    HW230213   2.607   6.352   2.635
 9772SOL     OW30214   1.110   5.651   1.903
 9772SOL    HW130215   1.021   5.683   1.936
 9772SOL    HW230216   1.136   5.702   1.822
 9773SOL     OW30217   5.204   5.404   2.330
 9773SOL    HW130218   5.113   5.385   2.293
 9773SOL    HW230219   5.204   5.390   2.429
 9774SOL     OW30220   0.410   5.709   4.165
 9774SOL    HW130221   0.490   5.650   4.170
 9774SOL    HW230222   0.384   5.722   4.069
 9775SOL     OW30223   2.474   0.839   3.384
 9775SOL    HW130224   2.504   0.892   3.304
 9775SOL    HW230225   2.547   0.838   3.452
 9776SOL     OW30226   1.729   5.490   6.351
 9776SOL    HW130227   1.749   5.561   6.283
 9776SOL    HW230228   1.807   5.478   6.411
 9777SOL     OW30229   5.375   0.022   6.381
 9777SOL    HW130230   5.313   0.058   6.311
 9777SOL    HW230231   5.399   0.095   6.445
 9778SOL     OW30232   0.555   1.952   4.981
 9778SOL    HW130233   0.601   1.971   5.067
 9778SOL    HW230234   0.496   1.872   4.991
 9779SOL     OW30235   0.920   1.745   3.637
 9779SOL    HW130236   0.834   1.796   3.651
 9779SOL    HW230237   0.920   1.705   3.546
 9780SOL     OW30238   2.073   1.610   1.132
 9780SOL    HW130239   2.052   1.583   1.038
 9780SOL    HW230240   1.990   1.645   1.176
 9781SOL     OW30241   1.561   3.743   3.263
 9781SOL    HW130242   1.626   3.678   3.224
 9781SOL    HW230243   1.473   3.735   3.216
 9782SOL     OW30244   0.721   2.410   0.783
 9782SOL    HW130245   0.693   2.333   0.726
 9782SOL    HW230246   0.643   2.471   0.797
 9783SOL     OW30247   3.580   1.530   3.440
 9783SOL    HW130248   3.499   1.583   3.463
 9783SOL    HW230249   3.565   1.480   3.355
 9784SOL     OW30250   2.797   1.514   0.062
 9784SOL    HW130251   2.808   1.582   0.135
 9784SOL    HW230252   2.850   1.541   7.007
 9785SOL     OW30253   0.056   2.207   4.925
 9785SOL    HW130254   0.130   2.273   4.938
 9785SOL    HW230255   7.011   2.246   4.864
 9786SOL     OW30256   2.343   4.465   0.761
 9786SOL    HW130257   2.265   4.512   0.802
 9786SOL    HW230258   2.318   4.371   0.739
 9787SOL     OW30259   3.676   3.191   2.865
 9787SOL    HW130260   3.587   3.150   2.847
 9787SOL    HW230261   3.721   3.142   2.939
 9788SOL     OW30262   0.512   5.839   2.311
 9788SOL    HW130263   0.599   5.791   2.298
 9788SOL    HW230264   0.477   5.869   2.223
 9789SOL     OW30265   2.894   6.988   6.576
 9789SOL    HW130266   2.872   6.976   6.480
 9789SOL    HW230267   2.970   6.928   6.601
 9790SOL     OW30268   6.820   3.912   4.406
 9790SOL    HW130269   6.723   3.928   4.420
 9790SOL    HW230270   6.861   3.875   4.489
 9791SOL     OW30271   0.593   6.362   0.485
 9791SOL    HW130272   0.594   6.405   0.575
 9791SOL    HW230273   0.686   6.363   0.447
 9792SOL     OW30274   3.721   5.452   0.971
 9792SOL    HW130275   3.741   5.531   0.912
 9792SOL    HW230276   3.648   5.475   1.035
 9793SOL     OW30277   4.804   1.625   2.198
 9793SOL    HW130278   4.850   1.583   2.276
 9793SOL    HW230279   4.705   1.619   2.209
 9794SOL     OW30280   4.971   4.825   4.756
 9794SOL    HW130281   5.052   4.862   4.801
 9794SOL    HW230282   4.891   4.836   4.815
 9795SOL     OW30283   0.931   2.765   3.559
 9795SOL    HW130284   0.998   2.839   3.561
 9795SOL    HW230285   0.875   2.772   3.477
 9796SOL     OW30286   3.495   4.164   3.543
 9796SOL    HW130287   3.459   4.243   3.592
 9796SOL    HW230288   3.541   4.195   3.459
 9797SOL     OW30289   2.827   5.868   6.433
 9797SOL    HW130290   2.825   5.789   6.371
 9797SOL    HW230291   2.754   5.859   6.501
 9798SOL     OW30292   1.317   2.600   1.343
 9798SOL    HW130293   1.233   2.557   1.310
 9798SOL    HW230294   1.386   2.598   1.271
 9799SOL     OW30295   2.879   5.653   6.267
 9799SOL    HW130296   2.813   5.663   6.193
 9799SOL    HW230297   2.946   5.583   6.243
 9800SOL     OW30298   5.456   3.094   4.141
 9800SOL    HW130299   5.393   3.029   4.098
 9800SOL    HW230300   5.434   3.187   4.110
 9801SOL     OW30301   5.788   4.751   6.677
 9801SOL    HW130302   5.775   4.655   6.702
 9801SOL    HW230303   5.731   4.808   6.736
 9802SOL     OW30304   4.233   5.244   1.196
 9802SOL    HW130305   4.195   5.272   1.108
 9802SOL    HW230306   4.178   5.281   1.270
 9803SOL     OW30307   1.435   3.620   6.320
 9803SOL    HW130308   1.463   3.605   6.225
 9803SOL    HW230309   1.511   3.659   6.371
 9804SOL     OW30310   6.880   5.673   3.235
 9804SOL    HW130311   6.789   5.645   3.203
 9804SOL    HW230312   6.901   5.624   3.320
 9805SOL     OW30313   0.352   6.582   3.822
 9805SOL    HW130314   0.376   6.502   3.766
 9805SOL    HW230315   0.414   6.587   3.900
 9806SOL     OW30316   4.100   2.490   5.958
 9806SOL    HW130317   4.049   2.488   5.872
 9806SOL    HW230318   4.127   2.397   5.984
 9807SOL     OW30319   3.298   2.868   2.363
 9807SOL    HW130320   3.316   2.889   2.266
 9807SOL    HW230321   3.231   2.794   2.368
 9808SOL     OW30322   4.440   6.108   3.891
 9808SOL    HW130323   4.478   6.178   3.830
 9808SOL    HW230324   4.404   6.152   3.973
 9809SOL     OW30325   0.679   3.343   0.670
 9809SOL    HW130326   0.765   3.321   0.716
 9809SOL    HW230327   0.693   3.419   0.607
 9810SOL     OW30328   2.337   1.678   5.660
 9810SOL    HW130329   2.343   1.771   5.697
 9810SOL    HW230330   2.415   1.661   5.601
 9811SOL     OW30331   6.517   3.706   4.258
 9811SOL    HW130332   6.553   3.791   4.295
 9811SOL    HW230333   6.517   3.710   4.158
 9812SOL     OW30334   2.239   6.869   4.575
 9812SOL    HW130335   2.291   6.813   4.511
 9812SOL    HW230336   2.142   6.848   4.567
 9813SOL     OW30337   5.507   2.523   0.613
 9813SOL    HW130338   5.579   2.498   0.548
 9813SOL    HW230339   5.435   2.573   0.566
 9814SOL     OW30340   5.772   1.907   6.791
 9814SOL    HW130341   5.713   1.826   6.786
 9814SOL    HW230342   5.772   1.942   6.885
 9815SOL     OW30343   4.816   3.041   4.701
 9815SOL    HW130344   4.873   3.059   4.781
 9815SOL    HW230345   4.862   3.074   4.619
 9816SOL     OW30346   1.213   0.517   0.537
 9816SOL    HW130347   1.235   0.484   0.629
 9816SOL    HW230348   1.114   0.524   0.527
 9817SOL     OW30349   0.441   0.203   3.191
 9817SOL    HW130350   0.364   0.216   3.129
 9817SOL    HW230351   0.451   0.284   3.249
 9818SOL     OW30352   5.848   1.719   4.702
 9818SOL    HW130353   5.922   1.769   4.656
 9818SOL    HW230354   5.768   1.779   4.710
 9819SOL     OW30355   3.962   1.583   3.233
 9819SOL    HW130356   4.015   1.666   3.249
 9819SOL    HW230357   3.868   1.607   3.208
 9820SOL     OW30358   3.329   4.290   5.800
 9820SOL    HW130359   3.272   4.309   5.880
 9820SOL    HW230360   3.307   4.355   5.727
 9821SOL     OW30361   5.384   6.001   6.901
 9821SOL    HW130362   5.314   5.931   6.890
 9821SOL    HW230363   5.355   6.085   6.854
 9822SOL     OW30364   0.391   6.956   3.016
 9822SOL    HW130365   0.490   6.943   3.024
 9822SOL    HW230366   0.373   0.013   2.961
 9823SOL     OW30367   3.364   0.525   2.034
 9823SOL    HW130368   3.334   0.514   1.939
 9823SOL    HW230369   3.301   0.586   2.081
 9824SOL     OW30370   0.718   4.208   5.451
 9824SOL    HW130371   0.670   4.178   5.534
 9824SOL    HW230372   0.812   4.232   5.474
 9825SOL     OW30373   3.756   5.249   5.543
 9825SOL    HW130374   3.741   5.347   5.557
 9825SOL    HW230375   3.686   5.198   5.592
 9826SOL     OW30376   4.471   5.725   6.041
 9826SOL    HW130377   4.421   5.754   6.123
 9826SOL    HW230378   4.407   5.712   5.966
 9827SOL     OW30379   1.728   4.294   4.730
 9827SOL    HW130380   1.715   4.344   4.816
 9827SOL    HW230381   1.825   4.290   4.708
 9828SOL     OW30382   3.476   3.159   6.771
 9828SOL    HW130383   3.492   3.081   6.831
 9828SOL    HW230384   3.475   3.243   6.826
 9829SOL     OW30385   3.422   6.401   0.365
 9829SOL    HW130386   3.468   6.312   0.359
 9829SOL    HW230387   3.381   6.411   0.456
 9830SOL     OW30388   6.208   1.710   1.009
 9830SOL    HW130389   6.242   1.767   0.935
 9830SOL    HW230390   6.237   1.615   0.995
 9831SOL     OW30391   0.911   5.987   1.005
 9831SOL    HW130392   0.945   5.957   1.094
 9831SOL    HW230393   0.876   5.909   0.954
 9832SOL     OW30394   4.574   5.033   2.509
 9832SOL    HW130395   4.562   5.130   2.528
 9832SOL    HW230396   4.530   5.010   2.422
 9833SOL     OW30397   3.562   3.427   5.067
 9833SOL    HW130398   3.540   3.522   5.093
 9833SOL    HW230399   3.505   3.365   5.120
 9834SOL     OW30400   2.599   3.536   5.883
 9834SOL    HW130401   2.646   3.526   5.796
 9834SOL    HW230402   2.521   3.598   5.872
 9835SOL     OW30403   4.832   1.546   3.913
 9835SOL    HW130404   4.860   1.568   4.006
 9835SOL    HW230405   4.840   1.627   3.855
 9836SOL     OW30406   5.810   3.682   3.266
 9836SOL    HW130407   5.717   3.648   3.251
 9836SOL    HW230408   5.821   3.769   3.220
 9837SOL     OW30409   1.826   0.034   3.815
 9837SOL    HW130410   1.800   0.091   3.737
 9837SOL    HW230411   1.808   6.962   3.792
 9838SOL     OW30412   0.957   6.533   5.759
 9838SOL    HW130413   0.870   6.486   5.743
 9838SOL    HW230414   0.980   6.588   5.679
 9839SOL     OW30415   6.589   1.186   2.644
 9839SOL    HW130416   6.513   1.143   2.693
 9839SOL    HW230417   6.657   1.116   2.620
 9840SOL     OW30418   0.578   0.534   0.513
 9840SOL    HW130419   0.577   0.434   0.508
 9840SOL    HW230420   0.549   0.572   0.425
 9841SOL     OW30421   1.445   4.673   4.647
 9841SOL    HW130422   1.425   4.756   4.595
 9841SOL    HW230423   1.525   4.628   4.608
 9842SOL     OW30424   3.520   2.976   3.588
 9842SOL    HW130425   3.488   3.070   3.587
 9842SOL    HW230426   3.467   2.922   3.521
 9843SOL     OW30427   6.713   2.377   1.227
 9843SOL    HW130428   6.782   2.306   1.214
 9843SOL    HW230429   6.654   2.353   1.305
 9844SOL     OW30430   4.454   6.582   2.844
 9844SOL    HW130431   4.356   6.598   2.839
 9844SOL    HW230432   4.475   6.528   2.926
 9845SOL     OW30433   2.020   1.600   4.806
 9845SOL    HW130434   2.047   1.685   4.761
 9845SOL    HW230435   2.099   1.561   4.854
 9846SOL     OW30436   3.037   3.951   3.445
 9846SOL    HW130437   2.999   3.997   3.525
 9846SOL    HW230438   3.137   3.949   3.453
 9847SOL     OW30439   2.613   2.639   5.976
 9847SOL    HW130440   2.581   2.712   5.915
 9847SOL    HW230441   2.591   2.662   6.071
 9848SOL     OW30442   3.769   2.364   6.599
 9848SOL    HW130443   3.727   2.306   6.530
 9848SOL    HW230444   3.868   2.354   6.596
 9849SOL     OW30445   5.427   0.590   6.479
 9849SOL    HW130446   5.381   0.595   6.568
 9849SOL    HW230447   5.492   0.665   6.471
 9850SOL     OW30448   4.684   6.088   1.996
 9850SOL    HW130449   4.706   5.994   1.970
 9850SOL    HW230450   4.766   6.132   2.032
 9851SOL     OW30451   4.471   2.036   5.167
 9851SOL    HW130452   4.567   2.053   5.188
 9851SOL    HW230453   4.459   1.941   5.139
 9852SOL     OW30454   4.180   1.535   2.990
 9852SOL    HW130455   4.239   1.615   2.988
 9852SOL    HW230456   4.127   1.535   3.076
 9853SOL     OW30457   4.735   4.136   3.162
 9853SOL    HW130458   4.804   4.196   3.121
 9853SOL    HW230459   4.769   4.042   3.162
 9854SOL     OW30460   5.887   5.113   5.345
 9854SOL    HW130461   5.896   5.210   5.320
 9854SOL    HW230462   5.802   5.099   5.395
 9855SOL     OW30463   0.666   4.417   1.390
 9855SOL    HW130464   0.582   4.435   1.339
 9855SOL    HW230465   0.657   4.331   1.439
 9856SOL     OW30466   4.304   4.052   6.855
 9856SOL    HW130467   4.263   4.140   6.879
 9856SOL    HW230468   4.402   4.056   6.873
 9857SOL     OW30469   5.360   2.165   2.924
 9857SOL    HW130470   5.427   2.239   2.934
 9857SOL    HW230471   5.295   2.167   3.000
 9858SOL     OW30472   5.212   0.936   1.540
 9858SOL    HW130473   5.179   0.849   1.577
 9858SOL    HW230474   5.150   0.968   1.469
 9859SOL     OW30475   6.603   6.900   0.968
 9859SOL    HW130476   6.572   6.811   0.936
 9859SOL    HW230477   6.700   6.911   0.947
 9860SOL     OW30478   0.637   1.008   1.479
 9860SOL    HW130479   0.563   1.024   1.545
 9860SOL    HW230480   0.621   1.065   1.398
 9861SOL     OW30481   3.575   6.871   4.447
 9861SOL    HW130482   3.658   6.882   4.502
 9861SOL    HW230483   3.600   6.839   4.356
 9862SOL     OW30484   2.763   3.858   0.712
 9862SOL    HW130485   2.794   3.939   0.661
 9862SOL    HW230486   2.664   3.863   0.723
 9863SOL     OW30487   3.059   7.008   3.358
 9863SOL    HW130488   3.112   0.026   3.284
 9863SOL    HW230489   2.978   0.039   3.378
 9864SOL     OW30490   4.188   6.330   3.496
 9864SOL    HW130491   4.104   6.321   3.443
 9864SOL    HW230492   4.198   6.425   3.526
 9865SOL     OW30493   0.762   1.387   3.734
 9865SOL    HW130494   0.755   1.300   3.782
 9865SOL    HW230495   0.734   1.375   3.638
 9866SOL     OW30496   4.964   4.210   4.764
 9866SOL    HW130497   4.885   4.259   4.728
 9866SOL    HW230498   5.044   4.225   4.705
 9867SOL     OW30499   4.051   0.785   1.331
 9867SOL    HW130500   4.097   0.859   1.379
 9867SOL    HW230501   4.089   0.776   1.239
 9868SOL     OW30502   1.707   4.607   6.184
 9868SOL    HW130503   1.731   4.698   6.150
 9868SOL    HW230504   1.640   4.565   6.123
 9869SOL     OW30505   1.968   3.720   2.625
 9869SOL    HW130506   1.946   3.701   2.720
 9869SOL    HW230507   1.972   3.634   2.574
 9870SOL     OW30508   4.049   5.852   2.065
 9870SOL    HW130509   4.123   5.914   2.093
 9870SOL    HW230510   4.019   5.799   2.144
 9871SOL     OW30511   0.920   6.867   6.346
 9871SOL    HW130512   0.977   6.843   6.425
 9871SOL    HW230513   0.885   6.783   6.304
 9872SOL     OW30514   2.865   5.517   2.902
 9872SOL    HW130515   2.867   5.420   2.927
 9872SOL    HW230516   2.956   5.547   2.876
 9873SOL     OW30517   2.138   2.297   1.233
 9873SOL    HW130518   2.071   2.366   1.204
 9873SOL    HW230519   2.096   2.237   1.301
 9874SOL     OW30520   0.378   2.245   4.457
 9874SOL    HW130521   0.315   2.278   4.528
 9874SOL    HW230522   0.328   2.184   4.395
 9875SOL     OW30523   0.153   6.856   2.371
 9875SOL    HW130524   0.222   6.921   2.340
 9875SOL    HW230525   0.187   6.763   2.358
 9876SOL     OW30526   0.005   0.782   2.234
 9876SOL    HW130527   0.082   0.766   2.296
 9876SOL    HW230528   0.040   0.791   2.141
 9877SOL     OW30529   1.575   6.081   2.603
 9877SOL    HW130530   1.524   6.165   2.618
 9877SOL    HW230531   1.613   6.081   2.510
 9878SOL     OW30532   2.286   5.271   5.186
 9878SOL    HW130533   2.253   5.183   5.221
 9878SOL    HW230534   2.351   5.310   5.252
 9879SOL     OW30535   5.754   5.142   5.091
 9879SOL    HW130536   5.827   5.174   5.151
 9879SOL    HW230537   5.707   5.221   5.051
 9880SOL     OW30538   1.798   2.670   5.198
 9880SOL    HW130539   1.807   2.657   5.100
 9880SOL    HW230540   1.708   2.709   5.219
 9881SOL     OW30541   1.866   2.009   5.099
 9881SOL    HW130542   1.767   2.016   5.099
 9881SOL    HW230543   1.893   1.914   5.119
 9882SOL     OW30544   1.199   2.156   3.810
 9882SOL    HW130545   1.181   2.244   3.854
 9882SOL    HW230546   1.297   2.143   3.799
 9883SOL     OW30547   1.137   5.582   0.576
 9883SOL    HW130548   1.084   5.665   0.589
 9883SOL    HW230549   1.112   5.514   0.645
 9884SOL     OW30550   4.363   1.735   3.060
 9884SOL    HW130551   4.451   1.708   3.100
 9884SOL    HW230552   4.380   1.793   2.980
 9885SOL     OW30553   0.239   3.547   5.461
 9885SOL    HW130554   0.225   3.593   5.548
 9885SOL    HW230555   0.293   3.464   5.475
 9886SOL     OW30556   0.845   4.508   2.320
 9886SOL    HW130557   0.902   4.528   2.400
 9886SOL    HW230558   0.887   4.548   2.239
 9887SOL     OW30559   3.487   1.687   6.284
 9887SOL    HW130560   3.451   1.619   6.220
 9887SOL    HW230561   3.415   1.751   6.309
 9888SOL     OW30562   6.920   4.554   0.795
 9888SOL    HW130563   6.852   4.530   0.725
 9888SOL    HW230564   6.899   4.646   0.829
 9889SOL     OW30565   6.636   4.960   1.096
 9889SOL    HW130566   6.610   4.962   1.000
 9889SOL    HW230567   6.660   5.053   1.125
 9890SOL     OW30568   1.790   2.513   0.244
 9890SOL    HW130569   1.835   2.555   0.322
 9890SOL    HW230570   1.698   2.551   0.234
 9891SOL     OW30571   5.921   2.865   1.140
 9891SOL    HW130572   5.954   2.915   1.060
 9891SOL    HW230573   5.821   2.870   1.144
 9892SOL     OW30574   6.455   5.418   0.383
 9892SOL    HW130575   6.383   5.409   0.314
 9892SOL    HW230576   6.541   5.443   0.339
 9893SOL     OW30577   1.445   0.160   0.699
 9893SOL    HW130578   1.441   0.247   0.748
 9893SOL    HW230579   1.396   0.090   0.751
 9894SOL     OW30580   1.980   1.930   1.721
 9894SOL    HW130581   1.925   1.848   1.738
 9894SOL    HW230582   2.049   1.940   1.793
 9895SOL     OW30583   5.465   3.724   5.871
 9895SOL    HW130584   5.428   3.681   5.954
 9895SOL    HW230585   5.410   3.697   5.792
 9896SOL     OW30586   6.282   6.751   5.936
 9896SOL    HW130587   6.299   6.845   5.967
 9896SOL    HW230588   6.183   6.735   5.933
 9897SOL     OW30589   5.669   5.498   3.738
 9897SOL    HW130590   5.642   5.421   3.680
 9897SOL    HW230591   5.762   5.484   3.771
 9898SOL     OW30592   2.363   5.529   5.912
 9898SOL    HW130593   2.396   5.435   5.919
 9898SOL    HW230594   2.282   5.532   5.854
 9899SOL     OW30595   0.264   5.573   0.089
 9899SOL    HW130596   0.308   5.641   0.032
 9899SOL    HW230597   0.204   5.516   0.033
 9900SOL     OW30598   2.063   3.834   3.666
 9900SOL    HW130599   2.006   3.870   3.593
 9900SOL    HW230600   2.139   3.897   3.683
 9901SOL     OW30601   2.898   1.575   6.367
 9901SOL    HW130602   2.817   1.619   6.329
 9901SOL    HW230603   2.980   1.619   6.329
 9902SOL     OW30604   3.182   4.822   6.968
 9902SOL    HW130605   3.148   4.904   7.014
 9902SOL    HW230606   3.265   4.791   7.013
 9903SOL     OW30607   4.882   0.996   1.705
 9903SOL    HW130608   4.892   0.939   1.624
 9903SOL    HW230609   4.972   1.033   1.730
 9904SOL     OW30610   0.618   3.349   6.872
 9904SOL    HW130611   0.578   3.304   6.952
 9904SOL    HW230612   0.661   3.280   6.813
 9905SOL     OW30613   2.697   0.491   6.852
 9905SOL    HW130614   2.760   0.565   6.827
 9905SOL    HW230615   2.748   0.417   6.895
 9906SOL     OW30616   2.914   3.334   1.836
 9906SOL    HW130617   3.012   3.318   1.852
 9906SOL    HW230618   2.880   3.267   1.769
 9907SOL     OW30619   6.497   0.796   0.628
 9907SOL    HW130620   6.482   0.894   0.616
 9907SOL    HW230621   6.493   0.751   0.539
 9908SOL     OW30622   5.585   1.614   4.231
 9908SOL    HW130623   5.515   1.579   4.170
 9908SOL    HW230624   5.547   1.624   4.323
 9909SOL     OW30625   3.915   0.642   3.858
 9909SOL    HW130626   3.908   0.700   3.777
 9909SOL    HW230627   4.010   0.633   3.885
 9910SOL     OW30628   1.164   3.860   2.923
 9910SOL    HW130629   1.129   3.777   2.966
 9910SOL    HW230630   1.185   3.841   2.827
 9911SOL     OW30631   3.552   6.584   2.144
 9911SOL    HW130632   3.640   6.539   2.132
 9911SOL    HW230633   3.521   6.572   2.238
 9912SOL     OW30634   3.869   1.753   1.974
 9912SOL    HW130635   3.885   1.710   1.885
 9912SOL    HW230636   3.793   1.817   1.966
 9913SOL     OW30637   6.509   4.052   0.632
 9913SOL    HW130638   6.551   3.962   0.623
 9913SOL    HW230639   6.493   4.072   0.728
 9914SOL     OW30640   4.945   2.484   4.989
 9914SOL    HW130641   4.926   2.486   4.891
 9914SOL    HW230642   4.875   2.536   5.038
 9915SOL     OW30643   5.506   0.712   3.521
 9915SOL    HW130644   5.556   0.790   3.482
 9915SOL    HW230645   5.572   0.645   3.555
 9916SOL     OW30646   1.824   2.584   3.493
 9916SOL    HW130647   1.783   2.505   3.539
 9916SOL    HW230648   1.897   2.552   3.432
 9917SOL     OW30649   5.934   3.765   0.249
 9917SOL    HW130650   5.874   3.829   0.298
 9917SOL    HW230651   5.918   3.672   0.283
 9918SOL     OW30652   3.074   1.332   3.129
 9918SOL    HW130653   3.027   1.363   3.047
 9918SOL    HW230654   3.143   1.399   3.156
 9919SOL     OW30655   6.120   5.053   1.129
 9919SOL    HW130656   6.209   5.011   1.142
 9919SOL    HW230657   6.096   5.050   1.032
 9920SOL     OW30658   4.955   1.976   1.824
 9920SOL    HW130659   4.912   2.028   1.749
 9920SOL    HW230660   4.885   1.950   1.890
 9921SOL     OW30661   4.752   6.769   6.136
 9921SOL    HW130662   4.675   6.706   6.129
 9921SOL    HW230663   4.764   6.818   6.050
 9922SOL     OW30664   2.096   4.575   0.825
 9922SOL    HW130665   2.059   4.663   0.855
 9922SOL    HW230666   2.043   4.501   0.866
 9923SOL     OW30667   4.985   4.768   0.593
 9923SOL    HW130668   5.020   4.812   0.510
 9923SOL    HW230669   5.051   4.700   0.626
 9924SOL     OW30670   6.343   2.317   4.843
 9924SOL    HW130671   6.360   2.235   4.897
 9924SOL    HW230672   6.278   2.376   4.892
 9925SOL     OW30673   6.780   3.332   3.878
 9925SOL    HW130674   6.749   3.287   3.962
 9925SOL    HW230675   6.844   3.272   3.830
 9926SOL     OW30676   3.509   3.078   0.343
 9926SOL    HW130677   3.467   3.069   0.253
 9926SOL    HW230678   3.537   3.172   0.358
 9927SOL     OW30679   0.060   0.215   1.151
 9927SOL    HW130680   0.044   0.168   1.238
 9927SOL    HW230681   0.152   0.194   1.118
 9928SOL     OW30682   5.302   6.496   1.818
 9928SOL    HW130683   5.349   6.488   1.906
 9928SOL    HW230684   5.247   6.415   1.803
 9929SOL     OW30685   2.628   5.329   4.864
 9929SOL    HW130686   2.551   5.265   4.863
 9929SOL    HW230687   2.676   5.323   4.951
 9930SOL     OW30688   6.539   6.767   4.575
 9930SOL    HW130689   6.538   6.782   4.476
 9930SOL    HW230690   6.599   6.690   4.596
 9931SOL     OW30691   1.169   4.716   4.549
 9931SOL    HW130692   1.171   4.807   4.591
 9931SOL    HW230693   1.237   4.658   4.594
 9932SOL     OW30694   2.150   5.214   6.513
 9932SOL    HW130695   2.098   5.158   6.577
 9932SOL    HW230696   2.140   5.311   6.536
 9933SOL     OW30697   1.409   5.067   3.439
 9933SOL    HW130698   1.366   5.065   3.349
 9933SOL    HW230699   1.497   5.114   3.432
 9934SOL     OW30700   5.531   1.472   5.584
 9934SOL    HW130701   5.461   1.465   5.513
 9934SOL    HW230702   5.529   1.389   5.640
 9935SOL     OW30703   3.202   6.987   0.499
 9935SOL    HW130704   3.190   6.925   0.576
 9935SOL    HW230705   3.285   6.962   0.449
 9936SOL     OW30706   6.752   4.960   6.090
 9936SOL    HW130707   6.785   5.021   6.019
 9936SOL    HW230708   6.829   4.923   6.142
 9937SOL     OW30709   6.614   1.504   6.663
 9937SOL    HW130710   6.650   1.516   6.755
 9937SOL    HW230711   6.661   1.566   6.600
 9938SOL     OW30712   6.849   5.493   2.870
 9938SOL    HW130713   6.915   5.556   2.910
 9938SOL    HW230714   6.791   5.455   2.942
 9939SOL     OW30715   4.173   2.227   0.516
 9939SOL    HW130716   4.216   2.147   0.557
 9939SOL    HW230717   4.122   2.199   0.434
 9940SOL     OW30718   1.099   0.997   1.312
 9940SOL    HW130719   1.191   1.020   1.345
 9940SOL    HW230720   1.054   1.079   1.279
 9941SOL     OW30721   3.226   3.832   5.128
 9941SOL    HW130722   3.235   3.861   5.223
 9941SOL    HW230723   3.236   3.911   5.068
 9942SOL     OW30724   2.474   5.528   2.719
 9942SOL    HW130725   2.449   5.621   2.691
 9942SOL    HW230726   2.454   5.464   2.644
 9943SOL     OW30727   6.964   5.567   5.638
 9943SOL    HW130728   6.911   5.642   5.678
 9943SOL    HW230729   0.035   5.595   5.629
 9944SOL     OW30730   1.879   5.094   6.374
 9944SOL    HW130731   1.914   5.057   6.288
 9944SOL    HW230732   1.857   5.019   6.436
 9945SOL     OW30733   6.601   5.726   6.578
 9945SOL    HW130734   6.580   5.772   6.491
 9945SOL    HW230735   6.518   5.721   6.634
 9946SOL     OW30736   4.761   1.241   5.016
 9946SOL    HW130737   4.725   1.334   5.006
 9946SOL    HW230738   4.686   1.176   5.010
 9947SOL     OW30739   1.438   3.667   5.281
 9947SOL    HW130740   1.525   3.648   5.236
 9947SOL    HW230741   1.365   3.667   5.213
 9948SOL     OW30742   5.946   4.758   4.391
 9948SOL    HW130743   5.877   4.694   4.357
 9948SOL    HW230744   6.037   4.716   4.385
 9949SOL     OW30745   5.657   4.825   3.677
 9949SOL    HW130746   5.650   4.732   3.713
 9949SOL    HW230747   5.606   4.887   3.736
 9950SOL     OW30748   5.764   6.059   5.331
 9950SOL    HW130749   5.672   6.054   5.369
 9950SOL    HW230750   5.823   6.112   5.392
 9951SOL     OW30751   6.103   1.554   4.569
 9951SOL    HW130752   6.202   1.537   4.563
 9951SOL    HW230753   6.087   1.634   4.627
 9952SOL     OW30754   0.489   3.250   1.127
 9952SOL    HW130755   0.500   3.346   1.153
 9952SOL    HW230756   0.561   3.195   1.169
 9953SOL     OW30757   6.005   2.402   4.191
 9953SOL    HW130758   5.941   2.436   4.259
 9953SOL    HW230759   6.001   2.459   4.109
 9954SOL     OW30760   6.070   0.137   5.923
 9954SOL    HW130761   5.979   0.150   5.884
 9954SOL    HW230762   6.079   0.191   6.006
 9955SOL     OW30763   5.952   3.474   5.518
 9955SOL    HW130764   5.858   3.469   5.484
 9955SOL    HW230765   5.996   3.557   5.484
 9956SOL     OW30766   1.831   6.886   1.719
 9956SOL    HW130767   1.880   6.823   1.779
 9956SOL    HW230768   1.767   6.941   1.773
 9957SOL     OW30769   5.944   5.567   3.100
 9957SOL    HW130770   6.039   5.555   3.071
 9957SOL    HW230771   5.886   5.579   3.020
 9958SOL     OW30772   2.881   5.397   0.734
 9958SOL    HW130773   2.794   5.381   0.686
 9958SOL    HW230774   2.922   5.309   0.758
 9959SOL     OW30775   4.112   3.635   5.505
 9959SOL    HW130776   4.149   3.728   5.498
 9959SOL    HW230777   4.187   3.570   5.515
 9960SOL     OW30778   6.969   6.901   2.150
 9960SOL    HW130779   0.017   6.875   2.213
 9960SOL    HW230780   6.893   6.836   2.157
 9961SOL     OW30781   1.520   5.906   3.785
 9961SOL    HW130782   1.530   6.004   3.802
 9961SOL    HW230783   1.607   5.860   3.802
 9962SOL     OW30784   6.804   6.923   2.960
 9962SOL    HW130785   6.773   6.997   2.900
 9962SOL    HW230786   6.774   6.943   3.054
 9963SOL     OW30787   3.136   2.748   7.012
 9963SOL    HW130788   3.096   2.819   6.955
 9963SOL    HW230789   3.092   2.747   0.077
 9964SOL     OW30790   4.692   5.237   5.337
 9964SOL    HW130791   4.634   5.279   5.267
 9964SOL    HW230792   4.677   5.138   5.338
 9965SOL     OW30793   3.728   6.792   0.057
 9965SOL    HW130794   3.744   6.837   0.145
 9965SOL    HW230795   3.661   6.844   0.004
 9966SOL     OW30796   1.822   5.047   1.232
 9966SOL    HW130797   1.894   5.080   1.293
 9966SOL    HW230798   1.734   5.050   1.280
 9967SOL     OW30799   0.205   5.998   2.394
 9967SOL    HW130800   0.211   5.943   2.478
 9967SOL    HW230801   0.289   6.051   2.383
 9968SOL     OW30802   3.799   3.950   1.149
 9968SOL    HW130803   3.809   4.038   1.104
 9968SOL    HW230804   3.719   3.952   1.210
 9969SOL     OW30805   1.566   3.572   2.429
 9969SOL    HW130806   1.633   3.499   2.416
 9969SOL    HW230807   1.591   3.651   2.373
 9970SOL     OW30808   5.205   4.398   2.813
 9970SOL    HW130809   5.262   4.443   2.881
 9970SOL    HW230810   5.242   4.307   2.793
 9971SOL     OW30811   2.343   4.869   1.411
 9971SOL    HW130812   2.310   4.909   1.326
 9971SOL    HW230813   2.417   4.805   1.392
 9972SOL     OW30814   5.708   5.011   1.028
 9972SOL    HW130815   5.761   4.949   0.970
 9972SOL    HW230816   5.769   5.081   1.066
 9973SOL     OW30817   5.997   1.742   3.404
 9973SOL    HW130818   5.919   1.685   3.430
 9973SOL    HW230819   6.072   1.685   3.371
 9974SOL     OW30820   0.825   2.449   2.547
 9974SOL    HW130821   0.819   2.403   2.636
 9974SOL    HW230822   0.759   2.408   2.484
 9975SOL     OW30823   6.169   3.008   0.388
 9975SOL    HW130824   6.181   2.963   0.477
 9975SOL    HW230825   6.255   3.050   0.360
 9976SOL     OW30826   1.028   6.073   5.107
 9976SOL    HW130827   1.080   5.988   5.117
 9976SOL    HW230828   1.064   6.125   5.029
 9977SOL     OW30829   6.413   5.866   5.514
 9977SOL    HW130830   6.494   5.809   5.505
 9977SOL    HW230831   6.344   5.818   5.568
 9978SOL     OW30832   1.262   3.176   4.863
 9978SOL    HW130833   1.189   3.110   4.880
 9978SOL    HW230834   1.292   3.216   4.949
 9979SOL     OW30835   6.729   4.810   5.464
 9979SOL    HW130836   6.803   4.827   5.399
 9979SOL    HW230837   6.643   4.846   5.425
 9980SOL     OW30838   2.403   0.295   6.821
 9980SOL    HW130839   2.490   0.290   6.869
 9980SOL    HW230840   2.405   0.235   6.741
 9981SOL     OW30841   2.210   1.663   2.911
 9981SOL    HW130842   2.252   1.632   2.996
 9981SOL    HW230843   2.178   1.757   2.922
 9982SOL     OW30844   6.325   5.938   4.107
 9982SOL    HW130845   6.236   5.942   4.152
 9982SOL    HW230846   6.398   5.945   4.176
 9983SOL     OW30847   0.597   2.271   3.041
 9983SOL    HW130848   0.535   2.307   2.972
 9983SOL    HW230849   0.572   2.176   3.062
 9984SOL     OW30850   2.736   1.854   6.927
 9984SOL    HW130851   2.748   1.913   6.847
 9984SOL    HW230852   2.818   1.858   6.984
 9985SOL     OW30853   2.142   1.043   0.644
 9985SOL    HW130854   2.104   1.009   0.730
 9985SOL    HW230855   2.105   0.989   0.568
 9986SOL     OW30856   6.459   4.026   5.980
 9986SOL    HW130857   6.432   4.000   6.072
 9986SOL    HW230858   6.438   4.123   5.964
 9987SOL     OW30859   5.853   3.123   5.283
 9987SOL    HW130860   5.923   3.193   5.298
 9987SOL    HW230861   5.837   3.112   5.185
 9988SOL     OW30862   0.320   5.760   4.575
 9988SOL    HW130863   0.326   5.675   4.522
 9988SOL    HW230864   0.344   5.742   4.670
 9989SOL     OW30865   6.906   3.171   3.698
 9989SOL    HW130866   6.960   3.087   3.695
 9989SOL    HW230867   6.816   3.154   3.658
 9990SOL     OW30868   2.136   5.058   3.362
 9990SOL    HW130869   2.059   5.037   3.423
 9990SOL    HW230870   2.186   4.974   3.342
 9991SOL     OW30871   2.948   2.243   4.578
 9991SOL    HW130872   3.032   2.212   4.533
 9991SOL    HW230873   2.874   2.250   4.511
 9992SOL     OW30874   5.519   4.909   0.103
 9992SOL    HW130875   5.440   4.874   0.052
 9992SOL    HW230876   5.556   4.989   0.057
 9993SOL     OW30877   2.994   1.116   0.819
 9993SOL    HW130878   3.038   1.205   0.829
 9993SOL    HW230879   2.900   1.122   0.850
 9994SOL     OW30880   6.109   4.552   2.985
 9994SOL    HW130881   6.089   4.570   2.889
 9994SOL    HW230882   6.058   4.472   3.015
 9995SOL     OW30883   4.626   1.456   3.296
 9995SOL    HW130884   4.535   1.489   3.269
 9995SOL    HW230885   4.617   1.375   3.352
 9996SOL     OW30886   2.983   3.863   7.009
 9996SOL    HW130887   3.043   3.803   0.038
 9996SOL    HW230888   2.965   3.947   0.035
 9997SOL     OW30889   2.787   1.777   5.658
 9997SOL    HW130890   2.881   1.745   5.664
 9997SOL    HW230891   2.769   1.811   5.566
 9998SOL     OW30892   5.661   4.866   5.529
 9998SOL    HW130893   5.633   4.933   5.460
 9998SOL    HW230894   5.669   4.776   5.487
 9999SOL     OW30895   6.425   2.927   5.883
 9999SOL    HW130896   6.472   2.933   5.795
 9999SOL    HW230897   6.437   3.013   5.933
10000SOL     OW30898   6.461   3.788   7.020
10000SOL    HW130899   6.414   3.720   0.053
10000SOL    HW230900   6.422   3.878   0.013
10001SOL     OW30901   4.815   0.015   2.274
10001SOL    HW130902   4.822   6.992   2.361
10001SOL    HW230903   4.754   0.094   2.283
10002SOL     OW30904   1.641   6.721   2.029
10002SOL    HW130905   1.653   6.818   2.006
10002SOL    HW230906   1.544   6.700   2.035
10003SOL     OW30907   3.332   2.140   3.914
10003SOL    HW130908   3.428   2.142   3.942
10003SOL    HW230909   3.326   2.103   3.821
10004SOL     OW30910   6.875   2.870   4.794
10004SOL    HW130911   6.780   2.859   4.824
10004SOL    HW230912   6.901   2.793   4.736
10005SOL     OW30913   5.652   0.536   3.678
10005SOL    HW130914   5.615   0.581   3.760
10005SOL    HW230915   5.751   0.526   3.687
10006SOL     OW30916   4.699   6.650   4.256
10006SOL    HW130917   4.698   6.746   4.285
10006SOL    HW230918   4.747   6.643   4.168
10007SOL     OW30919   0.300   3.821   5.042
10007SOL    HW130920   0.356   3.807   5.123
10007SOL    HW230921   0.209   3.852   5.068
10008SOL     OW30922   4.011   1.232   4.770
10008SOL    HW130923   4.007   1.219   4.869
10008SOL    HW230924   4.032   1.145   4.726
10009SOL     OW30925   1.879   3.938   2.297
10009SOL    HW130926   1.964   3.886   2.307
10009SOL    HW230927   1.901   4.033   2.276
10010SOL     OW30928   2.035   0.850   6.528
10010SOL    HW130929   2.009   0.784   6.457
10010SOL    HW230930   2.091   0.922   6.487
10011SOL     OW30931   6.791   0.402   5.381
10011SOL    HW130932   6.814   0.346   5.301
10011SOL    HW230933   6.718   0.359   5.433
10012SOL     OW30934   6.007   0.425   2.789
10012SOL    HW130935   5.928   0.437   2.728
10012SOL    HW230936   6.070   0.358   2.749
10013SOL     OW30937   0.221   1.151   3.247
10013SOL    HW130938   0.164   1.074   3.220
10013SOL    HW230939   0.248   1.202   3.165
10014SOL     OW30940   0.585   4.207   6.693
10014SOL    HW130941   0.668   4.247   6.733
10014SOL    HW230942   0.587   4.218   6.594
10015SOL     OW30943   2.330   5.481   0.396
10015SOL    HW130944   2.417   5.498   0.349
10015SOL    HW230945   2.257   5.472   0.327
10016SOL     OW30946   1.663   1.516   6.177
10016SOL    HW130947   1.632   1.545   6.087
10016SOL    HW230948   1.654   1.417   6.185
10017SOL     OW30949   2.907   2.099   4.174
10017SOL    HW130950   2.846   2.040   4.226
10017SOL    HW230951   2.953   2.163   4.236
10018SOL     OW30952   5.266   0.177   6.910
10018SOL    HW130953   5.289   0.259   6.858
10018SOL    HW230954   5.170   0.182   6.940
10019SOL     OW30955   1.117   1.566   2.910
10019SOL    HW130956   1.047   1.628   2.874
10019SOL    HW230957   1.073   1.495   2.965
10020SOL     OW30958   0.788   2.825   1.821
10020SOL    HW130959   0.752   2.732   1.828
10020SOL    HW230960   0.872   2.825   1.767
10021SOL     OW30961   6.814   3.510   1.205
10021SOL    HW130962   6.777   3.503   1.112
10021SOL    HW230963   6.778   3.593   1.248
10022SOL     OW30964   2.397   1.372   6.169
10022SOL    HW130965   2.319   1.435   6.170
10022SOL    HW230966   2.471   1.411   6.113
10023SOL     OW30967   6.395   4.145   0.386
10023SOL    HW130968   6.484   4.185   0.362
10023SOL    HW230969   6.398   4.110   0.479
10024SOL     OW30970   1.119   5.934   3.860
10024SOL    HW130971   1.200   5.988   3.885
10024SOL    HW230972   1.089   5.959   3.768
10025SOL     OW30973   1.938   0.607   1.881
10025SOL    HW130974   1.994   0.689   1.872
10025SOL    HW230975   1.841   0.631   1.868
10026SOL     OW30976   5.386   0.399   3.674
10026SOL    HW130977   5.384   0.356   3.764
10026SOL    HW230978   5.473   0.447   3.662
10027SOL     OW30979   5.461   3.526   4.240
10027SOL    HW130980   5.393   3.485   4.301
10027SOL    HW230981   5.548   3.478   4.250
10028SOL     OW30982   1.277   0.792   0.992
10028SOL    HW130983   1.177   0.789   0.989
10028SOL    HW230984   1.311   0.846   0.914
10029SOL     OW30985   5.504   1.818   3.447
10029SOL    HW130986   5.489   1.862   3.536
10029SOL    HW230987   5.435   1.747   3.434
10030SOL     OW30988   2.261   0.974   3.429
10030SOL    HW130989   2.225   0.958   3.521
10030SOL    HW230990   2.337   0.912   3.412
10031SOL     OW30991   5.458   4.728   3.905
10031SOL    HW130992   5.412   4.814   3.883
10031SOL    HW230993   5.390   4.656   3.916
10032SOL     OW30994   2.322   1.762   5.203
10032SOL    HW130995   2.347   1.716   5.288
10032SOL    HW230996   2.262   1.839   5.223
10033SOL     OW30997   6.204   2.974   4.127
10033SOL    HW130998   6.216   2.879   4.098
10033SOL    HW230999   6.293   3.014   4.149
10034SOL     OW31000   3.625   0.810   4.844
10034SOL    HW131001   3.590   0.842   4.932
10034SOL    HW231002   3.603   0.713   4.834
10035SOL     OW31003   6.953   5.120   2.078
10035SOL    HW131004   7.018   5.045   2.089
10035SOL    HW231005   6.977   5.194   2.141
10036SOL     OW31006   6.387   1.785   0.447
10036SOL    HW131007   6.288   1.796   0.448
10036SOL    HW231008   6.414   1.727   0.370
10037SOL     OW31009   6.659   0.803   6.102
10037SOL    HW131010   6.686   0.814   6.197
10037SOL    HW231011   6.573   0.852   6.086
10038SOL     OW31012   6.612   0.310   0.935
10038SOL    HW131013   6.631   0.269   0.846
10038SOL    HW231014   6.571   0.241   0.995
10039SOL     OW31015   3.029   0.276   3.328
10039SOL    HW131016   3.081   0.361   3.314
10039SOL    HW231017   3.004   0.238   3.239
10040SOL     OW31018   6.251   3.623   0.167
10040SOL    HW131019   6.242   3.693   0.238
10040SOL    HW231020   6.163   3.610   0.122
10041SOL     OW31021   3.228   6.273   0.151
10041SOL    HW131022   3.239   6.360   0.102
10041SOL    HW231023   3.232   6.290   0.250
10042SOL     OW31024   6.837   2.206   3.396
10042SOL    HW131025   6.869   2.136   3.332
10042SOL    HW231026   6.864   2.182   3.489
10043SOL     OW31027   7.010   1.708   5.758
10043SOL    HW131028   6.998   1.720   5.856
10043SOL    HW231029   6.920   1.710   5.713
10044SOL     OW31030   2.547   2.841   5.797
10044SOL    HW131031   2.511   2.934   5.801
10044SOL    HW231032   2.479   2.780   5.758
10045SOL     OW31033   4.231   0.875   1.058
10045SOL    HW131034   4.259   0.785   1.090
10045SOL    HW231035   4.174   0.865   0.976
10046SOL     OW31036   0.718   4.854   1.229
10046SOL    HW131037   0.811   4.829   1.201
10046SOL    HW231038   0.652   4.812   1.166
10047SOL     OW31039   0.874   3.118   6.031
10047SOL    HW131040   0.851   3.214   6.046
10047SOL    HW231041   0.797   3.060   6.059
10048SOL     OW31042   6.272   6.630   2.748
10048SOL    HW131043   6.261   6.726   2.725
10048SOL    HW231044   6.186   6.595   2.787
10049SOL     OW31045   0.070   2.524   5.713
10049SOL    HW131046   0.147   2.571   5.668
10049SOL    HW231047   7.012   2.535   5.657
10050SOL     OW31048   5.343   3.448   5.230
10050SOL    HW131049   5.304   3.419   5.143
10050SOL    HW231050   5.375   3.368   5.281
10051SOL     OW31051   0.840   4.200   4.663
10051SOL    HW131052   0.819   4.111   4.621
10051SOL    HW231053   0.828   4.194   4.762
10052SOL     OW31054   0.758   0.630   3.597
10052SOL    HW131055   0.795   0.723   3.605
10052SOL    HW231056   0.750   0.590   3.689
10053SOL     OW31057   5.028   5.425   4.363
10053SOL    HW131058   4.957   5.490   4.336
10053SOL    HW231059   4.987   5.349   4.414
10054SOL     OW31060   5.466   3.828   4.571
10054SOL    HW131061   5.466   3.811   4.670
10054SOL    HW231062   5.560   3.837   4.539
10055SOL     OW31063   6.596   2.098   6.421
10055SOL    HW131064   6.550   2.028   6.366
10055SOL    HW231065   6.532   2.172   6.442
10056SOL     OW31066   5.217   3.009   2.877
10056SOL    HW131067   5.148   3.081   2.886
10056SOL    HW231068   5.172   2.923   2.853
10057SOL     OW31069   5.159   4.403   6.456
10057SOL    HW131070   5.163   4.393   6.555
10057SOL    HW231071   5.165   4.499   6.431
10058SOL     OW31072   5.944   3.204   4.937
10058SOL    HW131073   5.962   3.182   4.841
10058SOL    HW231074   5.881   3.137   4.976
10059SOL     OW31075   6.693   1.559   6.929
10059SOL    HW131076   6.788   1.577   6.955
10059SOL    HW231077   6.658   1.482   6.982
10060SOL     OW31078   2.226   1.795   2.667
10060SOL    HW131079   2.201   1.753   2.754
10060SOL    HW231080   2.292   1.869   2.683
10061SOL     OW31081   3.680   0.708   3.284
10061SOL    HW131082   3.756   0.648   3.258
10061SOL    HW231083   3.627   0.665   3.357
10062SOL     OW31084   0.223   0.250   4.148
10062SOL    HW131085   0.152   0.181   4.156
10062SOL    HW231086   0.256   0.275   4.239
10063SOL     OW31087   1.702   3.129   4.882
10063SOL    HW131088   1.688   3.217   4.835
10063SOL    HW231089   1.615   3.082   4.890
10064SOL     OW31090   2.928   6.899   0.636
10064SOL    HW131091   2.912   6.934   0.544
10064SOL    HW231092   2.932   6.799   0.634
10065SOL     OW31093   0.648   0.891   2.075
10065SOL    HW131094   0.721   0.825   2.060
10065SOL    HW231095   0.681   0.963   2.137
10066SOL     OW31096   6.783   3.473   4.918
10066SOL    HW131097   6.763   3.438   4.826
10066SOL    HW231098   6.705   3.526   4.951
10067SOL     OW31099   6.697   2.362   5.147
10067SOL    HW131100   6.696   2.461   5.132
10067SOL    HW231101   6.657   2.341   5.236
10068SOL     OW31102   2.503   2.379   2.822
10068SOL    HW131103   2.442   2.458   2.830
10068SOL    HW231104   2.450   2.296   2.805
10069SOL     OW31105   3.466   5.519   1.094
10069SOL    HW131106   3.382   5.477   1.059
10069SOL    HW231107   3.464   5.617   1.077
10070SOL     OW31108   3.592   5.793   5.271
10070SOL    HW131109   3.527   5.869   5.272
10070SOL    HW231110   3.590   5.748   5.181
10071SOL     OW31111   6.469   0.151   3.270
10071SOL    HW131112   6.552   0.207   3.263
10071SOL    HW231113   6.489   0.058   3.239
10072SOL     OW31114   6.635   1.706   2.432
10072SOL    HW131115   6.644   1.714   2.531
10072SOL    HW231116   6.681   1.784   2.388
10073SOL     OW31117   6.246   3.804   4.401
10073SOL    HW131118   6.275   3.738   4.332
10073SOL    HW231119   6.252   3.761   4.492
10074SOL     OW31120   1.607   4.929   0.382
10074SOL    HW131121   1.560   4.861   0.326
10074SOL    HW231122   1.686   4.886   0.427
10075SOL     OW31123   2.067   3.115   1.653
10075SOL    HW131124   2.095   3.088   1.745
10075SOL    HW231125   2.055   3.214   1.649
10076SOL     OW31126   5.161   5.233   3.551
10076SOL    HW131127   5.168   5.134   3.554
10076SOL    HW231128   5.067   5.260   3.570
10077SOL     OW31129   6.275   2.767   6.591
10077SOL    HW131130   6.253   2.708   6.668
10077SOL    HW231131   6.317   2.713   6.518
10078SOL     OW31132   0.178   6.740   5.174
10078SOL    HW131133   0.213   6.648   5.161
10078SOL    HW231134   0.094   6.737   5.228
10079SOL     OW31135   4.333   2.392   3.084
10079SOL    HW131136   4.300   2.308   3.127
10079SOL    HW231137   4.296   2.398   2.991
10080SOL     OW31138   5.447   0.414   6.055
10080SOL    HW131139   5.370   0.426   6.117
10080SOL    HW231140   5.481   0.320   6.061
10081SOL     OW31141   1.930   2.651   0.470
10081SOL    HW131142   1.993   2.639   0.394
10081SOL    HW231143   1.977   2.627   0.556
10082SOL     OW31144   1.376   4.604   1.950
10082SOL    HW131145   1.383   4.518   1.899
10082SOL    HW231146   1.406   4.589   2.044
10083SOL     OW31147   3.840   5.300   3.629
10083SOL    HW131148   3.838   5.383   3.573
10083SOL    HW231149   3.864   5.324   3.723
10084SOL     OW31150   1.211   0.505   4.718
10084SOL    HW131151   1.238   0.559   4.798
10084SOL    HW231152   1.143   0.437   4.744
10085SOL     OW31153   4.290   0.079   0.411
10085SOL    HW131154   4.317   0.065   0.316
10085SOL    HW231155   4.354   0.033   0.472
10086SOL     OW31156   0.157   6.107   1.635
10086SOL    HW131157   0.128   6.020   1.597
10086SOL    HW231158   0.093   6.179   1.608
10087SOL     OW31159   1.654   6.319   4.787
10087SOL    HW131160   1.607   6.281   4.708
10087SOL    HW231161   1.730   6.260   4.813
10088SOL     OW31162   0.378   2.777   0.281
10088SOL    HW131163   0.328   2.804   0.363
10088SOL    HW231164   0.379   2.678   0.273
10089SOL     OW31165   3.951   1.711   2.260
10089SOL    HW131166   3.913   1.704   2.168
10089SOL    HW231167   4.011   1.792   2.265
10090SOL     OW31168   1.935   6.006   1.414
10090SOL    HW131169   1.880   6.090   1.408
10090SOL    HW231170   2.016   6.024   1.470
10091SOL     OW31171   6.173   4.326   5.512
10091SOL    HW131172   6.084   4.296   5.477
10091SOL    HW231173   6.197   4.273   5.593
10092SOL     OW31174   0.283   2.245   5.204
10092SOL    HW131175   0.241   2.177   5.264
10092SOL    HW231176   0.211   2.293   5.154
10093SOL     OW31177   5.667   4.360   5.636
10093SOL    HW131178   5.761   4.331   5.654
10093SOL    HW231179   5.669   4.441   5.578
10094SOL     OW31180   3.365   0.723   1.203
10094SOL    HW131181   3.322   0.660   1.268
10094SOL    HW231182   3.342   0.817   1.228
10095SOL     OW31183   4.945   2.790   5.310
10095SOL    HW131184   4.911   2.884   5.318
10095SOL    HW231185   4.943   2.747   5.400
10096SOL     OW31186   5.177   1.260   3.034
10096SOL    HW131187   5.123   1.186   2.993
10096SOL    HW231188   5.232   1.224   3.109
10097SOL     OW31189   1.190   1.625   0.185
10097SOL    HW131190   1.250   1.695   0.223
10097SOL    HW231191   1.172   1.645   0.089
10098SOL     OW31192   3.448   5.750   3.805
10098SOL    HW131193   3.471   5.797   3.891
10098SOL    HW231194   3.525   5.758   3.742
10099SOL     OW31195   6.985   4.877   1.622
10099SOL    HW131196   6.903   4.837   1.582
10099SOL    HW231197   0.003   4.939   1.555
10100SOL     OW31198   4.562   5.155   4.554
10100SOL    HW131199   4.473   5.197   4.568
10100SOL    HW231200   4.609   5.146   4.641
10101SOL     OW31201   0.843   1.996   1.904
10101SOL    HW131202   0.802   1.970   1.991
10101SOL    HW231203   0.911   2.068   1.921
10102SOL     OW31204   6.468   6.259   1.679
10102SOL    HW131205   6.474   6.328   1.607
10102SOL    HW231206   6.516   6.177   1.650
10103SOL     OW31207   6.885   6.307   6.337
10103SOL    HW131208   6.931   6.251   6.268
10103SOL    HW231209   6.894   6.265   6.427
10104SOL     OW31210   2.203   0.290   4.787
10104SOL    HW131211   2.233   0.195   4.780
10104SOL    HW231212   2.105   0.296   4.765
10105SOL     OW31213   2.663   0.628   6.267
10105SOL    HW131214   2.626   0.719   6.286
10105SOL    HW231215   2.758   0.624   6.298
10106SOL     OW31216   5.285   5.843   1.208
10106SOL    HW131217   5.225   5.810   1.134
10106SOL    HW231218   5.235   5.910   1.263
10107SOL     OW31219   4.898   4.392   0.207
10107SOL    HW131220   4.870   4.340   0.287
10107SOL    HW231221   4.899   4.490   0.229
10108SOL     OW31222   2.018   2.876   0.218
10108SOL    HW131223   1.923   2.880   0.249
10108SOL    HW231224   2.049   2.781   0.221
10109SOL     OW31225   1.117   1.893   1.507
10109SOL    HW131226   1.117   1.956   1.429
10109SOL    HW231227   1.204   1.902   1.555
10110SOL     OW31228   4.670   6.140   2.636
10110SOL    HW131229   4.601   6.184   2.693
10110SOL    HW231230   4.717   6.070   2.689
10111SOL     OW31231   1.121   1.335   1.936
10111SOL    HW131232   1.183   1.414   1.936
10111SOL    HW231233   1.047   1.350   1.870
10112SOL     OW31234   6.425   2.027   3.695
10112SOL    HW131235   6.446   1.957   3.763
10112SOL    HW231236   6.336   2.009   3.654
10113SOL     OW31237   6.242   1.020   6.276
10113SOL    HW131238   6.218   0.938   6.224
10113SOL    HW231239   6.309   0.996   6.346
10114SOL     OW31240   4.880   1.580   2.466
10114SOL    HW131241   4.972   1.601   2.433
10114SOL    HW231242   4.843   1.660   2.514
10115SOL     OW31243   3.234   2.571   6.057
10115SOL    HW131244   3.250   2.588   5.960
10115SOL    HW231245   3.198   2.654   6.100
10116SOL     OW31246   6.303   7.012   5.009
10116SOL    HW131247   6.357   0.010   4.928
10116SOL    HW231248   6.257   6.925   4.994
10117SOL     OW31249   6.374   4.297   3.854
10117SOL    HW131250   6.400   4.204   3.880
10117SOL    HW231251   6.275   4.302   3.841
10118SOL     OW31252   3.576   5.197   4.882
10118SOL    HW131253   3.567   5.242   4.793
10118SOL    HW231254   3.566   5.098   4.870
10119SOL     OW31255   0.097   5.230   5.291
10119SOL    HW131256   0.055   5.317   5.315
10119SOL    HW231257   0.047   5.189   5.214
10120SOL     OW31258   1.980   2.962   2.376
10120SOL    HW131259   2.036   2.880   2.362
10120SOL    HW231260   2.033   3.043   2.350
10121SOL     OW31261   6.447   3.762   0.835
10121SOL    HW131262   6.376   3.727   0.897
10121SOL    HW231263   6.472   3.689   0.771
10122SOL     OW31264   1.276   0.465   3.639
10122SOL    HW131265   1.177   0.460   3.648
10122SOL    HW231266   1.316   0.500   3.724
10123SOL     OW31267   5.615   5.634   6.795
10123SOL    HW131268   5.644   5.729   6.796
10123SOL    HW231269   5.668   5.583   6.728
10124SOL     OW31270   1.377   4.794   2.802
10124SOL    HW131271   1.405   4.778   2.897
10124SOL    HW231272   1.442   4.750   2.740
10125SOL     OW31273   1.332   1.156   6.056
10125SOL    HW131274   1.265   1.186   6.124
10125SOL    HW231275   1.421   1.196   6.076
10126SOL     OW31276   6.115   0.080   6.539
10126SOL    HW131277   6.156   0.036   6.459
10126SOL    HW231278   6.182   0.140   6.582
10127SOL     OW31279   1.934   5.764   5.751
10127SOL    HW131280   1.969   5.813   5.830
10127SOL    HW231281   1.863   5.699   5.782
10128SOL     OW31282   2.957   1.499   6.849
10128SOL    HW131283   3.038   1.553   6.872
10128SOL    HW231284   2.900   1.550   6.783
10129SOL     OW31285   5.749   1.143   3.995
10129SOL    HW131286   5.710   1.161   4.085
10129SOL    HW231287   5.779   1.047   3.989
10130SOL     OW31288   1.441   2.000   2.723
10130SOL    HW131289   1.344   2.012   2.703
10130SOL    HW231290   1.482   1.940   2.653
10131SOL     OW31291   1.961   0.079   4.530
10131SOL    HW131292   2.047   0.042   4.495
10131SOL    HW231293   1.938   0.035   4.616
10132SOL     OW31294   6.686   0.938   1.860
10132SOL    HW131295   6.689   0.838   1.857
10132SOL    HW231296   6.726   0.975   1.775
10133SOL     OW31297   5.604   6.955   0.291
10133SOL    HW131298   5.660   7.009   0.354
10133SOL    HW231299   5.654   6.940   0.206
10134SOL     OW31300   5.943   6.891   1.830
10134SOL    HW131301   6.012   6.924   1.765
10134SOL    HW231302   5.900   6.808   1.794
10135SOL     OW31303   6.382   7.005   2.809
10135SOL    HW131304   6.440   6.932   2.774
10135SOL    HW231305   6.410   0.068   2.770
10136SOL     OW31306   5.691   1.645   2.652
10136SOL    HW131307   5.701   1.673   2.747
10136SOL    HW231308   5.594   1.636   2.629
10137SOL     OW31309   6.257   5.146   5.607
10137SOL    HW131310   6.312   5.228   5.622
10137SOL    HW231311   6.286   5.075   5.672
10138SOL     OW31312   0.016   1.787   0.457
10138SOL    HW131313   0.087   1.850   0.488
10138SOL    HW231314   7.001   1.820   0.372
10139SOL     OW31315   3.507   2.970   6.298
10139SOL    HW131316   3.553   3.011   6.377
10139SOL    HW231317   3.563   2.895   6.262
10140SOL     OW31318   0.357   6.123   5.976
10140SOL    HW131319   0.294   6.182   6.027
10140SOL    HW231320   0.402   6.175   5.904
10141SOL     OW31321   2.141   2.736   4.545
10141SOL    HW131322   2.190   2.653   4.572
10141SOL    HW231323   2.050   2.711   4.511
10142SOL     OW31324   4.725   6.081   4.265
10142SOL    HW131325   4.717   6.015   4.340
10142SOL    HW231326   4.687   6.169   4.294
10143SOL     OW31327   5.107   3.402   6.890
10143SOL    HW131328   5.183   3.359   6.840
10143SOL    HW231329   5.073   3.480   6.838
10144SOL     OW31330   3.535   6.862   6.092
10144SOL    HW131331   3.602   6.817   6.150
10144SOL    HW231332   3.535   6.960   6.110
10145SOL     OW31333   5.438   5.795   6.594
10145SOL    HW131334   5.444   5.753   6.503
10145SOL    HW231335   5.425   5.894   6.584
10146SOL     OW31336   0.050   2.539   4.376
10146SOL    HW131337   0.098   2.480   4.440
10146SOL    HW231338   0.115   2.601   4.331
10147SOL     OW31339   4.873   5.149   6.043
10147SOL    HW131340   4.928   5.224   6.006
10147SOL    HW231341   4.930   5.068   6.056
10148SOL     OW31342   1.378   4.668   0.449
10148SOL    HW131343   1.440   4.673   0.528
10148SOL    HW231344   1.432   4.672   0.365
10149SOL     OW31345   3.708   4.561   0.063
10149SOL    HW131346   3.721   4.649   0.108
10149SOL    HW231347   3.610   4.539   0.060
10150SOL     OW31348   3.926   4.465   0.181
10150SOL    HW131349   3.876   4.388   0.221
10150SOL    HW231350   3.863   4.519   0.124
10151SOL     OW31351   5.464   6.798   5.795
10151SOL    HW131352   5.440   6.822   5.889
10151SOL    HW231353   5.398   6.838   5.732
10152SOL     OW31354   4.667   6.762   2.781
10152SOL    HW131355   4.592   6.715   2.827
10152SOL    HW231356   4.655   6.755   2.682
10153SOL     OW31357   4.368   4.636   3.230
10153SOL    HW131358   4.394   4.663   3.322
10153SOL    HW231359   4.276   4.670   3.209
10154SOL     OW31360   5.325   5.238   5.305
10154SOL    HW131361   5.409   5.287   5.283
10154SOL    HW231362   5.316   5.158   5.245
10155SOL     OW31363   4.394   1.182   4.913
10155SOL    HW131364   4.309   1.137   4.939
10155SOL    HW231365   4.453   1.191   4.994
10156SOL     OW31366   5.035   2.111   6.663
10156SOL    HW131367   5.046   2.158   6.750
10156SOL    HW231368   5.105   2.142   6.598
10157SOL     OW31369   0.726   2.910   1.086
10157SOL    HW131370   0.697   2.833   1.029
10157SOL    HW231371   0.712   2.995   1.035
10158SOL     OW31372   5.921   5.028   0.575
10158SOL    HW131373   5.825   5.055   0.576
10158SOL    HW231374   5.974   5.098   0.528
10159SOL     OW31375   3.158   3.571   2.759
10159SOL    HW131376   3.113   3.523   2.683
10159SOL    HW231377   3.139   3.523   2.845
10160SOL     OW31378   1.270   5.067   3.225
10160SOL    HW131379   1.178   5.034   3.242
10160SOL    HW231380   1.268   5.141   3.158
10161SOL     OW31381   5.323   3.061   5.540
10161SOL    HW131382   5.225   3.056   5.556
10161SOL    HW231383   5.372   3.017   5.615
10162SOL     OW31384   1.308   2.981   2.680
10162SOL    HW131385   1.220   3.013   2.646
10162SOL    HW231386   1.370   2.964   2.603
10163SOL     OW31387   1.621   5.955   5.055
10163SOL    HW131388   1.609   5.856   5.058
10163SOL    HW231389   1.536   6.000   5.083
10164SOL     OW31390   0.956   2.391   3.421
10164SOL    HW131391   0.885   2.438   3.369
10164SOL    HW231392   0.925   2.378   3.515
10165SOL     OW31393   0.132   3.548   4.614
10165SOL    HW131394   0.192   3.532   4.693
10165SOL    HW231395   0.047   3.590   4.645
10166SOL     OW31396   2.293   0.990   1.534
10166SOL    HW131397   2.365   0.922   1.547
10166SOL    HW231398   2.215   0.968   1.592
10167SOL     OW31399   2.217   0.494   6.834
10167SOL    HW131400   2.247   0.590   6.840
10167SOL    HW231401   2.293   0.438   6.800
10168SOL     OW31402   7.014   1.127   0.262
10168SOL    HW131403   6.924   1.098   0.230
10168SOL    HW231404   0.055   1.052   0.252
10169SOL     OW31405   6.085   2.592   3.506
10169SOL    HW131406   6.146   2.521   3.540
10169SOL    HW231407   5.995   2.582   3.548
10170SOL     OW31408   5.712   5.622   6.372
10170SOL    HW131409   5.762   5.593   6.453
10170SOL    HW231410   5.752   5.706   6.335
10171SOL     OW31411   2.116   3.698   5.927
10171SOL    HW131412   2.057   3.631   5.881
10171SOL    HW231413   2.067   3.785   5.936
10172SOL     OW31414   6.436   6.648   3.048
10172SOL    HW131415   6.520   6.658   2.994
10172SOL    HW231416   6.358   6.638   2.987
10173SOL     OW31417   3.001   4.095   5.054
10173SOL    HW131418   2.994   4.111   5.153
10173SOL    HW231419   2.984   4.181   5.006
10174SOL     OW31420   4.449   5.900   3.153
10174SOL    HW131421   4.369   5.958   3.167
10174SOL    HW231422   4.522   5.953   3.109
10175SOL     OW31423   0.289   1.485   3.589
10175SOL    HW131424   0.201   1.478   3.636
10175SOL    HW231425   0.362   1.499   3.655
10176SOL     OW31426   6.609   1.700   5.871
10176SOL    HW131427   6.539   1.712   5.941
10176SOL    HW231428   6.585   1.622   5.813
10177SOL     OW31429   2.271   0.596   2.863
10177SOL    HW131430   2.328   0.648   2.927
10177SOL    HW231431   2.327   0.562   2.788
10178SOL     OW31432   1.988   2.354   0.798
10178SOL    HW131433   2.028   2.301   0.873
10178SOL    HW231434   1.985   2.297   0.716
10179SOL     OW31435   0.461   4.422   1.220
10179SOL    HW131436   0.402   4.343   1.230
10179SOL    HW231437   0.488   4.432   1.124
10180SOL     OW31438   4.101   0.345   5.841
10180SOL    HW131439   4.009   0.321   5.810
10180SOL    HW231440   4.095   0.421   5.905
10181SOL     OW31441   6.661   3.302   1.844
10181SOL    HW131442   6.674   3.248   1.761
10181SOL    HW231443   6.710   3.389   1.836
10182SOL     OW31444   5.993   2.031   0.174
10182SOL    HW131445   6.077   2.011   0.124
10182SOL    HW231446   5.962   2.123   0.153
10183SOL     OW31447   6.058   2.128   6.494
10183SOL    HW131448   6.143   2.090   6.532
10183SOL    HW231449   6.051   2.102   6.398
10184SOL     OW31450   5.732   3.098   6.058
10184SOL    HW131451   5.655   3.083   6.120
10184SOL    HW231452   5.699   3.100   5.964
10185SOL     OW31453   3.779   5.645   1.895
10185SOL    HW131454   3.837   5.715   1.853
10185SOL    HW231455   3.716   5.609   1.826
10186SOL     OW31456   3.701   3.322   5.799
10186SOL    HW131457   3.605   3.297   5.800
10186SOL    HW231458   3.721   3.375   5.716
10187SOL     OW31459   1.973   5.655   6.055
10187SOL    HW131460   2.000   5.748   6.031
10187SOL    HW231461   2.054   5.599   6.067
10188SOL     OW31462   2.876   0.463   6.529
10188SOL    HW131463   2.972   0.442   6.511
10188SOL    HW231464   2.870   0.540   6.593
10189SOL     OW31465   1.184   2.307   6.391
10189SOL    HW131466   1.100   2.255   6.403
10189SOL    HW231467   1.249   2.283   6.464
10190SOL     OW31468   3.389   5.453   2.195
10190SOL    HW131469   3.401   5.409   2.106
10190SOL    HW231470   3.309   5.413   2.241
10191SOL     OW31471   5.815   5.995   6.683
10191SOL    HW131472   5.769   6.012   6.596
10191SOL    HW231473   5.860   5.905   6.680
10192SOL     OW31474   1.849   1.995   4.121
10192SOL    HW131475   1.909   1.920   4.150
10192SOL    HW231476   1.893   2.048   4.049
10193SOL     OW31477   3.473   3.764   3.504
10193SOL    HW131478   3.510   3.715   3.425
10193SOL    HW231479   3.539   3.761   3.579
10194SOL     OW31480   3.138   0.317   2.929
10194SOL    HW131481   3.125   0.331   2.830
10194SOL    HW231482   3.182   0.398   2.968
10195SOL     OW31483   3.963   6.264   2.017
10195SOL    HW131484   3.957   6.170   1.984
10195SOL    HW231485   4.059   6.288   2.031
10196SOL     OW31486   6.187   1.938   3.599
10196SOL    HW131487   6.167   1.898   3.688
10196SOL    HW231488   6.103   1.977   3.560
10197SOL     OW31489   5.939   0.276   1.766
10197SOL    HW131490   5.910   0.265   1.861
10197SOL    HW231491   5.994   0.197   1.740
10198SOL     OW31492   2.551   6.698   0.862
10198SOL    HW131493   2.630   6.656   0.907
10198SOL    HW231494   2.561   6.797   0.863
10199SOL     OW31495   1.435   1.480   0.443
10199SOL    HW131496   1.378   1.402   0.468
10199SOL    HW231497   1.385   1.539   0.380
10200SOL     OW31498   4.898   4.567   4.799
10200SOL    HW131499   4.924   4.661   4.776
10200SOL    HW231500   4.976   4.506   4.784
10201SOL     OW31501   1.519   4.693   2.409
10201SOL    HW131502   1.493   4.635   2.486
10201SOL    HW231503   1.473   4.782   2.417
10202SOL     OW31504   1.184   3.835   2.667
10202SOL    HW131505   1.276   3.815   2.634
10202SOL    HW231506   1.125   3.856   2.589
10203SOL     OW31507   1.781   3.023   2.520
10203SOL    HW131508   1.799   3.015   2.618
10203SOL    HW231509   1.865   3.004   2.469
10204SOL     OW31510   3.125   4.551   5.331
10204SOL    HW131511   3.096   4.481   5.398
10204SOL    HW231512   3.052   4.566   5.265
10205SOL     OW31513   4.958   2.324   2.836
10205SOL    HW131514   4.959   2.382   2.917
10205SOL    HW231515   4.881   2.261   2.841
10206SOL     OW31516   5.414   6.893   6.036
10206SOL    HW131517   5.369   6.857   6.117
10206SOL    HW231518   5.505   6.927   6.061
10207SOL     OW31519   3.911   0.731   2.724
10207SOL    HW131520   4.007   0.725   2.697
10207SOL    HW231521   3.903   0.788   2.806
10208SOL     OW31522   6.433   4.214   5.447
10208SOL    HW131523   6.341   4.238   5.479
10208SOL    HW231524   6.452   4.118   5.467
10209SOL     OW31525   6.202   6.984   6.334
10209SOL    HW131526   6.139   6.909   6.351
10209SOL    HW231527   6.295   6.957   6.358
10210SOL     OW31528   4.906   6.205   2.121
10210SOL    HW131529   4.987   6.258   2.144
10210SOL    HW231530   4.864   6.170   2.205
10211SOL     OW31531   3.897   5.878   5.073
10211SOL    HW131532   3.828   5.940   5.036
10211SOL    HW231533   3.865   5.842   5.161
10212SOL     OW31534   0.081   0.403   5.339
10212SOL    HW131535   0.145   0.472   5.374
10212SOL    HW231536   7.016   0.415   5.382
10213SOL     OW31537   6.270   1.501   2.945
10213SOL    HW131538   6.170   1.498   2.945
10213SOL    HW231539   6.302   1.542   3.030
10214SOL     OW31540   7.017   1.026   1.880
10214SOL    HW131541   7.002   1.025   1.782
10214SOL    HW231542   6.963   1.099   1.922
10215SOL     OW31543   3.881   3.937   6.723
10215SOL    HW131544   3.969   3.908   6.686
10215SOL    HW231545   3.813   3.866   6.709
10216SOL     OW31546   4.880   0.592   1.567
10216SOL    HW131547   4.804   0.576   1.631
10216SOL    HW231548   4.849   0.654   1.494
10217SOL     OW31549   2.142   2.048   4.715
10217SOL    HW131550   2.221   2.001   4.754
10217SOL    HW231551   2.169   2.098   4.633
10218SOL     OW31552   2.338   1.255   0.800
10218SOL    HW131553   2.399   1.184   0.764
10218SOL    HW231554   2.278   1.215   0.870
10219SOL     OW31555   0.961   3.417   1.369
10219SOL    HW131556   1.025   3.478   1.324
10219SOL    HW231557   0.986   3.407   1.465
10220SOL     OW31558   4.572   2.117   0.911
10220SOL    HW131559   4.473   2.099   0.915
10220SOL    HW231560   4.590   2.190   0.846
10221SOL     OW31561   3.004   0.012   5.056
10221SOL    HW131562   2.984   6.977   4.977
10221SOL    HW231563   3.066   0.085   5.027
10222SOL     OW31564   1.877   5.283   5.644
10222SOL    HW131565   1.918   5.273   5.554
10222SOL    HW231566   1.834   5.197   5.671
10223SOL     OW31567   1.102   4.520   0.134
10223SOL    HW131568   1.053   4.597   0.176
10223SOL    HW231569   1.047   4.437   0.145
10224SOL     OW31570   1.623   0.043   4.032
10224SOL    HW131571   1.547   0.074   3.973
10224SOL    HW231572   1.707   0.039   3.978
10225SOL     OW31573   6.534   5.475   4.564
10225SOL    HW131574   6.589   5.552   4.531
10225SOL    HW231575   6.440   5.506   4.579
10226SOL     OW31576   2.000   1.429   0.034
10226SOL    HW131577   1.915   1.469   0.067
10226SOL    HW231578   2.078   1.479   0.072
10227SOL     OW31579   5.073   4.652   0.185
10227SOL    HW131580   5.103   4.579   0.246
10227SOL    HW231581   5.075   4.740   0.234
10228SOL     OW31582   1.189   5.500   3.305
10228SOL    HW131583   1.222   5.450   3.386
10228SOL    HW231584   1.267   5.533   3.252
10229SOL     OW31585   1.111   0.159   3.087
10229SOL    HW131586   1.021   0.120   3.107
10229SOL    HW231587   1.182   0.102   3.129
10230SOL     OW31588   6.446   0.609   4.044
10230SOL    HW131589   6.445   0.701   4.083
10230SOL    HW231590   6.367   0.598   3.983
10231SOL     OW31591   5.531   6.831   4.634
10231SOL    HW131592   5.509   6.868   4.724
10231SOL    HW231593   5.570   6.739   4.645
10232SOL     OW31594   3.012   2.136   4.845
10232SOL    HW131595   2.994   2.191   4.763
10232SOL    HW231596   3.087   2.175   4.897
10233SOL     OW31597   5.148   1.598   5.951
10233SOL    HW131598   5.111   1.551   5.871
10233SOL    HW231599   5.088   1.583   6.030
10234SOL     OW31600   5.410   6.947   1.772
10234SOL    HW131601   5.356   6.991   1.700
10234SOL    HW231602   5.508   6.963   1.754
10235SOL     OW31603   5.627   1.036   6.602
10235SOL    HW131604   5.580   1.118   6.571
10235SOL    HW231605   5.710   1.022   6.547
10236SOL     OW31606   2.552   5.419   1.846
10236SOL    HW131607   2.462   5.377   1.851
10236SOL    HW231608   2.581   5.447   1.938
10237SOL     OW31609   5.931   3.491   2.348
10237SOL    HW131610   5.903   3.476   2.443
10237SOL    HW231611   5.950   3.402   2.305
10238SOL     OW31612   4.410   4.833   4.644
10238SOL    HW131613   4.457   4.745   4.640
10238SOL    HW231614   4.392   4.866   4.551
10239SOL     OW31615   0.141   3.954   4.099
10239SOL    HW131616   0.049   3.929   4.127
10239SOL    HW231617   0.200   3.873   4.101
10240SOL     OW31618   0.530   3.838   3.879
10240SOL    HW131619   0.619   3.880   3.895
10240SOL    HW231620   0.542   3.741   3.857
10241SOL     OW31621   1.324   1.563   1.887
10241SOL    HW131622   1.294   1.592   1.978
10241SOL    HW231623   1.326   1.642   1.826
10242SOL     OW31624   0.192   0.736   6.369
10242SOL    HW131625   0.275   0.691   6.402
10242SOL    HW231626   0.162   0.693   6.285
10243SOL     OW31627   1.255   5.763   1.708
10243SOL    HW131628   1.285   5.857   1.696
10243SOL    HW231629   1.317   5.702   1.657
10244SOL     OW31630   2.027   6.143   6.750
10244SOL    HW131631   2.068   6.229   6.721
10244SOL    HW231632   2.059   6.120   6.842
10245SOL     OW31633   2.442   2.257   5.821
10245SOL    HW131634   2.542   2.255   5.810
10245SOL    HW231635   2.419   2.299   5.909
10246SOL     OW31636   3.233   4.031   4.939
10246SOL    HW131637   3.243   4.070   4.848
10246SOL    HW231638   3.152   4.070   4.984
10247SOL     OW31639   0.021   4.709   6.050
10247SOL    HW131640   0.109   4.748   6.075
10247SOL    HW231641   0.033   4.613   6.023
10248SOL     OW31642   3.161   0.140   1.924
10248SOL    HW131643   3.257   0.118   1.937
10248SOL    HW231644   3.105   0.057   1.934
10249SOL     OW31645   4.974   1.286   5.767
10249SOL    HW131646   4.957   1.223   5.691
10249SOL    HW231647   5.006   1.234   5.847
10250SOL     OW31648   6.562   1.344   0.380
10250SOL    HW131649   6.523   1.386   0.298
10250SOL    HW231650   6.603   1.256   0.355
10251SOL     OW31651   2.628   3.574   6.747
10251SOL    HW131652   2.638   3.603   6.652
10251SOL    HW231653   2.718   3.567   6.790
10252SOL     OW31654   5.882   5.932   1.092
10252SOL    HW131655   5.892   5.960   1.188
10252SOL    HW231656   5.970   5.900   1.057
10253SOL     OW31657   4.563   5.212   7.005
10253SOL    HW131658   4.622   5.152   6.951
10253SOL    HW231659   4.610   5.300   7.019
10254SOL     OW31660   2.150   1.982   5.206
10254SOL    HW131661   2.169   1.989   5.108
10254SOL    HW231662   2.065   2.030   5.227
10255SOL     OW31663   2.793   5.980   2.445
10255SOL    HW131664   2.865   6.034   2.402
10255SOL    HW231665   2.705   6.026   2.434
10256SOL     OW31666   5.632   0.630   0.078
10256SOL    HW131667   5.576   0.571   0.137
10256SOL    HW231668   5.580   0.712   0.055
10257SOL     OW31669   1.255   5.431   6.159
10257SOL    HW131670   1.298   5.408   6.072
10257SOL    HW231671   1.315   5.490   6.212
10258SOL     OW31672   3.791   6.847   3.329
10258SOL    HW131673   3.759   6.755   3.350
10258SOL    HW231674   3.820   6.893   3.413
10259SOL     OW31675   6.917   3.553   3.785
10259SOL    HW131676   6.999   3.504   3.758
10259SOL    HW231677   6.856   3.491   3.834
10260SOL     OW31678   0.945   6.824   2.200
10260SOL    HW131679   1.035   6.867   2.194
10260SOL    HW231680   0.914   6.796   2.109
10261SOL     OW31681   1.156   5.611   2.260
10261SOL    HW131682   1.059   5.587   2.249
10261SOL    HW231683   1.205   5.584   2.177
10262SOL     OW31684   2.823   4.875   4.800
10262SOL    HW131685   2.758   4.833   4.738
10262SOL    HW231686   2.799   4.852   4.894
10263SOL     OW31687   5.875   1.729   5.986
10263SOL    HW131688   5.844   1.737   6.081
10263SOL    HW231689   5.810   1.671   5.935
10264SOL     OW31690   6.571   0.529   5.992
10264SOL    HW131691   6.472   0.526   5.979
10264SOL    HW231692   6.596   0.616   6.035
10265SOL     OW31693   3.716   1.617   2.597
10265SOL    HW131694   3.758   1.527   2.586
10265SOL    HW231695   3.618   1.606   2.614
10266SOL     OW31696   3.251   4.170   6.643
10266SOL    HW131697   3.264   4.092   6.582
10266SOL    HW231698   3.201   4.242   6.595
10267SOL     OW31699   0.482   2.087   6.596
10267SOL    HW131700   0.393   2.058   6.561
10267SOL    HW231701   0.551   2.020   6.571
10268SOL     OW31702   5.465   5.653   1.745
10268SOL    HW131703   5.385   5.675   1.800
10268SOL    HW231704   5.469   5.555   1.729
10269SOL     OW31705   2.337   2.158   6.299
10269SOL    HW131706   2.417   2.210   6.327
10269SOL    HW231707   2.355   2.113   6.211
10270SOL     OW31708   1.736   6.027   0.663
10270SOL    HW131709   1.834   6.011   0.661
10270SOL    HW231710   1.688   5.940   0.653
10271SOL     OW31711   4.015   4.209   1.288
10271SOL    HW131712   4.035   4.112   1.303
10271SOL    HW231713   4.055   4.263   1.362
10272SOL     OW31714   0.529   0.688   5.175
10272SOL    HW131715   0.487   0.756   5.236
10272SOL    HW231716   0.565   0.734   5.094
10273SOL     OW31717   3.878   5.511   4.684
10273SOL    HW131718   3.886   5.416   4.654
10273SOL    HW231719   3.784   5.529   4.714
10274SOL     OW31720   0.859   4.980   5.309
10274SOL    HW131721   0.857   4.928   5.224
10274SOL    HW231722   0.944   5.034   5.313
10275SOL     OW31723   0.622   6.792   3.097
10275SOL    HW131724   0.569   6.749   3.025
10275SOL    HW231725   0.720   6.780   3.079
10276SOL     OW31726   6.949   5.461   5.342
10276SOL    HW131727   6.909   5.412   5.419
10276SOL    HW231728   6.975   5.553   5.371
10277SOL     OW31729   2.814   6.271   4.706
10277SOL    HW131730   2.890   6.330   4.732
10277SOL    HW231731   2.765   6.241   4.788
10278SOL     OW31732   5.681   0.442   6.230
10278SOL    HW131733   5.668   0.536   6.260
10278SOL    HW231734   5.609   0.416   6.165
10279SOL     OW31735   3.554   0.547   4.407
10279SOL    HW131736   3.582   0.455   4.434
10279SOL    HW231737   3.508   0.542   4.318
10280SOL     OW31738   1.405   3.938   0.458
10280SOL    HW131739   1.447   3.879   0.527
10280SOL    HW231740   1.422   3.899   0.367
10281SOL     OW31741   4.630   0.293   3.410
10281SOL    HW131742   4.714   0.321   3.364
10281SOL    HW231743   4.630   0.326   3.504
10282SOL     OW31744   0.876   2.265   3.995
10282SOL    HW131745   0.975   2.268   4.001
10282SOL    HW231746   0.845   2.170   3.987
10283SOL     OW31747   1.159   3.201   0.661
10283SOL    HW131748   1.163   3.142   0.580
10283SOL    HW231749   1.250   3.239   0.678
10284SOL     OW31750   5.473   3.248   5.419
10284SOL    HW131751   5.528   3.184   5.365
10284SOL    HW231752   5.398   3.199   5.464
10285SOL     OW31753   5.388   0.697   0.760
10285SOL    HW131754   5.441   0.763   0.813
10285SOL    HW231755   5.423   0.693   0.666
10286SOL     OW31756   4.125   0.393   3.306
10286SOL    HW131757   4.179   0.370   3.387
10286SOL    HW231758   4.186   0.429   3.235
10287SOL     OW31759   1.957   6.683   1.877
10287SOL    HW131760   2.040   6.660   1.825
10287SOL    HW231761   1.885   6.617   1.856
10288SOL     OW31762   5.974   5.926   3.612
10288SOL    HW131763   5.962   5.861   3.688
10288SOL    HW231764   5.891   5.926   3.556
10289SOL     OW31765   3.267   1.399   1.819
10289SOL    HW131766   3.281   1.359   1.910
10289SOL    HW231767   3.176   1.376   1.786
10290SOL     OW31768   4.048   3.165   2.963
10290SOL    HW131769   4.070   3.204   3.052
10290SOL    HW231770   3.961   3.116   2.968
10291SOL     OW31771   3.360   0.778   4.961
10291SOL    HW131772   3.371   0.734   4.872
10291SOL    HW231773   3.307   0.862   4.951
10292SOL     OW31774   0.680   1.385   4.649
10292SOL    HW131775   0.765   1.370   4.599
10292SOL    HW231776   0.684   1.337   4.736
10293SOL     OW31777   2.344   6.330   3.420
10293SOL    HW131778   2.422   6.271   3.403
10293SOL    HW231779   2.370   6.403   3.483
10294SOL     OW31780   5.270   1.505   3.166
10294SOL    HW131781   5.240   1.428   3.110
10294SOL    HW231782   5.197   1.530   3.230
10295SOL     OW31783   0.710   5.294   6.168
10295SOL    HW131784   0.699   5.350   6.250
10295SOL    HW231785   0.620   5.269   6.132
10296SOL     OW31786   6.616   3.301   0.331
10296SOL    HW131787   6.549   3.376   0.334
10296SOL    HW231788   6.707   3.338   0.352
10297SOL     OW31789   0.888   5.579   4.294
10297SOL    HW131790   0.894   5.678   4.282
10297SOL    HW231791   0.972   5.536   4.262
10298SOL     OW31792   5.020   4.077   3.808
10298SOL    HW131793   5.013   4.068   3.708
10298SOL    HW231794   4.982   4.165   3.836
10299SOL     OW31795   4.600   4.860   3.185
10299SOL    HW131796   4.538   4.852   3.107
10299SOL    HW231797   4.671   4.789   3.179
10300SOL     OW31798   0.947   4.032   2.840
10300SOL    HW131799   1.026   3.974   2.861
10300SOL    HW231800   0.896   4.052   2.924
10301SOL     OW31801   6.312   1.008   2.105
10301SOL    HW131802   6.239   1.004   2.174
10301SOL    HW231803   6.383   1.072   2.135
10302SOL     OW31804   1.401   5.858   2.660
10302SOL    HW131805   1.428   5.874   2.756
10302SOL    HW231806   1.453   5.919   2.600
10303SOL     OW31807   3.894   3.721   1.275
10303SOL    HW131808   3.890   3.641   1.216
10303SOL    HW231809   3.868   3.802   1.224
10304SOL     OW31810   6.843   6.785   2.631
10304SOL    HW131811   6.752   6.824   2.647
10304SOL    HW231812   6.905   6.857   2.599
10305SOL     OW31813   1.368   5.679   0.186
10305SOL    HW131814   1.344   5.616   0.259
10305SOL    HW231815   1.303   5.668   0.111
10306SOL     OW31816   4.054   6.139   0.520
10306SOL    HW131817   4.054   6.049   0.563
10306SOL    HW231818   4.148   6.165   0.498
10307SOL     OW31819   1.621   1.345   6.540
10307SOL    HW131820   1.581   1.285   6.609
10307SOL    HW231821   1.719   1.352   6.556
10308SOL     OW31822   2.857   6.116   3.268
10308SOL    HW131823   2.808   6.115   3.181
10308SOL    HW231824   2.843   6.029   3.315
10309SOL     OW31825   6.814   6.408   2.865
10309SOL    HW131826   6.910   6.392   2.842
10309SOL    HW231827   6.803   6.502   2.900
10310SOL     OW31828   3.977   3.830   3.033
10310SOL    HW131829   3.955   3.924   3.061
10310SOL    HW231830   3.979   3.826   2.933
10311SOL     OW31831   0.450   5.296   6.627
10311SOL    HW131832   0.452   5.270   6.723
10311SOL    HW231833   0.407   5.223   6.574
10312SOL     OW31834   2.551   4.637   0.094
10312SOL    HW131835   2.454   4.662   0.092
10312SOL    HW231836   2.594   4.676   0.175
10313SOL     OW31837   5.318   0.574   2.605
10313SOL    HW131838   5.307   0.504   2.675
10313SOL    HW231839   5.243   0.641   2.612
10314SOL     OW31840   6.261   6.658   0.681
10314SOL    HW131841   6.214   6.705   0.756
10314SOL    HW231842   6.235   6.699   0.594
10315SOL     OW31843   6.152   5.667   4.833
10315SOL    HW131844   6.234   5.662   4.776
10315SOL    HW231845   6.161   5.743   4.898
10316SOL     OW31846   0.600   3.333   4.009
10316SOL    HW131847   0.572   3.333   4.105
10316SOL    HW231848   0.651   3.249   3.990
10317SOL     OW31849   4.308   5.328   6.971
10317SOL    HW131850   4.388   5.267   6.974
10317SOL    HW231851   4.225   5.273   6.974
10318SOL     OW31852   5.986   5.373   2.124
10318SOL    HW131853   6.040   5.434   2.182
10318SOL    HW231854   5.892   5.407   2.118
10319SOL     OW31855   6.152   6.061   3.316
10319SOL    HW131856   6.188   5.986   3.260
10319SOL    HW231857   6.194   6.058   3.406
10320SOL     OW31858   6.872   6.964   0.939
10320SOL    HW131859   6.858   7.005   1.029
10320SOL    HW231860   6.908   0.010   0.876
10321SOL     OW31861   4.485   5.464   4.294
10321SOL    HW131862   4.515   5.538   4.233
10321SOL    HW231863   4.527   5.476   4.383
10322SOL     OW31864   6.262   3.835   0.338
10322SOL    HW131865   6.202   3.912   0.316
10322SOL    HW231866   6.232   3.793   0.424
10323SOL     OW31867   5.199   3.105   5.832
10323SOL    HW131868   5.162   3.194   5.859
10323SOL    HW231869   5.128   3.035   5.841
10324SOL     OW31870   3.284   2.920   3.437
10324SOL    HW131871   3.253   2.996   3.493
10324SOL    HW231872   3.211   2.852   3.430
10325SOL     OW31873   0.567   2.818   2.427
10325SOL    HW131874   0.527   2.859   2.345
10325SOL    HW231875   0.586   2.722   2.410
10326SOL     OW31876   5.334   2.168   0.581
10326SOL    HW131877   5.430   2.189   0.562
10326SOL    HW231878   5.286   2.251   0.610
10327SOL     OW31879   0.288   0.833   3.171
10327SOL    HW131880   0.367   0.880   3.130
10327SOL    HW231881   0.204   0.869   3.132
10328SOL     OW31882   5.727   3.338   2.483
10328SOL    HW131883   5.703   3.298   2.394
10328SOL    HW231884   5.684   3.284   2.555
10329SOL     OW31885   3.271   6.837   2.865
10329SOL    HW131886   3.336   6.779   2.914
10329SOL    HW231887   3.321   6.893   2.799
10330SOL     OW31888   4.391   5.375   1.915
10330SOL    HW131889   4.352   5.398   2.005
10330SOL    HW231890   4.433   5.285   1.920
10331SOL     OW31891   5.608   0.485   3.153
10331SOL    HW131892   5.629   0.470   3.250
10331SOL    HW231893   5.689   0.522   3.107
10332SOL     OW31894   6.993   2.062   5.948
10332SOL    HW131895   6.898   2.087   5.963
10332SOL    HW231896   0.025   2.145   5.946
10333SOL     OW31897   5.526   4.989   4.534
10333SOL    HW131898   5.528   4.899   4.490
10333SOL    HW231899   5.619   5.027   4.534
10334SOL     OW31900   2.403   5.011   4.091
10334SOL    HW131901   2.337   4.943   4.059
10334SOL    HW231902   2.432   4.989   4.184
10335SOL     OW31903   1.728   5.209   1.678
10335SOL    HW131904   1.727   5.192   1.776
10335SOL    HW231905   1.767   5.130   1.630
10336SOL     OW31906   4.155   6.509   2.194
10336SOL    HW131907   4.106   6.586   2.154
10336SOL    HW231908   4.242   6.496   2.147
10337SOL     OW31909   0.785   4.606   5.174
10337SOL    HW131910   0.706   4.598   5.235
10337SOL    HW231911   0.775   4.543   5.097
10338SOL     OW31912   2.704   6.170   3.061
10338SOL    HW131913   2.676   6.217   2.978
10338SOL    HW231914   2.625   6.120   3.099
10339SOL     OW31915   2.370   6.328   1.355
10339SOL    HW131916   2.405   6.238   1.381
10339SOL    HW231917   2.430   6.368   1.285
10340SOL     OW31918   1.533   6.814   0.332
10340SOL    HW131919   1.465   6.883   0.357
10340SOL    HW231920   1.538   6.745   0.404
10341SOL     OW31921   1.950   1.779   2.634
10341SOL    HW131922   1.917   1.745   2.722
10341SOL    HW231923   2.050   1.782   2.636
10342SOL     OW31924   2.783   6.889   4.552
10342SOL    HW131925   2.763   6.976   4.596
10342SOL    HW231926   2.833   6.830   4.615
10343SOL     OW31927   2.342   3.667   5.765
10343SOL    HW131928   2.364   3.753   5.718
10343SOL    HW231929   2.279   3.686   5.841
10344SOL     OW31930   4.019   3.933   4.962
10344SOL    HW131931   3.999   3.894   4.872
10344SOL    HW231932   4.074   3.867   5.015
10345SOL     OW31933   2.437   1.576   6.511
10345SOL    HW131934   2.468   1.645   6.577
10345SOL    HW231935   2.353   1.609   6.467
10346SOL     OW31936   4.964   6.292   0.059
10346SOL    HW131937   4.880   6.327   0.099
10346SOL    HW231938   5.027   6.265   0.132
10347SOL     OW31939   5.781   1.764   1.637
10347SOL    HW131940   5.809   1.860   1.641
10347SOL    HW231941   5.863   1.706   1.633
10348SOL     OW31942   0.266   0.078   5.850
10348SOL    HW131943   0.313   0.064   5.763
10348SOL    HW231944   0.331   0.061   5.925
10349SOL     OW31945   6.984   1.732   1.588
10349SOL    HW131946   7.010   1.789   1.510
10349SOL    HW231947   7.010   1.637   1.569
10350SOL     OW31948   2.776   5.125   4.325
10350SOL    HW131949   2.716   5.204   4.316
10350SOL    HW231950   2.780   5.076   4.237
10351SOL     OW31951   5.674   4.708   4.927
10351SOL    HW131952   5.599   4.772   4.944
10351SOL    HW231953   5.753   4.733   4.984
10352SOL     OW31954   5.879   2.266   0.124
10352SOL    HW131955   5.909   2.358   0.148
10352SOL    HW231956   5.815   2.271   0.048
10353SOL     OW31957   6.435   2.638   3.727
10353SOL    HW131958   6.382   2.555   3.711
10353SOL    HW231959   6.449   2.651   3.825
10354SOL     OW31960   0.155   3.035   0.757
10354SOL    HW131961   0.070   3.087   0.747
10354SOL    HW231962   0.228   3.097   0.784
10355SOL     OW31963   1.057   0.818   0.721
10355SOL    HW131964   0.994   0.877   0.672
10355SOL    HW231965   1.009   0.774   0.797
10356SOL     OW31966   6.586   4.066   6.784
10356SOL    HW131967   6.585   4.034   6.689
10356SOL    HW231968   6.680   4.068   6.817
10357SOL     OW31969   1.329   3.005   6.095
10357SOL    HW131970   1.412   3.002   6.040
10357SOL    HW231971   1.250   2.983   6.037
10358SOL     OW31972   0.886   2.776   2.251
10358SOL    HW131973   0.824   2.699   2.271
10358SOL    HW231974   0.836   2.846   2.200
10359SOL     OW31975   5.946   1.939   2.214
10359SOL    HW131976   5.940   1.897   2.305
10359SOL    HW231977   6.001   2.022   2.220
10360SOL     OW31978   5.987   4.537   2.195
10360SOL    HW131979   6.050   4.473   2.237
10360SOL    HW231980   5.908   4.551   2.254
10361SOL     OW31981   0.484   1.708   1.779
10361SOL    HW131982   0.548   1.666   1.715
10361SOL    HW231983   0.418   1.764   1.728
10362SOL     OW31984   1.284   5.205   2.413
10362SOL    HW131985   1.332   5.276   2.463
10362SOL    HW231986   1.336   5.120   2.417
10363SOL     OW31987   5.096   4.442   1.005
10363SOL    HW131988   5.084   4.342   1.005
10363SOL    HW231989   5.017   4.485   0.963
10364SOL     OW31990   6.151   4.389   2.333
10364SOL    HW131991   6.241   4.369   2.294
10364SOL    HW231992   6.131   4.322   2.405
10365SOL     OW31993   6.355   5.967   0.526
10365SOL    HW131994   6.308   5.884   0.496
10365SOL    HW231995   6.454   5.955   0.512
10366SOL     OW31996   2.850   6.400   3.233
10366SOL    HW131997   2.819   6.307   3.252
10366SOL    HW231998   2.782   6.448   3.177
10367SOL     OW31999   6.336   1.795   0.784
10367SOL    HW132000   6.433   1.796   0.760
10367SOL    HW232001   6.288   1.865   0.731
10368SOL     OW32002   1.656   5.729   1.922
10368SOL    HW132003   1.709   5.758   1.842
10368SOL    HW232004   1.568   5.692   1.891
10369SOL     OW32005   3.782   0.053   5.795
10369SOL    HW132006   3.855   0.056   5.727
10369SOL    HW232007   3.820   0.022   5.883
10370SOL     OW32008   0.411   0.725   4.847
10370SOL    HW132009   0.469   0.805   4.863
10370SOL    HW232010   0.465   0.642   4.857
10371SOL     OW32011   3.170   5.488   3.636
10371SOL    HW132012   3.079   5.530   3.637
10371SOL    HW232013   3.229   5.539   3.572
10372SOL     OW32014   2.595   6.504   1.549
10372SOL    HW132015   2.621   6.589   1.596
10372SOL    HW232016   2.597   6.429   1.614
10373SOL     OW32017   0.483   1.698   5.413
10373SOL    HW132018   0.578   1.728   5.421
10373SOL    HW232019   0.442   1.738   5.332
10374SOL     OW32020   3.198   6.861   4.732
10374SOL    HW132021   3.124   6.841   4.668
10374SOL    HW232022   3.282   6.819   4.700
10375SOL     OW32023   3.302   3.628   0.500
10375SOL    HW132024   3.338   3.588   0.415
10375SOL    HW232025   3.207   3.656   0.486
10376SOL     OW32026   2.113   5.023   2.865
10376SOL    HW132027   2.100   5.119   2.892
10376SOL    HW232028   2.023   4.980   2.853
10377SOL     OW32029   1.271   0.992   3.092
10377SOL    HW132030   1.222   0.922   3.041
10377SOL    HW232031   1.356   1.015   3.044
10378SOL     OW32032   0.005   4.455   5.271
10378SOL    HW132033   0.046   4.462   5.180
10378SOL    HW232034   0.056   4.514   5.334
10379SOL     OW32035   1.729   6.659   4.486
10379SOL    HW132036   1.667   6.735   4.469
10379SOL    HW232037   1.707   6.618   4.575
10380SOL     OW32038   1.486   3.022   4.527
10380SOL    HW132039   1.570   3.009   4.579
10380SOL    HW232040   1.507   3.056   4.435
10381SOL     OW32041   4.561   4.526   1.144
10381SOL    HW132042   4.553   4.505   1.046
10381SOL    HW232043   4.474   4.507   1.189
10382SOL     OW32044   3.264   5.147   1.462
10382SOL    HW132045   3.268   5.142   1.362
10382SOL    HW232046   3.311   5.067   1.501
10383SOL     OW32047   2.151   4.594   0.534
10383SOL    HW132048   2.157   4.594   0.634
10383SOL    HW232049   2.109   4.680   0.503
10384SOL     OW32050   5.525   6.759   1.499
10384SOL    HW132051   5.541   6.856   1.518
10384SOL    HW232052   5.498   6.712   1.583
10385SOL     OW32053   3.869   4.635   6.742
10385SOL    HW132054   3.787   4.597   6.701
10385SOL    HW232055   3.934   4.560   6.761
10386SOL     OW32056   0.103   0.864   6.721
10386SOL    HW132057   0.007   0.867   6.751
10386SOL    HW232058   0.136   0.770   6.724
10387SOL     OW32059   4.981   2.883   2.648
10387SOL    HW132060   4.987   2.833   2.734
10387SOL    HW232061   4.942   2.825   2.577
10388SOL     OW32062   2.821   0.275   5.880
10388SOL    HW132063   2.733   0.245   5.915
10388SOL    HW232064   2.815   0.371   5.852
10389SOL     OW32065   0.540   3.077   0.457
10389SOL    HW132066   0.625   3.064   0.406
10389SOL    HW232067   0.559   3.126   0.542
10390SOL     OW32068   2.917   2.120   0.921
10390SOL    HW132069   2.992   2.186   0.929
10390SOL    HW232070   2.833   2.168   0.894
10391SOL     OW32071   6.849   6.570   4.015
10391SOL    HW132072   6.860   6.492   4.077
10391SOL    HW232073   6.926   6.573   3.951
10392SOL     OW32074   6.570   4.826   4.561
10392SOL    HW132075   6.642   4.880   4.519
10392SOL    HW232076   6.505   4.797   4.490
10393SOL     OW32077   1.723   3.768   3.927
10393SOL    HW132078   1.687   3.780   4.020
10393SOL    HW232079   1.767   3.679   3.920
10394SOL     OW32080   3.276   6.033   4.091
10394SOL    HW132081   3.197   6.058   4.146
10394SOL    HW232082   3.266   6.070   3.998
10395SOL     OW32083   0.301   0.045   0.506
10395SOL    HW132084   0.298   6.976   0.542
10395SOL    HW232085   0.272   0.109   0.576
10396SOL     OW32086   2.915   1.647   4.434
10396SOL    HW132087   2.914   1.644   4.534
10396SOL    HW232088   2.922   1.742   4.403
10397SOL     OW32089   3.057   2.147   2.442
10397SOL    HW132090   3.130   2.209   2.414
10397SOL    HW232091   2.992   2.135   2.367
10398SOL     OW32092   0.287   3.114   1.795
10398SOL    HW132093   0.293   3.116   1.695
10398SOL    HW232094   0.301   3.020   1.827
10399SOL     OW32095   6.165   2.457   1.812
10399SOL    HW132096   6.069   2.431   1.821
10399SOL    HW232097   6.191   2.518   1.887
10400SOL     OW32098   4.143   0.259   0.566
10400SOL    HW132099   4.210   0.324   0.602
10400SOL    HW232100   4.188   0.201   0.497
10401SOL     OW32101   6.674   0.889   4.126
10401SOL    HW132102   6.578   0.874   4.153
10401SOL    HW232103   6.733   0.841   4.191
10402SOL     OW32104   5.811   2.718   4.869
10402SOL    HW132105   5.761   2.770   4.799
10402SOL    HW232106   5.907   2.712   4.843
10403SOL     OW32107   3.254   0.551   3.040
10403SOL    HW132108   3.197   0.624   3.002
10403SOL    HW232109   3.351   0.577   3.032
10404SOL     OW32110   6.349   0.031   5.503
10404SOL    HW132111   6.309   6.963   5.510
10404SOL    HW232112   6.447   0.024   5.486
10405SOL     OW32113   0.774   1.504   5.849
10405SOL    HW132114   0.810   1.416   5.881
10405SOL    HW232115   0.766   1.502   5.749
10406SOL     OW32116   3.156   4.849   2.011
10406SOL    HW132117   3.112   4.782   1.951
10406SOL    HW232118   3.110   4.937   2.002
10407SOL     OW32119   3.258   5.712   5.945
10407SOL    HW132120   3.194   5.788   5.933
10407SOL    HW232121   3.328   5.737   6.011
10408SOL     OW32122   5.220   1.472   0.355
10408SOL    HW132123   5.242   1.509   0.445
10408SOL    HW232124   5.259   1.381   0.345
10409SOL     OW32125   6.743   4.706   6.983
10409SOL    HW132126   6.657   4.753   7.004
10409SOL    HW232127   6.819   4.756   7.024
10410SOL     OW32128   5.504   1.202   6.899
10410SOL    HW132129   5.417   1.242   6.871
10410SOL    HW232130   5.567   1.201   6.821
10411SOL     OW32131   3.259   5.891   2.996
10411SOL    HW132132   3.318   5.845   3.062
10411SOL    HW232133   3.275   5.853   2.905
10412SOL     OW32134   6.222   0.938   0.256
10412SOL    HW132135   6.134   0.930   0.303
10412SOL    HW232136   6.270   1.018   0.290
10413SOL     OW32137   0.176   1.953   1.402
10413SOL    HW132138   0.110   1.896   1.353
10413SOL    HW232139   0.161   2.049   1.380
10414SOL     OW32140   4.490   3.956   5.674
10414SOL    HW132141   4.484   4.020   5.751
10414SOL    HW232142   4.517   3.866   5.707
10415SOL     OW32143   0.536   5.090   6.043
10415SOL    HW132144   0.624   5.069   6.002
10415SOL    HW232145   0.480   5.141   5.978
10416SOL     OW32146   6.379   1.666   3.142
10416SOL    HW132147   6.368   1.766   3.143
10416SOL    HW232148   6.475   1.644   3.159
10417SOL     OW32149   3.816   5.238   4.132
10417SOL    HW132150   3.888   5.212   4.196
10417SOL    HW232151   3.745   5.168   4.131
10418SOL     OW32152   0.227   4.585   5.809
10418SOL    HW132153   0.209   4.683   5.815
10418SOL    HW232154   0.310   4.563   5.860
10419SOL     OW32155   1.477   0.595   0.339
10419SOL    HW132156   1.436   0.566   0.426
10419SOL    HW232157   1.427   0.673   0.303
10420SOL     OW32158   6.876   3.128   2.185
10420SOL    HW132159   6.829   3.098   2.268
10420SOL    HW232160   6.954   3.186   2.210
10421SOL     OW32161   0.901   1.745   3.361
10421SOL    HW132162   0.877   1.705   3.273
10421SOL    HW232163   0.971   1.816   3.348
10422SOL     OW32164   6.332   2.561   5.519
10422SOL    HW132165   6.428   2.586   5.503
10422SOL    HW232166   6.289   2.632   5.575
10423SOL     OW32167   4.669   4.987   4.370
10423SOL    HW132168   4.760   4.987   4.412
10423SOL    HW232169   4.606   5.039   4.428
10424SOL     OW32170   5.748   2.681   0.112
10424SOL    HW132171   5.840   2.649   0.134
10424SOL    HW232172   5.724   2.756   0.173
10425SOL     OW32173   2.030   6.719   2.405
10425SOL    HW132174   2.121   6.679   2.417
10425SOL    HW232175   2.023   6.760   2.314
10426SOL     OW32176   6.693   3.743   0.938
10426SOL    HW132177   6.612   3.779   0.892
10426SOL    HW232178   6.698   3.644   0.925
10427SOL     OW32179   4.349   1.421   0.517
10427SOL    HW132180   4.297   1.429   0.602
10427SOL    HW232181   4.317   1.342   0.465
10428SOL     OW32182   3.038   1.602   4.709
10428SOL    HW132183   3.101   1.524   4.705
10428SOL    HW232184   3.091   1.687   4.701
10429SOL     OW32185   6.908   5.679   1.291
10429SOL    HW132186   6.979   5.732   1.246
10429SOL    HW232187   6.839   5.741   1.329
10430SOL     OW32188   4.371   0.093   3.649
10430SOL    HW132189   4.300   0.040   3.603
10430SOL    HW232190   4.461   0.055   3.626
10431SOL     OW32191   3.346   6.810   5.569
10431SOL    HW132192   3.388   6.851   5.489
10431SOL    HW232193   3.286   6.735   5.541
10432SOL     OW32194   6.427   0.830   4.259
10432SOL    HW132195   6.366   0.900   4.297
10432SOL    HW232196   6.419   0.746   4.312
10433SOL     OW32197   1.273   6.189   1.429
10433SOL    HW132198   1.210   6.136   1.486
10433SOL    HW232199   1.320   6.128   1.365
10434SOL     OW32200   3.323   6.660   3.196
10434SOL    HW132201   3.231   6.695   3.182
10434SOL    HW232202   3.376   6.670   3.111
10435SOL     OW32203   6.084   0.420   4.677
10435SOL    HW132204   5.985   0.426   4.688
10435SOL    HW232205   6.117   0.497   4.623
10436SOL     OW32206   1.113   4.964   4.642
10436SOL    HW132207   1.102   5.062   4.623
10436SOL    HW232208   1.149   4.952   4.735
10437SOL     OW32209   6.164   5.071   5.347
10437SOL    HW132210   6.070   5.104   5.342
10437SOL    HW232211   6.206   5.102   5.432
10438SOL     OW32212   5.209   6.680   0.347
10438SOL    HW132213   5.257   6.599   0.313
10438SOL    HW232214   5.125   6.693   0.295
10439SOL     OW32215   3.182   1.789   6.011
10439SOL    HW132216   3.133   1.704   5.989
10439SOL    HW232217   3.168   1.855   5.938
10440SOL     OW32218   0.239   5.668   0.794
10440SOL    HW132219   0.184   5.751   0.792
10440SOL    HW232220   0.329   5.686   0.754
10441SOL     OW32221   5.060   1.351   6.555
10441SOL    HW132222   5.153   1.380   6.579
10441SOL    HW232223   4.994   1.406   6.606
10442SOL     OW32224   3.472   5.354   5.302
10442SOL    HW132225   3.480   5.280   5.369
10442SOL    HW232226   3.473   5.442   5.349
10443SOL     OW32227   4.946   3.463   4.597
10443SOL    HW132228   4.852   3.486   4.622
10443SOL    HW232229   5.006   3.541   4.615
10444SOL     OW32230   4.075   5.135   4.505
10444SOL    HW132231   4.081   5.038   4.527
10444SOL    HW232232   3.980   5.164   4.507
10445SOL     OW32233   0.821   4.788   4.229
10445SOL    HW132234   0.752   4.763   4.297
10445SOL    HW232235   0.786   4.767   4.137
10446SOL     OW32236   1.171   4.330   6.454
10446SOL    HW132237   1.206   4.263   6.520
10446SOL    HW232238   1.227   4.412   6.457
10447SOL     OW32239   0.210   1.028   2.075
10447SOL    HW132240   0.228   1.119   2.111
10447SOL    HW232241   0.145   1.034   2.000
10448SOL     OW32242   4.115   3.297   0.969
10448SOL    HW132243   4.215   3.297   0.978
10448SOL    HW232244   4.086   3.214   0.921
10449SOL     OW32245   2.702   5.476   3.982
10449SOL    HW132246   2.777   5.541   3.968
10449SOL    HW232247   2.623   5.505   3.928
10450SOL     OW32248   0.714   2.492   6.695
10450SOL    HW132249   0.679   2.548   6.770
10450SOL    HW232250   0.642   2.477   6.628
10451SOL     OW32251   3.070   4.817   2.684
10451SOL    HW132252   3.032   4.784   2.598
10451SOL    HW232253   3.168   4.833   2.673
10452SOL     OW32254   6.703   3.383   3.487
10452SOL    HW132255   6.747   3.357   3.401
10452SOL    HW232256   6.770   3.377   3.562
10453SOL     OW32257   5.760   5.958   1.804
10453SOL    HW132258   5.730   5.871   1.765
10453SOL    HW232259   5.779   6.022   1.730
10454SOL     OW32260   5.618   2.824   1.868
10454SOL    HW132261   5.571   2.816   1.956
10454SOL    HW232262   5.715   2.841   1.883
10455SOL     OW32263   0.029   5.013   3.529
10455SOL    HW132264   6.955   5.022   3.517
10455SOL    HW232265   0.059   5.065   3.609
10456SOL     OW32266   2.885   6.139   1.264
10456SOL    HW132267   2.899   6.161   1.361
10456SOL    HW232268   2.879   6.223   1.211
10457SOL     OW32269   3.516   3.217   3.919
10457SOL    HW132270   3.574   3.137   3.934
10457SOL    HW232271   3.431   3.208   3.972
10458SOL     OW32272   0.192   6.813   6.879
10458SOL    HW132273   0.282   6.770   6.888
10458SOL    HW232274   0.163   6.811   6.784
10459SOL     OW32275   6.027   5.585   2.385
10459SOL    HW132276   6.007   5.625   2.475
10459SOL    HW232277   6.029   5.485   2.392
10460SOL     OW32278   2.183   5.994   1.578
10460SOL    HW132279   2.170   6.013   1.675
10460SOL    HW232280   2.280   5.976   1.560
10461SOL     OW32281   1.745   6.592   6.158
10461SOL    HW132282   1.727   6.680   6.202
10461SOL    HW232283   1.675   6.527   6.185
10462SOL     OW32284   6.104   0.843   1.481
10462SOL    HW132285   6.064   0.771   1.538
10462SOL    HW232286   6.120   0.924   1.536
10463SOL     OW32287   3.108   4.212   6.180
10463SOL    HW132288   3.019   4.247   6.152
10463SOL    HW232289   3.147   4.272   6.251
10464SOL     OW32290   4.256   0.022   1.040
10464SOL    HW132291   4.215   0.106   1.003
10464SOL    HW232292   4.215   6.967   0.995
10465SOL     OW32293   0.630   6.843   6.161
10465SOL    HW132294   0.720   6.876   6.191
10465SOL    HW232295   0.573   6.825   6.241
10466SOL     OW32296   4.843   5.607   5.176
10466SOL    HW132297   4.796   5.649   5.098
10466SOL    HW232298   4.940   5.628   5.172
10467SOL     OW32299   1.657   1.627   5.135
10467SOL    HW132300   1.740   1.644   5.082
10467SOL    HW232301   1.675   1.641   5.232
10468SOL     OW32302   3.675   6.306   4.287
10468SOL    HW132303   3.661   6.329   4.384
10468SOL    HW232304   3.765   6.265   4.275
10469SOL     OW32305   2.087   3.712   1.221
10469SOL    HW132306   2.139   3.638   1.264
10469SOL    HW232307   1.995   3.714   1.261
10470SOL     OW32308   2.602   2.068   4.264
10470SOL    HW132309   2.607   2.084   4.166
10470SOL    HW232310   2.508   2.082   4.296
10471SOL     OW32311   2.365   3.925   1.758
10471SOL    HW132312   2.307   3.972   1.825
10471SOL    HW232313   2.307   3.877   1.692
10472SOL     OW32314   4.014   7.021   2.068
10472SOL    HW132315   3.919   7.018   2.036
10472SOL    HW232316   4.033   0.087   2.106
10473SOL     OW32317   5.865   6.913   0.778
10473SOL    HW132318   5.939   6.849   0.798
10473SOL    HW232319   5.893   6.972   0.702
10474SOL     OW32320   4.332   0.935   4.429
10474SOL    HW132321   4.368   0.875   4.357
10474SOL    HW232322   4.395   0.935   4.507
10475SOL     OW32323   4.189   5.992   0.921
10475SOL    HW132324   4.139   5.913   0.954
10475SOL    HW232325   4.187   6.064   0.990
10476SOL     OW32326   6.477   5.361   6.915
10476SOL    HW132327   6.438   5.273   6.941
10476SOL    HW232328   6.431   5.395   6.833
10477SOL     OW32329   5.401   3.501   4.607
10477SOL    HW132330   5.372   3.406   4.600
10477SOL    HW232331   5.323   3.561   4.589
10478SOL     OW32332   1.099   6.968   6.829
10478SOL    HW132333   1.166   6.896   6.844
10478SOL    HW232334   1.016   6.928   6.789
10479SOL     OW32335   1.434   3.311   2.000
10479SOL    HW132336   1.356   3.278   2.054
10479SOL    HW232337   1.461   3.402   2.031
10480SOL     OW32338   5.770   6.479   2.093
10480SOL    HW132339   5.786   6.578   2.098
10480SOL    HW232340   5.707   6.459   2.018
10481SOL     OW32341   2.486   0.828   5.117
10481SOL    HW132342   2.429   0.874   5.185
10481SOL    HW232343   2.557   0.890   5.084
10482SOL     OW32344   0.971   6.322   4.663
10482SOL    HW132345   0.876   6.339   4.637
10482SOL    HW232346   1.019   6.277   4.587
10483SOL     OW32347   6.362   5.719   0.164
10483SOL    HW132348   6.343   5.730   0.261
10483SOL    HW232349   6.276   5.725   0.112
10484SOL     OW32350   6.798   0.581   1.327
10484SOL    HW132351   6.808   0.489   1.290
10484SOL    HW232352   6.878   0.636   1.303
10485SOL     OW32353   2.972   3.786   3.027
10485SOL    HW132354   2.977   3.831   2.938
10485SOL    HW232355   2.911   3.707   3.021
10486SOL     OW32356   0.025   6.982   5.841
10486SOL    HW132357   6.992   7.024   5.771
10486SOL    HW232358   0.113   0.007   5.845
10487SOL     OW32359   4.516   1.761   1.693
10487SOL    HW132360   4.595   1.706   1.723
10487SOL    HW232361   4.493   1.737   1.599
10488SOL     OW32362   0.761   2.283   5.681
10488SOL    HW132363   0.675   2.330   5.703
10488SOL    HW232364   0.835   2.350   5.677
10489SOL     OW32365   6.049   5.043   3.975
10489SOL    HW132366   6.108   4.990   4.036
10489SOL    HW232367   6.015   4.985   3.902
10490SOL     OW32368   5.815   0.376   1.043
10490SOL    HW132369   5.729   0.419   1.070
10490SOL    HW232370   5.826   0.289   1.091
10491SOL     OW32371   1.511   3.327   6.689
10491SOL    HW132372   1.520   3.291   6.596
10491SOL    HW232373   1.566   3.271   6.751
10492SOL     OW32374   4.947   0.089   0.610
10492SOL    HW132375   5.038   0.067   0.645
10492SOL    HW232376   4.956   0.143   0.526
10493SOL     OW32377   4.495   5.736   1.049
10493SOL    HW132378   4.563   5.799   1.010
10493SOL    HW232379   4.534   5.691   1.130
10494SOL     OW32380   0.770   4.657   6.400
10494SOL    HW132381   0.863   4.631   6.375
10494SOL    HW232382   0.760   4.654   6.499
10495SOL     OW32383   0.515   6.275   5.780
10495SOL    HW132384   0.462   6.204   5.733
10495SOL    HW232385   0.513   6.359   5.726
10496SOL     OW32386   6.534   3.310   5.635
10496SOL    HW132387   6.435   3.318   5.640
10496SOL    HW232388   6.561   3.295   5.540
10497SOL     OW32389   2.513   0.008   2.026
10497SOL    HW132390   2.444   6.961   2.018
10497SOL    HW232391   2.518   0.059   1.941
10498SOL     OW32392   4.953   5.768   0.624
10498SOL    HW132393   4.976   5.679   0.583
10498SOL    HW232394   4.975   5.766   0.721
10499SOL     OW32395   6.139   5.600   2.025
10499SOL    HW132396   6.156   5.510   2.063
10499SOL    HW232397   6.183   5.607   1.935
10500SOL     OW32398   5.489   4.264   5.115
10500SOL    HW132399   5.558   4.242   5.184
10500SOL    HW232400   5.523   4.336   5.055
10501SOL     OW32401   2.531   5.981   2.344
10501SOL    HW132402   2.537   5.887   2.310
10501SOL    HW232403   2.477   6.036   2.281
10502SOL     OW32404   2.946   3.520   2.491
10502SOL    HW132405   2.924   3.615   2.469
10502SOL    HW232406   3.046   3.507   2.488
10503SOL     OW32407   0.043   3.468   6.601
10503SOL    HW132408   0.119   3.493   6.660
10503SOL    HW232409   0.069   3.389   6.545
10504SOL     OW32410   1.973   3.014   6.014
10504SOL    HW132411   1.983   2.973   6.105
10504SOL    HW232412   1.912   3.093   6.020
10505SOL     OW32413   5.900   6.286   1.897
10505SOL    HW132414   5.928   6.194   1.871
10505SOL    HW232415   5.839   6.324   1.828
10506SOL     OW32416   0.777   2.915   6.744
10506SOL    HW132417   0.872   2.916   6.714
10506SOL    HW232418   0.760   2.831   6.796
10507SOL     OW32419   2.581   4.884   6.741
10507SOL    HW132420   2.611   4.795   6.777
10507SOL    HW232421   2.655   4.951   6.751
10508SOL     OW32422   1.083   5.105   5.318
10508SOL    HW132423   1.115   5.192   5.355
10508SOL    HW232424   1.154   5.036   5.327
10509SOL     OW32425   4.857   3.139   3.898
10509SOL    HW132426   4.875   3.044   3.874
10509SOL    HW232427   4.838   3.145   3.996
10510SOL     OW32428   4.735   5.695   4.902
10510SOL    HW132429   4.809   5.709   4.836
10510SOL    HW232430   4.673   5.773   4.901
10511SOL     OW32431   2.999   1.594   2.021
10511SOL    HW132432   2.994   1.579   1.922
10511SOL    HW232433   3.055   1.674   2.040
10512SOL     OW32434   4.620   0.546   5.240
10512SOL    HW132435   4.564   0.598   5.175
10512SOL    HW232436   4.576   0.458   5.259
10513SOL     OW32437   5.620   3.154   1.849
10513SOL    HW132438   5.549   3.125   1.913
10513SOL    HW232439   5.693   3.086   1.848
10514SOL     OW32440   1.039   3.089   1.798
10514SOL    HW132441   1.066   2.994   1.817
10514SOL    HW232442   1.040   3.106   1.700
10515SOL     OW32443   2.113   3.341   4.878
10515SOL    HW132444   2.136   3.416   4.939
10515SOL    HW232445   2.122   3.371   4.783
10516SOL     OW32446   3.370   2.851   0.126
10516SOL    HW132447   3.405   2.795   0.200
10516SOL    HW232448   3.308   2.796   0.069
10517SOL     OW32449   1.140   2.945   3.584
10517SOL    HW132450   1.196   2.985   3.511
10517SOL    HW232451   1.183   2.963   3.673
10518SOL     OW32452   1.044   5.271   2.007
10518SOL    HW132453   1.118   5.205   2.017
10518SOL    HW232454   0.957   5.222   1.999
10519SOL     OW32455   2.223   6.194   1.158
10519SOL    HW132456   2.253   6.247   1.237
10519SOL    HW232457   2.214   6.255   1.079
10520SOL     OW32458   6.809   0.946   6.339
10520SOL    HW132459   6.790   1.004   6.418
10520SOL    HW232460   6.828   1.004   6.259
10521SOL     OW32461   6.149   3.114   1.506
10521SOL    HW132462   6.200   3.084   1.586
10521SOL    HW232463   6.164   3.212   1.492
10522SOL     OW32464   5.563   2.387   2.782
10522SOL    HW132465   5.548   2.476   2.825
10522SOL    HW232466   5.498   2.375   2.707
10523SOL     OW32467   0.538   4.253   3.826
10523SOL    HW132468   0.484   4.180   3.869
10523SOL    HW232469   0.635   4.228   3.829
10524SOL     OW32470   6.746   5.948   4.247
10524SOL    HW132471   6.795   5.861   4.242
10524SOL    HW232472   6.791   6.007   4.314
10525SOL     OW32473   4.340   1.361   4.692
10525SOL    HW132474   4.349   1.309   4.777
10525SOL    HW232475   4.296   1.303   4.623
10526SOL     OW32476   0.566   5.279   0.330
10526SOL    HW132477   0.607   5.310   0.416
10526SOL    HW232478   0.471   5.253   0.347
10527SOL     OW32479   0.866   1.410   5.010
10527SOL    HW132480   0.878   1.501   5.050
10527SOL    HW232481   0.926   1.401   4.930
10528SOL     OW32482   0.851   4.943   6.771
10528SOL    HW132483   0.804   5.012   6.715
10528SOL    HW232484   0.822   4.852   6.744
10529SOL     OW32485   1.471   6.603   6.447
10529SOL    HW132486   1.394   6.643   6.396
10529SOL    HW232487   1.499   6.665   6.520
10530SOL     OW32488   1.323   0.301   0.063
10530SOL    HW132489   1.323   0.328   0.159
10530SOL    HW232490   1.386   0.224   0.050
10531SOL     OW32491   3.034   2.653   5.349
10531SOL    HW132492   3.132   2.655   5.328
10531SOL    HW232493   2.996   2.745   5.342
10532SOL     OW32494   5.832   6.496   6.511
10532SOL    HW132495   5.823   6.497   6.412
10532SOL    HW232496   5.796   6.409   6.547
10533SOL     OW32497   3.312   5.887   3.585
10533SOL    HW132498   3.372   5.902   3.663
10533SOL    HW232499   3.356   5.924   3.502
10534SOL     OW32500   0.700   6.136   2.723
10534SOL    HW132501   0.783   6.114   2.775
10534SOL    HW232502   0.686   6.066   2.653
10535SOL     OW32503   2.725   1.356   2.680
10535SOL    HW132504   2.656   1.284   2.680
10535SOL    HW232505   2.775   1.355   2.767
10536SOL     OW32506   4.814   1.250   4.250
10536SOL    HW132507   4.782   1.230   4.158
10536SOL    HW232508   4.830   1.165   4.300
10537SOL     OW32509   5.044   6.845   3.127
10537SOL    HW132510   5.092   6.892   3.201
10537SOL    HW232511   4.968   6.792   3.164
10538SOL     OW32512   6.527   3.295   2.467
10538SOL    HW132513   6.475   3.335   2.391
10538SOL    HW232514   6.466   3.284   2.546
10539SOL     OW32515   6.032   6.610   2.914
10539SOL    HW132516   5.946   6.632   2.869
10539SOL    HW232517   6.021   6.527   2.969
10540SOL     OW32518   2.791   3.867   6.288
10540SOL    HW132519   2.785   3.835   6.193
10540SOL    HW232520   2.838   3.955   6.290
10541SOL     OW32521   3.114   3.155   5.149
10541SOL    HW132522   3.185   3.124   5.212
10541SOL    HW232523   3.033   3.097   5.158
10542SOL     OW32524   6.128   6.936   4.593
10542SOL    HW132525   6.182   6.852   4.583
10542SOL    HW232526   6.184   7.014   4.564
10543SOL     OW32527   0.167   3.059   5.909
10543SOL    HW132528   0.190   3.086   5.815
10543SOL    HW232529   0.241   3.086   5.970
10544SOL     OW32530   1.400   1.546   3.550
10544SOL    HW132531   1.371   1.630   3.596
10544SOL    HW232532   1.376   1.551   3.453
10545SOL     OW32533   2.477   2.113   3.026
10545SOL    HW132534   2.523   2.201   3.039
10545SOL    HW232535   2.494   2.054   3.105
10546SOL     OW32536   3.252   6.507   0.965
10546SOL    HW132537   3.335   6.462   0.998
10546SOL    HW232538   3.228   6.582   1.026
10547SOL     OW32539   4.427   6.590   5.220
10547SOL    HW132540   4.478   6.673   5.241
10547SOL    HW232541   4.358   6.609   5.151
10548SOL     OW32542   1.076   4.807   4.284
10548SOL    HW132543   1.091   4.800   4.382
10548SOL    HW232544   0.980   4.824   4.265
10549SOL     OW32545   0.334   1.175   0.926
10549SOL    HW132546   0.434   1.175   0.920
10549SOL    HW232547   0.295   1.169   0.834
10550SOL     OW32548   3.933   6.310   2.988
10550SOL    HW132549   3.851   6.367   2.981
10550SOL    HW232550   3.914   6.220   2.948
10551SOL     OW32551   3.140   2.010   5.836
10551SOL    HW132552   3.078   2.083   5.863
10551SOL    HW232553   3.232   2.047   5.823
10552SOL     OW32554   3.648   1.082   4.785
10552SOL    HW132555   3.709   1.112   4.711
10552SOL    HW232556   3.668   0.986   4.807
10553SOL     OW32557   0.260   5.120   0.748
10553SOL    HW132558   0.232   5.199   0.693
10553SOL    HW232559   0.200   5.111   0.827
10554SOL     OW32560   6.379   4.896   2.792
10554SOL    HW132561   6.295   4.888   2.738
10554SOL    HW232562   6.372   4.836   2.872
10555SOL     OW32563   3.331   2.234   0.479
10555SOL    HW132564   3.428   2.260   0.474
10555SOL    HW232565   3.302   2.198   0.390
10556SOL     OW32566   1.924   1.541   3.160
10556SOL    HW132567   1.983   1.589   3.226
10556SOL    HW232568   1.976   1.469   3.115
10557SOL     OW32569   2.121   3.611   3.408
10557SOL    HW132570   2.116   3.522   3.453
10557SOL    HW232571   2.076   3.680   3.465
10558SOL     OW32572   3.064   5.367   5.421
10558SOL    HW132573   2.979   5.319   5.401
10558SOL    HW232574   3.065   5.455   5.373
10559SOL     OW32575   3.423   0.160   6.691
10559SOL    HW132576   3.481   0.240   6.677
10559SOL    HW232577   3.406   0.147   6.789
10560SOL     OW32578   5.241   6.568   1.422
10560SOL    HW132579   5.275   6.479   1.452
10560SOL    HW232580   5.271   6.639   1.487
10561SOL     OW32581   5.883   3.888   0.655
10561SOL    HW132582   5.898   3.908   0.752
10561SOL    HW232583   5.940   3.810   0.628
10562SOL     OW32584   2.934   6.677   1.658
10562SOL    HW132585   2.903   6.622   1.735
10562SOL    HW232586   2.937   6.621   1.576
10563SOL     OW32587   0.459   0.258   0.715
10563SOL    HW132588   0.461   0.180   0.777
10563SOL    HW232589   0.365   0.273   0.683
10564SOL     OW32590   6.303   5.708   3.904
10564SOL    HW132591   6.399   5.698   3.932
10564SOL    HW232592   6.274   5.802   3.922
10565SOL     OW32593   6.558   6.674   5.533
10565SOL    HW132594   6.530   6.642   5.443
10565SOL    HW232595   6.481   6.671   5.596
10566SOL     OW32596   2.892   2.573   0.566
10566SOL    HW132597   2.969   2.621   0.607
10566SOL    HW232598   2.807   2.622   0.586
10567SOL     OW32599   1.825   2.592   6.359
10567SOL    HW132600   1.778   2.609   6.272
10567SOL    HW232601   1.909   2.541   6.343
10568SOL     OW32602   5.006   2.755   5.968
10568SOL    HW132603   4.919   2.705   5.977
10568SOL    HW232604   4.987   2.847   5.933
10569SOL     OW32605   5.578   0.265   1.852
10569SOL    HW132606   5.549   0.205   1.926
10569SOL    HW232607   5.663   0.311   1.877
10570SOL     OW32608   0.821   4.888   4.638
10570SOL    HW132609   0.779   4.953   4.701
10570SOL    HW232610   0.917   4.913   4.624
10571SOL     OW32611   0.008   4.450   5.950
10571SOL    HW132612   6.988   4.375   5.899
10571SOL    HW232613   0.092   4.477   5.903
10572SOL     OW32614   6.365   4.619   1.474
10572SOL    HW132615   6.381   4.529   1.514
10572SOL    HW232616   6.381   4.615   1.375
10573SOL     OW32617   5.938   0.586   3.660
10573SOL    HW132618   5.999   0.555   3.587
10573SOL    HW232619   5.971   0.674   3.695
10574SOL     OW32620   0.078   1.366   3.344
10574SOL    HW132621   0.143   1.294   3.320
10574SOL    HW232622   0.001   1.326   3.394
10575SOL     OW32623   6.475   1.203   2.169
10575SOL    HW132624   6.435   1.247   2.089
10575SOL    HW232625   6.458   1.259   2.250
10576SOL     OW32626   2.455   5.144   3.627
10576SOL    HW132627   2.495   5.069   3.574
10576SOL    HW232628   2.477   5.132   3.724
10577SOL     OW32629   4.163   6.220   1.118
10577SOL    HW132630   4.066   6.238   1.130
10577SOL    HW232631   4.214   6.258   1.196
10578SOL     OW32632   6.373   2.257   4.060
10578SOL    HW132633   6.416   2.259   4.150
10578SOL    HW232634   6.326   2.344   4.044
10579SOL     OW32635   2.446   2.942   1.045
10579SOL    HW132636   2.450   2.960   1.143
10579SOL    HW232637   2.417   3.024   0.997
10580SOL     OW32638   6.393   6.793   6.427
10580SOL    HW132639   6.337   6.717   6.461
10580SOL    HW232640   6.487   6.762   6.416
10581SOL     OW32641   5.135   0.116   3.672
10581SOL    HW132642   5.159   0.022   3.698
10581SOL    HW232643   5.208   0.178   3.702
10582SOL     OW32644   5.410   4.958   6.679
10582SOL    HW132645   5.351   5.035   6.703
10582SOL    HW232646   5.355   4.874   6.673
10583SOL     OW32647   2.627   0.542   3.521
10583SOL    HW132648   2.562   0.466   3.521
10583SOL    HW232649   2.719   0.506   3.508
10584SOL     OW32650   6.950   6.983   5.526
10584SOL    HW132651   6.963   0.011   5.442
10584SOL    HW232652   7.020   6.912   5.534
10585SOL     OW32653   0.468   1.368   5.797
10585SOL    HW132654   0.478   1.464   5.821
10585SOL    HW232655   0.382   1.333   5.834
10586SOL     OW32656   4.831   4.480   5.595
10586SOL    HW132657   4.927   4.454   5.600
10586SOL    HW232658   4.778   4.404   5.557
10587SOL     OW32659   0.906   5.692   5.522
10587SOL    HW132660   0.965   5.663   5.597
10587SOL    HW232661   0.937   5.650   5.437
10588SOL     OW32662   1.212   3.646   4.120
10588SOL    HW132663   1.220   3.648   4.219
10588SOL    HW232664   1.245   3.558   4.086
10589SOL     OW32665   5.313   6.312   3.597
10589SOL    HW132666   5.380   6.255   3.549
10589SOL    HW232667   5.280   6.263   3.678
10590SOL     OW32668   0.723   5.563   1.799
10590SOL    HW132669   0.741   5.499   1.874
10590SOL    HW232670   0.630   5.550   1.765
10591SOL     OW32671   1.149   1.627   1.399
10591SOL    HW132672   1.117   1.719   1.420
10591SOL    HW232673   1.243   1.617   1.431
10592SOL     OW32674   5.894   2.115   5.451
10592SOL    HW132675   5.953   2.044   5.489
10592SOL    HW232676   5.801   2.079   5.439
10593SOL     OW32677   2.920   6.540   1.445
10593SOL    HW132678   2.832   6.578   1.415
10593SOL    HW232679   2.918   6.440   1.434
10594SOL     OW32680   3.932   0.229   3.217
10594SOL    HW132681   4.019   0.269   3.247
10594SOL    HW232682   3.941   0.196   3.123
10595SOL     OW32683   5.971   0.796   0.568
10595SOL    HW132684   5.991   0.738   0.488
10595SOL    HW232685   5.887   0.764   0.612
10596SOL     OW32686   4.297   1.521   6.605
10596SOL    HW132687   4.373   1.536   6.668
10596SOL    HW232688   4.229   1.462   6.649
10597SOL     OW32689   2.602   0.192   5.999
10597SOL    HW132690   2.505   0.214   5.987
10597SOL    HW232691   2.631   0.222   6.090
10598SOL     OW32692   2.766   1.660   6.150
10598SOL    HW132693   2.847   1.680   6.096
10598SOL    HW232694   2.685   1.664   6.091
10599SOL     OW32695   6.953   3.614   6.333
10599SOL    HW132696   6.969   3.618   6.431
10599SOL    HW232697   6.906   3.698   6.303
10600SOL     OW32698   2.637   1.874   2.107
10600SOL    HW132699   2.539   1.889   2.119
10600SOL    HW232700   2.684   1.961   2.095
10601SOL     OW32701   0.069   6.757   6.651
10601SOL    HW132702   0.017   6.824   6.597
10601SOL    HW232703   0.042   6.665   6.625
10602SOL     OW32704   0.113   0.096   0.140
10602SOL    HW132705   0.121   0.195   0.133
10602SOL    HW232706   0.041   0.073   0.205
10603SOL     OW32707   4.588   6.569   1.763
10603SOL    HW132708   4.501   6.544   1.722
10603SOL    HW232709   4.608   6.665   1.742
10604SOL     OW32710   0.463   0.126   5.204
10604SOL    HW132711   0.423   0.212   5.173
10604SOL    HW232712   0.560   0.140   5.225
10605SOL     OW32713   2.656   1.303   0.859
10605SOL    HW132714   2.600   1.337   0.935
10605SOL    HW232715   2.655   1.203   0.861
10606SOL     OW32716   6.171   0.834   1.214
10606SOL    HW132717   6.218   0.748   1.195
10606SOL    HW232718   6.146   0.837   1.311
10607SOL     OW32719   4.063   4.271   6.099
10607SOL    HW132720   4.000   4.245   6.025
10607SOL    HW232721   4.014   4.323   6.169
10608SOL     OW32722   6.330   2.693   2.873
10608SOL    HW132723   6.262   2.688   2.946
10608SOL    HW232724   6.305   2.629   2.800
10609SOL     OW32725   3.827   0.297   0.204
10609SOL    HW132726   3.843   0.203   0.175
10609SOL    HW232727   3.854   0.307   0.300
10610SOL     OW32728   6.957   1.216   4.525
10610SOL    HW132729   7.005   1.274   4.459
10610SOL    HW232730   6.968   1.120   4.498
10611SOL     OW32731   2.447   5.894   4.941
10611SOL    HW132732   2.363   5.881   4.994
10611SOL    HW232733   2.499   5.809   4.939
10612SOL     OW32734   4.961   1.347   3.816
10612SOL    HW132735   4.911   1.421   3.860
10612SOL    HW232736   4.941   1.261   3.863
10613SOL     OW32737   6.629   6.522   4.285
10613SOL    HW132738   6.703   6.467   4.323
10613SOL    HW232739   6.643   6.618   4.310
10614SOL     OW32740   5.057   0.287   6.373
10614SOL    HW132741   4.964   0.249   6.377
10614SOL    HW232742   5.083   0.320   6.464
10615SOL     OW32743   2.616   2.280   6.346
10615SOL    HW132744   2.629   2.185   6.316
10615SOL    HW232745   2.671   2.341   6.288
10616SOL     OW32746   2.681   6.283   6.781
10616SOL    HW132747   2.728   6.200   6.754
10616SOL    HW232748   2.747   6.358   6.788
10617SOL     OW32749   2.631   3.149   1.490
10617SOL    HW132750   2.642   3.183   1.583
10617SOL    HW232751   2.718   3.114   1.456
10618SOL     OW32752   0.798   5.467   4.892
10618SOL    HW132753   0.886   5.419   4.895
10618SOL    HW232754   0.747   5.438   4.811
10619SOL     OW32755   1.002   2.068   3.081
10619SOL    HW132756   0.998   2.048   3.178
10619SOL    HW232757   1.063   2.003   3.036
10620SOL     OW32758   2.447   6.743   5.981
10620SOL    HW132759   2.373   6.790   6.028
10620SOL    HW232760   2.464   6.787   5.892
10621SOL     OW32761   1.276   3.765   3.205
10621SOL    HW132762   1.237   3.776   3.297
10621SOL    HW232763   1.223   3.697   3.154
10622SOL     OW32764   4.345   3.249   0.733
10622SOL    HW132765   4.255   3.283   0.705
10622SOL    HW232766   4.357   3.262   0.831
10623SOL     OW32767   5.876   5.830   6.306
10623SOL    HW132768   5.951   5.805   6.367
10623SOL    HW232769   5.823   5.904   6.348
10624SOL     OW32770   0.790   2.637   5.482
10624SOL    HW132771   0.837   2.567   5.537
10624SOL    HW232772   0.857   2.687   5.427
10625SOL     OW32773   6.683   3.757   6.733
10625SOL    HW132774   6.708   3.661   6.745
10625SOL    HW232775   6.752   3.815   6.776
10626SOL     OW32776   3.962   2.957   1.578
10626SOL    HW132777   4.015   3.024   1.630
10626SOL    HW232778   3.927   2.999   1.494
10627SOL     OW32779   5.789   6.600   5.923
10627SOL    HW132780   5.689   6.603   5.929
10627SOL    HW232781   5.820   6.506   5.930
10628SOL     OW32782   4.273   0.684   0.266
10628SOL    HW132783   4.253   0.629   0.185
10628SOL    HW232784   4.339   0.636   0.323
10629SOL     OW32785   3.838   5.218   4.554
10629SOL    HW132786   3.767   5.150   4.574
10629SOL    HW232787   3.796   5.300   4.516
10630SOL     OW32788   4.473   0.457   2.989
10630SOL    HW132789   4.547   0.521   2.966
10630SOL    HW232790   4.513   0.374   3.030
10631SOL     OW32791   4.407   6.073   0.273
10631SOL    HW132792   4.497   6.043   0.305
10631SOL    HW232793   4.360   6.121   0.347
10632SOL     OW32794   4.917   5.720   2.930
10632SOL    HW132795   4.973   5.658   2.984
10632SOL    HW232796   4.830   5.737   2.977
10633SOL     OW32797   2.268   2.946   1.864
10633SOL    HW132798   2.194   2.882   1.843
10633SOL    HW232799   2.356   2.898   1.861
10634SOL     OW32800   0.952   4.510   6.779
10634SOL    HW132801   1.004   4.579   6.730
10634SOL    HW232802   1.014   4.455   6.836
10635SOL     OW32803   2.495   3.554   0.434
10635SOL    HW132804   2.589   3.523   0.448
10635SOL    HW232805   2.432   3.483   0.467
10636SOL     OW32806   6.606   2.392   6.797
10636SOL    HW132807   6.638   2.317   6.738
10636SOL    HW232808   6.585   2.472   6.741
10637SOL     OW32809   2.914   6.536   6.504
10637SOL    HW132810   2.962   6.608   6.455
10637SOL    HW232811   2.975   6.495   6.571
10638SOL     OW32812   6.865   5.067   1.773
10638SOL    HW132813   6.921   5.083   1.854
10638SOL    HW232814   6.890   4.979   1.732
10639SOL     OW32815   2.103   3.394   1.533
10639SOL    HW132816   2.101   3.455   1.613
10639SOL    HW232817   2.149   3.440   1.457
10640SOL     OW32818   4.049   0.323   3.794
10640SOL    HW132819   3.967   0.290   3.841
10640SOL    HW232820   4.099   0.385   3.854
10641SOL     OW32821   1.032   0.419   3.329
10641SOL    HW132822   1.001   0.325   3.311
10641SOL    HW232823   1.033   0.435   3.428
10642SOL     OW32824   6.187   2.415   0.006
10642SOL    HW132825   6.160   2.356   6.955
10642SOL    HW232826   6.286   2.416   0.015
10643SOL     OW32827   1.540   4.901   5.380
10643SOL    HW132828   1.572   4.994   5.360
10643SOL    HW232829   1.543   4.846   5.296
10644SOL     OW32830   6.911   2.383   2.542
10644SOL    HW132831   6.884   2.473   2.507
10644SOL    HW232832   6.960   2.333   2.471
10645SOL     OW32833   2.317   2.759   3.272
10645SOL    HW132834   2.327   2.787   3.368
10645SOL    HW232835   2.240   2.696   3.265
10646SOL     OW32836   5.033   1.448   4.381
10646SOL    HW132837   4.963   1.520   4.377
10646SOL    HW232838   5.005   1.370   4.326
10647SOL     OW32839   4.280   4.951   5.025
10647SOL    HW132840   4.197   4.992   4.988
10647SOL    HW232841   4.260   4.911   5.115
10648SOL     OW32842   5.832   4.852   5.119
10648SOL    HW132843   5.829   4.940   5.167
10648SOL    HW232844   5.927   4.823   5.111
10649SOL     OW32845   0.103   3.356   3.836
10649SOL    HW132846   0.161   3.351   3.917
10649SOL    HW232847   0.041   3.278   3.835
10650SOL     OW32848   0.059   0.031   4.155
10650SOL    HW132849   0.118   7.003   4.216
10650SOL    HW232850   0.028   6.997   4.080
10651SOL     OW32851   4.765   6.205   5.658
10651SOL    HW132852   4.829   6.152   5.602
10651SOL    HW232853   4.757   6.297   5.621
10652SOL     OW32854   1.242   7.019   6.098
10652SOL    HW132855   1.153   0.033   6.125
10652SOL    HW232856   1.299   7.006   6.179
10653SOL     OW32857   3.682   6.319   4.902
10653SOL    HW132858   3.637   6.380   4.836
10653SOL    HW232859   3.619   6.302   4.978
10654SOL     OW32860   5.104   1.685   4.537
10654SOL    HW132861   5.019   1.737   4.540
10654SOL    HW232862   5.092   1.605   4.478
10655SOL     OW32863   1.507   4.925   1.109
10655SOL    HW132864   1.438   4.860   1.078
10655SOL    HW232865   1.473   4.974   1.189
10656SOL     OW32866   6.413   1.283   1.901
10656SOL    HW132867   6.431   1.213   1.832
10656SOL    HW232868   6.460   1.368   1.876
10657SOL     OW32869   6.053   0.540   4.162
10657SOL    HW132870   5.958   0.531   4.192
10657SOL    HW232871   6.103   0.597   4.226
10658SOL     OW32872   5.553   3.163   4.840
10658SOL    HW132873   5.485   3.115   4.896
10658SOL    HW232874   5.588   3.241   4.890
10659SOL     OW32875   0.704   4.516   0.753
10659SOL    HW132876   0.676   4.597   0.806
10659SOL    HW232877   0.688   4.533   0.656
10660SOL     OW32878   6.248   3.431   5.559
10660SOL    HW132879   6.162   3.447   5.607
10660SOL    HW232880   6.290   3.518   5.534
10661SOL     OW32881   1.023   4.401   0.577
10661SOL    HW132882   1.118   4.381   0.603
10661SOL    HW232883   0.998   4.492   0.610
10662SOL     OW32884   2.882   1.163   2.387
10662SOL    HW132885   2.904   1.257   2.359
10662SOL    HW232886   2.816   1.123   2.324
10663SOL     OW32887   1.316   1.169   3.610
10663SOL    HW132888   1.407   1.159   3.649
10663SOL    HW232889   1.318   1.147   3.513
10664SOL     OW32890   1.306   5.221   4.312
10664SOL    HW132891   1.402   5.249   4.322
10664SOL    HW232892   1.301   5.121   4.310
10665SOL     OW32893   2.234   3.441   6.517
10665SOL    HW132894   2.219   3.529   6.472
10665SOL    HW232895   2.256   3.372   6.449
10666SOL     OW32896   3.951   3.286   2.422
10666SOL    HW132897   3.876   3.275   2.487
10666SOL    HW232898   3.970   3.198   2.377
10667SOL     OW32899   5.240   1.983   2.768
10667SOL    HW132900   5.298   2.053   2.810
10667SOL    HW232901   5.263   1.975   2.671
10668SOL     OW32902   3.452   2.112   5.554
10668SOL    HW132903   3.356   2.102   5.528
10668SOL    HW232904   3.504   2.149   5.477
10669SOL     OW32905   5.964   0.621   0.319
10669SOL    HW132906   5.927   0.541   0.271
10669SOL    HW232907   5.960   0.700   0.257
10670SOL     OW32908   4.974   4.321   4.077
10670SOL    HW132909   5.046   4.279   4.132
10670SOL    HW232910   4.919   4.381   4.134
10671SOL     OW32911   0.948   1.834   4.456
10671SOL    HW132912   0.976   1.764   4.390
10671SOL    HW232913   0.849   1.827   4.470
10672SOL     OW32914   6.326   4.117   1.617
10672SOL    HW132915   6.334   4.033   1.670
10672SOL    HW232916   6.346   4.196   1.675
10673SOL     OW32917   1.994   0.658   0.756
10673SOL    HW132918   1.913   0.634   0.704
10673SOL    HW232919   2.054   0.578   0.766
10674SOL     OW32920   4.019   3.426   4.695
10674SOL    HW132921   3.924   3.422   4.666
10674SOL    HW232922   4.054   3.333   4.706
10675SOL     OW32923   3.335   1.234   6.732
10675SOL    HW132924   3.308   1.227   6.828
10675SOL    HW232925   3.256   1.263   6.677
10676SOL     OW32926   0.754   5.787   4.900
10676SOL    HW132927   0.748   5.830   4.990
10676SOL    HW232928   0.703   5.700   4.902
10677SOL     OW32929   1.626   1.576   1.243
10677SOL    HW132930   1.706   1.522   1.219
10677SOL    HW232931   1.544   1.532   1.206
10678SOL     OW32932   3.770   5.011   3.593
10678SOL    HW132933   3.778   5.103   3.632
10678SOL    HW232934   3.836   4.951   3.636
10679SOL     OW32935   3.925   4.922   0.369
10679SOL    HW132936   4.020   4.943   0.393
10679SOL    HW232937   3.879   5.005   0.338
10680SOL     OW32938   3.430   1.904   4.249
10680SOL    HW132939   3.497   1.845   4.204
10680SOL    HW232940   3.364   1.848   4.299
10681SOL     OW32941   0.042   3.631   0.268
10681SOL    HW132942   0.062   3.626   0.365
10681SOL    HW232943   0.047   3.540   0.227
10682SOL     OW32944   6.227   3.193   5.000
10682SOL    HW132945   6.251   3.191   5.097
10682SOL    HW232946   6.130   3.218   4.990
10683SOL     OW32947   4.340   0.313   3.459
10683SOL    HW132948   4.435   0.340   3.472
10683SOL    HW232949   4.310   0.259   3.538
10684SOL     OW32950   4.947   5.565   1.088
10684SOL    HW132951   4.988   5.624   1.158
10684SOL    HW232952   5.007   5.486   1.072
10685SOL     OW32953   6.749   5.847   1.450
10685SOL    HW132954   6.655   5.815   1.458
10685SOL    HW232955   6.756   5.940   1.487
10686SOL     OW32956   2.371   4.211   6.172
10686SOL    HW132957   2.418   4.206   6.260
10686SOL    HW232958   2.382   4.303   6.134
10687SOL     OW32959   6.449   4.764   3.295
10687SOL    HW132960   6.545   4.750   3.274
10687SOL    HW232961   6.433   4.748   3.393
10688SOL     OW32962   5.749   1.341   2.023
10688SOL    HW132963   5.731   1.343   2.122
10688SOL    HW232964   5.789   1.428   1.995
10689SOL     OW32965   0.359   6.907   1.575
10689SOL    HW132966   0.405   6.950   1.497
10689SOL    HW232967   0.291   6.842   1.542
10690SOL     OW32968   6.923   5.102   3.880
10690SOL    HW132969   7.002   5.072   3.827
10690SOL    HW232970   6.922   5.202   3.883
10691SOL     OW32971   2.159   1.927   1.921
10691SOL    HW132972   2.101   1.888   1.991
10691SOL    HW232973   2.250   1.886   1.926
10692SOL     OW32974   3.178   0.917   4.692
10692SOL    HW132975   3.245   0.909   4.618
10692SOL    HW232976   3.222   0.956   4.772
10693SOL     OW32977   0.776   6.005   1.676
10693SOL    HW132978   0.724   6.033   1.757
10693SOL    HW232979   0.866   6.048   1.677
10694SOL     OW32980   5.116   6.618   6.100
10694SOL    HW132981   5.128   6.522   6.075
10694SOL    HW232982   5.063   6.665   6.029
10695SOL     OW32983   1.229   2.859   1.451
10695SOL    HW132984   1.302   2.910   1.497
10695SOL    HW232985   1.262   2.767   1.428
10696SOL     OW32986   6.079   3.644   5.224
10696SOL    HW132987   6.046   3.576   5.159
10696SOL    HW232988   6.001   3.689   5.268
10697SOL     OW32989   0.430   6.460   5.573
10697SOL    HW132990   0.408   6.544   5.523
10697SOL    HW232991   0.348   6.405   5.586
10698SOL     OW32992   4.776   4.465   0.682
10698SOL    HW132993   4.732   4.378   0.659
10698SOL    HW232994   4.784   4.521   0.599
10699SOL     OW32995   3.994   4.231   0.816
10699SOL    HW132996   3.992   4.215   0.717
10699SOL    HW232997   3.900   4.226   0.852
10700SOL     OW32998   5.712   0.069   0.965
10700SOL    HW132999   5.756   7.024   0.908
10700SOL    HW233000   5.668   0.025   1.043
10701SOL     OW33001   3.166   0.168   6.255
10701SOL    HW133002   3.094   0.173   6.186
10701SOL    HW233003   3.219   0.253   6.253
10702SOL     OW33004   4.895   3.526   2.877
10702SOL    HW133005   4.857   3.494   2.790
10702SOL    HW233006   4.826   3.581   2.925
10703SOL     OW33007   2.180   3.011   5.426
10703SOL    HW133008   2.146   2.990   5.334
10703SOL    HW233009   2.277   2.987   5.432
10704SOL     OW33010   0.062   5.072   2.693
10704SOL    HW133011   0.050   5.085   2.792
10704SOL    HW233012   0.157   5.047   2.675
10705SOL     OW33013   5.757   5.271   0.816
10705SOL    HW133014   5.854   5.249   0.827
10705SOL    HW233015   5.745   5.371   0.820
10706SOL     OW33016   4.391   6.789   1.685
10706SOL    HW133017   4.483   6.821   1.708
10706SOL    HW233018   4.355   6.733   1.760
10707SOL     OW33019   0.129   6.745   4.149
10707SOL    HW133020   0.099   6.769   4.056
10707SOL    HW233021   0.224   6.772   4.161
10708SOL     OW33022   4.641   0.901   1.508
10708SOL    HW133023   4.723   0.888   1.452
10708SOL    HW233024   4.579   0.965   1.462
10709SOL     OW33025   5.681   5.366   4.656
10709SOL    HW133026   5.603   5.428   4.666
10709SOL    HW233027   5.728   5.386   4.569
10710SOL     OW33028   5.832   0.866   4.012
10710SOL    HW133029   5.912   0.830   4.061
10710SOL    HW233030   5.843   0.850   3.914
10711SOL     OW33031   2.609   6.676   4.105
10711SOL    HW133032   2.608   6.625   4.191
10711SOL    HW233033   2.702   6.674   4.066
10712SOL     OW33034   3.551   0.351   2.600
10712SOL    HW133035   3.488   0.309   2.666
10712SOL    HW233036   3.516   0.441   2.573
10713SOL     OW33037   1.248   2.697   0.272
10713SOL    HW133038   1.314   2.750   0.326
10713SOL    HW233039   1.293   2.617   0.233
10714SOL     OW33040   4.323   3.477   5.509
10714SOL    HW133041   4.335   3.382   5.537
10714SOL    HW233042   4.383   3.497   5.431
10715SOL     OW33043   4.278   0.394   2.234
10715SOL    HW133044   4.370   0.412   2.268
10715SOL    HW233045   4.234   0.480   2.207
10716SOL     OW33046   5.965   3.058   2.960
10716SOL    HW133047   5.942   2.961   2.950
10716SOL    HW233048   6.063   3.067   2.977
10717SOL     OW33049   1.561   3.063   1.118
10717SOL    HW133050   1.627   3.053   1.043
10717SOL    HW233051   1.575   3.152   1.162
10718SOL     OW33052   0.975   3.936   6.853
10718SOL    HW133053   1.039   3.951   6.928
10718SOL    HW233054   0.915   4.015   6.844
10719SOL     OW33055   6.521   5.770   3.381
10719SOL    HW133056   6.466   5.844   3.344
10719SOL    HW233057   6.470   5.723   3.453
10720SOL     OW33058   5.952   5.295   4.634
10720SOL    HW133059   5.862   5.286   4.677
10720SOL    HW233060   5.974   5.392   4.623
10721SOL     OW33061   5.224   3.883   5.236
10721SOL    HW133062   5.275   3.919   5.157
10721SOL    HW233063   5.267   3.914   5.320
10722SOL     OW33064   6.716   4.473   0.146
10722SOL    HW133065   6.742   4.539   0.076
10722SOL    HW233066   6.797   4.421   0.176
10723SOL     OW33067   0.309   1.906   6.354
10723SOL    HW133068   0.233   1.966   6.327
10723SOL    HW233069   0.383   1.913   6.287
10724SOL     OW33070   6.058   6.751   6.373
10724SOL    HW133071   5.985   6.772   6.308
10724SOL    HW233072   6.101   6.664   6.348
10725SOL     OW33073   2.033   5.570   5.186
10725SOL    HW133074   2.091   5.548   5.108
10725SOL    HW233075   2.069   5.525   5.268
10726SOL     OW33076   5.269   0.872   4.214
10726SOL    HW133077   5.304   0.946   4.156
10726SOL    HW233078   5.240   0.796   4.157
10727SOL     OW33079   0.409   5.399   5.963
10727SOL    HW133080   0.400   5.491   6.001
10727SOL    HW233081   0.479   5.398   5.893
10728SOL     OW33082   0.975   4.851   6.320
10728SOL    HW133083   0.905   4.809   6.377
10728SOL    HW233084   0.950   4.947   6.303
10729SOL     OW33085   5.831   1.226   2.435
10729SOL    HW133086   5.858   1.270   2.521
10729SOL    HW233087   5.755   1.276   2.394
10730SOL     OW33088   2.782   0.272   1.267
10730SOL    HW133089   2.693   0.250   1.307
10730SOL    HW233090   2.768   0.315   1.178
10731SOL     OW33091   3.220   1.025   0.237
10731SOL    HW133092   3.252   0.944   0.286
10731SOL    HW233093   3.121   1.033   0.246
10732SOL     OW33094   0.419   4.509   5.304
10732SOL    HW133095   0.349   4.518   5.234
10732SOL    HW233096   0.493   4.450   5.270
10733SOL     OW33097   6.503   1.597   6.368
10733SOL    HW133098   6.597   1.569   6.388
10733SOL    HW233099   6.455   1.617   6.453
10734SOL     OW33100   1.246   1.228   0.397
10734SOL    HW133101   1.305   1.254   0.321
10734SOL    HW233102   1.233   1.129   0.395
10735SOL     OW33103   0.424   2.978   2.237
10735SOL    HW133104   0.351   3.046   2.225
10735SOL    HW233105   0.453   2.945   2.148
10736SOL     OW33106   1.023   0.423   3.663
10736SOL    HW133107   1.008   0.466   3.752
10736SOL    HW233108   0.946   0.363   3.641
10737SOL     OW33109   1.461   2.088   0.439
10737SOL    HW133110   1.428   2.141   0.517
10737SOL    HW233111   1.516   2.011   0.470
10738SOL     OW33112   3.110   6.815   3.072
10738SOL    HW133113   3.133   6.814   2.974
10738SOL    HW233114   3.095   6.909   3.102
10739SOL     OW33115   1.989   1.040   1.906
10739SOL    HW133116   1.891   1.033   1.889
10739SOL    HW233117   2.006   1.110   1.976
10740SOL     OW33118   0.224   5.211   5.533
10740SOL    HW133119   0.165   5.219   5.452
10740SOL    HW233120   0.248   5.303   5.566
10741SOL     OW33121   4.219   0.939   1.575
10741SOL    HW133122   4.301   0.948   1.632
10741SOL    HW233123   4.138   0.963   1.628
10742SOL     OW33124   5.895   6.966   1.497
10742SOL    HW133125   5.933   0.032   1.481
10742SOL    HW233126   5.884   6.918   1.410
10743SOL     OW33127   1.259   2.745   5.555
10743SOL    HW133128   1.322   2.805   5.604
10743SOL    HW233129   1.214   2.684   5.620
10744SOL     OW33130   3.327   1.331   0.825
10744SOL    HW133131   3.240   1.370   0.794
10744SOL    HW233132   3.347   1.249   0.772
10745SOL     OW33133   6.637   5.591   5.843
10745SOL    HW133134   6.555   5.647   5.848
10745SOL    HW233135   6.633   5.520   5.913
10746SOL     OW33136   1.901   4.402   0.924
10746SOL    HW133137   1.944   4.329   0.976
10746SOL    HW233138   1.859   4.468   0.987
10747SOL     OW33139   3.640   1.305   4.944
10747SOL    HW133140   3.656   1.232   4.879
10747SOL    HW233141   3.690   1.387   4.915
10748SOL     OW33142   5.539   1.437   0.589
10748SOL    HW133143   5.581   1.481   0.510
10748SOL    HW233144   5.549   1.496   0.669
10749SOL     OW33145   0.005   5.457   3.898
10749SOL    HW133146   0.094   5.477   3.856
10749SOL    HW233147   6.969   5.537   3.889
10750SOL     OW33148   4.398   6.330   4.827
10750SOL    HW133149   4.393   6.428   4.808
10750SOL    HW233150   4.412   6.316   4.925
10751SOL     OW33151   1.468   4.926   4.014
10751SOL    HW133152   1.544   4.985   3.985
10751SOL    HW233153   1.486   4.832   3.986
10752SOL     OW33154   6.089   4.755   5.057
10752SOL    HW133155   6.175   4.762   5.006
10752SOL    HW233156   6.091   4.675   5.117
10753SOL     OW33157   6.365   4.750   4.362
10753SOL    HW133158   6.308   4.718   4.286
10753SOL    HW233159   6.357   4.850   4.370
10754SOL     OW33160   0.456   6.804   3.430
10754SOL    HW133161   0.497   6.876   3.374
10754SOL    HW233162   0.368   6.777   3.391
10755SOL     OW33163   0.210   0.561   0.846
10755SOL    HW133164   0.141   0.497   0.879
10755SOL    HW233165   0.291   0.555   0.905
10756SOL     OW33166   6.471   5.146   6.171
10756SOL    HW133167   6.377   5.177   6.191
10756SOL    HW233168   6.496   5.174   6.079
10757SOL     OW33169   1.547   2.691   0.182
10757SOL    HW133170   1.587   2.780   0.205
10757SOL    HW233171   1.508   2.695   0.090
10758SOL     OW33172   0.833   6.079   4.313
10758SOL    HW133173   0.894   6.153   4.286
10758SOL    HW233174   0.745   6.090   4.266
10759SOL     OW33175   1.741   4.102   1.141
10759SOL    HW133176   1.750   4.079   1.238
10759SOL    HW233177   1.830   4.129   1.105
10760SOL     OW33178   5.134   0.428   3.093
10760SOL    HW133179   5.198   0.500   3.118
10760SOL    HW233180   5.115   0.371   3.173
10761SOL     OW33181   0.473   5.872   5.894
10761SOL    HW133182   0.480   5.848   5.797
10761SOL    HW233183   0.427   5.961   5.903
10762SOL     OW33184   2.934   1.365   4.390
10762SOL    HW133185   2.924   1.460   4.420
10762SOL    HW233186   2.980   1.362   4.302
10763SOL     OW33187   3.779   6.720   2.524
10763SOL    HW133188   3.781   6.645   2.458
10763SOL    HW233189   3.821   6.802   2.484
10764SOL     OW33190   5.371   2.218   5.807
10764SOL    HW133191   5.446   2.163   5.843
10764SOL    HW233192   5.341   2.181   5.719
10765SOL     OW33193   4.762   2.760   0.527
10765SOL    HW133194   4.802   2.792   0.441
10765SOL    HW233195   4.664   2.775   0.525
10766SOL     OW33196   4.287   5.309   0.866
10766SOL    HW133197   4.231   5.341   0.790
10766SOL    HW233198   4.379   5.347   0.859
10767SOL     OW33199   2.261   0.487   1.366
10767SOL    HW133200   2.227   0.394   1.373
10767SOL    HW233201   2.215   0.544   1.434
10768SOL     OW33202   5.250   5.474   1.209
10768SOL    HW133203   5.191   5.403   1.171
10768SOL    HW233204   5.306   5.513   1.137
10769SOL     OW33205   2.419   4.087   5.409
10769SOL    HW133206   2.421   4.024   5.332
10769SOL    HW233207   2.349   4.059   5.474
10770SOL     OW33208   5.204   6.224   3.837
10770SOL    HW133209   5.133   6.155   3.849
10770SOL    HW233210   5.182   6.305   3.891
10771SOL     OW33211   4.546   0.139   4.342
10771SOL    HW133212   4.560   0.173   4.435
10771SOL    HW233213   4.557   0.215   4.277
10772SOL     OW33214   6.432   7.018   4.758
10772SOL    HW133215   6.399   6.924   4.752
10772SOL    HW233216   6.369   0.055   4.711
10773SOL     OW33217   5.619   5.188   6.548
10773SOL    HW133218   5.546   5.121   6.533
10773SOL    HW233219   5.597   5.272   6.499
10774SOL     OW33220   2.037   1.464   6.024
10774SOL    HW133221   1.967   1.432   5.961
10774SOL    HW233222   2.124   1.475   5.975
10775SOL     OW33223   0.498   4.790   2.858
10775SOL    HW133224   0.558   4.841   2.920
10775SOL    HW233225   0.405   4.827   2.863
10776SOL     OW33226   0.456   1.105   6.368
10776SOL    HW133227   0.389   1.101   6.442
10776SOL    HW233228   0.409   1.101   6.280
10777SOL     OW33229   3.857   5.277   1.680
10777SOL    HW133230   3.784   5.345   1.678
10777SOL    HW233231   3.847   5.214   1.603
10778SOL     OW33232   4.792   0.369   3.829
10778SOL    HW133233   4.790   0.309   3.750
10778SOL    HW233234   4.829   0.320   3.908
10779SOL     OW33235   5.837   2.937   3.400
10779SOL    HW133236   5.826   3.020   3.344
10779SOL    HW233237   5.847   2.962   3.496
10780SOL     OW33238   1.757   0.503   4.127
10780SOL    HW133239   1.823   0.450   4.074
10780SOL    HW233240   1.686   0.538   4.066
10781SOL     OW33241   4.428   0.849   3.819
10781SOL    HW133242   4.404   0.769   3.764
10781SOL    HW233243   4.362   0.922   3.802
10782SOL     OW33244   0.014   0.916   3.083
10782SOL    HW133245   6.970   0.969   3.132
10782SOL    HW233246   7.023   0.819   3.099
10783SOL     OW33247   0.561   2.257   2.413
10783SOL    HW133248   0.605   2.179   2.369
10783SOL    HW233249   0.487   2.225   2.473
10784SOL     OW33250   3.974   0.963   4.137
10784SOL    HW133251   3.885   0.929   4.169
10784SOL    HW233252   4.042   0.890   4.142
10785SOL     OW33253   1.005   3.792   0.837
10785SOL    HW133254   0.992   3.877   0.788
10785SOL    HW233255   0.935   3.726   0.810
10786SOL     OW33256   5.998   5.218   3.336
10786SOL    HW133257   5.994   5.144   3.404
10786SOL    HW233258   5.987   5.179   3.245
10787SOL     OW33259   1.590   1.267   6.033
10787SOL    HW133260   1.659   1.195   6.044
10787SOL    HW233261   1.582   1.290   5.936
10788SOL     OW33262   1.167   4.320   6.937
10788SOL    HW133263   1.265   4.326   6.952
10788SOL    HW233264   1.124   4.273   7.014
10789SOL     OW33265   6.717   3.304   6.894
10789SOL    HW133266   6.775   3.241   6.843
10789SOL    HW233267   6.621   3.276   6.886
10790SOL     OW33268   1.073   6.565   2.074
10790SOL    HW133269   1.100   6.630   2.003
10790SOL    HW233270   0.981   6.532   2.056
10791SOL     OW33271   0.469   5.685   1.965
10791SOL    HW133272   0.468   5.780   1.996
10791SOL    HW233273   0.490   5.683   1.867
10792SOL     OW33274   3.429   2.887   4.702
10792SOL    HW133275   3.472   2.809   4.749
10792SOL    HW233276   3.374   2.940   4.767
10793SOL     OW33277   6.441   3.984   6.272
10793SOL    HW133278   6.511   3.990   6.343
10793SOL    HW233279   6.395   3.895   6.277
10794SOL     OW33280   3.996   3.763   4.167
10794SOL    HW133281   3.941   3.837   4.128
10794SOL    HW233282   4.015   3.695   4.097
10795SOL     OW33283   0.239   5.413   2.881
10795SOL    HW133284   0.321   5.382   2.834
10795SOL    HW233285   0.185   5.334   2.910
10796SOL     OW33286   6.680   6.909   5.430
10796SOL    HW133287   6.776   6.909   5.457
10796SOL    HW233288   6.638   6.822   5.456
10797SOL     OW33289   3.102   2.314   1.025
10797SOL    HW133290   3.048   2.263   1.091
10797SOL    HW233291   3.082   2.412   1.034
10798SOL     OW33292   2.645   1.118   0.554
10798SOL    HW133293   2.572   1.064   0.597
10798SOL    HW233294   2.634   1.214   0.580
10799SOL     OW33295   4.175   0.916   2.269
10799SOL    HW133296   4.116   0.871   2.202
10799SOL    HW233297   4.254   0.857   2.289
10800SOL     OW33298   0.841   6.282   5.709
10800SOL    HW133299   0.907   6.273   5.784
10800SOL    HW233300   0.766   6.217   5.722
10801SOL     OW33301   1.041   0.194   6.898
10801SOL    HW133302   1.104   0.226   6.969
10801SOL    HW233303   1.079   0.114   6.854
10802SOL     OW33304   0.706   0.326   2.584
10802SOL    HW133305   0.642   0.254   2.560
10802SOL    HW233306   0.758   0.353   2.503
10803SOL     OW33307   1.444   5.835   5.444
10803SOL    HW133308   1.434   5.785   5.529
10803SOL    HW233309   1.538   5.866   5.433
10804SOL     OW33310   6.598   3.384   2.810
10804SOL    HW133311   6.566   3.448   2.879
10804SOL    HW233312   6.696   3.393   2.798
10805SOL     OW33313   5.078   1.008   4.997
10805SOL    HW133314   5.035   1.078   4.940
10805SOL    HW233315   5.171   0.991   4.964
10806SOL     OW33316   3.556   4.280   6.199
10806SOL    HW133317   3.561   4.351   6.129
10806SOL    HW233318   3.625   4.210   6.181
10807SOL     OW33319   1.154   6.252   3.598
10807SOL    HW133320   1.075   6.287   3.650
10807SOL    HW233321   1.135   6.158   3.569
10808SOL     OW33322   0.140   2.269   5.866
10808SOL    HW133323   0.221   2.212   5.877
10808SOL    HW233324   0.163   2.350   5.812
10809SOL     OW33325   2.545   4.559   3.653
10809SOL    HW133326   2.562   4.630   3.721
10809SOL    HW233327   2.480   4.492   3.689
10810SOL     OW33328   6.976   0.131   3.770
10810SOL    HW133329   0.014   0.058   3.740
10810SOL    HW233330   6.971   0.201   3.699
10811SOL     OW33331   4.172   4.863   5.245
10811SOL    HW133332   4.118   4.926   5.300
10811SOL    HW233333   4.171   4.773   5.288
10812SOL     OW33334   6.858   4.010   6.831
10812SOL    HW133335   6.923   4.006   6.906
10812SOL    HW233336   6.905   4.039   6.747
10813SOL     OW33337   0.452   3.925   5.940
10813SOL    HW133338   0.450   3.838   5.891
10813SOL    HW233339   0.435   3.909   6.038
10814SOL     OW33340   1.951   0.098   6.755
10814SOL    HW133341   1.991   0.014   6.793
10814SOL    HW233342   1.982   0.176   6.809
10815SOL     OW33343   5.228   2.912   2.521
10815SOL    HW133344   5.136   2.901   2.557
10815SOL    HW233345   5.250   3.010   2.514
10816SOL     OW33346   3.766   3.610   2.684
10816SOL    HW133347   3.748   3.536   2.748
10816SOL    HW233348   3.685   3.668   2.677
10817SOL     OW33349   3.438   0.654   3.922
10817SOL    HW133350   3.452   0.596   3.841
10817SOL    HW233351   3.516   0.715   3.933
10818SOL     OW33352   4.546   4.590   5.869
10818SOL    HW133353   4.575   4.580   5.964
10818SOL    HW233354   4.449   4.565   5.861
10819SOL     OW33355   6.050   5.438   6.254
10819SOL    HW133356   5.958   5.413   6.223
10819SOL    HW233357   6.044   5.515   6.317
10820SOL     OW33358   0.349   5.216   4.186
10820SOL    HW133359   0.276   5.215   4.117
10820SOL    HW233360   0.394   5.126   4.188
10821SOL     OW33361   4.325   6.987   2.228
10821SOL    HW133362   4.292   6.900   2.265
10821SOL    HW233363   4.409   6.971   2.176
10822SOL     OW33364   6.704   1.931   2.106
10822SOL    HW133365   6.699   1.918   2.007
10822SOL    HW233366   6.612   1.945   2.142
10823SOL     OW33367   0.219   0.499   3.042
10823SOL    HW133368   0.312   0.525   3.018
10823SOL    HW233369   0.165   0.581   3.060
10824SOL     OW33370   0.459   1.053   2.322
10824SOL    HW133371   0.473   0.967   2.371
10824SOL    HW233372   0.539   1.071   2.265
10825SOL     OW33373   1.494   2.538   0.480
10825SOL    HW133374   1.556   2.616   0.476
10825SOL    HW233375   1.530   2.469   0.542
10826SOL     OW33376   0.536   1.934   2.580
10826SOL    HW133377   0.499   1.872   2.649
10826SOL    HW233378   0.463   1.993   2.546
10827SOL     OW33379   6.767   3.378   4.666
10827SOL    HW133380   6.857   3.373   4.622
10827SOL    HW233381   6.704   3.317   4.618
10828SOL     OW33382   0.330   4.224   1.020
10828SOL    HW133383   0.390   4.159   0.972
10828SOL    HW233384   0.361   4.317   1.002
10829SOL     OW33385   4.893   3.636   0.472
10829SOL    HW133386   4.883   3.697   0.394
10829SOL    HW233387   4.987   3.604   0.478
10830SOL     OW33388   4.602   1.739   3.209
10830SOL    HW133389   4.642   1.657   3.250
10830SOL    HW233390   4.552   1.790   3.280
10831SOL     OW33391   3.010   6.430   2.265
10831SOL    HW133392   2.913   6.434   2.242
10831SOL    HW233393   3.020   6.432   2.365
10832SOL     OW33394   6.411   3.776   6.697
10832SOL    HW133395   6.419   3.873   6.673
10832SOL    HW233396   6.486   3.751   6.758
10833SOL     OW33397   0.707   2.262   0.341
10833SOL    HW133398   0.755   2.348   0.362
10833SOL    HW233399   0.705   2.205   0.423
10834SOL     OW33400   6.948   1.647   7.000
10834SOL    HW133401   6.975   1.731   6.952
10834SOL    HW233402   7.015   1.627   0.048
10835SOL     OW33403   5.714   2.962   0.206
10835SOL    HW133404   5.793   3.011   0.243
10835SOL    HW233405   5.704   2.982   0.109
10836SOL     OW33406   0.322   1.229   2.708
10836SOL    HW133407   0.350   1.236   2.613
10836SOL    HW233408   0.242   1.169   2.716
10837SOL     OW33409   6.611   4.853   2.151
10837SOL    HW133410   6.539   4.804   2.101
10837SOL    HW233411   6.578   4.875   2.243
10838SOL     OW33412   5.512   6.298   4.133
10838SOL    HW133413   5.481   6.389   4.161
10838SOL    HW233414   5.588   6.307   4.068
10839SOL     OW33415   4.632   3.428   0.841
10839SOL    HW133416   4.632   3.450   0.939
10839SOL    HW233417   4.539   3.402   0.813
10840SOL     OW33418   3.644   0.113   2.486
10840SOL    HW133419   3.673   0.133   2.392
10840SOL    HW233420   3.606   0.195   2.527
10841SOL     OW33421   6.340   4.993   5.122
10841SOL    HW133422   6.257   4.991   5.178
10841SOL    HW233423   6.335   5.071   5.060
10842SOL     OW33424   4.998   2.213   1.354
10842SOL    HW133425   4.999   2.299   1.406
10842SOL    HW233426   4.938   2.224   1.274
10843SOL     OW33427   1.922   1.442   1.443
10843SOL    HW133428   1.896   1.446   1.346
10843SOL    HW233429   2.017   1.471   1.453
10844SOL     OW33430   6.948   4.460   3.316
10844SOL    HW133431   6.952   4.543   3.373
10844SOL    HW233432   7.004   4.389   3.358
10845SOL     OW33433   4.337   5.811   5.066
10845SOL    HW133434   4.292   5.726   5.041
10845SOL    HW233435   4.358   5.810   5.164
10846SOL     OW33436   5.494   0.252   0.019
10846SOL    HW133437   5.463   0.337   0.063
10846SOL    HW233438   5.417   0.208   6.997
10847SOL     OW33439   3.239   1.971   6.955
10847SOL    HW133440   3.202   2.054   6.997
10847SOL    HW233441   3.318   1.940   7.009
10848SOL     OW33442   0.682   3.842   0.923
10848SOL    HW133443   0.628   3.765   0.889
10848SOL    HW233444   0.719   3.894   0.846
10849SOL     OW33445   2.607   4.602   4.108
10849SOL    HW133446   2.547   4.522   4.116
10849SOL    HW233447   2.597   4.643   4.018
10850SOL     OW33448   3.665   6.531   0.151
10850SOL    HW133449   3.616   6.561   0.232
10850SOL    HW233450   3.670   6.606   0.085
10851SOL     OW33451   3.134   4.051   0.937
10851SOL    HW133452   3.164   4.128   0.881
10851SOL    HW233453   3.172   3.966   0.899
10852SOL     OW33454   2.087   1.414   6.781
10852SOL    HW133455   2.065   1.428   6.878
10852SOL    HW233456   2.166   1.354   6.773
10853SOL     OW33457   2.402   3.346   6.023
10853SOL    HW133458   2.404   3.391   5.934
10853SOL    HW233459   2.486   3.293   6.035
10854SOL     OW33460   4.356   5.068   5.398
10854SOL    HW133461   4.439   5.024   5.363
10854SOL    HW233462   4.277   5.038   5.343
10855SOL     OW33463   4.023   0.869   0.890
10855SOL    HW133464   3.985   0.777   0.888
10855SOL    HW233465   3.961   0.929   0.941
10856SOL     OW33466   6.484   1.313   6.809
10856SOL    HW133467   6.495   1.386   6.741
10856SOL    HW233468   6.545   1.330   6.886
10857SOL     OW33469   0.432   2.347   2.879
10857SOL    HW133470   0.427   2.438   2.839
10857SOL    HW233471   0.361   2.289   2.839
10858SOL     OW33472   1.027   0.090   0.708
10858SOL    HW133473   1.102   0.054   0.762
10858SOL    HW233474   0.942   0.042   0.731
10859SOL     OW33475   0.006   4.355   4.518
10859SOL    HW133476   6.985   4.279   4.473
10859SOL    HW233477   0.074   4.320   4.583
10860SOL     OW33478   0.362   3.131   4.506
10860SOL    HW133479   0.305   3.208   4.477
10860SOL    HW233480   0.398   3.084   4.426
10861SOL     OW33481   3.145   3.060   2.893
10861SOL    HW133482   3.147   2.972   2.941
10861SOL    HW233483   3.099   3.048   2.805
10862SOL     OW33484   1.857   0.907   5.019
10862SOL    HW133485   1.817   0.987   4.974
10862SOL    HW233486   1.846   0.827   4.961
10863SOL     OW33487   2.386   0.413   4.615
10863SOL    HW133488   2.456   0.350   4.580
10863SOL    HW233489   2.335   0.368   4.688
10864SOL     OW33490   3.212   6.629   0.630
10864SOL    HW133491   3.207   6.529   0.629
10864SOL    HW233492   3.130   6.667   0.587
10865SOL     OW33493   6.870   1.435   0.351
10865SOL    HW133494   6.956   1.449   0.400
10865SOL    HW233495   6.843   1.339   0.359
10866SOL     OW33496   5.840   4.763   0.622
10866SOL    HW133497   5.890   4.840   0.582
10866SOL    HW233498   5.846   4.767   0.721
10867SOL     OW33499   2.830   4.604   0.626
10867SOL    HW133500   2.903   4.649   0.677
10867SOL    HW233501   2.809   4.516   0.669
10868SOL     OW33502   5.360   1.740   4.073
10868SOL    HW133503   5.332   1.645   4.088
10868SOL    HW233504   5.338   1.795   4.153
10869NA      NA33505   6.222   2.973   5.619
10870NA      NA33506   4.612   4.527   5.189
10871NA      NA33507   1.847   2.897   1.722
10872NA      NA33508   5.039   3.756   5.264
10873NA      NA33509   4.116   2.205   5.087
10874NA      NA33510   3.716   4.872   1.780
10875NA      NA33511   6.587   4.976   6.298
10876NA      NA33512   3.108   3.510   4.813
10877NA      NA33513   4.502   6.325   6.901
10878NA      NA33514   3.728   6.410   5.564
10879NA      NA33515   6.560   5.048   2.728
10880NA      NA33516   2.293   0.432   3.226
10881NA      NA33517   4.214   5.542   1.827
10882NA      NA33518   4.029   3.497   2.341
   7.02443   7.02443   7.02443
