Generated by trjconv : CNT in water t= 146.00000
33518
    1C        C    1   2.845   2.770   4.749
    1C        C    2   2.898   2.718   4.869
    1C        C    3   2.848   2.779   4.985
    1C        C    4   2.847   2.772   4.261
    1C        C    5   2.902   2.727   4.383
    1C        C    6   2.847   2.772   4.506
    1C        C    7   3.010   2.636   4.628
    1C        C    8   2.894   2.717   4.627
    1C        C    9   3.076   2.602   4.748
    1C        C   10   3.009   2.630   4.869
    1C        C   11   3.182   2.490   4.982
    1C        C   12   3.059   2.557   4.977
    1C        C   13   2.851   2.769   3.773
    1C        C   14   2.900   2.721   3.896
    1C        C   15   2.850   2.774   4.018
    1C        C   16   3.018   2.646   4.139
    1C        C   17   2.900   2.723   4.140
    1C        C   18   3.081   2.614   4.262
    1C        C   19   3.018   2.647   4.384
    1C        C   20   3.207   2.555   4.503
    1C        C   21   3.075   2.604   4.506
    1C        C   22   3.275   2.528   4.624
    1C        C   23   3.207   2.547   4.747
    1C        C   24   3.410   2.484   4.865
    1C        C   25   3.268   2.503   4.868
    1C        C   26   3.488   2.476   4.981
    1C        C   27   2.859   2.773   3.285
    1C        C   28   2.911   2.726   3.407
    1C        C   29   2.857   2.773   3.529
    1C        C   30   3.016   2.635   3.653
    1C        C   31   2.904   2.721   3.651
    1C        C   32   3.076   2.598   3.776
    1C        C   33   3.012   2.634   3.896
    1C        C   34   3.208   2.552   4.018
    1C        C   35   3.076   2.603   4.018
    1C        C   36   3.278   2.534   4.139
    1C        C   37   3.209   2.555   4.260
    1C        C   38   3.416   2.509   4.384
    1C        C   39   3.277   2.533   4.382
    1C        C   40   3.488   2.504   4.505
    1C        C   41   3.413   2.502   4.625
    1C        C   42   3.628   2.484   4.745
    1C        C   43   3.486   2.484   4.745
    1C        C   44   3.703   2.486   4.864
    1C        C   45   3.627   2.478   4.982
    1C        C   46   2.841   2.751   2.795
    1C        C   47   2.894   2.709   2.919
    1C        C   48   2.844   2.763   3.040
    1C        C   49   3.018   2.639   3.161
    1C        C   50   2.903   2.721   3.161
    1C        C   51   3.081   2.605   3.283
    1C        C   52   3.023   2.639   3.408
    1C        C   53   3.209   2.544   3.529
    1C        C   54   3.080   2.603   3.532
    1C        C   55   3.274   2.521   3.652
    1C        C   56   3.206   2.543   3.774
    1C        C   57   3.415   2.506   3.894
    1C        C   58   3.275   2.525   3.897
    1C        C   59   3.488   2.505   4.015
    1C        C   60   3.418   2.510   4.137
    1C        C   61   3.627   2.502   4.262
    1C        C   62   3.486   2.501   4.261
    1C        C   63   3.702   2.506   4.381
    1C        C   64   3.629   2.506   4.502
    1C        C   65   3.835   2.543   4.626
    1C        C   66   3.700   2.503   4.625
    1C        C   67   3.903   2.569   4.748
    1C        C   68   3.837   2.531   4.867
    1C        C   69   4.050   2.587   4.980
    1C        C   70   3.922   2.531   4.979
    1C        C   71   2.824   2.733   2.307
    1C        C   72   2.883   2.693   2.429
    1C        C   73   2.832   2.744   2.551
    1C        C   74   3.008   2.624   2.672
    1C        C   75   2.890   2.701   2.673
    1C        C   76   3.072   2.591   2.794
    1C        C   77   3.011   2.631   2.915
    1C        C   78   3.206   2.549   3.038
    1C        C   79   3.075   2.602   3.037
    1C        C   80   3.276   2.528   3.159
    1C        C   81   3.209   2.546   3.283
    1C        C   82   3.413   2.497   3.405
    1C        C   83   3.274   2.521   3.406
    1C        C   84   3.485   2.493   3.527
    1C        C   85   3.414   2.500   3.648
    1C        C   86   3.625   2.503   3.772
    1C        C   87   3.484   2.500   3.771
    1C        C   88   3.695   2.515   3.893
    1C        C   89   3.629   2.506   4.018
    1C        C   90   3.836   2.548   4.138
    1C        C   91   3.699   2.514   4.141
    1C        C   92   3.902   2.572   4.260
    1C        C   93   3.838   2.545   4.383
    1C        C   94   4.028   2.635   4.501
    1C        C   95   3.904   2.568   4.506
    1C        C   96   4.090   2.674   4.622
    1C        C   97   4.031   2.630   4.743
    1C        C   98   4.190   2.768   4.864
    1C        C   99   4.095   2.661   4.866
    1C        C  100   4.210   2.845   4.980
    1C        C  101   2.822   2.730   2.073
    1C        C  102   2.994   2.590   2.190
    1C        C  103   2.878   2.674   2.189
    1C        C  104   3.064   2.575   2.313
    1C        C  105   3.001   2.615   2.432
    1C        C  106   3.202   2.532   2.552
    1C        C  107   3.072   2.589   2.551
    1C        C  108   3.271   2.514   2.674
    1C        C  109   3.203   2.538   2.795
    1C        C  110   3.412   2.499   2.916
    1C        C  111   3.273   2.521   2.917
    1C        C  112   3.485   2.492   3.037
    1C        C  113   3.414   2.499   3.159
    1C        C  114   3.624   2.496   3.283
    1C        C  115   3.483   2.491   3.283
    1C        C  116   3.694   2.512   3.405
    1C        C  117   3.626   2.503   3.529
    1C        C  118   3.833   2.550   3.647
    1C        C  119   3.697   2.512   3.650
    1C        C  120   3.899   2.571   3.771
    1C        C  121   3.833   2.549   3.894
    1C        C  122   4.024   2.642   4.013
    1C        C  123   3.901   2.572   4.015
    1C        C  124   4.084   2.676   4.137
    1C        C  125   4.028   2.636   4.260
    1C        C  126   4.200   2.764   4.379
    1C        C  127   4.089   2.677   4.381
    1C        C  128   4.250   2.816   4.501
    1C        C  129   4.198   2.765   4.622
    1C        C  130   4.324   2.937   4.741
    1C        C  131   4.244   2.820   4.744
    1C        C  132   4.357   3.003   4.861
    1C        C  133   4.289   2.960   4.976
    1C        C  134   3.174   2.469   2.082
    1C        C  135   3.039   2.505   2.084
    1C        C  136   3.260   2.479   2.192
    1C        C  137   3.197   2.523   2.310
    1C        C  138   3.408   2.486   2.429
    1C        C  139   3.268   2.504   2.431
    1C        C  140   3.482   2.487   2.550
    1C        C  141   3.411   2.492   2.672
    1C        C  142   3.623   2.492   2.793
    1C        C  143   3.482   2.495   2.793
    1C        C  144   3.693   2.507   2.915
    1C        C  145   3.626   2.494   3.039
    1C        C  146   3.831   2.539   3.155
    1C        C  147   3.696   2.500   3.161
    1C        C  148   3.897   2.563   3.278
    1C        C  149   3.831   2.546   3.402
    1C        C  150   4.027   2.628   3.522
    1C        C  151   3.898   2.570   3.523
    1C        C  152   4.082   2.672   3.645
    1C        C  153   4.024   2.635   3.768
    1C        C  154   4.197   2.760   3.889
    1C        C  155   4.083   2.677   3.890
    1C        C  156   4.244   2.813   4.012
    1C        C  157   4.192   2.768   4.135
    1C        C  158   4.337   2.924   4.255
    1C        C  159   4.246   2.816   4.256
    1C        C  160   4.377   2.985   4.376
    1C        C  161   4.335   2.929   4.498
    1C        C  162   4.436   3.117   4.614
    1C        C  163   4.374   2.990   4.619
    1C        C  164   4.464   3.185   4.735
    1C        C  165   4.437   3.119   4.857
    1C        C  166   4.514   3.319   4.971
    1C        C  167   4.480   3.184   4.973
    1C        C  168   3.477   2.443   2.076
    1C        C  169   3.400   2.458   2.192
    1C        C  170   3.622   2.469   2.306
    1C        C  171   3.479   2.473   2.308
    1C        C  172   3.694   2.484   2.427
    1C        C  173   3.623   2.483   2.549
    1C        C  174   3.829   2.536   2.668
    1C        C  175   3.694   2.498   2.671
    1C        C  176   3.898   2.559   2.790
    1C        C  177   3.832   2.534   2.912
    1C        C  178   4.028   2.619   3.034
    1C        C  179   3.899   2.562   3.033
    1C        C  180   4.087   2.658   3.157
    1C        C  181   4.026   2.622   3.279
    1C        C  182   4.198   2.750   3.398
    1C        C  183   4.089   2.660   3.399
    1C        C  184   4.245   2.804   3.520
    1C        C  185   4.194   2.759   3.643
    1C        C  186   4.335   2.916   3.765
    1C        C  187   4.248   2.805   3.765
    1C        C  188   4.375   2.978   3.886
    1C        C  189   4.334   2.922   4.010
    1C        C  190   4.442   3.106   4.129
    1C        C  191   4.376   2.981   4.131
    1C        C  192   4.466   3.176   4.249
    1C        C  193   4.442   3.111   4.372
    1C        C  194   4.504   3.317   4.494
    1C        C  195   4.468   3.180   4.492
    1C        C  196   4.527   3.388   4.614
    1C        C  197   4.508   3.320   4.737
    1C        C  198   4.554   3.537   4.853
    1C        C  199   4.526   3.397   4.855
    1C        C  200   4.582   3.620   4.967
    1C        C  201   3.615   2.421   2.073
    1C        C  202   3.829   2.513   2.183
    1C        C  203   3.695   2.461   2.185
    1C        C  204   3.896   2.546   2.304
    1C        C  205   3.830   2.521   2.426
    1C        C  206   4.027   2.609   2.543
    1C        C  207   3.900   2.548   2.546
    1C        C  208   4.085   2.649   2.665
    1C        C  209   4.027   2.617   2.790
    1C        C  210   4.194   2.749   2.909
    1C        C  211   4.086   2.658   2.911
    1C        C  212   4.246   2.798   3.031
    1C        C  213   4.197   2.747   3.153
    1C        C  214   4.331   2.912   3.275
    1C        C  215   4.250   2.796   3.274
    1C        C  216   4.365   2.977   3.395
    1C        C  217   4.329   2.917   3.519
    1C        C  218   4.431   3.102   3.640
    1C        C  219   4.369   2.975   3.641
    1C        C  220   4.462   3.169   3.761
    1C        C  221   4.439   3.104   3.884
    1C        C  222   4.499   3.309   4.005
    1C        C  223   4.462   3.172   4.006
    1C        C  224   4.507   3.381   4.126
    1C        C  225   4.503   3.312   4.249
    1C        C  226   4.511   3.526   4.368
    1C        C  227   4.513   3.384   4.370
    1C        C  228   4.518   3.597   4.490
    1C        C  229   4.531   3.529   4.613
    1C        C  230   4.501   3.743   4.729
    1C        C  231   4.540   3.607   4.730
    1C        C  232   4.497   3.824   4.845
    1C        C  233   4.545   3.755   4.957
    1C        C  234   4.021   2.614   2.063
    1C        C  235   3.901   2.542   2.067
    1C        C  236   4.089   2.644   2.181
    1C        C  237   4.023   2.611   2.301
    1C        C  238   4.203   2.729   2.423
    1C        C  239   4.085   2.650   2.421
    1C        C  240   4.252   2.785   2.543
    1C        C  241   4.192   2.742   2.664
    1C        C  242   4.335   2.902   2.787
    1C        C  243   4.246   2.792   2.784
    1C        C  244   4.376   2.962   2.908
    1C        C  245   4.336   2.907   3.032
    1C        C  246   4.439   3.095   3.151
    1C        C  247   4.375   2.969   3.153
    1C        C  248   4.456   3.166   3.272
    1C        C  249   4.429   3.102   3.395
    1C        C  250   4.498   3.303   3.515
    1C        C  251   4.458   3.167   3.517
    1C        C  252   4.504   3.374   3.637
    1C        C  253   4.495   3.306   3.761
    1C        C  254   4.522   3.517   3.877
    1C        C  255   4.515   3.376   3.882
    1C        C  256   4.520   3.590   3.998
    1C        C  257   4.515   3.522   4.122
    1C        C  258   4.489   3.733   4.241
    1C        C  259   4.509   3.593   4.244
    1C        C  260   4.472   3.803   4.362
    1C        C  261   4.487   3.735   4.485
    1C        C  262   4.422   3.938   4.602
    1C        C  263   4.466   3.804   4.607
    1C        C  264   4.402   4.009   4.722
    1C        C  265   4.437   3.952   4.846
    1C        C  266   4.320   4.136   4.961
    1C        C  267   4.385   4.012   4.961
    1C        C  268   4.262   2.778   2.064
    1C        C  269   4.203   2.729   2.181
    1C        C  270   4.345   2.890   2.300
    1C        C  271   4.257   2.779   2.302
    1C        C  272   4.381   2.954   2.421
    1C        C  273   4.342   2.893   2.543
    1C        C  274   4.448   3.079   2.663
    1C        C  275   4.379   2.955   2.664
    1C        C  276   4.470   3.152   2.782
    1C        C  277   4.441   3.088   2.904
    1C        C  278   4.505   3.291   3.026
    1C        C  279   4.469   3.154   3.026
    1C        C  280   4.509   3.366   3.145
    1C        C  281   4.495   3.302   3.270
    1C        C  282   4.516   3.512   3.389
    1C        C  283   4.513   3.371   3.392
    1C        C  284   4.513   3.583   3.511
    1C        C  285   4.516   3.515   3.635
    1C        C  286   4.492   3.728   3.754
    1C        C  287   4.516   3.588   3.756
    1C        C  288   4.473   3.798   3.875
    1C        C  289   4.494   3.729   3.996
    1C        C  290   4.430   3.933   4.117
    1C        C  291   4.478   3.800   4.117
    1C        C  292   4.403   4.002   4.238
    1C        C  293   4.433   3.939   4.361
    1C        C  294   4.329   4.128   4.480
    1C        C  295   4.402   4.007   4.480
    1C        C  296   4.287   4.189   4.601
    1C        C  297   4.329   4.132   4.723
    1C        C  298   4.199   4.312   4.837
    1C        C  299   4.282   4.196   4.841
    1C        C  300   4.173   4.400   4.947
    1C        C  301   4.352   2.883   2.062
    1C        C  302   4.470   3.067   2.178
    1C        C  303   4.399   2.943   2.180
    1C        C  304   4.487   3.142   2.298
    1C        C  305   4.450   3.078   2.419
    1C        C  306   4.506   3.281   2.540
    1C        C  307   4.477   3.143   2.541
    1C        C  308   4.515   3.356   2.659
    1C        C  309   4.504   3.289   2.783
    1C        C  310   4.526   3.501   2.899
    1C        C  311   4.520   3.360   2.904
    1C        C  312   4.516   3.576   3.019
    1C        C  313   4.517   3.507   3.143
    1C        C  314   4.490   3.718   3.266
    1C        C  315   4.513   3.578   3.265
    1C        C  316   4.477   3.790   3.386
    1C        C  317   4.494   3.723   3.509
    1C        C  318   4.424   3.926   3.626
    1C        C  319   4.472   3.793   3.630
    1C        C  320   4.396   3.992   3.748
    1C        C  321   4.428   3.932   3.872
    1C        C  322   4.320   4.113   3.992
    1C        C  323   4.401   3.997   3.995
    1C        C  324   4.280   4.170   4.115
    1C        C  325   4.331   4.123   4.238
    1C        C  326   4.191   4.287   4.354
    1C        C  327   4.290   4.186   4.358
    1C        C  328   4.141   4.343   4.474
    1C        C  329   4.194   4.296   4.596
    1C        C  330   4.022   4.431   4.716
    1C        C  331   4.141   4.353   4.714
    1C        C  332   3.969   4.489   4.833
    1C        C  333   4.058   4.480   4.941
    1C        C  334   4.557   3.269   2.063
    1C        C  335   4.534   3.130   2.067
    1C        C  336   4.536   3.348   2.176
    1C        C  337   4.518   3.280   2.299
    1C        C  338   4.520   3.495   2.414
    1C        C  339   4.519   3.354   2.419
    1C        C  340   4.525   3.568   2.535
    1C        C  341   4.534   3.496   2.656
    1C        C  342   4.494   3.708   2.774
    1C        C  343   4.523   3.570   2.776
    1C        C  344   4.476   3.780   2.895
    1C        C  345   4.489   3.714   3.019
    1C        C  346   4.429   3.917   3.139
    1C        C  347   4.477   3.784   3.141
    1C        C  348   4.397   3.986   3.258
    1C        C  349   4.432   3.924   3.380
    1C        C  350   4.324   4.108   3.504
    1C        C  351   4.400   3.989   3.502
    1C        C  352   4.277   4.165   3.624
    1C        C  353   4.317   4.109   3.747
    1C        C  354   4.180   4.270   3.868
    1C        C  355   4.277   4.168   3.870
    1C        C  356   4.130   4.323   3.990
    1C        C  357   4.185   4.275   4.110
    1C        C  358   4.020   4.411   4.232
    1C        C  359   4.133   4.326   4.231
    1C        C  360   3.957   4.451   4.352
    1C        C  361   4.025   4.422   4.473
    1C        C  362   3.832   4.520   4.593
    1C        C  363   3.961   4.461   4.593
    1C        C  364   3.765   4.551   4.713
    1C        C  365   3.838   4.542   4.834
    1C        C  366   3.630   4.588   4.951
    1C        C  367   3.769   4.581   4.949
    1C        C  368   4.513   3.563   2.052
    1C        C  369   4.525   3.489   2.170
    1C        C  370   4.504   3.704   2.288
    1C        C  371   4.518   3.563   2.290
    1C        C  372   4.483   3.775   2.409
    1C        C  373   4.505   3.708   2.532
    1C        C  374   4.423   3.907   2.648
    1C        C  375   4.478   3.777   2.652
    1C        C  376   4.400   3.975   2.770
    1C        C  377   4.432   3.915   2.894
    1C        C  378   4.321   4.096   3.013
    1C        C  379   4.401   3.980   3.015
    1C        C  380   4.280   4.157   3.133
    1C        C  381   4.320   4.104   3.258
    1C        C  382   4.179   4.259   3.378
    1C        C  383   4.277   4.158   3.381
    1C        C  384   4.123   4.307   3.499
    1C        C  385   4.177   4.264   3.623
    1C        C  386   4.012   4.397   3.744
    1C        C  387   4.128   4.316   3.745
    1C        C  388   3.948   4.430   3.866
    1C        C  389   4.012   4.401   3.988
    1C        C  390   3.822   4.491   4.108
    1C        C  391   3.953   4.440   4.111
    1C        C  392   3.754   4.512   4.231
    1C        C  393   3.825   4.499   4.352
    1C        C  394   3.620   4.558   4.474
    1C        C  395   3.758   4.532   4.473
    1C        C  396   3.549   4.562   4.596
    1C        C  397   3.625   4.567   4.715
    1C        C  398   3.413   4.554   4.841
    1C        C  399   3.552   4.577   4.835
    1C        C  400   3.345   4.514   4.956
    1C        C  401   4.507   3.702   2.055
    1C        C  402   4.450   3.914   2.168
    1C        C  403   4.496   3.781   2.170
    1C        C  404   4.409   3.975   2.288
    1C        C  405   4.434   3.907   2.409
    1C        C  406   4.325   4.097   2.527
    1C        C  407   4.398   3.975   2.527
    1C        C  408   4.281   4.152   2.649
    1C        C  409   4.318   4.090   2.770
    1C        C  410   4.173   4.249   2.886
    1C        C  411   4.275   4.150   2.890
    1C        C  412   4.124   4.298   3.010
    1C        C  413   4.175   4.252   3.133
    1C        C  414   4.008   4.383   3.254
    1C        C  415   4.124   4.303   3.255
    1C        C  416   3.946   4.419   3.376
    1C        C  417   4.008   4.388   3.500
    1C        C  418   3.818   4.481   3.621
    1C        C  419   3.949   4.429   3.622
    1C        C  420   3.749   4.501   3.743
    1C        C  421   3.817   4.481   3.866
    1C        C  422   3.611   4.531   3.989
    1C        C  423   3.751   4.510   3.988
    1C        C  424   3.542   4.532   4.112
    1C        C  425   3.614   4.528   4.234
    1C        C  426   3.404   4.540   4.357
    1C        C  427   3.544   4.549   4.355
    1C        C  428   3.335   4.535   4.480
    1C        C  429   3.408   4.550   4.600
    1C        C  430   3.198   4.517   4.725
    1C        C  431   3.337   4.546   4.722
    1C        C  432   3.127   4.495   4.846
    1C        C  433   3.207   4.495   4.961
    1C        C  434   4.382   4.118   2.053
    1C        C  435   4.450   3.996   2.054
    1C        C  436   4.307   4.166   2.165
    1C        C  437   4.337   4.098   2.286
    1C        C  438   4.185   4.255   2.402
    1C        C  439   4.284   4.154   2.405
    1C        C  440   4.128   4.298   2.523
    1C        C  441   4.183   4.254   2.646
    1C        C  442   4.006   4.380   2.766
    1C        C  443   4.121   4.298   2.765
    1C        C  444   3.946   4.415   2.889
    1C        C  445   4.009   4.379   3.010
    1C        C  446   3.816   4.470   3.132
    1C        C  447   3.947   4.417   3.131
    1C        C  448   3.751   4.497   3.255
    1C        C  449   3.817   4.475   3.378
    1C        C  450   3.610   4.526   3.500
    1C        C  451   3.750   4.502   3.499
    1C        C  452   3.541   4.533   3.623
    1C        C  453   3.611   4.531   3.745
    1C        C  454   3.400   4.541   3.866
    1C        C  455   3.541   4.545   3.867
    1C        C  456   3.332   4.526   3.989
    1C        C  457   3.401   4.529   4.112
    1C        C  458   3.196   4.495   4.240
    1C        C  459   3.331   4.534   4.235
    1C        C  460   3.127   4.485   4.362
    1C        C  461   3.196   4.511   4.483
    1C        C  462   3.000   4.429   4.603
    1C        C  463   3.129   4.488   4.605
    1C        C  464   2.933   4.400   4.724
    1C        C  465   2.993   4.444   4.845
    1C        C  466   2.802   4.336   4.962
    1C        C  467   2.907   4.429   4.959
    1C        C  468   4.131   4.293   2.042
    1C        C  469   4.196   4.256   2.161
    1C        C  470   4.014   4.380   2.279
    1C        C  471   4.133   4.302   2.279
    1C        C  472   3.948   4.411   2.400
    1C        C  473   4.013   4.381   2.521
    1C        C  474   3.819   4.474   2.643
    1C        C  475   3.948   4.415   2.642
    1C        C  476   3.751   4.497   2.765
    1C        C  477   3.815   4.470   2.887
    1C        C  478   3.610   4.518   3.014
    1C        C  479   3.748   4.490   3.010
    1C        C  480   3.541   4.526   3.137
    1C        C  481   3.612   4.522   3.259
    1C        C  482   3.397   4.528   3.379
    1C        C  483   3.538   4.531   3.379
    1C        C  484   3.328   4.527   3.502
    1C        C  485   3.400   4.538   3.624
    1C        C  486   3.191   4.495   3.748
    1C        C  487   3.327   4.534   3.745
    1C        C  488   3.127   4.469   3.871
    1C        C  489   3.194   4.498   3.992
    1C        C  490   3.004   4.413   4.119
    1C        C  491   3.129   4.477   4.116
    1C        C  492   2.942   4.382   4.242
    1C        C  493   3.000   4.422   4.364
    1C        C  494   2.824   4.300   4.485
    1C        C  495   2.936   4.386   4.485
    1C        C  496   2.770   4.258   4.608
    1C        C  497   2.822   4.311   4.728
    1C        C  498   2.664   4.165   4.846
    1C        C  499   2.752   4.275   4.846
    1C        C  500   2.592   4.121   4.957
    1C        C  501   4.008   4.358   2.040
    1C        C  502   3.821   4.470   2.157
    1C        C  503   3.948   4.407   2.157
    1C        C  504   3.748   4.485   2.276
    1C        C  505   3.815   4.460   2.398
    1C        C  506   3.611   4.512   2.523
    1C        C  507   3.749   4.485   2.521
    1C        C  508   3.540   4.516   2.646
    1C        C  509   3.611   4.515   2.768
    1C        C  510   3.401   4.528   2.887
    1C        C  511   3.542   4.527   2.890
    1C        C  512   3.330   4.517   3.009
    1C        C  513   3.400   4.526   3.131
    1C        C  514   3.193   4.489   3.258
    1C        C  515   3.330   4.522   3.254
    1C        C  516   3.126   4.467   3.380
    1C        C  517   3.191   4.495   3.502
    1C        C  518   3.000   4.407   3.626
    1C        C  519   3.125   4.473   3.625
    1C        C  520   2.940   4.371   3.748
    1C        C  521   3.000   4.408   3.871
    1C        C  522   2.835   4.285   3.995
    1C        C  523   2.944   4.374   3.996
    1C        C  524   2.786   4.237   4.119
    1C        C  525   2.833   4.292   4.240
    1C        C  526   2.687   4.138   4.366
    1C        C  527   2.779   4.246   4.362
    1C        C  528   2.642   4.084   4.488
    1C        C  529   2.681   4.148   4.607
    1C        C  530   2.576   3.963   4.735
    1C        C  531   2.640   4.090   4.729
    1C        C  532   2.533   3.905   4.857
    1C        C  533   2.523   3.999   4.964
    1C        C  534   3.621   4.556   2.046
    1C        C  535   3.753   4.511   2.041
    1C        C  536   3.538   4.529   2.160
    1C        C  537   3.609   4.514   2.281
    1C        C  538   3.396   4.524   2.403
    1C        C  539   3.537   4.519   2.403
    1C        C  540   3.326   4.511   2.524
    1C        C  541   3.399   4.511   2.645
    1C        C  542   3.189   4.484   2.769
    1C        C  543   3.328   4.512   2.767
    1C        C  544   3.125   4.457   2.892
    1C        C  545   3.194   4.479   3.014
    1C        C  546   2.999   4.400   3.135
    1C        C  547   3.127   4.460   3.136
    1C        C  548   2.940   4.365   3.259
    1C        C  549   2.999   4.404   3.381
    1C        C  550   2.829   4.282   3.505
    1C        C  551   2.938   4.372   3.504
    1C        C  552   2.776   4.236   3.627
    1C        C  553   2.829   4.283   3.750
    1C        C  554   2.695   4.124   3.878
    1C        C  555   2.783   4.234   3.874
    1C        C  556   2.654   4.066   4.001
    1C        C  557   2.698   4.127   4.121
    1C        C  558   2.591   3.949   4.246
    1C        C  559   2.650   4.077   4.244
    1C        C  560   2.561   3.887   4.370
    1C        C  561   2.583   3.955   4.491
    1C        C  562   2.528   3.753   4.618
    1C        C  563   2.560   3.890   4.614
    1C        C  564   2.518   3.682   4.740
    1C        C  565   2.521   3.762   4.857
    1C        C  566   2.539   3.549   4.982
    1C        C  567   2.528   3.688   4.975
    1C        C  568   3.329   4.474   2.044
    1C        C  569   3.398   4.505   2.162
    1C        C  570   3.187   4.470   2.283
    1C        C  571   3.323   4.511   2.283
    1C        C  572   3.118   4.453   2.405
    1C        C  573   3.189   4.476   2.525
    1C        C  574   2.992   4.403   2.649
    1C        C  575   3.120   4.463   2.648
    1C        C  576   2.930   4.367   2.771
    1C        C  577   2.996   4.401   2.891
    1C        C  578   2.825   4.277   3.018
    1C        C  579   2.936   4.364   3.014
    1C        C  580   2.772   4.232   3.141
    1C        C  581   2.830   4.276   3.262
    1C        C  582   2.690   4.118   3.386
    1C        C  583   2.780   4.227   3.385
    1C        C  584   2.649   4.063   3.510
    1C        C  585   2.686   4.127   3.630
    1C        C  586   2.590   3.943   3.759
    1C        C  587   2.653   4.069   3.755
    1C        C  588   2.565   3.876   3.880
    1C        C  589   2.595   3.938   4.004
    1C        C  590   2.533   3.739   4.128
    1C        C  591   2.565   3.876   4.127
    1C        C  592   2.522   3.677   4.254
    1C        C  593   2.530   3.749   4.375
    1C        C  594   2.516   3.538   4.500
    1C        C  595   2.521   3.679   4.498
    1C        C  596   2.524   3.466   4.622
    1C        C  597   2.524   3.540   4.742
    1C        C  598   2.537   3.330   4.862
    1C        C  599   2.535   3.471   4.865
    1C        C  600   2.532   3.252   4.978
    1C        C  601   3.197   4.433   2.045
    1C        C  602   2.984   4.390   2.161
    1C        C  603   3.120   4.437   2.162
    1C        C  604   2.929   4.353   2.287
    1C        C  605   2.990   4.393   2.408
    1C        C  606   2.823   4.266   2.531
    1C        C  607   2.928   4.360   2.530
    1C        C  608   2.772   4.220   2.654
    1C        C  609   2.823   4.274   2.773
    1C        C  610   2.684   4.117   2.898
    1C        C  611   2.775   4.225   2.897
    1C        C  612   2.651   4.056   3.021
    1C        C  613   2.693   4.115   3.142
    1C        C  614   2.580   3.935   3.269
    1C        C  615   2.649   4.059   3.264
    1C        C  616   2.558   3.870   3.393
    1C        C  617   2.588   3.936   3.514
    1C        C  618   2.528   3.737   3.637
    1C        C  619   2.561   3.874   3.639
    1C        C  620   2.517   3.671   3.761
    1C        C  621   2.523   3.741   3.884
    1C        C  622   2.512   3.528   4.010
    1C        C  623   2.519   3.669   4.006
    1C        C  624   2.517   3.462   4.134
    1C        C  625   2.516   3.535   4.255
    1C        C  626   2.541   3.327   4.380
    1C        C  627   2.521   3.467   4.378
    1C        C  628   2.559   3.255   4.500
    1C        C  629   2.547   3.327   4.621
    1C        C  630   2.600   3.121   4.745
    1C        C  631   2.557   3.257   4.743
    1C        C  632   2.617   3.052   4.868
    1C        C  633   2.560   3.115   4.983
    1C        C  634   2.786   4.301   2.059
    1C        C  635   2.892   4.393   2.052
    1C        C  636   2.744   4.233   2.173
    1C        C  637   2.810   4.274   2.291
    1C        C  638   2.672   4.112   2.412
    1C        C  639   2.763   4.220   2.412
    1C        C  640   2.637   4.050   2.535
    1C        C  641   2.682   4.110   2.654
    1C        C  642   2.584   3.926   2.780
    1C        C  643   2.646   4.053   2.778
    1C        C  644   2.556   3.863   2.904
    1C        C  645   2.588   3.929   3.024
    1C        C  646   2.532   3.728   3.151
    1C        C  647   2.560   3.866   3.148
    1C        C  648   2.516   3.660   3.273
    1C        C  649   2.529   3.732   3.394
    1C        C  650   2.515   3.522   3.519
    1C        C  651   2.519   3.663   3.517
    1C        C  652   2.525   3.456   3.644
    1C        C  653   2.522   3.529   3.764
    1C        C  654   2.543   3.320   3.892
    1C        C  655   2.517   3.459   3.887
    1C        C  656   2.562   3.254   4.015
    1C        C  657   2.545   3.323   4.137
    1C        C  658   2.614   3.124   4.258
    1C        C  659   2.562   3.255   4.260
    1C        C  660   2.641   3.060   4.381
    1C        C  661   2.606   3.122   4.503
    1C        C  662   2.713   2.938   4.627
    1C        C  663   2.635   3.056   4.625
    1C        C  664   2.755   2.880   4.748
    1C        C  665   2.699   2.934   4.867
    1C        C  666   2.750   2.877   4.985
    1C        C  667   2.674   4.026   2.057
    1C        C  668   2.677   4.109   2.170
    1C        C  669   2.578   3.919   2.297
    1C        C  670   2.634   4.050   2.291
    1C        C  671   2.553   3.851   2.417
    1C        C  672   2.577   3.922   2.537
    1C        C  673   2.522   3.720   2.660
    1C        C  674   2.556   3.857   2.660
    1C        C  675   2.507   3.653   2.784
    1C        C  676   2.524   3.725   2.905
    1C        C  677   2.510   3.517   3.031
    1C        C  678   2.517   3.658   3.029
    1C        C  679   2.519   3.447   3.153
    1C        C  680   2.512   3.518   3.275
    1C        C  681   2.534   3.310   3.401
    1C        C  682   2.513   3.450   3.398
    1C        C  683   2.557   3.246   3.525
    1C        C  684   2.543   3.316   3.647
    1C        C  685   2.615   3.119   3.772
    1C        C  686   2.561   3.250   3.771
    1C        C  687   2.643   3.055   3.894
    1C        C  688   2.607   3.120   4.014
    1C        C  689   2.715   2.937   4.140
    1C        C  690   2.642   3.058   4.136
    1C        C  691   2.756   2.880   4.263
    1C        C  692   2.716   2.940   4.384
    1C        C  693   2.757   2.880   4.506
    1C        C  694   2.629   3.894   2.062
    1C        C  695   2.527   3.707   2.179
    1C        C  696   2.573   3.841   2.179
    1C        C  697   2.504   3.637   2.299
    1C        C  698   2.517   3.714   2.417
    1C        C  699   2.493   3.507   2.544
    1C        C  700   2.501   3.648   2.541
    1C        C  701   2.504   3.439   2.667
    1C        C  702   2.503   3.512   2.787
    1C        C  703   2.530   3.304   2.912
    1C        C  704   2.506   3.443   2.911
    1C        C  705   2.556   3.238   3.034
    1C        C  706   2.541   3.307   3.156
    1C        C  707   2.602   3.108   3.281
    1C        C  708   2.550   3.239   3.279
    1C        C  709   2.641   3.052   3.404
    1C        C  710   2.611   3.116   3.527
    1C        C  711   2.721   2.937   3.649
    1C        C  712   2.640   3.053   3.650
    1C        C  713   2.761   2.878   3.771
    1C        C  714   2.721   2.937   3.893
    1C        C  715   2.759   2.881   4.018
    1C        C  716   2.447   3.501   2.068
    1C        C  717   2.498   3.632   2.064
    1C        C  718   2.461   3.419   2.184
    1C        C  719   2.481   3.497   2.301
    1C        C  720   2.511   3.291   2.428
    1C        C  721   2.487   3.430   2.425
    1C        C  722   2.536   3.224   2.550
    1C        C  723   2.526   3.299   2.669
    1C        C  724   2.598   3.100   2.792
    1C        C  725   2.545   3.231   2.792
    1C        C  726   2.630   3.037   2.914
    1C        C  727   2.604   3.105   3.036
    1C        C  728   2.714   2.926   3.161
    1C        C  729   2.636   3.044   3.159
    1C        C  730   2.763   2.877   3.284
    1C        C  731   2.718   2.934   3.406
    1C        C  732   2.765   2.880   3.528
    1C        C  733   2.494   3.195   2.074
    1C        C  734   2.494   3.280   2.186
    1C        C  735   2.587   3.088   2.306
    1C        C  736   2.530   3.218   2.309
    1C        C  737   2.617   3.024   2.429
    1C        C  738   2.590   3.093   2.549
    1C        C  739   2.703   2.914   2.671
    1C        C  740   2.625   3.032   2.671
    1C        C  741   2.746   2.856   2.792
    1C        C  742   2.704   2.917   2.913
    1C        C  743   2.754   2.872   3.037
    1C        C  744   2.541   3.064   2.074
    1C        C  745   2.685   2.897   2.188
    1C        C  746   2.601   3.010   2.189
    1C        C  747   2.732   2.841   2.309
    1C        C  748   2.691   2.904   2.429
    1C        C  749   2.738   2.849   2.551
    1C        C  750   2.734   2.838   2.071
    1C        C  751   3.670   2.326   1.973
    1C        O  752   3.713   2.210   1.997
    1C        O  753   3.653   2.356   1.838
    1C        C  754   4.619   3.050   1.976
    1C        O  755   4.607   3.048   1.850
    1C        O  756   4.748   3.022   2.023
    1C        C  757   4.443   4.217   1.961
    1C        O  758   4.509   4.313   2.008
    1C        O  759   4.443   4.209   1.821
    1C        C  760   3.607   4.679   1.965
    1C        O  761   3.589   4.787   2.027
    1C        O  762   3.544   4.680   1.840
    1C        C  763   2.875   4.493   1.944
    1C        O  764   2.922   4.481   1.828
    1C        O  765   2.803   4.612   1.966
    1C        C  766   2.333   3.475   1.976
    1C        O  767   2.346   3.396   1.879
    1C        O  768   2.209   3.540   1.976
    1C        C  769   4.692   3.580   5.058
    1C        O  770   4.657   3.532   5.170
    1C        O  771   4.815   3.644   5.046
    1C        C  772   4.275   4.458   5.037
    1C        O  773   4.282   4.438   5.161
    1C        O  774   4.374   4.548   4.994
    1C        C  775   4.142   2.520   5.075
    1C        O  776   4.255   2.480   5.034
    1C        O  777   4.147   2.565   5.207
    1C        C  778   2.879   4.537   5.056
    1C        O  779   2.803   4.635   5.039
    1C        O  780   2.911   4.502   5.188
    1C        C  781   2.468   3.044   5.075
    1C        O  782   2.351   3.030   5.031
    1C        O  783   2.470   3.038   5.214
    1C        C  784   2.430   3.978   5.078
    1C        O  785   2.311   4.019   5.068
    1C        O  786   2.479   3.991   5.208
    1C        C  787   2.943   2.435   1.995
    1C        O  788   2.973   2.458   1.875
    1C        O  789   2.872   2.318   2.018
    1C        C  790   3.179   2.360   5.052
    1C        O  791   3.171   2.254   4.986
    1C        O  792   3.138   2.338   5.184
    1C        H  793   4.319   2.996   5.072
    1C        H  794   4.161   2.823   5.072
    1C        H  795   4.527   3.118   5.044
    1C        H  796   4.501   3.377   5.060
    1C        H  797   4.551   3.809   5.049
    1C        H  798   4.433   3.997   5.056
    1C        H  799   4.265   4.160   5.049
    1C        H  800   4.049   4.552   5.021
    1C        H  801   3.831   4.586   5.037
    1C        H  802   3.589   4.647   5.030
    1C        H  803   3.404   4.455   5.023
    1C        H  804   3.162   4.469   5.054
    1C        H  805   3.885   2.500   5.074
    1C        H  806   3.671   2.426   5.064
    1C        H  807   2.988   2.524   5.050
    1C        H  808   3.443   2.485   5.078
    1C        H  809   2.907   2.767   5.073
    1C        H  810   2.705   2.908   5.077
    1C        H  811   2.474   3.293   5.058
    1C        H  812   2.533   3.505   5.079
    1C        H  813   2.519   3.740   5.068
    1C        H  814   2.565   4.195   5.030
    1C        H  815   2.776   4.298   5.059
    1C        H  816   2.670   2.832   1.985
    1C        H  817   2.838   2.688   1.976
    1C        H  818   3.218   2.478   1.985
    1C        H  819   3.439   2.483   1.984
    1C        H  820   3.867   2.499   1.975
    1C        H  821   4.030   2.671   1.973
    1C        H  822   4.232   2.741   1.968
    1C        H  823   4.372   2.918   1.963
    1C        H  824   4.626   3.307   1.991
    1C        H  825   4.516   3.512   1.958
    1C        H  826   4.542   3.748   1.965
    1C        H  827   3.787   4.478   1.945
    1C        H  828   3.951   4.339   1.952
    1C        H  829   4.192   4.319   1.958
    1C        H  830   4.525   3.981   1.980
    1C        H  831   2.700   3.828   2.016
    1C        H  832   2.719   4.060   1.965
    1C        H  833   2.732   4.285   1.968
    1C        H  834   3.365   4.517   1.953
    1C        H  835   3.148   4.419   1.951
    1C        H  836   2.555   3.021   1.977
    1C        H  837   2.419   3.213   2.000
    1C        H  838   2.487   3.689   1.974
    2V3OU   H29  839   2.805   3.548   1.663
    2V3OU   C27  840   2.781   3.501   1.761
    2V3OU   H27  841   2.732   3.573   1.832
    2V3OU   H28  842   2.728   3.405   1.736
    2V3OU   O11  843   2.912   3.474   1.812
    2V3OU   C15  844   2.923   3.394   1.923
    2V3OU   C13  845   3.052   3.373   1.976
    2V3OU   C14  846   3.082   3.266   2.060
    2V3OU   C16  847   2.973   3.188   2.096
    2V3OU    H6  848   2.994   3.108   2.168
    2V3OU   C12  849   3.214   3.237   2.120
    2V3OU    O2  850   3.235   3.137   2.193
    2V3OU   C10  851   3.330   3.312   2.071
    2V3OU    C8  852   3.459   3.268   2.101
    2V3OU   O10  853   3.491   3.155   2.169
    2V3OU   H26  854   3.403   3.121   2.192
    2V3OU    C6  855   3.568   3.352   2.063
    2V3OU    C5  856   3.537   3.469   1.995
    2V3OU    C4  857   3.706   3.296   2.066
    2V3OU    H4  858   3.721   3.236   2.160
    2V3OU    H5  859   3.716   3.227   1.977
    2V3OU    C2  860   3.818   3.401   2.061
    2V3OU    O6  861   3.811   3.480   2.180
    2V3OU   H21  862   3.769   3.561   2.147
    2V3OU    C3  863   3.782   3.498   1.948
    2V3OU    H2  864   3.861   3.577   1.942
    2V3OU    H3  865   3.788   3.445   1.850
    2V3OU   C25  866   3.952   3.329   2.048
    2V3OU    O7  867   4.003   3.309   1.938
    2V3OU   C26  868   4.032   3.290   2.171
    2V3OU   H22  869   4.067   3.386   2.216
    2V3OU   H23  870   4.121   3.228   2.141
    2V3OU    O8  871   3.965   3.207   2.263
    2V3OU   H24  872   3.932   3.270   2.329
    2V3OU    C1  873   3.646   3.565   1.956
    2V3OU    H1  874   3.623   3.615   1.857
    2V3OU    O3  875   3.661   3.656   2.065
    2V3OU   C19  876   3.622   3.793   2.059
    2V3OU    H9  877   3.525   3.810   2.003
    2V3OU    O4  878   3.715   3.855   1.973
    2V3OU   C20  879   3.846   3.874   2.027
    2V3OU   H10  880   3.901   3.776   2.043
    2V3OU   C24  881   3.617   3.861   2.196
    2V3OU   H16  882   3.553   3.796   2.261
    2V3OU   H17  883   3.562   3.958   2.182
    2V3OU   C23  884   3.755   3.875   2.260
    2V3OU   H15  885   3.791   3.769   2.282
    2V3OU    N1  886   3.737   3.949   2.383
    2V3OU   H19  887   3.807   3.923   2.449
    2V3OU   H20  888   3.647   3.930   2.420
    2V3OU   C21  889   3.856   3.944   2.163
    2V3OU   H11  890   3.959   3.925   2.206
    2V3OU    O5  891   3.827   4.083   2.164
    2V3OU   H18  892   3.783   4.107   2.247
    2V3OU   C22  893   3.917   3.944   1.912
    2V3OU   H12  894   3.864   4.041   1.891
    2V3OU   H13  895   3.908   3.885   1.818
    2V3OU   H14  896   4.024   3.957   1.943
    2V3OU   C11  897   3.161   3.470   1.957
    2V3OU    O1  898   3.132   3.589   1.930
    2V3OU    C9  899   3.297   3.433   2.004
    2V3OU    C7  900   3.404   3.511   1.963
    2V3OU    O9  901   3.391   3.620   1.879
    2V3OU   H25  902   3.296   3.625   1.896
    2V3OU   C17  903   2.816   3.313   1.969
    2V3OU    H7  904   2.713   3.343   1.952
    2V3OU   C18  905   2.841   3.210   2.059
    2V3OU    H8  906   2.759   3.155   2.106
    3SOL     OW  907   2.405   4.263   0.943
    3SOL    HW1  908   2.345   4.342   0.929
    3SOL    HW2  909   2.358   4.180   0.913
    4SOL     OW  910   6.489   5.482   2.025
    4SOL    HW1  911   6.397   5.521   2.025
    4SOL    HW2  912   6.506   5.437   1.938
    5SOL     OW  913   3.654   1.574   2.165
    5SOL    HW1  914   3.684   1.635   2.239
    5SOL    HW2  915   3.683   1.611   2.077
    6SOL     OW  916   3.959   1.901   2.243
    6SOL    HW1  917   3.901   1.828   2.279
    6SOL    HW2  918   3.904   1.984   2.230
    7SOL     OW  919   6.405   2.713   1.658
    7SOL    HW1  920   6.387   2.712   1.756
    7SOL    HW2  921   6.484   2.655   1.638
    8SOL     OW  922   2.427   7.006   5.135
    8SOL    HW1  923   2.489   0.018   5.204
    8SOL    HW2  924   2.333   7.009   5.169
    9SOL     OW  925   1.128   5.343   5.921
    9SOL    HW1  926   1.119   5.442   5.933
    9SOL    HW2  927   1.184   5.324   5.841
   10SOL     OW  928   0.994   4.466   5.465
   10SOL    HW1  929   0.918   4.526   5.441
   10SOL    HW2  930   0.962   4.371   5.467
   11SOL     OW  931   2.531   0.464   0.449
   11SOL    HW1  932   2.575   0.542   0.404
   11SOL    HW2  933   2.453   0.497   0.504
   12SOL     OW  934   4.334   6.075   4.051
   12SOL    HW1  935   4.298   6.039   3.965
   12SOL    HW2  936   4.266   6.063   4.123
   13SOL     OW  937   3.766   5.953   4.558
   13SOL    HW1  938   3.842   5.887   4.555
   13SOL    HW2  939   3.692   5.916   4.614
   14SOL     OW  940   4.515   5.658   6.603
   14SOL    HW1  941   4.601   5.678   6.555
   14SOL    HW2  942   4.466   5.586   6.555
   15SOL     OW  943   1.674   5.736   0.136
   15SOL    HW1  944   1.633   5.649   0.161
   15SOL    HW2  945   1.650   5.805   0.205
   16SOL     OW  946   6.110   1.944   5.533
   16SOL    HW1  947   6.031   1.906   5.582
   16SOL    HW2  948   6.078   2.002   5.458
   17SOL     OW  949   5.568   6.257   4.876
   17SOL    HW1  950   5.592   6.260   4.973
   17SOL    HW2  951   5.520   6.342   4.851
   18SOL     OW  952   3.124   1.768   7.015
   18SOL    HW1  953   3.152   1.850   0.039
   18SOL    HW2  954   3.067   1.711   0.048
   19SOL     OW  955   6.648   6.758   3.232
   19SOL    HW1  956   6.737   6.801   3.241
   19SOL    HW2  957   6.642   6.680   3.295
   20SOL     OW  958   3.435   1.377   4.176
   20SOL    HW1  959   3.464   1.375   4.080
   20SOL    HW2  960   3.384   1.294   4.197
   21SOL     OW  961   3.040   2.215   2.833
   21SOL    HW1  962   3.115   2.278   2.853
   21SOL    HW2  963   3.049   2.134   2.891
   22SOL     OW  964   1.969   6.921   6.859
   22SOL    HW1  965   1.970   6.997   6.793
   22SOL    HW2  966   1.881   6.920   6.907
   23SOL     OW  967   4.642   6.396   3.424
   23SOL    HW1  968   4.650   6.404   3.523
   23SOL    HW2  969   4.580   6.467   3.390
   24SOL     OW  970   5.202   1.213   4.318
   24SOL    HW1  971   5.216   1.283   4.248
   24SOL    HW2  972   5.165   1.130   4.276
   25SOL     OW  973   3.184   5.942   5.977
   25SOL    HW1  974   3.181   6.031   6.023
   25SOL    HW2  975   3.102   5.932   5.920
   26SOL     OW  976   6.079   1.028   1.138
   26SOL    HW1  977   6.093   0.959   1.209
   26SOL    HW2  978   5.998   1.082   1.159
   27SOL     OW  979   0.276   0.937   2.326
   27SOL    HW1  980   0.181   0.931   2.297
   27SOL    HW2  981   0.287   1.015   2.388
   28SOL     OW  982   4.038   1.032   0.662
   28SOL    HW1  983   4.057   1.114   0.608
   28SOL    HW2  984   4.047   1.052   0.759
   29SOL     OW  985   5.272   2.557   1.842
   29SOL    HW1  986   5.313   2.590   1.928
   29SOL    HW2  987   5.178   2.529   1.858
   30SOL     OW  988   3.210   6.826   5.504
   30SOL    HW1  989   3.235   6.752   5.442
   30SOL    HW2  990   3.205   6.912   5.453
   31SOL     OW  991   0.878   1.323   5.717
   31SOL    HW1  992   0.932   1.406   5.734
   31SOL    HW2  993   0.836   1.330   5.626
   32SOL     OW  994   0.765   2.076   2.798
   32SOL    HW1  995   0.678   2.125   2.802
   32SOL    HW2  996   0.753   1.985   2.838
   33SOL     OW  997   1.858   2.733   6.776
   33SOL    HW1  998   1.769   2.725   6.819
   33SOL    HW2  999   1.920   2.784   6.837
   34SOL     OW 1000   2.171   0.820   4.197
   34SOL    HW1 1001   2.130   0.906   4.169
   34SOL    HW2 1002   2.103   0.764   4.244
   35SOL     OW 1003   4.199   2.268   6.582
   35SOL    HW1 1004   4.224   2.268   6.679
   35SOL    HW2 1005   4.145   2.186   6.562
   36SOL     OW 1006   0.968   0.794   6.407
   36SOL    HW1 1007   0.979   0.705   6.363
   36SOL    HW2 1008   1.058   0.829   6.433
   37SOL     OW 1009   2.217   0.609   0.861
   37SOL    HW1 1010   2.147   0.542   0.838
   37SOL    HW2 1011   2.176   0.700   0.864
   38SOL     OW 1012   0.329   5.744   3.056
   38SOL    HW1 1013   0.319   5.815   2.986
   38SOL    HW2 1014   0.405   5.683   3.032
   39SOL     OW 1015   6.732   4.092   6.690
   39SOL    HW1 1016   6.793   4.163   6.724
   39SOL    HW2 1017   6.711   4.110   6.593
   40SOL     OW 1018   6.002   2.624   1.670
   40SOL    HW1 1019   6.077   2.558   1.667
   40SOL    HW2 1020   5.929   2.590   1.729
   41SOL     OW 1021   1.747   6.445   4.249
   41SOL    HW1 1022   1.834   6.430   4.203
   41SOL    HW2 1023   1.678   6.473   4.181
   42SOL     OW 1024   3.234   6.520   6.153
   42SOL    HW1 1025   3.149   6.473   6.177
   42SOL    HW2 1026   3.298   6.514   6.230
   43SOL     OW 1027   5.692   6.031   5.615
   43SOL    HW1 1028   5.696   6.131   5.616
   43SOL    HW2 1029   5.641   5.999   5.695
   44SOL     OW 1030   6.201   2.908   6.541
   44SOL    HW1 1031   6.156   2.979   6.596
   44SOL    HW2 1032   6.195   2.820   6.589
   45SOL     OW 1033   3.084   0.657   3.970
   45SOL    HW1 1034   3.064   0.678   3.874
   45SOL    HW2 1035   3.179   0.683   3.990
   46SOL     OW 1036   1.008   3.706   4.436
   46SOL    HW1 1037   0.966   3.724   4.347
   46SOL    HW2 1038   1.043   3.613   4.438
   47SOL     OW 1039   5.357   3.823   3.258
   47SOL    HW1 1040   5.442   3.771   3.249
   47SOL    HW2 1041   5.289   3.789   3.194
   48SOL     OW 1042   0.887   2.943   4.959
   48SOL    HW1 1043   0.799   2.897   4.947
   48SOL    HW2 1044   0.875   3.025   5.015
   49SOL     OW 1045   4.614   4.080   1.672
   49SOL    HW1 1046   4.565   4.139   1.736
   49SOL    HW2 1047   4.701   4.052   1.712
   50SOL     OW 1048   6.251   2.401   5.449
   50SOL    HW1 1049   6.324   2.351   5.495
   50SOL    HW2 1050   6.168   2.400   5.505
   51SOL     OW 1051   3.267   5.911   2.823
   51SOL    HW1 1052   3.272   5.897   2.922
   51SOL    HW2 1053   3.227   6.001   2.805
   52SOL     OW 1054   4.424   2.039   3.616
   52SOL    HW1 1055   4.472   2.082   3.539
   52SOL    HW2 1056   4.339   1.997   3.583
   53SOL     OW 1057   4.696   0.457   4.101
   53SOL    HW1 1058   4.752   0.512   4.039
   53SOL    HW2 1059   4.732   0.465   4.194
   54SOL     OW 1060   3.119   5.031   6.922
   54SOL    HW1 1061   3.111   4.950   6.979
   54SOL    HW2 1062   3.214   5.043   6.894
   55SOL     OW 1063   3.529   1.261   6.358
   55SOL    HW1 1064   3.498   1.305   6.273
   55SOL    HW2 1065   3.536   1.330   6.430
   56SOL     OW 1066   1.454   0.504   1.207
   56SOL    HW1 1067   1.478   0.408   1.197
   56SOL    HW2 1068   1.471   0.533   1.302
   57SOL     OW 1069   4.826   0.153   0.823
   57SOL    HW1 1070   4.898   0.143   0.892
   57SOL    HW2 1071   4.863   0.201   0.744
   58SOL     OW 1072   0.297   6.246   5.833
   58SOL    HW1 1073   0.332   6.153   5.847
   58SOL    HW2 1074   0.197   6.242   5.825
   59SOL     OW 1075   1.758   1.205   6.319
   59SOL    HW1 1076   1.769   1.133   6.251
   59SOL    HW2 1077   1.778   1.294   6.278
   60SOL     OW 1078   5.517   0.665   5.769
   60SOL    HW1 1079   5.475   0.696   5.854
   60SOL    HW2 1080   5.615   0.681   5.773
   61SOL     OW 1081   5.130   1.523   4.605
   61SOL    HW1 1082   5.097   1.559   4.693
   61SOL    HW2 1083   5.064   1.457   4.570
   62SOL     OW 1084   0.761   1.062   3.592
   62SOL    HW1 1085   0.743   1.076   3.689
   62SOL    HW2 1086   0.778   1.151   3.548
   63SOL     OW 1087   6.125   1.911   3.878
   63SOL    HW1 1088   6.093   1.857   3.956
   63SOL    HW2 1089   6.173   1.852   3.814
   64SOL     OW 1090   0.513   4.038   6.717
   64SOL    HW1 1091   0.557   4.126   6.701
   64SOL    HW2 1092   0.495   3.993   6.630
   65SOL     OW 1093   6.804   4.428   5.078
   65SOL    HW1 1094   6.801   4.527   5.064
   65SOL    HW2 1095   6.712   4.389   5.066
   66SOL     OW 1096   3.409   0.540   6.889
   66SOL    HW1 1097   3.322   0.583   6.863
   66SOL    HW2 1098   3.472   0.611   6.922
   67SOL     OW 1099   5.611   5.424   5.224
   67SOL    HW1 1100   5.531   5.381   5.184
   67SOL    HW2 1101   5.689   5.412   5.162
   68SOL     OW 1102   6.895   1.076   6.869
   68SOL    HW1 1103   6.822   1.008   6.866
   68SOL    HW2 1104   6.920   1.095   6.964
   69SOL     OW 1105   1.821   4.030   6.758
   69SOL    HW1 1106   1.853   3.964   6.690
   69SOL    HW2 1107   1.729   4.004   6.789
   70SOL     OW 1108   6.260   5.297   3.092
   70SOL    HW1 1109   6.274   5.303   3.190
   70SOL    HW2 1110   6.180   5.351   3.066
   71SOL     OW 1111   2.932   1.855   3.060
   71SOL    HW1 1112   2.856   1.868   3.124
   71SOL    HW2 1113   2.953   1.757   3.054
   72SOL     OW 1114   2.599   6.319   5.068
   72SOL    HW1 1115   2.661   6.265   5.011
   72SOL    HW2 1116   2.505   6.285   5.055
   73SOL     OW 1117   3.370   1.912   0.458
   73SOL    HW1 1118   3.414   1.990   0.503
   73SOL    HW2 1119   3.303   1.871   0.520
   74SOL     OW 1120   5.328   6.762   6.841
   74SOL    HW1 1121   5.239   6.780   6.798
   74SOL    HW2 1122   5.394   6.736   6.771
   75SOL     OW 1123   3.991   5.922   5.966
   75SOL    HW1 1124   4.089   5.926   5.950
   75SOL    HW2 1125   3.973   5.886   6.058
   76SOL     OW 1126   1.934   2.598   1.214
   76SOL    HW1 1127   1.896   2.653   1.289
   76SOL    HW2 1128   1.879   2.612   1.131
   77SOL     OW 1129   4.981   5.926   4.264
   77SOL    HW1 1130   5.076   5.914   4.295
   77SOL    HW2 1131   4.975   6.008   4.207
   78SOL     OW 1132   5.947   6.633   5.853
   78SOL    HW1 1133   5.854   6.669   5.847
   78SOL    HW2 1134   6.011   6.699   5.814
   79SOL     OW 1135   2.699   6.826   0.459
   79SOL    HW1 1136   2.792   6.792   0.470
   79SOL    HW2 1137   2.702   6.924   0.436
   80SOL     OW 1138   5.760   1.289   4.384
   80SOL    HW1 1139   5.670   1.251   4.403
   80SOL    HW2 1140   5.754   1.388   4.377
   81SOL     OW 1141   2.278   7.011   2.586
   81SOL    HW1 1142   2.259   7.023   2.683
   81SOL    HW2 1143   2.289   0.075   2.543
   82SOL     OW 1144   6.724   5.329   0.431
   82SOL    HW1 1145   6.638   5.309   0.479
   82SOL    HW2 1146   6.727   5.278   0.345
   83SOL     OW 1147   6.595   7.024   0.485
   83SOL    HW1 1148   6.639   0.053   0.413
   83SOL    HW2 1149   6.566   0.059   0.559
   84SOL     OW 1150   4.974   3.532   3.516
   84SOL    HW1 1151   4.941   3.447   3.557
   84SOL    HW2 1152   5.015   3.511   3.427
   85SOL     OW 1153   1.152   1.668   5.318
   85SOL    HW1 1154   1.148   1.574   5.351
   85SOL    HW2 1155   1.060   1.707   5.315
   86SOL     OW 1156   0.995   0.380   5.661
   86SOL    HW1 1157   0.973   0.328   5.744
   86SOL    HW2 1158   0.927   0.452   5.648
   87SOL     OW 1159   4.705   2.757   0.767
   87SOL    HW1 1160   4.767   2.679   0.780
   87SOL    HW2 1161   4.748   2.824   0.706
   88SOL     OW 1162   3.919   1.569   6.803
   88SOL    HW1 1163   3.892   1.652   6.755
   88SOL    HW2 1164   3.871   1.564   6.891
   89SOL     OW 1165   1.374   3.113   6.686
   89SOL    HW1 1166   1.467   3.135   6.715
   89SOL    HW2 1167   1.319   3.197   6.684
   90SOL     OW 1168   4.801   6.975   4.085
   90SOL    HW1 1169   4.790   0.047   4.102
   90SOL    HW2 1170   4.894   6.956   4.052
   91SOL     OW 1171   4.383   4.601   3.967
   91SOL    HW1 1172   4.330   4.636   3.890
   91SOL    HW2 1173   4.326   4.600   4.049
   92SOL     OW 1174   3.073   4.616   0.519
   92SOL    HW1 1175   3.091   4.527   0.476
   92SOL    HW2 1176   3.018   4.603   0.601
   93SOL     OW 1177   2.742   4.553   6.527
   93SOL    HW1 1178   2.691   4.502   6.458
   93SOL    HW2 1179   2.840   4.543   6.510
   94SOL     OW 1180   2.564   6.126   6.113
   94SOL    HW1 1181   2.600   6.082   6.196
   94SOL    HW2 1182   2.469   6.154   6.129
   95SOL     OW 1183   0.766   1.865   3.294
   95SOL    HW1 1184   0.746   1.806   3.215
   95SOL    HW2 1185   0.685   1.873   3.351
   96SOL     OW 1186   3.076   6.814   5.769
   96SOL    HW1 1187   3.012   6.737   5.766
   96SOL    HW2 1188   3.115   6.829   5.679
   97SOL     OW 1189   0.569   4.134   5.786
   97SOL    HW1 1190   0.529   4.145   5.696
   97SOL    HW2 1191   0.539   4.047   5.826
   98SOL     OW 1192   6.550   3.666   6.977
   98SOL    HW1 1193   6.571   3.748   6.924
   98SOL    HW2 1194   6.612   3.592   6.950
   99SOL     OW 1195   4.409   3.995   1.197
   99SOL    HW1 1196   4.480   3.968   1.261
   99SOL    HW2 1197   4.403   4.095   1.194
  100SOL     OW 1198   0.547   6.569   6.146
  100SOL    HW1 1199   0.534   6.595   6.242
  100SOL    HW2 1200   0.509   6.477   6.132
  101SOL     OW 1201   1.426   5.524   2.668
  101SOL    HW1 1202   1.346   5.500   2.721
  101SOL    HW2 1203   1.505   5.534   2.729
  102SOL     OW 1204   5.328   1.032   2.458
  102SOL    HW1 1205   5.278   0.953   2.422
  102SOL    HW2 1206   5.326   1.107   2.392
  103SOL     OW 1207   3.923   0.943   1.899
  103SOL    HW1 1208   3.972   1.029   1.883
  103SOL    HW2 1209   3.840   0.962   1.952
  104SOL     OW 1210   0.195   5.087   2.908
  104SOL    HW1 1211   0.132   5.150   2.952
  104SOL    HW2 1212   0.279   5.136   2.883
  105SOL     OW 1213   6.699   1.879   6.642
  105SOL    HW1 1214   6.633   1.932   6.695
  105SOL    HW2 1215   6.767   1.839   6.704
  106SOL     OW 1216   3.259   6.577   5.394
  106SOL    HW1 1217   3.349   6.566   5.436
  106SOL    HW2 1218   3.224   6.487   5.366
  107SOL     OW 1219   1.970   2.218   1.797
  107SOL    HW1 1220   1.968   2.129   1.842
  107SOL    HW2 1221   1.884   2.232   1.747
  108SOL     OW 1222   4.461   5.120   6.460
  108SOL    HW1 1223   4.412   5.173   6.392
  108SOL    HW2 1224   4.435   5.151   6.552
  109SOL     OW 1225   0.424   0.736   1.355
  109SOL    HW1 1226   0.477   0.738   1.440
  109SOL    HW2 1227   0.472   0.790   1.285
  110SOL     OW 1228   3.831   6.611   5.806
  110SOL    HW1 1229   3.820   6.622   5.707
  110SOL    HW2 1230   3.777   6.680   5.853
  111SOL     OW 1231   3.872   0.711   5.227
  111SOL    HW1 1232   3.842   0.748   5.139
  111SOL    HW2 1233   3.794   0.670   5.275
  112SOL     OW 1234   6.204   6.553   5.971
  112SOL    HW1 1235   6.114   6.564   5.929
  112SOL    HW2 1236   6.223   6.455   5.982
  113SOL     OW 1237   6.843   5.112   2.758
  113SOL    HW1 1238   6.834   5.093   2.856
  113SOL    HW2 1239   6.817   5.207   2.741
  114SOL     OW 1240   0.984   0.090   0.952
  114SOL    HW1 1241   1.077   0.105   0.915
  114SOL    HW2 1242   0.975   7.021   0.981
  115SOL     OW 1243   4.351   1.174   4.437
  115SOL    HW1 1244   4.384   1.220   4.354
  115SOL    HW2 1245   4.428   1.127   4.481
  116SOL     OW 1246   6.269   5.336   2.221
  116SOL    HW1 1247   6.254   5.414   2.161
  116SOL    HW2 1248   6.182   5.293   2.243
  117SOL     OW 1249   0.660   1.807   6.359
  117SOL    HW1 1250   0.659   1.847   6.451
  117SOL    HW2 1251   0.675   1.709   6.366
  118SOL     OW 1252   0.539   1.613   2.254
  118SOL    HW1 1253   0.638   1.628   2.249
  118SOL    HW2 1254   0.492   1.701   2.258
  119SOL     OW 1255   1.123   2.084   6.333
  119SOL    HW1 1256   1.191   2.094   6.260
  119SOL    HW2 1257   1.059   2.012   6.309
  120SOL     OW 1258   6.645   6.997   0.068
  120SOL    HW1 1259   6.564   6.989   0.127
  120SOL    HW2 1260   6.728   6.984   0.122
  121SOL     OW 1261   2.614   3.546   6.792
  121SOL    HW1 1262   2.585   3.466   6.739
  121SOL    HW2 1263   2.536   3.607   6.806
  122SOL     OW 1264   1.794   4.816   6.246
  122SOL    HW1 1265   1.787   4.746   6.175
  122SOL    HW2 1266   1.850   4.782   6.322
  123SOL     OW 1267   0.756   1.889   1.510
  123SOL    HW1 1268   0.763   1.830   1.429
  123SOL    HW2 1269   0.715   1.977   1.484
  124SOL     OW 1270   5.126   2.734   0.220
  124SOL    HW1 1271   5.219   2.711   0.195
  124SOL    HW2 1272   5.120   2.832   0.242
  125SOL     OW 1273   2.517   1.654   2.164
  125SOL    HW1 1274   2.586   1.635   2.234
  125SOL    HW2 1275   2.447   1.583   2.166
  126SOL     OW 1276   2.646   4.705   0.939
  126SOL    HW1 1277   2.610   4.619   0.973
  126SOL    HW2 1278   2.705   4.747   1.008
  127SOL     OW 1279   0.222   4.931   6.491
  127SOL    HW1 1280   0.238   4.838   6.456
  127SOL    HW2 1281   0.310   4.977   6.505
  128SOL     OW 1282   4.035   2.755   1.346
  128SOL    HW1 1283   4.002   2.751   1.252
  128SOL    HW2 1284   4.121   2.706   1.354
  129SOL     OW 1285   4.919   3.881   6.126
  129SOL    HW1 1286   4.995   3.923   6.076
  129SOL    HW2 1287   4.926   3.781   6.120
  130SOL     OW 1288   0.381   1.394   4.181
  130SOL    HW1 1289   0.303   1.452   4.158
  130SOL    HW2 1290   0.453   1.449   4.222
  131SOL     OW 1291   5.589   1.461   2.061
  131SOL    HW1 1292   5.523   1.515   2.114
  131SOL    HW2 1293   5.583   1.487   1.965
  132SOL     OW 1294   2.262   3.103   0.713
  132SOL    HW1 1295   2.321   3.064   0.783
  132SOL    HW2 1296   2.204   3.173   0.754
  133SOL     OW 1297   5.308   6.820   3.704
  133SOL    HW1 1298   5.220   6.772   3.708
  133SOL    HW2 1299   5.377   6.767   3.753
  134SOL     OW 1300   5.757   2.136   2.704
  134SOL    HW1 1301   5.835   2.073   2.702
  134SOL    HW2 1302   5.791   2.230   2.706
  135SOL     OW 1303   5.626   2.876   2.402
  135SOL    HW1 1304   5.641   2.919   2.490
  135SOL    HW2 1305   5.655   2.780   2.407
  136SOL     OW 1306   4.145   3.706   6.322
  136SOL    HW1 1307   4.090   3.790   6.330
  136SOL    HW2 1308   4.117   3.642   6.393
  137SOL     OW 1309   5.195   0.668   5.279
  137SOL    HW1 1310   5.289   0.697   5.299
  137SOL    HW2 1311   5.185   0.571   5.301
  138SOL     OW 1312   0.327   4.532   3.928
  138SOL    HW1 1313   0.345   4.437   3.955
  138SOL    HW2 1314   0.412   4.574   3.898
  139SOL     OW 1315   2.296   6.315   5.295
  139SOL    HW1 1316   2.376   6.314   5.355
  139SOL    HW2 1317   2.322   6.281   5.205
  140SOL     OW 1318   0.240   6.141   3.285
  140SOL    HW1 1319   0.274   6.117   3.376
  140SOL    HW2 1320   0.211   6.058   3.237
  141SOL     OW 1321   6.258   3.066   5.503
  141SOL    HW1 1322   6.215   3.052   5.593
  141SOL    HW2 1323   6.219   3.147   5.460
  142SOL     OW 1324   1.519   5.630   0.536
  142SOL    HW1 1325   1.592   5.562   0.541
  142SOL    HW2 1326   1.555   5.719   0.564
  143SOL     OW 1327   5.693   4.113   2.014
  143SOL    HW1 1328   5.643   4.193   2.047
  143SOL    HW2 1329   5.677   4.102   1.916
  144SOL     OW 1330   1.313   6.877   6.558
  144SOL    HW1 1331   1.232   6.820   6.552
  144SOL    HW2 1332   1.380   6.848   6.489
  145SOL     OW 1333   0.615   4.688   0.413
  145SOL    HW1 1334   0.640   4.716   0.505
  145SOL    HW2 1335   0.544   4.618   0.418
  146SOL     OW 1336   4.899   0.246   5.632
  146SOL    HW1 1337   4.966   0.172   5.619
  146SOL    HW2 1338   4.916   0.318   5.565
  147SOL     OW 1339   6.040   2.834   6.865
  147SOL    HW1 1340   6.089   2.796   6.787
  147SOL    HW2 1341   5.976   2.766   6.901
  148SOL     OW 1342   0.450   5.063   6.107
  148SOL    HW1 1343   0.545   5.093   6.114
  148SOL    HW2 1344   0.446   4.975   6.059
  149SOL     OW 1345   2.416   1.412   4.514
  149SOL    HW1 1346   2.419   1.338   4.581
  149SOL    HW2 1347   2.384   1.376   4.426
  150SOL     OW 1348   5.858   4.939   6.306
  150SOL    HW1 1349   5.845   4.968   6.401
  150SOL    HW2 1350   5.802   4.858   6.288
  151SOL     OW 1351   3.306   1.724   1.273
  151SOL    HW1 1352   3.338   1.811   1.310
  151SOL    HW2 1353   3.324   1.651   1.339
  152SOL     OW 1354   1.854   1.335   4.321
  152SOL    HW1 1355   1.863   1.236   4.331
  152SOL    HW2 1356   1.786   1.356   4.252
  153SOL     OW 1357   2.819   0.162   1.871
  153SOL    HW1 1358   2.901   0.218   1.862
  153SOL    HW2 1359   2.844   0.067   1.887
  154SOL     OW 1360   0.441   2.986   3.010
  154SOL    HW1 1361   0.371   3.039   3.058
  154SOL    HW2 1362   0.499   3.047   2.957
  155SOL     OW 1363   0.380   1.567   3.464
  155SOL    HW1 1364   0.333   1.653   3.442
  155SOL    HW2 1365   0.435   1.578   3.546
  156SOL     OW 1366   6.966   1.824   1.470
  156SOL    HW1 1367   6.977   1.851   1.565
  156SOL    HW2 1368   7.020   1.885   1.412
  157SOL     OW 1369   5.925   3.835   1.999
  157SOL    HW1 1370   5.878   3.885   2.071
  157SOL    HW2 1371   5.900   3.872   1.910
  158SOL     OW 1372   2.964   0.173   2.484
  158SOL    HW1 1373   3.028   0.158   2.559
  158SOL    HW2 1374   2.904   0.249   2.506
  159SOL     OW 1375   4.583   4.389   1.602
  159SOL    HW1 1376   4.593   4.293   1.626
  159SOL    HW2 1377   4.494   4.422   1.633
  160SOL     OW 1378   0.059   4.689   6.705
  160SOL    HW1 1379   7.004   4.730   6.748
  160SOL    HW2 1380   0.108   4.760   6.654
  161SOL     OW 1381   1.244   5.091   4.437
  161SOL    HW1 1382   1.173   5.086   4.367
  161SOL    HW2 1383   1.316   5.025   4.418
  162SOL     OW 1384   4.018   6.478   0.449
  162SOL    HW1 1385   4.031   6.577   0.458
  162SOL    HW2 1386   4.102   6.437   0.411
  163SOL     OW 1387   5.218   5.669   1.136
  163SOL    HW1 1388   5.158   5.589   1.138
  163SOL    HW2 1389   5.174   5.744   1.185
  164SOL     OW 1390   6.617   3.958   1.307
  164SOL    HW1 1391   6.619   3.859   1.312
  164SOL    HW2 1392   6.584   3.987   1.217
  165SOL     OW 1393   5.570   3.260   1.182
  165SOL    HW1 1394   5.543   3.246   1.277
  165SOL    HW2 1395   5.490   3.252   1.123
  166SOL     OW 1396   0.474   4.958   3.947
  166SOL    HW1 1397   0.538   4.973   4.023
  166SOL    HW2 1398   0.380   4.969   3.980
  167SOL     OW 1399   5.928   2.064   0.786
  167SOL    HW1 1400   5.933   2.094   0.691
  167SOL    HW2 1401   5.835   2.033   0.806
  168SOL     OW 1402   2.803   3.416   1.010
  168SOL    HW1 1403   2.833   3.322   1.027
  168SOL    HW2 1404   2.765   3.424   0.918
  169SOL     OW 1405   3.704   0.355   2.524
  169SOL    HW1 1406   3.785   0.354   2.466
  169SOL    HW2 1407   3.629   0.402   2.477
  170SOL     OW 1408   0.287   1.805   3.401
  170SOL    HW1 1409   0.268   1.866   3.478
  170SOL    HW2 1410   0.234   1.834   3.321
  171SOL     OW 1411   4.024   4.515   0.284
  171SOL    HW1 1412   4.122   4.529   0.298
  171SOL    HW2 1413   4.010   4.440   0.219
  172SOL     OW 1414   6.295   1.866   4.529
  172SOL    HW1 1415   6.280   1.778   4.572
  172SOL    HW2 1416   6.359   1.920   4.583
  173SOL     OW 1417   6.183   1.216   4.542
  173SOL    HW1 1418   6.118   1.259   4.606
  173SOL    HW2 1419   6.164   1.248   4.449
  174SOL     OW 1420   3.036   5.443   4.588
  174SOL    HW1 1421   3.068   5.465   4.680
  174SOL    HW2 1422   3.004   5.527   4.543
  175SOL     OW 1423   1.825   6.704   1.825
  175SOL    HW1 1424   1.894   6.771   1.853
  175SOL    HW2 1425   1.867   6.614   1.818
  176SOL     OW 1426   1.495   4.075   0.493
  176SOL    HW1 1427   1.511   4.149   0.559
  176SOL    HW2 1428   1.484   3.989   0.542
  177SOL     OW 1429   5.921   3.033   2.599
  177SOL    HW1 1430   5.822   3.042   2.608
  177SOL    HW2 1431   5.943   2.999   2.508
  178SOL     OW 1432   4.900   3.450   5.959
  178SOL    HW1 1433   4.914   3.469   5.862
  178SOL    HW2 1434   4.866   3.357   5.970
  179SOL     OW 1435   3.007   1.870   6.117
  179SOL    HW1 1436   3.030   1.882   6.213
  179SOL    HW2 1437   3.078   1.814   6.072
  180SOL     OW 1438   1.240   0.135   6.208
  180SOL    HW1 1439   1.162   0.086   6.247
  180SOL    HW2 1440   1.296   0.172   6.282
  181SOL     OW 1441   3.695   1.258   6.618
  181SOL    HW1 1442   3.722   1.185   6.682
  181SOL    HW2 1443   3.746   1.248   6.533
  182SOL     OW 1444   3.969   1.954   4.604
  182SOL    HW1 1445   3.884   2.004   4.619
  182SOL    HW2 1446   4.031   1.970   4.680
  183SOL     OW 1447   3.559   1.548   3.879
  183SOL    HW1 1448   3.634   1.505   3.930
  183SOL    HW2 1449   3.523   1.625   3.932
  184SOL     OW 1450   1.216   5.562   3.923
  184SOL    HW1 1451   1.216   5.619   4.004
  184SOL    HW2 1452   1.281   5.598   3.856
  185SOL     OW 1453   1.068   2.534   6.697
  185SOL    HW1 1454   1.045   2.630   6.712
  185SOL    HW2 1455   1.036   2.506   6.606
  186SOL     OW 1456   6.609   1.325   3.518
  186SOL    HW1 1457   6.514   1.343   3.542
  186SOL    HW2 1458   6.619   1.330   3.418
  187SOL     OW 1459   4.557   0.821   3.186
  187SOL    HW1 1460   4.647   0.809   3.145
  187SOL    HW2 1461   4.541   0.919   3.200
  188SOL     OW 1462   6.221   1.996   3.217
  188SOL    HW1 1463   6.138   1.972   3.167
  188SOL    HW2 1464   6.213   2.090   3.250
  189SOL     OW 1465   1.847   5.474   2.864
  189SOL    HW1 1466   1.856   5.539   2.788
  189SOL    HW2 1467   1.864   5.521   2.950
  190SOL     OW 1468   3.854   1.110   4.616
  190SOL    HW1 1469   3.781   1.154   4.563
  190SOL    HW2 1470   3.819   1.026   4.656
  191SOL     OW 1471   5.559   5.582   6.181
  191SOL    HW1 1472   5.530   5.602   6.088
  191SOL    HW2 1473   5.655   5.552   6.181
  192SOL     OW 1474   0.158   5.574   1.887
  192SOL    HW1 1475   0.078   5.514   1.878
  192SOL    HW2 1476   0.168   5.630   1.805
  193SOL     OW 1477   4.923   2.834   5.300
  193SOL    HW1 1478   4.995   2.834   5.370
  193SOL    HW2 1479   4.837   2.864   5.341
  194SOL     OW 1480   3.689   1.058   2.928
  194SOL    HW1 1481   3.776   1.033   2.971
  194SOL    HW2 1482   3.667   0.992   2.856
  195SOL     OW 1483   2.117   5.984   3.698
  195SOL    HW1 1484   2.092   5.904   3.752
  195SOL    HW2 1485   2.140   5.956   3.605
  196SOL     OW 1486   2.491   1.849   6.659
  196SOL    HW1 1487   2.566   1.805   6.708
  196SOL    HW2 1488   2.475   1.941   6.696
  197SOL     OW 1489   2.451   1.172   0.268
  197SOL    HW1 1490   2.469   1.094   0.208
  197SOL    HW2 1491   2.394   1.143   0.345
  198SOL     OW 1492   4.620   1.646   3.283
  198SOL    HW1 1493   4.546   1.705   3.250
  198SOL    HW2 1494   4.695   1.701   3.317
  199SOL     OW 1495   1.009   2.316   3.975
  199SOL    HW1 1496   1.025   2.325   4.073
  199SOL    HW2 1497   1.092   2.341   3.925
  200SOL     OW 1498   1.652   3.145   1.097
  200SOL    HW1 1499   1.669   3.094   1.181
  200SOL    HW2 1500   1.668   3.242   1.112
  201SOL     OW 1501   0.340   6.811   5.221
  201SOL    HW1 1502   0.334   6.711   5.231
  201SOL    HW2 1503   0.346   6.835   5.124
  202SOL     OW 1504   3.867   1.609   6.469
  202SOL    HW1 1505   3.960   1.576   6.450
  202SOL    HW2 1506   3.871   1.678   6.542
  203SOL     OW 1507   5.790   2.263   5.577
  203SOL    HW1 1508   5.715   2.206   5.610
  203SOL    HW2 1509   5.753   2.348   5.540
  204SOL     OW 1510   0.584   0.353   4.781
  204SOL    HW1 1511   0.603   0.303   4.697
  204SOL    HW2 1512   0.631   0.309   4.858
  205SOL     OW 1513   1.740   2.419   2.757
  205SOL    HW1 1514   1.695   2.366   2.686
  205SOL    HW2 1515   1.677   2.489   2.791
  206SOL     OW 1516   0.991   2.938   1.352
  206SOL    HW1 1517   0.981   3.029   1.391
  206SOL    HW2 1518   1.040   2.879   1.417
  207SOL     OW 1519   5.157   0.879   3.463
  207SOL    HW1 1520   5.148   0.800   3.402
  207SOL    HW2 1521   5.245   0.875   3.510
  208SOL     OW 1522   0.101   3.922   5.578
  208SOL    HW1 1523   0.036   3.867   5.526
  208SOL    HW2 1524   0.180   3.944   5.520
  209SOL     OW 1525   6.588   4.533   3.088
  209SOL    HW1 1526   6.525   4.552   3.013
  209SOL    HW2 1527   6.630   4.443   3.074
  210SOL     OW 1528   4.324   1.892   0.573
  210SOL    HW1 1529   4.349   1.799   0.600
  210SOL    HW2 1530   4.255   1.927   0.635
  211SOL     OW 1531   0.910   6.877   2.416
  211SOL    HW1 1532   0.995   6.892   2.468
  211SOL    HW2 1533   0.832   6.901   2.474
  212SOL     OW 1534   1.285   3.853   2.405
  212SOL    HW1 1535   1.267   3.909   2.486
  212SOL    HW2 1536   1.374   3.878   2.367
  213SOL     OW 1537   1.552   5.675   0.953
  213SOL    HW1 1538   1.627   5.635   0.899
  213SOL    HW2 1539   1.544   5.772   0.933
  214SOL     OW 1540   3.584   5.064   2.572
  214SOL    HW1 1541   3.558   5.088   2.666
  214SOL    HW2 1542   3.640   5.138   2.534
  215SOL     OW 1543   2.458   4.109   1.221
  215SOL    HW1 1544   2.405   4.061   1.291
  215SOL    HW2 1545   2.497   4.043   1.156
  216SOL     OW 1546   0.450   6.506   3.171
  216SOL    HW1 1547   0.494   6.494   3.260
  216SOL    HW2 1548   0.395   6.589   3.172
  217SOL     OW 1549   1.223   2.341   5.284
  217SOL    HW1 1550   1.126   2.322   5.300
  217SOL    HW2 1551   1.276   2.256   5.291
  218SOL     OW 1552   0.805   2.642   4.928
  218SOL    HW1 1553   0.873   2.697   4.879
  218SOL    HW2 1554   0.734   2.611   4.864
  219SOL     OW 1555   4.334   0.406   0.673
  219SOL    HW1 1556   4.359   0.497   0.704
  219SOL    HW2 1557   4.250   0.377   0.719
  220SOL     OW 1558   2.311   6.944   0.701
  220SOL    HW1 1559   2.392   6.982   0.746
  220SOL    HW2 1560   2.310   6.972   0.605
  221SOL     OW 1561   6.224   4.299   1.527
  221SOL    HW1 1562   6.302   4.246   1.494
  221SOL    HW2 1563   6.139   4.248   1.513
  222SOL     OW 1564   1.733   4.613   6.053
  222SOL    HW1 1565   1.743   4.521   6.090
  222SOL    HW2 1566   1.693   4.608   5.962
  223SOL     OW 1567   6.915   2.832   5.138
  223SOL    HW1 1568   6.973   2.824   5.057
  223SOL    HW2 1569   6.890   2.740   5.170
  224SOL     OW 1570   3.503   1.317   6.847
  224SOL    HW1 1571   3.550   1.273   6.771
  224SOL    HW2 1572   3.457   1.248   6.903
  225SOL     OW 1573   4.455   4.136   6.449
  225SOL    HW1 1574   4.368   4.181   6.434
  225SOL    HW2 1575   4.529   4.204   6.450
  226SOL     OW 1576   0.374   1.663   6.070
  226SOL    HW1 1577   0.439   1.597   6.108
  226SOL    HW2 1578   0.379   1.748   6.122
  227SOL     OW 1579   2.240   4.069   2.766
  227SOL    HW1 1580   2.338   4.087   2.761
  227SOL    HW2 1581   2.211   4.022   2.683
  228SOL     OW 1582   1.770   0.615   2.791
  228SOL    HW1 1583   1.836   0.594   2.719
  228SOL    HW2 1584   1.806   0.584   2.879
  229SOL     OW 1585   5.262   5.215   6.212
  229SOL    HW1 1586   5.242   5.299   6.161
  229SOL    HW2 1587   5.176   5.174   6.242
  230SOL     OW 1588   4.624   5.828   4.572
  230SOL    HW1 1589   4.618   5.851   4.669
  230SOL    HW2 1590   4.676   5.744   4.560
  231SOL     OW 1591   6.048   1.415   6.548
  231SOL    HW1 1592   6.099   1.345   6.599
  231SOL    HW2 1593   5.955   1.382   6.532
  232SOL     OW 1594   0.629   3.252   6.265
  232SOL    HW1 1595   0.654   3.231   6.171
  232SOL    HW2 1596   0.644   3.173   6.323
  233SOL     OW 1597   3.991   1.847   3.343
  233SOL    HW1 1598   3.995   1.838   3.243
  233SOL    HW2 1599   3.904   1.811   3.376
  234SOL     OW 1600   6.284   1.030   6.302
  234SOL    HW1 1601   6.190   0.994   6.308
  234SOL    HW2 1602   6.344   0.976   6.362
  235SOL     OW 1603   4.883   3.411   2.352
  235SOL    HW1 1604   4.840   3.361   2.427
  235SOL    HW2 1605   4.877   3.356   2.268
  236SOL     OW 1606   5.149   2.710   6.908
  236SOL    HW1 1607   5.232   2.731   6.857
  236SOL    HW2 1608   5.135   2.778   6.980
  237SOL     OW 1609   0.339   4.124   2.032
  237SOL    HW1 1610   0.274   4.194   2.060
  237SOL    HW2 1611   0.290   4.039   2.010
  238SOL     OW 1612   6.220   1.588   0.709
  238SOL    HW1 1613   6.318   1.597   0.692
  238SOL    HW2 1614   6.205   1.535   0.792
  239SOL     OW 1615   1.129   3.936   6.981
  239SOL    HW1 1616   1.220   3.896   6.994
  239SOL    HW2 1617   1.135   4.035   6.989
  240SOL     OW 1618   0.697   2.783   3.279
  240SOL    HW1 1619   0.779   2.731   3.254
  240SOL    HW2 1620   0.703   2.875   3.241
  241SOL     OW 1621   2.948   2.273   4.581
  241SOL    HW1 1622   2.927   2.261   4.678
  241SOL    HW2 1623   3.034   2.227   4.559
  242SOL     OW 1624   3.550   3.288   3.637
  242SOL    HW1 1625   3.628   3.289   3.699
  242SOL    HW2 1626   3.531   3.381   3.606
  243SOL     OW 1627   4.519   1.983   0.275
  243SOL    HW1 1628   4.575   1.985   0.193
  243SOL    HW2 1629   4.578   1.981   0.356
  244SOL     OW 1630   5.763   4.048   5.322
  244SOL    HW1 1631   5.860   4.059   5.342
  244SOL    HW2 1632   5.709   4.069   5.404
  245SOL     OW 1633   4.814   2.111   3.708
  245SOL    HW1 1634   4.735   2.051   3.696
  245SOL    HW2 1635   4.856   2.092   3.797
  246SOL     OW 1636   4.997   1.579   3.437
  246SOL    HW1 1637   5.024   1.590   3.341
  246SOL    HW2 1638   4.903   1.610   3.449
  247SOL     OW 1639   2.469   1.444   0.570
  247SOL    HW1 1640   2.566   1.428   0.588
  247SOL    HW2 1641   2.459   1.522   0.508
  248SOL     OW 1642   2.444   0.830   2.782
  248SOL    HW1 1643   2.352   0.808   2.751
  248SOL    HW2 1644   2.467   0.773   2.861
  249SOL     OW 1645   5.173   6.733   5.645
  249SOL    HW1 1646   5.264   6.694   5.653
  249SOL    HW2 1647   5.158   6.767   5.552
  250SOL     OW 1648   4.223   3.913   0.603
  250SOL    HW1 1649   4.295   3.887   0.538
  250SOL    HW2 1650   4.220   4.012   0.612
  251SOL     OW 1651   4.529   3.387   5.380
  251SOL    HW1 1652   4.565   3.452   5.447
  251SOL    HW2 1653   4.540   3.426   5.288
  252SOL     OW 1654   6.567   6.829   5.274
  252SOL    HW1 1655   6.535   6.801   5.183
  252SOL    HW2 1656   6.523   6.772   5.343
  253SOL     OW 1657   3.676   5.166   6.209
  253SOL    HW1 1658   3.722   5.093   6.160
  253SOL    HW2 1659   3.637   5.231   6.144
  254SOL     OW 1660   6.782   2.397   3.552
  254SOL    HW1 1661   6.845   2.426   3.624
  254SOL    HW2 1662   6.829   2.398   3.464
  255SOL     OW 1663   2.328   4.291   5.599
  255SOL    HW1 1664   2.390   4.217   5.576
  255SOL    HW2 1665   2.297   4.337   5.516
  256SOL     OW 1666   5.827   3.002   6.249
  256SOL    HW1 1667   5.798   2.995   6.345
  256SOL    HW2 1668   5.785   2.927   6.197
  257SOL     OW 1669   5.248   0.164   3.119
  257SOL    HW1 1670   5.223   0.223   3.042
  257SOL    HW2 1671   5.221   0.208   3.204
  258SOL     OW 1672   2.417   4.074   5.437
  258SOL    HW1 1673   2.327   4.040   5.462
  258SOL    HW2 1674   2.441   4.038   5.346
  259SOL     OW 1675   5.947   0.826   2.120
  259SOL    HW1 1676   5.973   0.873   2.036
  259SOL    HW2 1677   5.934   0.894   2.193
  260SOL     OW 1678   4.053   5.896   3.230
  260SOL    HW1 1679   4.012   5.869   3.143
  260SOL    HW2 1680   4.039   5.994   3.245
  261SOL     OW 1681   5.411   3.746   1.613
  261SOL    HW1 1682   5.368   3.712   1.530
  261SOL    HW2 1683   5.391   3.685   1.689
  262SOL     OW 1684   1.049   3.952   0.284
  262SOL    HW1 1685   0.965   4.004   0.272
  262SOL    HW2 1686   1.107   3.996   0.353
  263SOL     OW 1687   1.568   0.699   4.440
  263SOL    HW1 1688   1.629   0.700   4.362
  263SOL    HW2 1689   1.544   0.793   4.466
  264SOL     OW 1690   6.640   2.220   0.133
  264SOL    HW1 1691   6.653   2.146   0.199
  264SOL    HW2 1692   6.551   2.263   0.147
  265SOL     OW 1693   5.986   6.412   2.516
  265SOL    HW1 1694   5.975   6.506   2.548
  265SOL    HW2 1695   6.012   6.353   2.592
  266SOL     OW 1696   4.517   3.193   5.779
  266SOL    HW1 1697   4.427   3.179   5.739
  266SOL    HW2 1698   4.510   3.259   5.854
  267SOL     OW 1699   0.635   1.812   5.948
  267SOL    HW1 1700   0.553   1.773   5.991
  267SOL    HW2 1701   0.616   1.832   5.852
  268SOL     OW 1702   2.785   1.032   6.207
  268SOL    HW1 1703   2.719   1.039   6.281
  268SOL    HW2 1704   2.737   1.025   6.119
  269SOL     OW 1705   2.139   4.098   0.932
  269SOL    HW1 1706   2.170   4.006   0.956
  269SOL    HW2 1707   2.130   4.105   0.833
  270SOL     OW 1708   0.584   6.209   1.150
  270SOL    HW1 1709   0.570   6.227   1.053
  270SOL    HW2 1710   0.578   6.110   1.167
  271SOL     OW 1711   6.971   1.602   6.132
  271SOL    HW1 1712   7.015   1.535   6.073
  271SOL    HW2 1713   7.023   1.687   6.131
  272SOL     OW 1714   3.528   6.661   4.023
  272SOL    HW1 1715   3.491   6.655   3.930
  272SOL    HW2 1716   3.532   6.757   4.051
  273SOL     OW 1717   2.069   4.639   4.678
  273SOL    HW1 1718   2.157   4.672   4.643
  273SOL    HW2 1719   2.073   4.634   4.778
  274SOL     OW 1720   3.768   1.642   3.359
  274SOL    HW1 1721   3.810   1.557   3.392
  274SOL    HW2 1722   3.691   1.621   3.299
  275SOL     OW 1723   6.138   6.037   2.514
  275SOL    HW1 1724   6.042   6.033   2.540
  275SOL    HW2 1725   6.190   6.084   2.585
  276SOL     OW 1726   6.887   6.882   4.087
  276SOL    HW1 1727   6.865   6.978   4.067
  276SOL    HW2 1728   6.802   6.829   4.085
  277SOL     OW 1729   1.954   4.055   0.276
  277SOL    HW1 1730   1.916   4.147   0.263
  277SOL    HW2 1731   2.054   4.062   0.283
  278SOL     OW 1732   0.004   3.539   2.090
  278SOL    HW1 1733   0.077   3.597   2.128
  278SOL    HW2 1734   0.038   3.445   2.082
  279SOL     OW 1735   5.720   2.956   4.697
  279SOL    HW1 1736   5.637   3.004   4.726
  279SOL    HW2 1737   5.738   2.880   4.760
  280SOL     OW 1738   2.952   5.468   1.798
  280SOL    HW1 1739   3.045   5.436   1.782
  280SOL    HW2 1740   2.911   5.414   1.872
  281SOL     OW 1741   2.430   4.765   1.839
  281SOL    HW1 1742   2.520   4.800   1.863
  281SOL    HW2 1743   2.395   4.707   1.913
  282SOL     OW 1744   2.880   1.333   5.566
  282SOL    HW1 1745   2.821   1.300   5.492
  282SOL    HW2 1746   2.881   1.433   5.565
  283SOL     OW 1747   6.376   2.540   6.605
  283SOL    HW1 1748   6.437   2.476   6.650
  283SOL    HW2 1749   6.408   2.634   6.621
  284SOL     OW 1750   1.244   3.150   3.987
  284SOL    HW1 1751   1.342   3.149   4.011
  284SOL    HW2 1752   1.192   3.189   4.063
  285SOL     OW 1753   5.128   4.775   4.000
  285SOL    HW1 1754   5.204   4.797   4.061
  285SOL    HW2 1755   5.051   4.739   4.052
  286SOL     OW 1756   3.259   4.683   0.177
  286SOL    HW1 1757   3.204   4.675   0.094
  286SOL    HW2 1758   3.321   4.605   0.184
  287SOL     OW 1759   1.027   3.040   1.059
  287SOL    HW1 1760   1.015   3.022   1.156
  287SOL    HW2 1761   1.095   2.976   1.022
  288SOL     OW 1762   3.438   1.544   6.687
  288SOL    HW1 1763   3.477   1.469   6.740
  288SOL    HW2 1764   3.504   1.572   6.616
  289SOL     OW 1765   1.978   4.279   5.265
  289SOL    HW1 1766   1.893   4.277   5.212
  289SOL    HW2 1767   2.004   4.185   5.289
  290SOL     OW 1768   6.083   1.662   4.758
  290SOL    HW1 1769   6.001   1.719   4.759
  290SOL    HW2 1770   6.156   1.708   4.809
  291SOL     OW 1771   0.403   1.822   4.159
  291SOL    HW1 1772   0.376   1.894   4.095
  291SOL    HW2 1773   0.494   1.841   4.195
  292SOL     OW 1774   1.598   1.076   2.861
  292SOL    HW1 1775   1.629   1.097   2.953
  292SOL    HW2 1776   1.634   1.144   2.797
  293SOL     OW 1777   4.507   5.843   3.227
  293SOL    HW1 1778   4.477   5.815   3.135
  293SOL    HW2 1779   4.432   5.833   3.291
  294SOL     OW 1780   6.405   5.842   6.654
  294SOL    HW1 1781   6.438   5.778   6.585
  294SOL    HW2 1782   6.321   5.886   6.622
  295SOL     OW 1783   3.582   0.860   2.776
  295SOL    HW1 1784   3.562   0.763   2.761
  295SOL    HW2 1785   3.506   0.915   2.742
  296SOL     OW 1786   3.259   1.386   2.574
  296SOL    HW1 1787   3.236   1.376   2.477
  296SOL    HW2 1788   3.342   1.334   2.594
  297SOL     OW 1789   2.236   4.545   3.525
  297SOL    HW1 1790   2.137   4.557   3.522
  297SOL    HW2 1791   2.280   4.632   3.548
  298SOL     OW 1792   4.635   6.306   1.411
  298SOL    HW1 1793   4.569   6.255   1.466
  298SOL    HW2 1794   4.590   6.339   1.327
  299SOL     OW 1795   5.839   3.536   5.364
  299SOL    HW1 1796   5.777   3.612   5.343
  299SOL    HW2 1797   5.927   3.572   5.393
  300SOL     OW 1798   6.573   0.740   2.647
  300SOL    HW1 1799   6.486   0.766   2.689
  300SOL    HW2 1800   6.557   0.673   2.574
  301SOL     OW 1801   5.628   3.623   0.146
  301SOL    HW1 1802   5.654   3.537   0.191
  301SOL    HW2 1803   5.602   3.690   0.215
  302SOL     OW 1804   1.287   0.190   3.385
  302SOL    HW1 1805   1.267   0.212   3.481
  302SOL    HW2 1806   1.256   0.265   3.327
  303SOL     OW 1807   5.374   0.929   2.117
  303SOL    HW1 1808   5.437   0.970   2.182
  303SOL    HW2 1809   5.313   0.866   2.164
  304SOL     OW 1810   1.943   0.238   3.219
  304SOL    HW1 1811   1.985   0.259   3.131
  304SOL    HW2 1812   1.846   0.215   3.206
  305SOL     OW 1813   0.570   3.612   6.919
  305SOL    HW1 1814   0.501   3.588   6.851
  305SOL    HW2 1815   0.604   3.704   6.901
  306SOL     OW 1816   1.421   1.592   4.197
  306SOL    HW1 1817   1.441   1.638   4.110
  306SOL    HW2 1818   1.487   1.518   4.211
  307SOL     OW 1819   4.881   7.025   1.206
  307SOL    HW1 1820   4.794   0.047   1.196
  307SOL    HW2 1821   4.864   6.927   1.217
  308SOL     OW 1822   0.186   5.325   3.904
  308SOL    HW1 1823   0.138   5.407   3.936
  308SOL    HW2 1824   0.282   5.330   3.931
  309SOL     OW 1825   3.820   4.409   5.302
  309SOL    HW1 1826   3.911   4.444   5.278
  309SOL    HW2 1827   3.787   4.349   5.230
  310SOL     OW 1828   6.115   6.775   5.697
  310SOL    HW1 1829   6.164   6.840   5.754
  310SOL    HW2 1830   6.084   6.821   5.613
  311SOL     OW 1831   6.812   5.134   1.844
  311SOL    HW1 1832   6.797   5.099   1.936
  311SOL    HW2 1833   6.727   5.174   1.810
  312SOL     OW 1834   4.797   1.386   4.657
  312SOL    HW1 1835   4.779   1.430   4.568
  312SOL    HW2 1836   4.823   1.457   4.723
  313SOL     OW 1837   2.564   4.335   1.650
  313SOL    HW1 1838   2.595   4.430   1.652
  313SOL    HW2 1839   2.640   4.275   1.627
  314SOL     OW 1840   3.629   5.764   0.558
  314SOL    HW1 1841   3.675   5.815   0.485
  314SOL    HW2 1842   3.692   5.695   0.595
  315SOL     OW 1843   0.916   2.362   3.151
  315SOL    HW1 1844   0.901   2.339   3.055
  315SOL    HW2 1845   0.830   2.391   3.193
  316SOL     OW 1846   2.286   2.914   4.340
  316SOL    HW1 1847   2.255   2.962   4.422
  316SOL    HW2 1848   2.348   2.840   4.366
  317SOL     OW 1849   0.694   1.522   0.012
  317SOL    HW1 1850   0.599   1.490   0.010
  317SOL    HW2 1851   0.755   1.443   0.021
  318SOL     OW 1852   1.601   4.862   1.089
  318SOL    HW1 1853   1.548   4.942   1.118
  318SOL    HW2 1854   1.681   4.853   1.148
  319SOL     OW 1855   1.150   6.919   1.936
  319SOL    HW1 1856   1.184   7.002   1.980
  319SOL    HW2 1857   1.066   6.890   1.981
  320SOL     OW 1858   5.980   2.384   0.048
  320SOL    HW1 1859   6.073   2.405   0.017
  320SOL    HW2 1860   5.955   2.292   0.019
  321SOL     OW 1861   2.009   1.934   2.231
  321SOL    HW1 1862   1.961   1.894   2.153
  321SOL    HW2 1863   2.063   1.863   2.277
  322SOL     OW 1864   3.405   2.939   4.233
  322SOL    HW1 1865   3.343   3.003   4.188
  322SOL    HW2 1866   3.383   2.934   4.330
  323SOL     OW 1867   0.542   4.055   0.694
  323SOL    HW1 1868   0.571   4.060   0.790
  323SOL    HW2 1869   0.559   4.142   0.649
  324SOL     OW 1870   0.932   2.822   4.472
  324SOL    HW1 1871   0.871   2.867   4.538
  324SOL    HW2 1872   0.972   2.890   4.411
  325SOL     OW 1873   2.320   3.525   1.081
  325SOL    HW1 1874   2.274   3.606   1.117
  325SOL    HW2 1875   2.365   3.477   1.156
  326SOL     OW 1876   1.460   6.337   6.751
  326SOL    HW1 1877   1.395   6.265   6.726
  326SOL    HW2 1878   1.481   6.331   6.849
  327SOL     OW 1879   0.445   4.940   4.755
  327SOL    HW1 1880   0.544   4.926   4.747
  327SOL    HW2 1881   0.397   4.856   4.729
  328SOL     OW 1882   3.713   5.439   2.740
  328SOL    HW1 1883   3.616   5.450   2.720
  328SOL    HW2 1884   3.728   5.352   2.787
  329SOL     OW 1885   3.082   3.777   3.587
  329SOL    HW1 1886   3.177   3.764   3.613
  329SOL    HW2 1887   3.074   3.854   3.525
  330SOL     OW 1888   3.097   6.598   2.072
  330SOL    HW1 1889   3.103   6.625   2.168
  330SOL    HW2 1890   3.091   6.499   2.066
  331SOL     OW 1891   4.652   5.698   6.210
  331SOL    HW1 1892   4.722   5.698   6.139
  331SOL    HW2 1893   4.610   5.789   6.216
  332SOL     OW 1894   3.386   1.732   3.453
  332SOL    HW1 1895   3.383   1.755   3.356
  332SOL    HW2 1896   3.363   1.636   3.465
  333SOL     OW 1897   4.182   0.143   5.744
  333SOL    HW1 1898   4.235   0.199   5.808
  333SOL    HW2 1899   4.242   0.072   5.705
  334SOL     OW 1900   3.108   6.908   2.148
  334SOL    HW1 1901   3.018   6.912   2.104
  334SOL    HW2 1902   3.101   6.859   2.234
  335SOL     OW 1903   4.010   6.023   3.908
  335SOL    HW1 1904   4.061   5.938   3.924
  335SOL    HW2 1905   3.935   6.005   3.844
  336SOL     OW 1906   2.095   1.169   3.135
  336SOL    HW1 1907   2.093   1.071   3.116
  336SOL    HW2 1908   2.011   1.211   3.100
  337SOL     OW 1909   0.005   3.271   1.561
  337SOL    HW1 1910   0.089   3.234   1.601
  337SOL    HW2 1911   0.015   3.370   1.548
  338SOL     OW 1912   2.903   3.108   1.709
  338SOL    HW1 1913   2.944   3.134   1.796
  338SOL    HW2 1914   2.901   3.187   1.648
  339SOL     OW 1915   3.853   0.395   3.067
  339SOL    HW1 1916   3.834   0.404   2.969
  339SOL    HW2 1917   3.793   0.324   3.106
  340SOL     OW 1918   5.777   4.318   4.793
  340SOL    HW1 1919   5.843   4.346   4.862
  340SOL    HW2 1920   5.823   4.258   4.727
  341SOL     OW 1921   5.408   6.200   4.329
  341SOL    HW1 1922   5.507   6.190   4.322
  341SOL    HW2 1923   5.363   6.133   4.271
  342SOL     OW 1924   5.449   4.510   0.059
  342SOL    HW1 1925   5.384   4.587   0.061
  342SOL    HW2 1926   5.400   4.425   0.079
  343SOL     OW 1927   3.018   6.570   1.803
  343SOL    HW1 1928   2.943   6.523   1.758
  343SOL    HW2 1929   2.995   6.585   1.899
  344SOL     OW 1930   2.050   5.163   0.410
  344SOL    HW1 1931   2.051   5.132   0.505
  344SOL    HW2 1932   2.057   5.083   0.349
  345SOL     OW 1933   0.736   0.495   5.646
  345SOL    HW1 1934   0.643   0.528   5.666
  345SOL    HW2 1935   0.731   0.403   5.608
  346SOL     OW 1936   1.479   0.561   3.218
  346SOL    HW1 1937   1.387   0.565   3.256
  346SOL    HW2 1938   1.483   0.491   3.146
  347SOL     OW 1939   5.583   6.750   6.542
  347SOL    HW1 1940   5.556   6.844   6.562
  347SOL    HW2 1941   5.647   6.748   6.465
  348SOL     OW 1942   4.025   5.101   1.556
  348SOL    HW1 1943   4.019   5.010   1.515
  348SOL    HW2 1944   4.114   5.113   1.600
  349SOL     OW 1945   0.642   4.277   2.285
  349SOL    HW1 1946   0.694   4.313   2.207
  349SOL    HW2 1947   0.554   4.324   2.290
  350SOL     OW 1948   3.818   3.647   1.476
  350SOL    HW1 1949   3.755   3.704   1.424
  350SOL    HW2 1950   3.873   3.704   1.537
  351SOL     OW 1951   2.903   1.978   0.522
  351SOL    HW1 1952   2.999   1.991   0.546
  351SOL    HW2 1953   2.875   1.884   0.543
  352SOL     OW 1954   3.677   0.629   5.375
  352SOL    HW1 1955   3.618   0.551   5.353
  352SOL    HW2 1956   3.620   0.705   5.406
  353SOL     OW 1957   2.036   6.467   0.604
  353SOL    HW1 1958   2.065   6.498   0.513
  353SOL    HW2 1959   2.059   6.370   0.614
  354SOL     OW 1960   4.095   2.324   0.611
  354SOL    HW1 1961   4.085   2.255   0.539
  354SOL    HW2 1962   4.191   2.330   0.639
  355SOL     OW 1963   6.861   3.253   2.833
  355SOL    HW1 1964   6.851   3.319   2.759
  355SOL    HW2 1965   6.959   3.240   2.852
  356SOL     OW 1966   4.707   5.209   5.088
  356SOL    HW1 1967   4.742   5.219   4.994
  356SOL    HW2 1968   4.719   5.294   5.138
  357SOL     OW 1969   0.573   6.055   5.179
  357SOL    HW1 1970   0.565   6.044   5.278
  357SOL    HW2 1971   0.590   6.151   5.157
  358SOL     OW 1972   6.523   0.328   1.573
  358SOL    HW1 1973   6.578   0.328   1.656
  358SOL    HW2 1974   6.583   0.317   1.494
  359SOL     OW 1975   1.418   2.482   2.351
  359SOL    HW1 1976   1.441   2.578   2.367
  359SOL    HW2 1977   1.460   2.451   2.266
  360SOL     OW 1978   3.983   6.464   6.382
  360SOL    HW1 1979   3.931   6.380   6.394
  360SOL    HW2 1980   3.997   6.482   6.284
  361SOL     OW 1981   5.171   5.459   3.140
  361SOL    HW1 1982   5.206   5.508   3.220
  361SOL    HW2 1983   5.187   5.515   3.058
  362SOL     OW 1984   2.512   4.498   0.303
  362SOL    HW1 1985   2.565   4.486   0.387
  362SOL    HW2 1986   2.575   4.515   0.227
  363SOL     OW 1987   3.817   4.912   4.512
  363SOL    HW1 1988   3.909   4.907   4.472
  363SOL    HW2 1989   3.824   4.932   4.609
  364SOL     OW 1990   0.708   5.441   5.918
  364SOL    HW1 1991   0.673   5.520   5.866
  364SOL    HW2 1992   0.738   5.370   5.854
  365SOL     OW 1993   5.332   5.768   2.542
  365SOL    HW1 1994   5.398   5.841   2.559
  365SOL    HW2 1995   5.367   5.705   2.473
  366SOL     OW 1996   6.277   1.372   0.001
  366SOL    HW1 1997   6.365   1.420   0.008
  366SOL    HW2 1998   6.203   1.437   0.013
  367SOL     OW 1999   5.092   3.225   1.233
  367SOL    HW1 2000   5.037   3.207   1.151
  367SOL    HW2 2001   5.054   3.304   1.281
  368SOL     OW 2002   1.803   4.573   5.227
  368SOL    HW1 2003   1.777   4.484   5.189
  368SOL    HW2 2004   1.882   4.608   5.177
  369SOL     OW 2005   6.620   4.291   1.632
  369SOL    HW1 2006   6.681   4.369   1.651
  369SOL    HW2 2007   6.664   4.207   1.662
  370SOL     OW 2008   2.486   0.696   5.821
  370SOL    HW1 2009   2.575   0.719   5.861
  370SOL    HW2 2010   2.498   0.628   5.749
  371SOL     OW 2011   2.805   3.482   0.190
  371SOL    HW1 2012   2.706   3.486   0.203
  371SOL    HW2 2013   2.845   3.414   0.251
  372SOL     OW 2014   6.824   0.526   5.004
  372SOL    HW1 2015   6.845   0.573   5.090
  372SOL    HW2 2016   6.901   0.534   4.941
  373SOL     OW 2017   0.051   6.057   6.471
  373SOL    HW1 2018   0.095   6.038   6.384
  373SOL    HW2 2019   0.036   5.972   6.521
  374SOL     OW 2020   3.427   0.224   2.912
  374SOL    HW1 2021   3.419   0.263   2.820
  374SOL    HW2 2022   3.434   0.124   2.905
  375SOL     OW 2023   6.062   4.745   3.517
  375SOL    HW1 2024   6.121   4.787   3.587
  375SOL    HW2 2025   6.013   4.817   3.469
  376SOL     OW 2026   1.684   2.762   4.032
  376SOL    HW1 2027   1.619   2.780   4.105
  376SOL    HW2 2028   1.642   2.704   3.963
  377SOL     OW 2029   5.238   2.179   2.576
  377SOL    HW1 2030   5.264   2.263   2.623
  377SOL    HW2 2031   5.151   2.145   2.612
  378SOL     OW 2032   3.934   3.720   5.846
  378SOL    HW1 2033   3.906   3.656   5.775
  378SOL    HW2 2034   3.957   3.808   5.804
  379SOL     OW 2035   6.096   3.282   1.575
  379SOL    HW1 2036   5.998   3.267   1.586
  379SOL    HW2 2037   6.121   3.267   1.480
  380SOL     OW 2038   1.084   1.263   1.110
  380SOL    HW1 2039   1.084   1.180   1.053
  380SOL    HW2 2040   1.055   1.239   1.203
  381SOL     OW 2041   3.095   4.947   1.364
  381SOL    HW1 2042   3.058   4.896   1.441
  381SOL    HW2 2043   3.101   5.044   1.388
  382SOL     OW 2044   3.716   5.855   0.289
  382SOL    HW1 2045   3.762   5.931   0.334
  382SOL    HW2 2046   3.666   5.889   0.209
  383SOL     OW 2047   6.720   2.786   6.788
  383SOL    HW1 2048   6.650   2.789   6.716
  383SOL    HW2 2049   6.811   2.792   6.747
  384SOL     OW 2050   0.530   5.661   5.766
  384SOL    HW1 2051   0.481   5.647   5.680
  384SOL    HW2 2052   0.465   5.684   5.838
  385SOL     OW 2053   4.862   6.217   0.762
  385SOL    HW1 2054   4.869   6.254   0.670
  385SOL    HW2 2055   4.945   6.166   0.785
  386SOL     OW 2056   3.973   6.275   5.216
  386SOL    HW1 2057   3.881   6.273   5.177
  386SOL    HW2 2058   4.020   6.358   5.186
  387SOL     OW 2059   0.120   0.809   4.187
  387SOL    HW1 2060   0.141   0.874   4.260
  387SOL    HW2 2061   0.192   0.741   4.181
  388SOL     OW 2062   6.668   2.855   5.498
  388SOL    HW1 2063   6.767   2.843   5.506
  388SOL    HW2 2064   6.638   2.825   5.408
  389SOL     OW 2065   4.334   4.424   1.741
  389SOL    HW1 2066   4.244   4.412   1.699
  389SOL    HW2 2067   4.366   4.336   1.776
  390SOL     OW 2068   3.846   1.332   0.492
  390SOL    HW1 2069   3.778   1.396   0.455
  390SOL    HW2 2070   3.842   1.334   0.592
  391SOL     OW 2071   3.260   3.595   6.280
  391SOL    HW1 2072   3.275   3.510   6.331
  391SOL    HW2 2073   3.225   3.574   6.189
  392SOL     OW 2074   1.556   4.107   1.971
  392SOL    HW1 2075   1.552   4.011   2.000
  392SOL    HW2 2076   1.482   4.158   2.015
  393SOL     OW 2077   0.771   4.444   0.786
  393SOL    HW1 2078   0.797   4.362   0.736
  393SOL    HW2 2079   0.843   4.468   0.851
  394SOL     OW 2080   6.569   2.213   6.630
  394SOL    HW1 2081   6.519   2.128   6.647
  394SOL    HW2 2082   6.615   2.242   6.714
  395SOL     OW 2083   4.665   4.443   1.853
  395SOL    HW1 2084   4.637   4.425   1.759
  395SOL    HW2 2085   4.593   4.414   1.915
  396SOL     OW 2086   3.038   1.781   2.746
  396SOL    HW1 2087   3.098   1.742   2.676
  396SOL    HW2 2088   3.051   1.880   2.749
  397SOL     OW 2089   4.788   1.329   5.032
  397SOL    HW1 2090   4.811   1.247   5.085
  397SOL    HW2 2091   4.703   1.313   4.982
  398SOL     OW 2092   1.590   0.053   4.593
  398SOL    HW1 2093   1.619   0.115   4.666
  398SOL    HW2 2094   1.629   0.083   4.506
  399SOL     OW 2095   5.194   5.450   3.905
  399SOL    HW1 2096   5.148   5.487   3.825
  399SOL    HW2 2097   5.291   5.469   3.901
  400SOL     OW 2098   6.299   0.740   4.766
  400SOL    HW1 2099   6.236   0.711   4.694
  400SOL    HW2 2100   6.319   0.663   4.827
  401SOL     OW 2101   6.667   6.491   5.745
  401SOL    HW1 2102   6.683   6.437   5.828
  401SOL    HW2 2103   6.622   6.577   5.768
  402SOL     OW 2104   6.450   0.173   2.867
  402SOL    HW1 2105   6.393   0.128   2.798
  402SOL    HW2 2106   6.529   0.116   2.887
  403SOL     OW 2107   2.836   0.580   6.464
  403SOL    HW1 2108   2.898   0.578   6.386
  403SOL    HW2 2109   2.761   0.516   6.448
  404SOL     OW 2110   3.423   5.525   5.301
  404SOL    HW1 2111   3.476   5.454   5.347
  404SOL    HW2 2112   3.456   5.615   5.330
  405SOL     OW 2113   2.315   4.311   3.448
  405SOL    HW1 2114   2.324   4.405   3.482
  405SOL    HW2 2115   2.316   4.310   3.348
  406SOL     OW 2116   0.223   4.974   5.856
  406SOL    HW1 2117   0.228   4.952   5.759
  406SOL    HW2 2118   0.234   5.073   5.868
  407SOL     OW 2119   1.429   3.310   4.381
  407SOL    HW1 2120   1.398   3.403   4.398
  407SOL    HW2 2121   1.493   3.309   4.304
  408SOL     OW 2122   2.807   1.321   3.304
  408SOL    HW1 2123   2.771   1.328   3.210
  408SOL    HW2 2124   2.737   1.353   3.368
  409SOL     OW 2125   1.401   4.057   2.844
  409SOL    HW1 2126   1.427   4.051   2.940
  409SOL    HW2 2127   1.390   3.965   2.806
  410SOL     OW 2128   1.558   2.334   1.367
  410SOL    HW1 2129   1.584   2.430   1.377
  410SOL    HW2 2130   1.585   2.284   1.449
  411SOL     OW 2131   0.644   2.131   1.415
  411SOL    HW1 2132   0.674   2.113   1.321
  411SOL    HW2 2133   0.572   2.201   1.414
  412SOL     OW 2134   2.117   4.938   2.670
  412SOL    HW1 2135   2.067   4.939   2.756
  412SOL    HW2 2136   2.188   4.867   2.673
  413SOL     OW 2137   4.306   4.908   2.763
  413SOL    HW1 2138   4.327   4.850   2.684
  413SOL    HW2 2139   4.227   4.966   2.743
  414SOL     OW 2140   2.860   6.577   3.697
  414SOL    HW1 2141   2.825   6.668   3.674
  414SOL    HW2 2142   2.786   6.510   3.688
  415SOL     OW 2143   6.667   0.804   0.583
  415SOL    HW1 2144   6.675   0.854   0.497
  415SOL    HW2 2145   6.588   0.838   0.634
  416SOL     OW 2146   4.887   3.386   4.663
  416SOL    HW1 2147   4.790   3.363   4.667
  416SOL    HW2 2148   4.920   3.408   4.755
  417SOL     OW 2149   3.492   2.245   6.601
  417SOL    HW1 2150   3.513   2.321   6.662
  417SOL    HW2 2151   3.444   2.174   6.652
  418SOL     OW 2152   3.739   6.353   4.398
  418SOL    HW1 2153   3.747   6.430   4.461
  418SOL    HW2 2154   3.712   6.386   4.308
  419SOL     OW 2155   0.932   7.015   1.702
  419SOL    HW1 2156   0.958   0.041   1.783
  419SOL    HW2 2157   1.010   6.959   1.671
  420SOL     OW 2158   6.445   0.477   6.171
  420SOL    HW1 2159   6.409   0.398   6.220
  420SOL    HW2 2160   6.442   0.558   6.230
  421SOL     OW 2161   5.136   3.933   3.599
  421SOL    HW1 2162   5.043   3.897   3.597
  421SOL    HW2 2163   5.134   4.031   3.618
  422SOL     OW 2164   5.452   2.632   2.063
  422SOL    HW1 2165   5.502   2.717   2.083
  422SOL    HW2 2166   5.374   2.624   2.125
  423SOL     OW 2167   3.247   1.415   6.553
  423SOL    HW1 2168   3.318   1.456   6.611
  423SOL    HW2 2169   3.176   1.483   6.534
  424SOL     OW 2170   1.394   4.311   3.042
  424SOL    HW1 2171   1.355   4.276   3.127
  424SOL    HW2 2172   1.397   4.411   3.045
  425SOL     OW 2173   3.437   0.271   5.741
  425SOL    HW1 2174   3.536   0.264   5.734
  425SOL    HW2 2175   3.401   0.191   5.788
  426SOL     OW 2176   2.436   2.674   4.399
  426SOL    HW1 2177   2.410   2.595   4.455
  426SOL    HW2 2178   2.535   2.687   4.404
  427SOL     OW 2179   3.982   2.225   3.359
  427SOL    HW1 2180   4.032   2.185   3.281
  427SOL    HW2 2181   3.890   2.251   3.329
  428SOL     OW 2182   2.553   1.504   5.143
  428SOL    HW1 2183   2.501   1.497   5.058
  428SOL    HW2 2184   2.644   1.466   5.129
  429SOL     OW 2185   1.041   5.851   3.714
  429SOL    HW1 2186   1.092   5.922   3.665
  429SOL    HW2 2187   1.101   5.806   3.780
  430SOL     OW 2188   1.681   6.743   3.519
  430SOL    HW1 2189   1.760   6.726   3.578
  430SOL    HW2 2190   1.687   6.834   3.479
  431SOL     OW 2191   2.560   1.929   2.138
  431SOL    HW1 2192   2.524   1.976   2.218
  431SOL    HW2 2193   2.539   1.831   2.145
  432SOL     OW 2194   4.182   2.409   1.393
  432SOL    HW1 2195   4.084   2.398   1.374
  432SOL    HW2 2196   4.209   2.347   1.467
  433SOL     OW 2197   2.151   6.560   6.698
  433SOL    HW1 2198   2.235   6.555   6.752
  433SOL    HW2 2199   2.161   6.629   6.626
  434SOL     OW 2200   3.961   6.559   3.885
  434SOL    HW1 2201   3.906   6.600   3.958
  434SOL    HW2 2202   3.943   6.461   3.880
  435SOL     OW 2203   2.814   1.424   6.023
  435SOL    HW1 2204   2.731   1.413   5.968
  435SOL    HW2 2205   2.892   1.442   5.962
  436SOL     OW 2206   4.590   0.173   2.967
  436SOL    HW1 2207   4.684   0.147   2.988
  436SOL    HW2 2208   4.528   0.099   2.993
  437SOL     OW 2209   6.473   0.017   4.487
  437SOL    HW1 2210   6.382   0.058   4.477
  437SOL    HW2 2211   6.540   0.090   4.502
  438SOL     OW 2212   0.725   4.467   2.883
  438SOL    HW1 2213   0.706   4.443   2.788
  438SOL    HW2 2214   0.665   4.542   2.912
  439SOL     OW 2215   5.684   0.626   3.011
  439SOL    HW1 2216   5.705   0.652   3.105
  439SOL    HW2 2217   5.731   0.688   2.948
  440SOL     OW 2218   4.405   1.062   0.586
  440SOL    HW1 2219   4.408   1.162   0.582
  440SOL    HW2 2220   4.359   1.027   0.505
  441SOL     OW 2221   0.273   4.434   2.791
  441SOL    HW1 2222   0.336   4.439   2.714
  441SOL    HW2 2223   0.263   4.525   2.832
  442SOL     OW 2224   5.947   3.697   5.592
  442SOL    HW1 2225   5.942   3.635   5.670
  442SOL    HW2 2226   5.858   3.740   5.578
  443SOL     OW 2227   4.980   3.417   2.889
  443SOL    HW1 2228   4.923   3.486   2.935
  443SOL    HW2 2229   5.011   3.454   2.801
  444SOL     OW 2230   4.453   1.084   1.334
  444SOL    HW1 2231   4.529   1.118   1.278
  444SOL    HW2 2232   4.423   1.157   1.396
  445SOL     OW 2233   1.466   5.218   2.375
  445SOL    HW1 2234   1.376   5.262   2.372
  445SOL    HW2 2235   1.456   5.121   2.355
  446SOL     OW 2236   5.875   6.730   1.792
  446SOL    HW1 2237   5.885   6.804   1.726
  446SOL    HW2 2238   5.948   6.736   1.860
  447SOL     OW 2239   6.004   3.993   0.007
  447SOL    HW1 2240   5.938   3.959   0.074
  447SOL    HW2 2241   6.062   3.918   7.002
  448SOL     OW 2242   2.481   0.061   3.312
  448SOL    HW1 2243   2.570   0.080   3.355
  448SOL    HW2 2244   2.495   0.000   3.234
  449SOL     OW 2245   2.206   3.002   4.593
  449SOL    HW1 2246   2.163   2.917   4.626
  449SOL    HW2 2247   2.214   3.067   4.668
  450SOL     OW 2248   0.650   4.240   3.347
  450SOL    HW1 2249   0.709   4.161   3.364
  450SOL    HW2 2250   0.638   4.252   3.249
  451SOL     OW 2251   1.024   1.995   2.680
  451SOL    HW1 2252   0.940   2.003   2.734
  451SOL    HW2 2253   1.012   2.043   2.593
  452SOL     OW 2254   4.692   6.317   3.006
  452SOL    HW1 2255   4.609   6.373   2.995
  452SOL    HW2 2256   4.666   6.225   3.034
  453SOL     OW 2257   3.946   0.428   0.222
  453SOL    HW1 2258   3.852   0.433   0.257
  453SOL    HW2 2259   3.945   0.425   0.122
  454SOL     OW 2260   0.378   4.353   6.668
  454SOL    HW1 2261   0.432   4.300   6.602
  454SOL    HW2 2262   0.385   4.310   6.758
  455SOL     OW 2263   6.487   4.476   6.278
  455SOL    HW1 2264   6.578   4.517   6.287
  455SOL    HW2 2265   6.465   4.464   6.181
  456SOL     OW 2266   2.676   1.084   2.305
  456SOL    HW1 2267   2.631   1.073   2.216
  456SOL    HW2 2268   2.620   1.044   2.376
  457SOL     OW 2269   2.528   0.103   6.222
  457SOL    HW1 2270   2.505   0.108   6.319
  457SOL    HW2 2271   2.472   0.167   6.170
  458SOL     OW 2272   1.813   1.270   3.471
  458SOL    HW1 2273   1.858   1.335   3.410
  458SOL    HW2 2274   1.719   1.254   3.438
  459SOL     OW 2275   2.583   0.397   4.451
  459SOL    HW1 2276   2.565   0.491   4.479
  459SOL    HW2 2277   2.497   0.345   4.449
  460SOL     OW 2278   1.382   1.871   5.069
  460SOL    HW1 2279   1.379   1.771   5.074
  460SOL    HW2 2280   1.423   1.899   4.983
  461SOL     OW 2281   0.853   5.258   5.791
  461SOL    HW1 2282   0.944   5.272   5.828
  461SOL    HW2 2283   0.834   5.160   5.782
  462SOL     OW 2284   3.104   4.042   4.265
  462SOL    HW1 2285   3.061   3.956   4.294
  462SOL    HW2 2286   3.033   4.106   4.234
  463SOL     OW 2287   5.835   6.870   2.335
  463SOL    HW1 2288   5.750   6.854   2.386
  463SOL    HW2 2289   5.897   6.926   2.391
  464SOL     OW 2290   3.895   6.216   6.502
  464SOL    HW1 2291   3.805   6.172   6.496
  464SOL    HW2 2292   3.891   6.294   6.564
  465SOL     OW 2293   1.668   3.270   0.139
  465SOL    HW1 2294   1.603   3.210   0.186
  465SOL    HW2 2295   1.760   3.233   0.147
  466SOL     OW 2296   3.929   5.728   4.832
  466SOL    HW1 2297   3.911   5.665   4.908
  466SOL    HW2 2298   3.865   5.711   4.758
  467SOL     OW 2299   6.151   0.642   1.833
  467SOL    HW1 2300   6.070   0.585   1.816
  467SOL    HW2 2301   6.234   0.588   1.814
  468SOL     OW 2302   4.059   6.953   0.103
  468SOL    HW1 2303   4.104   6.945   0.014
  468SOL    HW2 2304   4.002   6.872   0.118
  469SOL     OW 2305   2.563   5.161   5.631
  469SOL    HW1 2306   2.542   5.074   5.676
  469SOL    HW2 2307   2.651   5.155   5.584
  470SOL     OW 2308   2.303   5.211   2.923
  470SOL    HW1 2309   2.338   5.183   2.834
  470SOL    HW2 2310   2.312   5.136   2.988
  471SOL     OW 2311   2.665   2.419   4.381
  471SOL    HW1 2312   2.633   2.401   4.474
  471SOL    HW2 2313   2.764   2.433   4.381
  472SOL     OW 2314   6.403   4.053   6.149
  472SOL    HW1 2315   6.348   3.971   6.133
  472SOL    HW2 2316   6.344   4.133   6.158
  473SOL     OW 2317   6.945   2.932   2.732
  473SOL    HW1 2318   7.005   3.001   2.692
  473SOL    HW2 2319   6.877   2.976   2.791
  474SOL     OW 2320   5.221   5.846   4.410
  474SOL    HW1 2321   5.241   5.930   4.459
  474SOL    HW2 2322   5.233   5.768   4.471
  475SOL     OW 2323   6.028   1.348   1.355
  475SOL    HW1 2324   6.104   1.284   1.368
  475SOL    HW2 2325   6.056   1.421   1.293
  476SOL     OW 2326   0.529   4.933   1.130
  476SOL    HW1 2327   0.472   4.956   1.051
  476SOL    HW2 2328   0.506   4.992   1.207
  477SOL     OW 2329   1.088   4.445   3.907
  477SOL    HW1 2330   1.041   4.512   3.850
  477SOL    HW2 2331   1.090   4.357   3.861
  478SOL     OW 2332   4.743   5.667   1.766
  478SOL    HW1 2333   4.837   5.699   1.749
  478SOL    HW2 2334   4.680   5.744   1.755
  479SOL     OW 2335   3.993   3.712   4.272
  479SOL    HW1 2336   3.932   3.791   4.269
  479SOL    HW2 2337   3.945   3.635   4.315
  480SOL     OW 2338   2.211   0.004   2.865
  480SOL    HW1 2339   2.121   6.987   2.873
  480SOL    HW2 2340   2.240   0.037   2.955
  481SOL     OW 2341   0.433   6.837   0.806
  481SOL    HW1 2342   0.365   6.771   0.777
  481SOL    HW2 2343   0.474   6.881   0.725
  482SOL     OW 2344   4.664   5.231   1.691
  482SOL    HW1 2345   4.650   5.132   1.684
  482SOL    HW2 2346   4.726   5.251   1.767
  483SOL     OW 2347   5.361   2.316   3.122
  483SOL    HW1 2348   5.435   2.264   3.079
  483SOL    HW2 2349   5.311   2.257   3.186
  484SOL     OW 2350   2.239   4.300   4.490
  484SOL    HW1 2351   2.274   4.321   4.398
  484SOL    HW2 2352   2.140   4.294   4.487
  485SOL     OW 2353   5.251   3.049   1.871
  485SOL    HW1 2354   5.165   3.000   1.879
  485SOL    HW2 2355   5.289   3.064   1.962
  486SOL     OW 2356   5.668   6.217   6.074
  486SOL    HW1 2357   5.711   6.304   6.098
  486SOL    HW2 2358   5.738   6.150   6.049
  487SOL     OW 2359   0.051   6.789   4.922
  487SOL    HW1 2360   0.120   6.825   4.859
  487SOL    HW2 2361   0.085   6.705   4.963
  488SOL     OW 2362   1.340   5.801   3.804
  488SOL    HW1 2363   1.336   5.834   3.710
  488SOL    HW2 2364   1.430   5.823   3.843
  489SOL     OW 2365   0.804   5.793   5.774
  489SOL    HW1 2366   0.855   5.724   5.723
  489SOL    HW2 2367   0.710   5.760   5.789
  490SOL     OW 2368   1.169   4.665   5.660
  490SOL    HW1 2369   1.137   4.758   5.638
  490SOL    HW2 2370   1.133   4.639   5.750
  491SOL     OW 2371   0.178   2.666   0.762
  491SOL    HW1 2372   0.117   2.647   0.839
  491SOL    HW2 2373   0.262   2.709   0.796
  492SOL     OW 2374   1.328   2.014   5.945
  492SOL    HW1 2375   1.322   1.917   5.971
  492SOL    HW2 2376   1.421   2.034   5.915
  493SOL     OW 2377   2.081   6.193   4.649
  493SOL    HW1 2378   2.149   6.216   4.578
  493SOL    HW2 2379   2.119   6.122   4.708
  494SOL     OW 2380   2.505   6.658   5.318
  494SOL    HW1 2381   2.433   6.590   5.310
  494SOL    HW2 2382   2.520   6.701   5.229
  495SOL     OW 2383   3.718   5.222   5.812
  495SOL    HW1 2384   3.645   5.157   5.832
  495SOL    HW2 2385   3.806   5.176   5.822
  496SOL     OW 2386   5.019   1.396   2.687
  496SOL    HW1 2387   5.030   1.490   2.720
  496SOL    HW2 2388   5.040   1.393   2.589
  497SOL     OW 2389   3.215   0.971   6.904
  497SOL    HW1 2390   3.235   0.958   7.001
  497SOL    HW2 2391   3.193   1.067   6.887
  498SOL     OW 2392   0.377   5.963   1.611
  498SOL    HW1 2393   0.471   5.929   1.613
  498SOL    HW2 2394   0.348   5.977   1.517
  499SOL     OW 2395   3.394   6.013   6.871
  499SOL    HW1 2396   3.363   6.038   6.963
  499SOL    HW2 2397   3.349   5.928   6.844
  500SOL     OW 2398   5.545   2.006   6.967
  500SOL    HW1 2399   5.565   1.925   6.912
  500SOL    HW2 2400   5.501   1.979   0.027
  501SOL     OW 2401   1.103   0.255   2.933
  501SOL    HW1 2402   1.126   0.345   2.970
  501SOL    HW2 2403   1.112   0.186   3.004
  502SOL     OW 2404   1.831   5.131   6.639
  502SOL    HW1 2405   1.750   5.090   6.597
  502SOL    HW2 2406   1.822   5.131   6.738
  503SOL     OW 2407   3.636   4.813   6.622
  503SOL    HW1 2408   3.649   4.780   6.529
  503SOL    HW2 2409   3.697   4.891   6.639
  504SOL     OW 2410   6.347   6.640   2.042
  504SOL    HW1 2411   6.312   6.574   2.109
  504SOL    HW2 2412   6.312   6.617   1.951
  505SOL     OW 2413   5.168   6.673   4.977
  505SOL    HW1 2414   5.172   6.756   5.033
  505SOL    HW2 2415   5.115   6.603   5.025
  506SOL     OW 2416   3.988   5.414   3.042
  506SOL    HW1 2417   3.929   5.476   2.990
  506SOL    HW2 2418   4.046   5.362   2.979
  507SOL     OW 2419   3.411   0.499   0.541
  507SOL    HW1 2420   3.312   0.504   0.526
  507SOL    HW2 2421   3.436   0.406   0.567
  508SOL     OW 2422   6.916   5.164   4.072
  508SOL    HW1 2423   6.873   5.156   4.162
  508SOL    HW2 2424   6.877   5.096   4.010
  509SOL     OW 2425   4.495   6.860   5.425
  509SOL    HW1 2426   4.551   6.942   5.441
  509SOL    HW2 2427   4.482   6.848   5.327
  510SOL     OW 2428   0.109   4.039   6.723
  510SOL    HW1 2429   0.202   4.014   6.750
  510SOL    HW2 2430   0.074   3.970   6.659
  511SOL     OW 2431   1.010   1.569   0.663
  511SOL    HW1 2432   0.966   1.647   0.706
  511SOL    HW2 2433   1.069   1.523   0.730
  512SOL     OW 2434   6.543   2.701   6.337
  512SOL    HW1 2435   6.506   2.608   6.351
  512SOL    HW2 2436   6.629   2.695   6.287
  513SOL     OW 2437   5.333   0.707   2.595
  513SOL    HW1 2438   5.353   0.746   2.505
  513SOL    HW2 2439   5.404   0.642   2.620
  514SOL     OW 2440   6.290   6.698   4.003
  514SOL    HW1 2441   6.245   6.634   4.066
  514SOL    HW2 2442   6.357   6.648   3.948
  515SOL     OW 2443   3.877   6.980   6.767
  515SOL    HW1 2444   3.789   6.947   6.732
  515SOL    HW2 2445   3.863   0.003   6.853
  516SOL     OW 2446   2.009   5.679   1.711
  516SOL    HW1 2447   1.912   5.658   1.709
  516SOL    HW2 2448   2.059   5.602   1.752
  517SOL     OW 2449   3.269   5.606   2.197
  517SOL    HW1 2450   3.201   5.572   2.261
  517SOL    HW2 2451   3.271   5.706   2.201
  518SOL     OW 2452   2.155   3.366   3.570
  518SOL    HW1 2453   2.202   3.292   3.523
  518SOL    HW2 2454   2.195   3.379   3.661
  519SOL     OW 2455   0.295   7.022   3.629
  519SOL    HW1 2456   0.306   6.932   3.587
  519SOL    HW2 2457   0.349   0.000   3.713
  520SOL     OW 2458   1.437   3.127   0.317
  520SOL    HW1 2459   1.448   3.150   0.414
  520SOL    HW2 2460   1.339   3.122   0.296
  521SOL     OW 2461   5.278   5.250   5.317
  521SOL    HW1 2462   5.268   5.308   5.236
  521SOL    HW2 2463   5.360   5.193   5.307
  522SOL     OW 2464   3.986   3.955   1.394
  522SOL    HW1 2465   3.886   3.953   1.393
  522SOL    HW2 2466   4.020   3.873   1.441
  523SOL     OW 2467   0.287   6.395   1.896
  523SOL    HW1 2468   0.263   6.345   1.813
  523SOL    HW2 2469   0.387   6.407   1.900
  524SOL     OW 2470   6.945   1.951   1.718
  524SOL    HW1 2471   7.017   2.020   1.715
  524SOL    HW2 2472   6.937   1.915   1.811
  525SOL     OW 2473   1.794   3.912   6.373
  525SOL    HW1 2474   1.881   3.929   6.419
  525SOL    HW2 2475   1.798   3.825   6.325
  526SOL     OW 2476   3.065   6.781   4.658
  526SOL    HW1 2477   3.093   6.827   4.574
  526SOL    HW2 2478   3.146   6.753   4.709
  527SOL     OW 2479   1.037   1.707   0.188
  527SOL    HW1 2480   0.987   1.680   0.270
  527SOL    HW2 2481   1.135   1.709   0.208
  528SOL     OW 2482   6.740   3.194   4.202
  528SOL    HW1 2483   6.758   3.152   4.113
  528SOL    HW2 2484   6.821   3.246   4.231
  529SOL     OW 2485   1.954   0.282   6.118
  529SOL    HW1 2486   2.049   0.299   6.143
  529SOL    HW2 2487   1.903   0.368   6.120
  530SOL     OW 2488   3.667   3.541   1.111
  530SOL    HW1 2489   3.766   3.546   1.120
  530SOL    HW2 2490   3.640   3.447   1.089
  531SOL     OW 2491   2.030   0.580   1.697
  531SOL    HW1 2492   1.982   0.647   1.641
  531SOL    HW2 2493   2.125   0.572   1.665
  532SOL     OW 2494   3.008   2.374   0.576
  532SOL    HW1 2495   3.006   2.373   0.676
  532SOL    HW2 2496   2.959   2.455   0.542
  533SOL     OW 2497   3.693   0.309   4.085
  533SOL    HW1 2498   3.726   0.403   4.074
  533SOL    HW2 2499   3.625   0.289   4.015
  534SOL     OW 2500   1.251   5.138   1.509
  534SOL    HW1 2501   1.189   5.183   1.575
  534SOL    HW2 2502   1.263   5.042   1.535
  535SOL     OW 2503   5.410   3.529   3.721
  535SOL    HW1 2504   5.424   3.526   3.622
  535SOL    HW2 2505   5.318   3.495   3.742
  536SOL     OW 2506   6.230   5.942   2.789
  536SOL    HW1 2507   6.316   5.929   2.740
  536SOL    HW2 2508   6.212   6.040   2.799
  537SOL     OW 2509   3.580   0.954   4.730
  537SOL    HW1 2510   3.657   0.900   4.696
  537SOL    HW2 2511   3.599   1.051   4.715
  538SOL     OW 2512   2.511   4.503   5.542
  538SOL    HW1 2513   2.577   4.499   5.468
  538SOL    HW2 2514   2.440   4.434   5.528
  539SOL     OW 2515   1.065   6.179   0.477
  539SOL    HW1 2516   1.116   6.237   0.541
  539SOL    HW2 2517   1.015   6.236   0.413
  540SOL     OW 2518   0.963   0.636   3.919
  540SOL    HW1 2519   0.995   0.569   3.986
  540SOL    HW2 2520   0.917   0.711   3.966
  541SOL     OW 2521   4.190   6.262   4.589
  541SOL    HW1 2522   4.273   6.316   4.608
  541SOL    HW2 2523   4.131   6.314   4.527
  542SOL     OW 2524   2.903   6.379   6.846
  542SOL    HW1 2525   2.887   6.371   6.945
  542SOL    HW2 2526   2.893   6.288   6.804
  543SOL     OW 2527   5.502   2.217   4.355
  543SOL    HW1 2528   5.572   2.153   4.386
  543SOL    HW2 2529   5.470   2.272   4.432
  544SOL     OW 2530   0.783   4.134   0.868
  544SOL    HW1 2531   0.859   4.199   0.870
  544SOL    HW2 2532   0.818   4.041   0.880
  545SOL     OW 2533   5.558   1.291   1.770
  545SOL    HW1 2534   5.566   1.390   1.757
  545SOL    HW2 2535   5.462   1.264   1.763
  546SOL     OW 2536   0.774   3.941   2.532
  546SOL    HW1 2537   0.779   3.980   2.624
  546SOL    HW2 2538   0.830   3.858   2.528
  547SOL     OW 2539   4.716   1.670   6.543
  547SOL    HW1 2540   4.695   1.573   6.552
  547SOL    HW2 2541   4.636   1.719   6.508
  548SOL     OW 2542   3.369   2.679   0.056
  548SOL    HW1 2543   3.399   2.741   0.129
  548SOL    HW2 2544   3.353   2.588   0.095
  549SOL     OW 2545   6.017   2.280   1.178
  549SOL    HW1 2546   5.959   2.330   1.242
  549SOL    HW2 2547   5.982   2.187   1.168
  550SOL     OW 2548   0.257   4.938   3.365
  550SOL    HW1 2549   0.249   5.032   3.332
  550SOL    HW2 2550   0.206   4.877   3.305
  551SOL     OW 2551   0.023   0.803   0.353
  551SOL    HW1 2552   0.018   0.882   0.415
  551SOL    HW2 2553   6.975   0.739   0.374
  552SOL     OW 2554   5.978   5.290   5.719
  552SOL    HW1 2555   5.897   5.231   5.724
  552SOL    HW2 2556   5.960   5.375   5.769
  553SOL     OW 2557   3.337   1.262   5.625
  553SOL    HW1 2558   3.334   1.190   5.694
  553SOL    HW2 2559   3.396   1.233   5.550
  554SOL     OW 2560   5.945   5.630   0.602
  554SOL    HW1 2561   5.991   5.648   0.689
  554SOL    HW2 2562   5.848   5.653   0.610
  555SOL     OW 2563   2.345   5.106   5.434
  555SOL    HW1 2564   2.429   5.152   5.464
  555SOL    HW2 2565   2.268   5.169   5.440
  556SOL     OW 2566   4.743   1.593   3.620
  556SOL    HW1 2567   4.716   1.540   3.540
  556SOL    HW2 2568   4.676   1.579   3.693
  557SOL     OW 2569   6.415   4.600   6.020
  557SOL    HW1 2570   6.459   4.682   6.056
  557SOL    HW2 2571   6.412   4.604   5.921
  558SOL     OW 2572   3.530   3.829   2.601
  558SOL    HW1 2573   3.560   3.915   2.643
  558SOL    HW2 2574   3.584   3.754   2.638
  559SOL     OW 2575   6.442   6.356   5.589
  559SOL    HW1 2576   6.530   6.391   5.622
  559SOL    HW2 2577   6.371   6.424   5.606
  560SOL     OW 2578   6.568   3.442   3.180
  560SOL    HW1 2579   6.581   3.520   3.242
  560SOL    HW2 2580   6.613   3.361   3.218
  561SOL     OW 2581   0.628   2.999   6.378
  561SOL    HW1 2582   0.599   2.915   6.426
  561SOL    HW2 2583   0.725   2.993   6.356
  562SOL     OW 2584   4.212   0.630   5.841
  562SOL    HW1 2585   4.214   0.634   5.741
  562SOL    HW2 2586   4.299   0.593   5.874
  563SOL     OW 2587   1.339   2.242   4.241
  563SOL    HW1 2588   1.273   2.316   4.254
  563SOL    HW2 2589   1.290   2.156   4.225
  564SOL     OW 2590   0.248   2.200   5.010
  564SOL    HW1 2591   0.198   2.123   5.051
  564SOL    HW2 2592   0.308   2.166   4.938
  565SOL     OW 2593   3.522   3.140   3.402
  565SOL    HW1 2594   3.556   3.198   3.329
  565SOL    HW2 2595   3.509   3.194   3.485
  566SOL     OW 2596   3.434   5.695   3.090
  566SOL    HW1 2597   3.406   5.781   3.132
  566SOL    HW2 2598   3.456   5.710   2.994
  567SOL     OW 2599   2.139   2.825   6.453
  567SOL    HW1 2600   2.211   2.884   6.416
  567SOL    HW2 2601   2.180   2.754   6.511
  568SOL     OW 2602   6.648   0.376   0.734
  568SOL    HW1 2603   6.579   0.445   0.759
  568SOL    HW2 2604   6.725   0.382   0.797
  569SOL     OW 2605   0.239   1.850   0.497
  569SOL    HW1 2606   0.309   1.803   0.444
  569SOL    HW2 2607   0.232   1.809   0.587
  570SOL     OW 2608   2.974   0.152   6.037
  570SOL    HW1 2609   3.005   0.057   6.031
  570SOL    HW2 2610   2.991   0.198   5.950
  571SOL     OW 2611   2.912   4.899   3.285
  571SOL    HW1 2612   2.892   4.915   3.188
  571SOL    HW2 2613   2.832   4.860   3.330
  572SOL     OW 2614   2.357   6.550   4.134
  572SOL    HW1 2615   2.336   6.470   4.191
  572SOL    HW2 2616   2.404   6.618   4.190
  573SOL     OW 2617   6.032   2.364   5.600
  573SOL    HW1 2618   6.047   2.320   5.689
  573SOL    HW2 2619   5.938   2.347   5.570
  574SOL     OW 2620   2.699   1.865   5.432
  574SOL    HW1 2621   2.686   1.766   5.422
  574SOL    HW2 2622   2.610   1.910   5.428
  575SOL     OW 2623   3.395   3.568   6.825
  575SOL    HW1 2624   3.399   3.517   6.910
  575SOL    HW2 2625   3.370   3.663   6.844
  576SOL     OW 2626   1.824   3.152   2.730
  576SOL    HW1 2627   1.782   3.096   2.802
  576SOL    HW2 2628   1.923   3.151   2.741
  577SOL     OW 2629   1.072   1.571   1.996
  577SOL    HW1 2630   1.050   1.655   1.947
  577SOL    HW2 2631   1.160   1.536   1.966
  578SOL     OW 2632   1.908   5.641   6.840
  578SOL    HW1 2633   1.981   5.660   6.774
  578SOL    HW2 2634   1.913   5.708   6.915
  579SOL     OW 2635   2.636   4.518   2.554
  579SOL    HW1 2636   2.571   4.524   2.478
  579SOL    HW2 2637   2.714   4.578   2.535
  580SOL     OW 2638   4.273   5.432   5.295
  580SOL    HW1 2639   4.355   5.377   5.284
  580SOL    HW2 2640   4.272   5.504   5.225
  581SOL     OW 2641   0.914   2.881   3.802
  581SOL    HW1 2642   0.937   2.849   3.710
  581SOL    HW2 2643   0.857   2.813   3.847
  582SOL     OW 2644   5.510   5.227   3.286
  582SOL    HW1 2645   5.519   5.326   3.282
  582SOL    HW2 2646   5.463   5.201   3.370
  583SOL     OW 2647   3.497   5.058   5.898
  583SOL    HW1 2648   3.559   4.985   5.928
  583SOL    HW2 2649   3.410   5.019   5.869
  584SOL     OW 2650   3.853   0.598   6.945
  584SOL    HW1 2651   3.797   0.521   6.976
  584SOL    HW2 2652   3.916   0.567   6.874
  585SOL     OW 2653   2.431   6.489   2.131
  585SOL    HW1 2654   2.360   6.431   2.173
  585SOL    HW2 2655   2.403   6.514   2.038
  586SOL     OW 2656   4.016   0.368   1.102
  586SOL    HW1 2657   4.091   0.311   1.134
  586SOL    HW2 2658   4.005   0.446   1.164
  587SOL     OW 2659   5.046   2.061   1.623
  587SOL    HW1 2660   4.969   1.998   1.623
  587SOL    HW2 2661   5.121   2.021   1.676
  588SOL     OW 2662   0.705   5.348   1.850
  588SOL    HW1 2663   0.635   5.310   1.791
  588SOL    HW2 2664   0.789   5.363   1.798
  589SOL     OW 2665   3.636   5.793   1.482
  589SOL    HW1 2666   3.550   5.750   1.508
  589SOL    HW2 2667   3.706   5.770   1.550
  590SOL     OW 2668   5.216   1.308   0.852
  590SOL    HW1 2669   5.185   1.309   0.948
  590SOL    HW2 2670   5.161   1.242   0.800
  591SOL     OW 2671   4.302   5.615   4.465
  591SOL    HW1 2672   4.324   5.701   4.510
  591SOL    HW2 2673   4.328   5.619   4.369
  592SOL     OW 2674   4.557   1.914   4.680
  592SOL    HW1 2675   4.553   1.832   4.623
  592SOL    HW2 2676   4.525   1.993   4.627
  593SOL     OW 2677   3.666   1.794   5.437
  593SOL    HW1 2678   3.728   1.746   5.499
  593SOL    HW2 2679   3.571   1.774   5.460
  594SOL     OW 2680   5.891   1.410   1.782
  594SOL    HW1 2681   5.933   1.501   1.776
  594SOL    HW2 2682   5.960   1.343   1.806
  595SOL     OW 2683   5.023   6.083   2.621
  595SOL    HW1 2684   4.928   6.098   2.648
  595SOL    HW2 2685   5.045   5.986   2.630
  596SOL     OW 2686   6.693   3.943   3.693
  596SOL    HW1 2687   6.761   3.910   3.628
  596SOL    HW2 2688   6.738   3.961   3.781
  597SOL     OW 2689   3.059   6.848   6.425
  597SOL    HW1 2690   3.095   6.776   6.484
  597SOL    HW2 2691   2.991   6.808   6.363
  598SOL     OW 2692   2.724   3.488   5.323
  598SOL    HW1 2693   2.688   3.437   5.245
  598SOL    HW2 2694   2.822   3.501   5.313
  599SOL     OW 2695   0.889   5.621   1.985
  599SOL    HW1 2696   0.944   5.567   1.920
  599SOL    HW2 2697   0.924   5.607   2.078
  600SOL     OW 2698   6.996   4.099   4.654
  600SOL    HW1 2699   6.954   4.144   4.576
  600SOL    HW2 2700   6.973   4.148   4.738
  601SOL     OW 2701   1.376   0.871   4.971
  601SOL    HW1 2702   1.300   0.806   4.979
  601SOL    HW2 2703   1.419   0.882   5.061
  602SOL     OW 2704   2.915   6.546   4.683
  602SOL    HW1 2705   2.885   6.546   4.778
  602SOL    HW2 2706   2.918   6.640   4.649
  603SOL     OW 2707   1.654   1.301   5.188
  603SOL    HW1 2708   1.642   1.294   5.089
  603SOL    HW2 2709   1.717   1.375   5.209
  604SOL     OW 2710   6.874   2.207   1.887
  604SOL    HW1 2711   6.968   2.217   1.855
  604SOL    HW2 2712   6.817   2.173   1.813
  605SOL     OW 2713   0.381   4.322   2.312
  605SOL    HW1 2714   0.320   4.367   2.247
  605SOL    HW2 2715   0.350   4.228   2.326
  606SOL     OW 2716   3.644   0.063   5.004
  606SOL    HW1 2717   3.636   7.007   4.945
  606SOL    HW2 2718   3.690   0.038   5.089
  607SOL     OW 2719   1.009   4.571   5.873
  607SOL    HW1 2720   0.941   4.517   5.824
  607SOL    HW2 2721   1.034   4.524   5.958
  608SOL     OW 2722   3.697   0.105   5.903
  608SOL    HW1 2723   3.618   0.097   5.964
  608SOL    HW2 2724   3.717   0.202   5.887
  609SOL     OW 2725   3.905   2.409   1.432
  609SOL    HW1 2726   3.863   2.492   1.394
  609SOL    HW2 2727   3.880   2.401   1.528
  610SOL     OW 2728   4.381   2.854   0.551
  610SOL    HW1 2729   4.305   2.913   0.526
  610SOL    HW2 2730   4.360   2.759   0.526
  611SOL     OW 2731   3.981   0.335   2.398
  611SOL    HW1 2732   4.008   0.405   2.464
  611SOL    HW2 2733   4.061   0.283   2.370
  612SOL     OW 2734   3.622   4.779   5.861
  612SOL    HW1 2735   3.594   4.711   5.929
  612SOL    HW2 2736   3.601   4.745   5.770
  613SOL     OW 2737   4.932   5.739   5.568
  613SOL    HW1 2738   4.877   5.677   5.625
  613SOL    HW2 2739   4.997   5.685   5.515
  614SOL     OW 2740   4.995   5.683   5.862
  614SOL    HW1 2741   4.950   5.728   5.938
  614SOL    HW2 2742   5.011   5.748   5.788
  615SOL     OW 2743   0.337   4.610   1.206
  615SOL    HW1 2744   0.281   4.684   1.243
  615SOL    HW2 2745   0.307   4.589   1.112
  616SOL     OW 2746   6.152   2.620   3.427
  616SOL    HW1 2747   6.190   2.547   3.484
  616SOL    HW2 2748   6.227   2.680   3.397
  617SOL     OW 2749   2.674   5.209   6.234
  617SOL    HW1 2750   2.627   5.148   6.298
  617SOL    HW2 2751   2.773   5.200   6.247
  618SOL     OW 2752   1.147   1.264   1.644
  618SOL    HW1 2753   1.065   1.233   1.692
  618SOL    HW2 2754   1.209   1.187   1.630
  619SOL     OW 2755   1.634   1.695   6.284
  619SOL    HW1 2756   1.651   1.730   6.192
  619SOL    HW2 2757   1.542   1.719   6.313
  620SOL     OW 2758   4.748   2.672   0.438
  620SOL    HW1 2759   4.826   2.623   0.399
  620SOL    HW2 2760   4.663   2.626   0.411
  621SOL     OW 2761   6.995   4.694   0.221
  621SOL    HW1 2762   6.955   4.627   0.160
  621SOL    HW2 2763   0.060   4.663   0.250
  622SOL     OW 2764   1.824   1.527   0.286
  622SOL    HW1 2765   1.778   1.603   0.333
  622SOL    HW2 2766   1.825   1.546   0.188
  623SOL     OW 2767   1.077   4.782   6.317
  623SOL    HW1 2768   1.023   4.776   6.233
  623SOL    HW2 2769   1.139   4.860   6.311
  624SOL     OW 2770   0.832   2.768   2.405
  624SOL    HW1 2771   0.772   2.733   2.477
  624SOL    HW2 2772   0.826   2.708   2.325
  625SOL     OW 2773   2.646   1.246   2.722
  625SOL    HW1 2774   2.630   1.288   2.633
  625SOL    HW2 2775   2.722   1.292   2.767
  626SOL     OW 2776   2.190   6.485   3.732
  626SOL    HW1 2777   2.273   6.469   3.786
  626SOL    HW2 2778   2.207   6.561   3.668
  627SOL     OW 2779   5.407   0.891   0.058
  627SOL    HW1 2780   5.430   0.937   6.999
  627SOL    HW2 2781   5.425   0.793   0.050
  628SOL     OW 2782   4.904   4.419   4.327
  628SOL    HW1 2783   4.834   4.364   4.282
  628SOL    HW2 2784   4.993   4.373   4.319
  629SOL     OW 2785   0.343   0.023   1.412
  629SOL    HW1 2786   0.438   0.010   1.439
  629SOL    HW2 2787   0.321   6.986   1.337
  630SOL     OW 2788   4.394   1.317   1.527
  630SOL    HW1 2789   4.297   1.298   1.540
  630SOL    HW2 2790   4.406   1.382   1.453
  631SOL     OW 2791   2.283   7.025   5.503
  631SOL    HW1 2792   2.303   6.928   5.486
  631SOL    HW2 2793   2.363   0.054   5.482
  632SOL     OW 2794   2.284   1.104   0.465
  632SOL    HW1 2795   2.275   1.164   0.544
  632SOL    HW2 2796   2.195   1.065   0.442
  633SOL     OW 2797   3.413   6.280   0.212
  633SOL    HW1 2798   3.465   6.357   0.249
  633SOL    HW2 2799   3.391   6.217   0.286
  634SOL     OW 2800   4.151   5.599   1.220
  634SOL    HW1 2801   4.245   5.618   1.192
  634SOL    HW2 2802   4.127   5.657   1.297
  635SOL     OW 2803   2.949   0.045   2.975
  635SOL    HW1 2804   2.979   0.140   2.972
  635SOL    HW2 2805   3.025   7.012   3.002
  636SOL     OW 2806   5.108   5.165   6.548
  636SOL    HW1 2807   5.192   5.219   6.535
  636SOL    HW2 2808   5.069   5.143   6.459
  637SOL     OW 2809   4.765   4.744   1.207
  637SOL    HW1 2810   4.705   4.701   1.274
  637SOL    HW2 2811   4.720   4.746   1.118
  638SOL     OW 2812   5.182   1.533   1.516
  638SOL    HW1 2813   5.177   1.628   1.484
  638SOL    HW2 2814   5.253   1.485   1.465
  639SOL     OW 2815   4.264   4.640   1.952
  639SOL    HW1 2816   4.340   4.602   2.006
  639SOL    HW2 2817   4.202   4.566   1.927
  640SOL     OW 2818   2.662   3.914   5.578
  640SOL    HW1 2819   2.573   3.870   5.594
  640SOL    HW2 2820   2.651   4.013   5.582
  641SOL     OW 2821   0.136   5.662   5.031
  641SOL    HW1 2822   0.194   5.609   4.970
  641SOL    HW2 2823   0.091   5.735   4.980
  642SOL     OW 2824   0.374   5.033   5.041
  642SOL    HW1 2825   0.421   5.021   4.953
  642SOL    HW2 2826   0.329   4.947   5.066
  643SOL     OW 2827   6.290   5.465   5.970
  643SOL    HW1 2828   6.365   5.493   6.030
  643SOL    HW2 2829   6.226   5.409   6.021
  644SOL     OW 2830   1.128   6.614   2.918
  644SOL    HW1 2831   1.035   6.580   2.924
  644SOL    HW2 2832   1.183   6.576   2.993
  645SOL     OW 2833   5.018   2.565   3.970
  645SOL    HW1 2834   5.040   2.637   4.036
  645SOL    HW2 2835   4.951   2.599   3.904
  646SOL     OW 2836   0.908   0.964   4.323
  646SOL    HW1 2837   0.892   1.063   4.315
  646SOL    HW2 2838   0.895   0.936   4.418
  647SOL     OW 2839   6.221   2.490   7.016
  647SOL    HW1 2840   6.296   2.474   6.951
  647SOL    HW2 2841   6.231   2.581   0.030
  648SOL     OW 2842   5.613   3.868   2.127
  648SOL    HW1 2843   5.520   3.890   2.156
  648SOL    HW2 2844   5.661   3.951   2.099
  649SOL     OW 2845   3.804   4.951   1.218
  649SOL    HW1 2846   3.850   5.037   1.195
  649SOL    HW2 2847   3.786   4.899   1.135
  650SOL     OW 2848   4.694   4.183   0.643
  650SOL    HW1 2849   4.743   4.147   0.564
  650SOL    HW2 2850   4.714   4.127   0.723
  651SOL     OW 2851   0.647   6.418   1.314
  651SOL    HW1 2852   0.556   6.421   1.354
  651SOL    HW2 2853   0.650   6.347   1.243
  652SOL     OW 2854   4.661   0.663   2.629
  652SOL    HW1 2855   4.661   0.663   2.729
  652SOL    HW2 2856   4.630   0.752   2.595
  653SOL     OW 2857   3.633   5.203   4.103
  653SOL    HW1 2858   3.603   5.110   4.080
  653SOL    HW2 2859   3.639   5.257   4.019
  654SOL     OW 2860   6.848   5.084   7.013
  654SOL    HW1 2861   6.944   5.079   0.015
  654SOL    HW2 2862   6.833   5.166   6.958
  655SOL     OW 2863   0.570   0.294   1.404
  655SOL    HW1 2864   0.660   0.338   1.396
  655SOL    HW2 2865   0.501   0.363   1.426
  656SOL     OW 2866   2.245   6.190   1.944
  656SOL    HW1 2867   2.259   6.227   2.036
  656SOL    HW2 2868   2.175   6.118   1.947
  657SOL     OW 2869   2.823   1.218   0.716
  657SOL    HW1 2870   2.915   1.253   0.735
  657SOL    HW2 2871   2.792   1.255   0.628
  658SOL     OW 2872   3.363   3.872   6.927
  658SOL    HW1 2873   3.354   3.842   7.022
  658SOL    HW2 2874   3.455   3.908   6.913
  659SOL     OW 2875   3.051   6.643   0.159
  659SOL    HW1 2876   3.072   6.560   0.107
  659SOL    HW2 2877   3.024   6.618   0.252
  660SOL     OW 2878   3.596   6.139   2.674
  660SOL    HW1 2879   3.646   6.191   2.605
  660SOL    HW2 2880   3.499   6.163   2.671
  661SOL     OW 2881   4.524   6.104   3.056
  661SOL    HW1 2882   4.511   6.145   2.966
  661SOL    HW2 2883   4.487   6.011   3.056
  662SOL     OW 2884   3.508   1.489   5.907
  662SOL    HW1 2885   3.503   1.391   5.891
  662SOL    HW2 2886   3.419   1.523   5.937
  663SOL     OW 2887   2.237   5.358   4.906
  663SOL    HW1 2888   2.225   5.323   4.999
  663SOL    HW2 2889   2.277   5.286   4.849
  664SOL     OW 2890   0.245   0.293   6.849
  664SOL    HW1 2891   0.302   0.213   6.832
  664SOL    HW2 2892   0.302   0.375   6.852
  665SOL     OW 2893   2.886   5.539   3.780
  665SOL    HW1 2894   2.855   5.470   3.714
  665SOL    HW2 2895   2.894   5.628   3.735
  666SOL     OW 2896   3.925   0.762   2.122
  666SOL    HW1 2897   4.009   0.709   2.126
  666SOL    HW2 2898   3.942   0.847   2.073
  667SOL     OW 2899   0.597   5.662   1.913
  667SOL    HW1 2900   0.689   5.623   1.901
  667SOL    HW2 2901   0.533   5.589   1.938
  668SOL     OW 2902   5.683   4.464   6.166
  668SOL    HW1 2903   5.687   4.368   6.138
  668SOL    HW2 2904   5.598   4.505   6.134
  669SOL     OW 2905   6.131   1.424   2.958
  669SOL    HW1 2906   6.102   1.356   3.026
  669SOL    HW2 2907   6.167   1.377   2.878
  670SOL     OW 2908   1.640   1.848   3.703
  670SOL    HW1 2909   1.629   1.874   3.799
  670SOL    HW2 2910   1.733   1.812   3.689
  671SOL     OW 2911   2.266   6.469   1.904
  671SOL    HW1 2912   2.291   6.372   1.904
  671SOL    HW2 2913   2.249   6.499   1.811
  672SOL     OW 2914   0.286   6.206   1.688
  672SOL    HW1 2915   0.320   6.113   1.671
  672SOL    HW2 2916   0.189   6.202   1.711
  673SOL     OW 2917   5.441   6.515   0.862
  673SOL    HW1 2918   5.418   6.421   0.837
  673SOL    HW2 2919   5.437   6.574   0.781
  674SOL     OW 2920   6.945   1.408   5.121
  674SOL    HW1 2921   6.904   1.382   5.033
  674SOL    HW2 2922   6.970   1.326   5.172
  675SOL     OW 2923   5.800   2.009   2.063
  675SOL    HW1 2924   5.876   1.951   2.032
  675SOL    HW2 2925   5.795   2.005   2.163
  676SOL     OW 2926   2.502   4.900   5.067
  676SOL    HW1 2927   2.505   4.989   5.022
  676SOL    HW2 2928   2.540   4.831   5.005
  677SOL     OW 2929   4.594   0.837   1.316
  677SOL    HW1 2930   4.533   0.790   1.252
  677SOL    HW2 2931   4.542   0.905   1.367
  678SOL     OW 2932   2.690   4.211   5.614
  678SOL    HW1 2933   2.688   4.303   5.652
  678SOL    HW2 2934   2.739   4.212   5.527
  679SOL     OW 2935   5.499   1.424   5.348
  679SOL    HW1 2936   5.535   1.332   5.337
  679SOL    HW2 2937   5.427   1.440   5.280
  680SOL     OW 2938   5.496   0.203   4.395
  680SOL    HW1 2939   5.580   0.185   4.346
  680SOL    HW2 2940   5.517   0.255   4.478
  681SOL     OW 2941   5.391   6.281   1.920
  681SOL    HW1 2942   5.365   6.263   2.015
  681SOL    HW2 2943   5.309   6.285   1.863
  682SOL     OW 2944   1.007   0.672   2.378
  682SOL    HW1 2945   1.027   0.768   2.358
  682SOL    HW2 2946   0.916   0.649   2.342
  683SOL     OW 2947   4.288   3.541   0.883
  683SOL    HW1 2948   4.232   3.623   0.887
  683SOL    HW2 2949   4.362   3.554   0.816
  684SOL     OW 2950   6.468   0.649   6.388
  684SOL    HW1 2951   6.470   0.746   6.364
  684SOL    HW2 2952   6.505   0.636   6.480
  685SOL     OW 2953   3.396   1.512   3.645
  685SOL    HW1 2954   3.451   1.532   3.726
  685SOL    HW2 2955   3.307   1.558   3.653
  686SOL     OW 2956   4.449   0.897   4.249
  686SOL    HW1 2957   4.508   0.950   4.188
  686SOL    HW2 2958   4.472   0.800   4.242
  687SOL     OW 2959   0.556   1.908   4.516
  687SOL    HW1 2960   0.458   1.895   4.532
  687SOL    HW2 2961   0.579   1.873   4.425
  688SOL     OW 2962   0.001   1.753   6.651
  688SOL    HW1 2963   6.995   1.705   6.569
  688SOL    HW2 2964   0.081   1.706   6.688
  689SOL     OW 2965   1.003   4.813   5.382
  689SOL    HW1 2966   1.074   4.745   5.363
  689SOL    HW2 2967   1.034   4.875   5.454
  690SOL     OW 2968   6.125   3.541   3.001
  690SOL    HW1 2969   6.103   3.528   2.904
  690SOL    HW2 2970   6.154   3.454   3.040
  691SOL     OW 2971   3.849   1.804   6.675
  691SOL    HW1 2972   3.893   1.890   6.648
  691SOL    HW2 2973   3.757   1.823   6.710
  692SOL     OW 2974   3.247   1.152   5.204
  692SOL    HW1 2975   3.219   1.065   5.164
  692SOL    HW2 2976   3.167   1.201   5.239
  693SOL     OW 2977   5.005   5.806   3.144
  693SOL    HW1 2978   5.038   5.820   3.237
  693SOL    HW2 2979   4.908   5.830   3.140
  694SOL     OW 2980   4.025   6.203   4.801
  694SOL    HW1 2981   4.079   6.231   4.880
  694SOL    HW2 2982   4.073   6.229   4.717
  695SOL     OW 2983   3.382   5.888   4.026
  695SOL    HW1 2984   3.342   5.948   4.095
  695SOL    HW2 2985   3.366   5.793   4.051
  696SOL     OW 2986   4.931   3.769   2.893
  696SOL    HW1 2987   4.888   3.706   2.957
  696SOL    HW2 2988   4.950   3.722   2.807
  697SOL     OW 2989   0.777   4.669   1.689
  697SOL    HW1 2990   0.796   4.748   1.749
  697SOL    HW2 2991   0.713   4.608   1.735
  698SOL     OW 2992   4.612   6.906   1.508
  698SOL    HW1 2993   4.564   6.986   1.470
  698SOL    HW2 2994   4.575   6.886   1.599
  699SOL     OW 2995   2.874   2.578   0.426
  699SOL    HW1 2996   2.827   2.664   0.448
  699SOL    HW2 2997   2.962   2.599   0.383
  700SOL     OW 2998   3.014   6.909   2.549
  700SOL    HW1 2999   2.997   6.833   2.611
  700SOL    HW2 3000   2.959   6.987   2.576
  701SOL     OW 3001   6.323   4.306   0.948
  701SOL    HW1 3002   6.334   4.373   1.022
  701SOL    HW2 3003   6.401   4.311   0.886
  702SOL     OW 3004   3.058   1.004   4.410
  702SOL    HW1 3005   3.131   0.964   4.354
  702SOL    HW2 3006   2.981   0.941   4.412
  703SOL     OW 3007   2.537   3.030   5.818
  703SOL    HW1 3008   2.615   3.076   5.775
  703SOL    HW2 3009   2.498   2.964   5.754
  704SOL     OW 3010   1.262   2.549   6.343
  704SOL    HW1 3011   1.183   2.598   6.307
  704SOL    HW2 3012   1.231   2.473   6.400
  705SOL     OW 3013   6.471   6.308   4.037
  705SOL    HW1 3014   6.455   6.214   4.008
  705SOL    HW2 3015   6.454   6.317   4.135
  706SOL     OW 3016   4.287   1.037   5.593
  706SOL    HW1 3017   4.333   1.121   5.566
  706SOL    HW2 3018   4.330   0.959   5.547
  707SOL     OW 3019   3.735   5.302   3.676
  707SOL    HW1 3020   3.773   5.369   3.740
  707SOL    HW2 3021   3.797   5.224   3.668
  708SOL     OW 3022   3.014   0.932   3.237
  708SOL    HW1 3023   3.054   0.955   3.149
  708SOL    HW2 3024   3.023   0.834   3.255
  709SOL     OW 3025   2.032   0.076   1.676
  709SOL    HW1 3026   2.089   0.057   1.756
  709SOL    HW2 3027   1.940   0.101   1.705
  710SOL     OW 3028   4.991   2.857   1.634
  710SOL    HW1 3029   5.081   2.891   1.607
  710SOL    HW2 3030   4.948   2.923   1.696
  711SOL     OW 3031   0.123   2.790   5.334
  711SOL    HW1 3032   0.069   2.755   5.257
  711SOL    HW2 3033   0.077   2.869   5.374
  712SOL     OW 3034   4.227   2.890   0.822
  712SOL    HW1 3035   4.325   2.896   0.803
  712SOL    HW2 3036   4.204   2.950   0.899
  713SOL     OW 3037   4.329   2.762   5.297
  713SOL    HW1 3038   4.415   2.712   5.302
  713SOL    HW2 3039   4.269   2.720   5.229
  714SOL     OW 3040   6.218   4.394   3.267
  714SOL    HW1 3041   6.251   4.319   3.211
  714SOL    HW2 3042   6.291   4.461   3.280
  715SOL     OW 3043   6.188   5.214   5.350
  715SOL    HW1 3044   6.188   5.241   5.446
  715SOL    HW2 3045   6.122   5.270   5.299
  716SOL     OW 3046   2.013   0.922   2.669
  716SOL    HW1 3047   1.937   0.884   2.721
  716SOL    HW2 3048   1.996   1.019   2.651
  717SOL     OW 3049   5.724   4.946   3.518
  717SOL    HW1 3050   5.672   5.022   3.557
  717SOL    HW2 3051   5.793   4.981   3.455
  718SOL     OW 3052   5.318   2.221   4.160
  718SOL    HW1 3053   5.228   2.262   4.173
  718SOL    HW2 3054   5.377   2.247   4.236
  719SOL     OW 3055   6.753   0.673   2.875
  719SOL    HW1 3056   6.679   0.659   2.809
  719SOL    HW2 3057   6.714   0.700   2.963
  720SOL     OW 3058   1.848   0.745   6.305
  720SOL    HW1 3059   1.913   0.708   6.371
  720SOL    HW2 3060   1.761   0.697   6.314
  721SOL     OW 3061   0.526   2.588   2.349
  721SOL    HW1 3062   0.619   2.584   2.311
  721SOL    HW2 3063   0.510   2.678   2.389
  722SOL     OW 3064   4.421   0.032   6.629
  722SOL    HW1 3065   4.337   0.078   6.657
  722SOL    HW2 3066   4.468   0.087   6.559
  723SOL     OW 3067   2.277   6.223   3.595
  723SOL    HW1 3068   2.189   6.188   3.563
  723SOL    HW2 3069   2.299   6.308   3.548
  724SOL     OW 3070   0.903   0.763   3.362
  724SOL    HW1 3071   0.868   0.857   3.351
  724SOL    HW2 3072   0.886   0.732   3.455
  725SOL     OW 3073   2.342   4.192   2.464
  725SOL    HW1 3074   2.391   4.228   2.543
  725SOL    HW2 3075   2.316   4.097   2.482
  726SOL     OW 3076   2.319   5.041   0.500
  726SOL    HW1 3077   2.299   5.123   0.446
  726SOL    HW2 3078   2.347   5.068   0.593
  727SOL     OW 3079   4.696   5.406   6.158
  727SOL    HW1 3080   4.704   5.496   6.201
  727SOL    HW2 3081   4.759   5.400   6.080
  728SOL     OW 3082   0.082   3.390   4.651
  728SOL    HW1 3083   0.133   3.326   4.709
  728SOL    HW2 3084   0.016   3.339   4.596
  729SOL     OW 3085   0.391   3.127   0.897
  729SOL    HW1 3086   0.334   3.205   0.924
  729SOL    HW2 3087   0.335   3.061   0.847
  730SOL     OW 3088   4.670   0.640   2.913
  730SOL    HW1 3089   4.615   0.573   2.962
  730SOL    HW2 3090   4.741   0.676   2.974
  731SOL     OW 3091   4.712   4.563   6.775
  731SOL    HW1 3092   4.737   4.467   6.769
  731SOL    HW2 3093   4.790   4.620   6.747
  732SOL     OW 3094   5.106   1.614   2.833
  732SOL    HW1 3095   5.179   1.633   2.897
  732SOL    HW2 3096   5.087   1.695   2.778
  733SOL     OW 3097   5.355   6.516   3.432
  733SOL    HW1 3098   5.427   6.531   3.500
  733SOL    HW2 3099   5.390   6.536   3.341
  734SOL     OW 3100   6.543   5.089   2.388
  734SOL    HW1 3101   6.642   5.100   2.395
  734SOL    HW2 3102   6.507   5.150   2.317
  735SOL     OW 3103   5.710   0.605   1.859
  735SOL    HW1 3104   5.761   0.681   1.820
  735SOL    HW2 3105   5.634   0.641   1.914
  736SOL     OW 3106   1.344   1.306   4.227
  736SOL    HW1 3107   1.314   1.395   4.259
  736SOL    HW2 3108   1.277   1.237   4.252
  737SOL     OW 3109   5.814   1.329   6.214
  737SOL    HW1 3110   5.859   1.419   6.213
  737SOL    HW2 3111   5.869   1.265   6.269
  738SOL     OW 3112   2.690   4.198   1.374
  738SOL    HW1 3113   2.728   4.270   1.316
  738SOL    HW2 3114   2.608   4.160   1.331
  739SOL     OW 3115   3.107   0.242   5.324
  739SOL    HW1 3116   3.147   0.150   5.328
  739SOL    HW2 3117   3.073   0.259   5.232
  740SOL     OW 3118   5.644   2.085   2.974
  740SOL    HW1 3119   5.733   2.093   2.929
  740SOL    HW2 3120   5.574   2.062   2.906
  741SOL     OW 3121   2.596   0.690   4.472
  741SOL    HW1 3122   2.512   0.741   4.492
  741SOL    HW2 3123   2.595   0.659   4.378
  742SOL     OW 3124   1.308   6.401   0.964
  742SOL    HW1 3125   1.220   6.409   0.917
  742SOL    HW2 3126   1.303   6.325   1.030
  743SOL     OW 3127   0.863   6.467   3.703
  743SOL    HW1 3128   0.826   6.401   3.637
  743SOL    HW2 3129   0.790   6.526   3.736
  744SOL     OW 3130   5.969   1.209   0.631
  744SOL    HW1 3131   6.013   1.241   0.715
  744SOL    HW2 3132   5.885   1.160   0.654
  745SOL     OW 3133   2.190   5.969   4.778
  745SOL    HW1 3134   2.123   5.973   4.852
  745SOL    HW2 3135   2.199   5.874   4.747
  746SOL     OW 3136   5.553   4.273   4.924
  746SOL    HW1 3137   5.508   4.210   4.860
  746SOL    HW2 3138   5.642   4.299   4.887
  747SOL     OW 3139   5.441   5.313   2.958
  747SOL    HW1 3140   5.350   5.302   2.917
  747SOL    HW2 3141   5.438   5.281   3.052
  748SOL     OW 3142   5.276   5.570   2.902
  748SOL    HW1 3143   5.289   5.517   2.819
  748SOL    HW2 3144   5.365   5.591   2.943
  749SOL     OW 3145   4.826   4.066   3.751
  749SOL    HW1 3146   4.786   4.146   3.706
  749SOL    HW2 3147   4.836   3.992   3.685
  750SOL     OW 3148   2.551   1.532   1.577
  750SOL    HW1 3149   2.460   1.492   1.565
  750SOL    HW2 3150   2.543   1.622   1.619
  751SOL     OW 3151   4.798   1.745   0.241
  751SOL    HW1 3152   4.721   1.710   0.187
  751SOL    HW2 3153   4.768   1.826   0.292
  752SOL     OW 3154   3.095   2.556   5.379
  752SOL    HW1 3155   3.173   2.617   5.368
  752SOL    HW2 3156   3.103   2.480   5.315
  753SOL     OW 3157   3.707   3.549   5.384
  753SOL    HW1 3158   3.656   3.585   5.463
  753SOL    HW2 3159   3.785   3.607   5.365
  754SOL     OW 3160   5.526   0.628   6.575
  754SOL    HW1 3161   5.615   0.592   6.549
  754SOL    HW2 3162   5.522   0.636   6.675
  755SOL     OW 3163   3.054   4.260   5.229
  755SOL    HW1 3164   3.153   4.279   5.221
  755SOL    HW2 3165   3.003   4.343   5.205
  756SOL     OW 3166   2.465   5.410   6.952
  756SOL    HW1 3167   2.564   5.422   6.955
  756SOL    HW2 3168   2.422   5.495   6.921
  757SOL     OW 3169   1.816   6.483   2.421
  757SOL    HW1 3170   1.810   6.567   2.367
  757SOL    HW2 3171   1.731   6.432   2.412
  758SOL     OW 3172   4.356   1.222   3.788
  758SOL    HW1 3173   4.336   1.176   3.874
  758SOL    HW2 3174   4.312   1.174   3.713
  759SOL     OW 3175   0.263   3.131   3.813
  759SOL    HW1 3176   0.209   3.112   3.896
  759SOL    HW2 3177   0.325   3.207   3.831
  760SOL     OW 3178   0.005   6.768   3.873
  760SOL    HW1 3179   6.978   6.779   3.957
  760SOL    HW2 3180   6.996   6.830   3.802
  761SOL     OW 3181   5.348   3.810   5.313
  761SOL    HW1 3182   5.314   3.760   5.392
  761SOL    HW2 3183   5.293   3.892   5.298
  762SOL     OW 3184   2.920   6.213   5.814
  762SOL    HW1 3185   2.916   6.243   5.909
  762SOL    HW2 3186   2.843   6.252   5.763
  763SOL     OW 3187   5.747   0.538   0.092
  763SOL    HW1 3188   5.824   0.516   0.033
  763SOL    HW2 3189   5.733   0.638   0.093
  764SOL     OW 3190   5.756   0.793   5.788
  764SOL    HW1 3191   5.727   0.858   5.859
  764SOL    HW2 3192   5.854   0.774   5.799
  765SOL     OW 3193   0.688   6.614   1.118
  765SOL    HW1 3194   0.683   6.529   1.171
  765SOL    HW2 3195   0.781   6.649   1.119
  766SOL     OW 3196   1.959   2.063   4.811
  766SOL    HW1 3197   1.884   2.091   4.871
  766SOL    HW2 3198   1.934   2.080   4.716
  767SOL     OW 3199   0.138   6.955   4.132
  767SOL    HW1 3200   0.177   6.867   4.106
  767SOL    HW2 3201   0.040   6.955   4.111
  768SOL     OW 3202   2.111   6.157   2.520
  768SOL    HW1 3203   2.111   6.240   2.465
  768SOL    HW2 3204   2.029   6.156   2.578
  769SOL     OW 3205   3.238   1.342   4.983
  769SOL    HW1 3206   3.248   1.287   5.066
  769SOL    HW2 3207   3.295   1.303   4.911
  770SOL     OW 3208   2.116   4.861   4.252
  770SOL    HW1 3209   2.210   4.865   4.218
  770SOL    HW2 3210   2.099   4.770   4.291
  771SOL     OW 3211   1.488   5.180   2.708
  771SOL    HW1 3212   1.583   5.190   2.737
  771SOL    HW2 3213   1.473   5.229   2.622
  772SOL     OW 3214   5.411   4.949   6.884
  772SOL    HW1 3215   5.464   4.953   6.969
  772SOL    HW2 3216   5.314   4.946   6.906
  773SOL     OW 3217   1.210   3.299   3.599
  773SOL    HW1 3218   1.310   3.299   3.592
  773SOL    HW2 3219   1.179   3.213   3.639
  774SOL     OW 3220   1.902   1.848   3.901
  774SOL    HW1 3221   1.866   1.815   3.989
  774SOL    HW2 3222   1.985   1.900   3.917
  775SOL     OW 3223   2.232   3.972   3.970
  775SOL    HW1 3224   2.321   3.929   3.984
  775SOL    HW2 3225   2.167   3.904   3.936
  776SOL     OW 3226   1.152   6.603   6.267
  776SOL    HW1 3227   1.110   6.675   6.213
  776SOL    HW2 3228   1.082   6.549   6.312
  777SOL     OW 3229   1.804   3.818   0.140
  777SOL    HW1 3230   1.881   3.861   0.188
  777SOL    HW2 3231   1.731   3.886   0.127
  778SOL     OW 3232   3.569   6.707   1.949
  778SOL    HW1 3233   3.553   6.666   1.859
  778SOL    HW2 3234   3.661   6.747   1.951
  779SOL     OW 3235   0.253   2.722   1.984
  779SOL    HW1 3236   0.274   2.777   2.064
  779SOL    HW2 3237   0.186   2.651   2.008
  780SOL     OW 3238   1.658   1.833   4.975
  780SOL    HW1 3239   1.721   1.910   4.974
  780SOL    HW2 3240   1.647   1.798   4.882
  781SOL     OW 3241   0.533   4.331   0.653
  781SOL    HW1 3242   0.467   4.301   0.723
  781SOL    HW2 3243   0.608   4.379   0.698
  782SOL     OW 3244   1.741   3.934   5.659
  782SOL    HW1 3245   1.778   3.843   5.672
  782SOL    HW2 3246   1.816   4.000   5.647
  783SOL     OW 3247   5.185   4.223   6.458
  783SOL    HW1 3248   5.193   4.183   6.549
  783SOL    HW2 3249   5.266   4.278   6.439
  784SOL     OW 3250   3.405   6.057   1.415
  784SOL    HW1 3251   3.322   6.094   1.457
  784SOL    HW2 3252   3.478   6.056   1.482
  785SOL     OW 3253   0.664   0.088   4.202
  785SOL    HW1 3254   0.627   0.010   4.151
  785SOL    HW2 3255   0.691   0.058   4.293
  786SOL     OW 3256   6.378   1.407   3.666
  786SOL    HW1 3257   6.338   1.482   3.614
  786SOL    HW2 3258   6.314   1.329   3.666
  787SOL     OW 3259   2.239   6.866   6.964
  787SOL    HW1 3260   2.164   6.803   6.943
  787SOL    HW2 3261   2.219   6.956   6.926
  788SOL     OW 3262   3.907   3.035   1.075
  788SOL    HW1 3263   3.881   3.099   1.148
  788SOL    HW2 3264   3.998   3.059   1.041
  789SOL     OW 3265   4.513   5.495   1.414
  789SOL    HW1 3266   4.583   5.501   1.486
  789SOL    HW2 3267   4.553   5.453   1.333
  790SOL     OW 3268   0.388   2.958   1.674
  790SOL    HW1 3269   0.302   2.968   1.723
  790SOL    HW2 3270   0.464   2.963   1.739
  791SOL     OW 3271   2.777   5.022   5.258
  791SOL    HW1 3272   2.714   4.954   5.293
  791SOL    HW2 3273   2.842   4.979   5.194
  792SOL     OW 3274   0.729   1.105   1.046
  792SOL    HW1 3275   0.762   1.199   1.058
  792SOL    HW2 3276   0.653   1.105   0.981
  793SOL     OW 3277   4.045   5.754   3.696
  793SOL    HW1 3278   4.066   5.689   3.623
  793SOL    HW2 3279   3.964   5.806   3.672
  794SOL     OW 3280   3.017   3.229   3.804
  794SOL    HW1 3281   3.032   3.150   3.744
  794SOL    HW2 3282   3.044   3.312   3.756
  795SOL     OW 3283   3.864   0.949   6.298
  795SOL    HW1 3284   3.766   0.969   6.308
  795SOL    HW2 3285   3.909   1.027   6.254
  796SOL     OW 3286   1.637   3.139   6.794
  796SOL    HW1 3287   1.666   3.220   6.846
  796SOL    HW2 3288   1.715   3.078   6.782
  797SOL     OW 3289   4.681   6.937   0.602
  797SOL    HW1 3290   4.604   7.001   0.595
  797SOL    HW2 3291   4.652   6.856   0.652
  798SOL     OW 3292   3.544   6.205   1.219
  798SOL    HW1 3293   3.486   6.153   1.282
  798SOL    HW2 3294   3.608   6.142   1.173
  799SOL     OW 3295   1.376   1.751   6.333
  799SOL    HW1 3296   1.280   1.726   6.324
  799SOL    HW2 3297   1.392   1.788   6.424
  800SOL     OW 3298   6.364   1.928   1.903
  800SOL    HW1 3299   6.437   1.864   1.930
  800SOL    HW2 3300   6.404   2.010   1.863
  801SOL     OW 3301   2.103   5.239   5.426
  801SOL    HW1 3302   2.086   5.312   5.361
  801SOL    HW2 3303   2.055   5.259   5.512
  802SOL     OW 3304   5.487   2.239   0.264
  802SOL    HW1 3305   5.509   2.232   0.361
  802SOL    HW2 3306   5.480   2.335   0.238
  803SOL     OW 3307   3.105   1.229   5.478
  803SOL    HW1 3308   3.178   1.272   5.532
  803SOL    HW2 3309   3.016   1.265   5.508
  804SOL     OW 3310   6.306   0.418   1.748
  804SOL    HW1 3311   6.315   0.344   1.814
  804SOL    HW2 3312   6.352   0.393   1.662
  805SOL     OW 3313   3.126   1.491   4.259
  805SOL    HW1 3314   3.179   1.424   4.310
  805SOL    HW2 3315   3.068   1.444   4.192
  806SOL     OW 3316   1.136   6.612   5.262
  806SOL    HW1 3317   1.142   6.704   5.300
  806SOL    HW2 3318   1.228   6.573   5.256
  807SOL     OW 3319   0.388   6.259   4.886
  807SOL    HW1 3320   0.420   6.318   4.812
  807SOL    HW2 3321   0.439   6.280   4.970
  808SOL     OW 3322   5.789   3.020   0.530
  808SOL    HW1 3323   5.799   3.108   0.484
  808SOL    HW2 3324   5.693   3.004   0.551
  809SOL     OW 3325   0.761   5.061   0.257
  809SOL    HW1 3326   0.776   4.965   0.282
  809SOL    HW2 3327   0.843   5.114   0.277
  810SOL     OW 3328   3.024   3.679   0.263
  810SOL    HW1 3329   2.997   3.770   0.294
  810SOL    HW2 3330   2.943   3.625   0.242
  811SOL     OW 3331   5.592   4.997   4.811
  811SOL    HW1 3332   5.571   4.916   4.866
  811SOL    HW2 3333   5.550   4.989   4.721
  812SOL     OW 3334   0.590   2.017   2.098
  812SOL    HW1 3335   0.614   1.992   2.191
  812SOL    HW2 3336   0.531   2.098   2.099
  813SOL     OW 3337   1.472   1.666   4.465
  813SOL    HW1 3338   1.398   1.716   4.509
  813SOL    HW2 3339   1.467   1.680   4.366
  814SOL     OW 3340   0.158   5.889   3.221
  814SOL    HW1 3341   0.205   5.847   3.143
  814SOL    HW2 3342   0.199   5.856   3.306
  815SOL     OW 3343   5.199   2.283   3.670
  815SOL    HW1 3344   5.175   2.263   3.765
  815SOL    HW2 3345   5.293   2.318   3.665
  816SOL     OW 3346   5.141   3.141   0.680
  816SOL    HW1 3347   5.233   3.108   0.701
  816SOL    HW2 3348   5.135   3.239   0.700
  817SOL     OW 3349   1.319   5.553   0.918
  817SOL    HW1 3350   1.335   5.461   0.880
  817SOL    HW2 3351   1.406   5.598   0.934
  818SOL     OW 3352   5.750   2.808   3.474
  818SOL    HW1 3353   5.676   2.787   3.411
  818SOL    HW2 3354   5.713   2.830   3.564
  819SOL     OW 3355   5.612   2.555   1.570
  819SOL    HW1 3356   5.694   2.502   1.547
  819SOL    HW2 3357   5.553   2.501   1.631
  820SOL     OW 3358   1.846   2.057   4.236
  820SOL    HW1 3359   1.818   2.152   4.221
  820SOL    HW2 3360   1.942   2.055   4.265
  821SOL     OW 3361   5.755   4.121   5.053
  821SOL    HW1 3362   5.757   4.122   5.153
  821SOL    HW2 3363   5.664   4.148   5.022
  822SOL     OW 3364   0.896   4.188   4.012
  822SOL    HW1 3365   0.824   4.133   4.056
  822SOL    HW2 3366   0.874   4.285   4.022
  823SOL     OW 3367   1.059   3.684   5.931
  823SOL    HW1 3368   1.063   3.740   5.848
  823SOL    HW2 3369   1.040   3.589   5.905
  824SOL     OW 3370   5.671   1.076   5.011
  824SOL    HW1 3371   5.729   1.106   4.936
  824SOL    HW2 3372   5.655   0.977   5.003
  825SOL     OW 3373   6.298   5.885   0.985
  825SOL    HW1 3374   6.398   5.884   0.983
  825SOL    HW2 3375   6.266   5.859   1.076
  826SOL     OW 3376   3.840   1.272   5.553
  826SOL    HW1 3377   3.924   1.273   5.608
  826SOL    HW2 3378   3.789   1.188   5.571
  827SOL     OW 3379   3.372   3.890   4.721
  827SOL    HW1 3380   3.391   3.816   4.785
  827SOL    HW2 3381   3.331   3.967   4.769
  828SOL     OW 3382   6.101   5.756   4.532
  828SOL    HW1 3383   6.060   5.668   4.556
  828SOL    HW2 3384   6.200   5.745   4.526
  829SOL     OW 3385   3.403   2.897   2.829
  829SOL    HW1 3386   3.406   2.907   2.928
  829SOL    HW2 3387   3.496   2.897   2.793
  830SOL     OW 3388   6.659   4.441   6.933
  830SOL    HW1 3389   6.610   4.363   6.971
  830SOL    HW2 3390   6.711   4.412   6.853
  831SOL     OW 3391   5.464   6.230   1.021
  831SOL    HW1 3392   5.466   6.306   1.086
  831SOL    HW2 3393   5.558   6.199   1.004
  832SOL     OW 3394   3.278   1.621   4.962
  832SOL    HW1 3395   3.253   1.636   4.867
  832SOL    HW2 3396   3.291   1.523   4.978
  833SOL     OW 3397   1.455   3.549   6.333
  833SOL    HW1 3398   1.555   3.539   6.341
  833SOL    HW2 3399   1.434   3.629   6.277
  834SOL     OW 3400   4.681   3.588   6.682
  834SOL    HW1 3401   4.779   3.608   6.673
  834SOL    HW2 3402   4.669   3.502   6.730
  835SOL     OW 3403   1.208   0.394   3.856
  835SOL    HW1 3404   1.162   0.389   3.944
  835SOL    HW2 3405   1.152   0.446   3.791
  836SOL     OW 3406   3.220   1.493   5.523
  836SOL    HW1 3407   3.191   1.562   5.590
  836SOL    HW2 3408   3.280   1.426   5.567
  837SOL     OW 3409   1.241   0.517   0.998
  837SOL    HW1 3410   1.323   0.487   1.047
  837SOL    HW2 3411   1.177   0.441   0.991
  838SOL     OW 3412   2.051   5.717   3.841
  838SOL    HW1 3413   2.129   5.672   3.798
  838SOL    HW2 3414   2.009   5.655   3.908
  839SOL     OW 3415   1.523   1.366   1.030
  839SOL    HW1 3416   1.615   1.327   1.034
  839SOL    HW2 3417   1.462   1.303   0.982
  840SOL     OW 3418   6.182   5.462   0.326
  840SOL    HW1 3419   6.129   5.390   0.282
  840SOL    HW2 3420   6.127   5.546   0.331
  841SOL     OW 3421   4.242   4.982   5.633
  841SOL    HW1 3422   4.219   5.017   5.724
  841SOL    HW2 3423   4.232   5.055   5.565
  842SOL     OW 3424   3.207   6.968   6.828
  842SOL    HW1 3425   3.136   6.899   6.820
  842SOL    HW2 3426   3.176   0.015   6.890
  843SOL     OW 3427   1.845   1.732   1.386
  843SOL    HW1 3428   1.822   1.808   1.325
  843SOL    HW2 3429   1.919   1.760   1.448
  844SOL     OW 3430   0.260   6.993   0.970
  844SOL    HW1 3431   0.326   6.926   0.936
  844SOL    HW2 3432   0.277   0.056   0.927
  845SOL     OW 3433   3.686   1.642   2.651
  845SOL    HW1 3434   3.706   1.636   2.749
  845SOL    HW2 3435   3.595   1.682   2.639
  846SOL     OW 3436   2.764   1.757   6.729
  846SOL    HW1 3437   2.773   1.678   6.790
  846SOL    HW2 3438   2.754   1.725   6.635
  847SOL     OW 3439   2.507   3.586   1.615
  847SOL    HW1 3440   2.445   3.647   1.663
  847SOL    HW2 3441   2.498   3.493   1.653
  848SOL     OW 3442   6.061   6.642   6.202
  848SOL    HW1 3443   6.091   6.575   6.134
  848SOL    HW2 3444   5.964   6.626   6.224
  849SOL     OW 3445   5.969   3.642   0.146
  849SOL    HW1 3446   6.067   3.659   0.161
  849SOL    HW2 3447   5.916   3.708   0.198
  850SOL     OW 3448   6.567   0.787   5.317
  850SOL    HW1 3449   6.523   0.783   5.227
  850SOL    HW2 3450   6.560   0.880   5.353
  851SOL     OW 3451   6.515   3.046   6.576
  851SOL    HW1 3452   6.598   3.102   6.570
  851SOL    HW2 3453   6.461   3.058   6.493
  852SOL     OW 3454   6.912   3.836   1.556
  852SOL    HW1 3455   6.878   3.917   1.506
  852SOL    HW2 3456   7.002   3.856   1.594
  853SOL     OW 3457   1.908   4.227   0.540
  853SOL    HW1 3458   1.833   4.202   0.478
  853SOL    HW2 3459   1.891   4.319   0.576
  854SOL     OW 3460   6.244   6.405   6.760
  854SOL    HW1 3461   6.197   6.385   6.674
  854SOL    HW2 3462   6.288   6.322   6.794
  855SOL     OW 3463   0.210   0.907   6.990
  855SOL    HW1 3464   0.199   0.810   7.013
  855SOL    HW2 3465   0.300   0.921   6.949
  856SOL     OW 3466   1.923   6.476   6.286
  856SOL    HW1 3467   1.855   6.404   6.305
  856SOL    HW2 3468   1.885   6.565   6.313
  857SOL     OW 3469   0.175   5.057   4.050
  857SOL    HW1 3470   0.150   4.982   3.989
  857SOL    HW2 3471   0.129   5.141   4.020
  858SOL     OW 3472   3.778   4.097   0.642
  858SOL    HW1 3473   3.872   4.070   0.623
  858SOL    HW2 3474   3.717   4.059   0.572
  859SOL     OW 3475   3.790   7.021   5.203
  859SOL    HW1 3476   3.803   0.048   5.287
  859SOL    HW2 3477   3.874   7.022   5.149
  860SOL     OW 3478   5.141   2.600   5.218
  860SOL    HW1 3479   5.085   2.533   5.267
  860SOL    HW2 3480   5.172   2.671   5.281
  861SOL     OW 3481   1.925   5.643   3.080
  861SOL    HW1 3482   1.920   5.734   3.039
  861SOL    HW2 3483   2.016   5.605   3.065
  862SOL     OW 3484   1.482   4.585   3.462
  862SOL    HW1 3485   1.453   4.669   3.508
  862SOL    HW2 3486   1.560   4.605   3.403
  863SOL     OW 3487   0.056   0.106   5.982
  863SOL    HW1 3488   0.052   0.031   6.048
  863SOL    HW2 3489   6.999   0.162   5.992
  864SOL     OW 3490   4.703   0.373   5.291
  864SOL    HW1 3491   4.772   0.421   5.238
  864SOL    HW2 3492   4.677   0.428   5.370
  865SOL     OW 3493   1.860   6.094   4.527
  865SOL    HW1 3494   1.940   6.110   4.585
  865SOL    HW2 3495   1.809   6.180   4.516
  866SOL     OW 3496   2.442   6.961   1.390
  866SOL    HW1 3497   2.540   6.943   1.398
  866SOL    HW2 3498   2.427   0.011   1.326
  867SOL     OW 3499   5.690   1.927   0.840
  867SOL    HW1 3500   5.648   1.836   0.839
  867SOL    HW2 3501   5.661   1.977   0.921
  868SOL     OW 3502   0.028   2.533   2.015
  868SOL    HW1 3503   0.013   2.525   2.113
  868SOL    HW2 3504   6.969   2.563   1.970
  869SOL     OW 3505   0.239   3.791   3.845
  869SOL    HW1 3506   0.233   3.885   3.814
  869SOL    HW2 3507   0.250   3.789   3.944
  870SOL     OW 3508   3.306   5.081   1.699
  870SOL    HW1 3509   3.267   4.998   1.739
  870SOL    HW2 3510   3.246   5.117   1.628
  871SOL     OW 3511   4.850   1.802   3.739
  871SOL    HW1 3512   4.766   1.855   3.743
  871SOL    HW2 3513   4.830   1.708   3.713
  872SOL     OW 3514   6.991   2.453   4.672
  872SOL    HW1 3515   6.949   2.543   4.685
  872SOL    HW2 3516   6.968   2.419   4.581
  873SOL     OW 3517   4.437   6.625   5.600
  873SOL    HW1 3518   4.340   6.622   5.624
  873SOL    HW2 3519   4.456   6.707   5.546
  874SOL     OW 3520   5.764   4.233   0.149
  874SOL    HW1 3521   5.743   4.331   0.151
  874SOL    HW2 3522   5.856   4.219   0.112
  875SOL     OW 3523   5.305   5.293   1.148
  875SOL    HW1 3524   5.229   5.354   1.122
  875SOL    HW2 3525   5.384   5.348   1.174
  876SOL     OW 3526   0.133   5.144   2.073
  876SOL    HW1 3527   0.039   5.155   2.106
  876SOL    HW2 3528   0.196   5.192   2.135
  877SOL     OW 3529   2.720   4.570   0.143
  877SOL    HW1 3530   2.768   4.630   0.206
  877SOL    HW2 3531   2.740   4.598   0.049
  878SOL     OW 3532   4.254   6.626   4.233
  878SOL    HW1 3533   4.225   6.531   4.241
  878SOL    HW2 3534   4.174   6.685   4.226
  879SOL     OW 3535   4.239   0.703   1.218
  879SOL    HW1 3536   4.300   0.709   1.139
  879SOL    HW2 3537   4.269   0.629   1.278
  880SOL     OW 3538   3.008   3.902   3.862
  880SOL    HW1 3539   3.010   3.949   3.773
  880SOL    HW2 3540   3.092   3.923   3.912
  881SOL     OW 3541   4.490   2.519   5.158
  881SOL    HW1 3542   4.545   2.507   5.075
  881SOL    HW2 3543   4.393   2.506   5.136
  882SOL     OW 3544   0.642   3.321   4.818
  882SOL    HW1 3545   0.625   3.392   4.887
  882SOL    HW2 3546   0.608   3.352   4.729
  883SOL     OW 3547   3.031   0.313   2.928
  883SOL    HW1 3548   3.090   0.321   3.008
  883SOL    HW2 3549   2.951   0.371   2.939
  884SOL     OW 3550   4.804   3.141   5.314
  884SOL    HW1 3551   4.810   3.241   5.312
  884SOL    HW2 3552   4.712   3.113   5.288
  885SOL     OW 3553   2.991   1.426   5.807
  885SOL    HW1 3554   2.957   1.389   5.721
  885SOL    HW2 3555   2.980   1.526   5.807
  886SOL     OW 3556   3.634   0.547   0.388
  886SOL    HW1 3557   3.659   0.451   0.370
  886SOL    HW2 3558   3.550   0.549   0.442
  887SOL     OW 3559   3.797   6.939   3.691
  887SOL    HW1 3560   3.807   6.842   3.672
  887SOL    HW2 3561   3.716   6.953   3.749
  888SOL     OW 3562   0.625   0.117   3.093
  888SOL    HW1 3563   0.530   0.105   3.120
  888SOL    HW2 3564   0.671   0.028   3.089
  889SOL     OW 3565   0.472   3.626   0.313
  889SOL    HW1 3566   0.448   3.563   0.238
  889SOL    HW2 3567   0.568   3.651   0.306
  890SOL     OW 3568   1.372   5.335   3.719
  890SOL    HW1 3569   1.274   5.342   3.737
  890SOL    HW2 3570   1.423   5.359   3.801
  891SOL     OW 3571   5.429   5.821   1.188
  891SOL    HW1 3572   5.527   5.821   1.165
  891SOL    HW2 3573   5.386   5.741   1.147
  892SOL     OW 3574   2.412   3.661   5.905
  892SOL    HW1 3575   2.493   3.689   5.957
  892SOL    HW2 3576   2.336   3.723   5.926
  893SOL     OW 3577   2.506   6.346   2.984
  893SOL    HW1 3578   2.423   6.291   3.000
  893SOL    HW2 3579   2.488   6.441   3.007
  894SOL     OW 3580   1.065   3.544   1.525
  894SOL    HW1 3581   1.098   3.507   1.438
  894SOL    HW2 3582   1.138   3.595   1.569
  895SOL     OW 3583   0.482   4.646   3.262
  895SOL    HW1 3584   0.435   4.663   3.175
  895SOL    HW2 3585   0.558   4.710   3.271
  896SOL     OW 3586   5.755   5.111   0.436
  896SOL    HW1 3587   5.774   5.205   0.464
  896SOL    HW2 3588   5.837   5.069   0.399
  897SOL     OW 3589   4.739   1.147   0.615
  897SOL    HW1 3590   4.644   1.177   0.624
  897SOL    HW2 3591   4.741   1.051   0.587
  898SOL     OW 3592   3.590   6.385   2.806
  898SOL    HW1 3593   3.649   6.415   2.731
  898SOL    HW2 3594   3.555   6.294   2.787
  899SOL     OW 3595   0.274   5.638   6.233
  899SOL    HW1 3596   0.327   5.691   6.298
  899SOL    HW2 3597   0.281   5.540   6.256
  900SOL     OW 3598   6.162   0.141   0.211
  900SOL    HW1 3599   6.138   0.200   0.134
  900SOL    HW2 3600   6.259   0.151   0.232
  901SOL     OW 3601   2.346   0.275   2.728
  901SOL    HW1 3602   2.357   0.275   2.629
  901SOL    HW2 3603   2.251   0.255   2.751
  902SOL     OW 3604   6.934   3.266   0.425
  902SOL    HW1 3605   6.866   3.334   0.399
  902SOL    HW2 3606   6.931   3.253   0.524
  903SOL     OW 3607   6.747   2.184   6.411
  903SOL    HW1 3608   6.719   2.168   6.316
  903SOL    HW2 3609   6.667   2.183   6.471
  904SOL     OW 3610   2.519   2.099   3.522
  904SOL    HW1 3611   2.611   2.135   3.508
  904SOL    HW2 3612   2.469   2.158   3.586
  905SOL     OW 3613   5.220   1.928   0.040
  905SOL    HW1 3614   5.314   1.940   0.073
  905SOL    HW2 3615   5.178   1.850   0.086
  906SOL     OW 3616   0.145   2.476   5.844
  906SOL    HW1 3617   0.157   2.568   5.806
  906SOL    HW2 3618   0.221   2.418   5.815
  907SOL     OW 3619   5.052   3.040   0.399
  907SOL    HW1 3620   4.963   3.069   0.364
  907SOL    HW2 3621   5.069   3.085   0.487
  908SOL     OW 3622   2.703   5.059   2.630
  908SOL    HW1 3623   2.643   5.008   2.568
  908SOL    HW2 3624   2.784   5.004   2.650
  909SOL     OW 3625   3.996   5.383   6.531
  909SOL    HW1 3626   4.053   5.300   6.528
  909SOL    HW2 3627   4.029   5.449   6.464
  910SOL     OW 3628   2.713   3.094   1.328
  910SOL    HW1 3629   2.756   3.095   1.238
  910SOL    HW2 3630   2.708   3.187   1.364
  911SOL     OW 3631   1.595   5.935   6.113
  911SOL    HW1 3632   1.691   5.939   6.085
  911SOL    HW2 3633   1.536   5.957   6.035
  912SOL     OW 3634   5.570   2.704   3.316
  912SOL    HW1 3635   5.512   2.629   3.347
  912SOL    HW2 3636   5.532   2.743   3.232
  913SOL     OW 3637   5.121   6.002   3.339
  913SOL    HW1 3638   5.218   5.980   3.327
  913SOL    HW2 3639   5.093   6.069   3.271
  914SOL     OW 3640   2.453   0.211   6.486
  914SOL    HW1 3641   2.385   0.256   6.544
  914SOL    HW2 3642   2.511   0.152   6.542
  915SOL     OW 3643   5.934   4.505   6.935
  915SOL    HW1 3644   5.965   4.413   6.957
  915SOL    HW2 3645   6.014   4.564   6.919
  916SOL     OW 3646   1.491   2.428   2.097
  916SOL    HW1 3647   1.490   2.434   1.997
  916SOL    HW2 3648   1.549   2.351   2.125
  917SOL     OW 3649   6.938   6.495   0.620
  917SOL    HW1 3650   6.952   6.495   0.521
  917SOL    HW2 3651   6.874   6.568   0.645
  918SOL     OW 3652   2.192   6.820   0.917
  918SOL    HW1 3653   2.218   6.891   0.851
  918SOL    HW2 3654   2.180   6.733   0.870
  919SOL     OW 3655   5.587   1.193   3.638
  919SOL    HW1 3656   5.625   1.213   3.547
  919SOL    HW2 3657   5.605   1.270   3.699
  920SOL     OW 3658   2.364   4.663   1.532
  920SOL    HW1 3659   2.318   4.601   1.595
  920SOL    HW2 3660   2.384   4.616   1.446
  921SOL     OW 3661   5.037   5.388   4.180
  921SOL    HW1 3662   5.068   5.408   4.086
  921SOL    HW2 3663   5.025   5.289   4.190
  922SOL     OW 3664   3.817   3.483   4.295
  922SOL    HW1 3665   3.795   3.543   4.218
  922SOL    HW2 3666   3.795   3.389   4.272
  923SOL     OW 3667   2.240   2.990   5.945
  923SOL    HW1 3668   2.328   3.019   5.983
  923SOL    HW2 3669   2.249   2.898   5.907
  924SOL     OW 3670   6.452   3.753   2.542
  924SOL    HW1 3671   6.551   3.750   2.529
  924SOL    HW2 3672   6.407   3.723   2.457
  925SOL     OW 3673   6.887   2.165   0.340
  925SOL    HW1 3674   6.906   2.193   0.434
  925SOL    HW2 3675   6.815   2.095   0.340
  926SOL     OW 3676   6.877   1.568   1.420
  926SOL    HW1 3677   6.908   1.663   1.429
  926SOL    HW2 3678   6.809   1.548   1.490
  927SOL     OW 3679   5.818   3.949   3.960
  927SOL    HW1 3680   5.764   3.865   3.963
  927SOL    HW2 3681   5.914   3.926   3.944
  928SOL     OW 3682   2.897   6.131   0.221
  928SOL    HW1 3683   2.911   6.061   0.152
  928SOL    HW2 3684   2.833   6.098   0.290
  929SOL     OW 3685   6.559   1.557   6.963
  929SOL    HW1 3686   6.597   1.648   6.950
  929SOL    HW2 3687   6.578   1.501   6.881
  930SOL     OW 3688   4.094   5.105   5.865
  930SOL    HW1 3689   4.023   5.059   5.812
  930SOL    HW2 3690   4.052   5.178   5.919
  931SOL     OW 3691   6.597   2.171   3.705
  931SOL    HW1 3692   6.631   2.262   3.730
  931SOL    HW2 3693   6.503   2.161   3.736
  932SOL     OW 3694   3.701   1.116   3.904
  932SOL    HW1 3695   3.715   1.161   3.992
  932SOL    HW2 3696   3.715   1.183   3.830
  933SOL     OW 3697   1.332   4.915   2.687
  933SOL    HW1 3698   1.279   4.996   2.663
  933SOL    HW2 3699   1.429   4.939   2.693
  934SOL     OW 3700   2.403   5.649   6.147
  934SOL    HW1 3701   2.405   5.652   6.047
  934SOL    HW2 3702   2.312   5.622   6.178
  935SOL     OW 3703   4.952   4.119   3.420
  935SOL    HW1 3704   4.956   4.178   3.501
  935SOL    HW2 3705   4.867   4.136   3.371
  936SOL     OW 3706   1.442   0.400   5.782
  936SOL    HW1 3707   1.377   0.383   5.856
  936SOL    HW2 3708   1.536   0.391   5.818
  937SOL     OW 3709   4.370   1.296   5.574
  937SOL    HW1 3710   4.306   1.343   5.514
  937SOL    HW2 3711   4.461   1.296   5.532
  938SOL     OW 3712   6.744   5.605   4.222
  938SOL    HW1 3713   6.721   5.619   4.125
  938SOL    HW2 3714   6.838   5.637   4.238
  939SOL     OW 3715   6.865   6.667   4.748
  939SOL    HW1 3716   6.938   6.698   4.809
  939SOL    HW2 3717   6.788   6.633   4.802
  940SOL     OW 3718   1.266   4.705   1.067
  940SOL    HW1 3719   1.262   4.742   1.159
  940SOL    HW2 3720   1.350   4.651   1.056
  941SOL     OW 3721   4.185   0.519   6.427
  941SOL    HW1 3722   4.115   0.448   6.421
  941SOL    HW2 3723   4.266   0.483   6.474
  942SOL     OW 3724   6.532   6.069   0.839
  942SOL    HW1 3725   6.544   6.165   0.814
  942SOL    HW2 3726   6.469   6.025   0.775
  943SOL     OW 3727   2.816   4.820   2.778
  943SOL    HW1 3728   2.744   4.754   2.801
  943SOL    HW2 3729   2.869   4.786   2.700
  944SOL     OW 3730   0.199   6.365   4.304
  944SOL    HW1 3731   0.161   6.457   4.310
  944SOL    HW2 3732   0.138   6.300   4.348
  945SOL     OW 3733   0.219   5.753   5.657
  945SOL    HW1 3734   0.276   5.743   5.575
  945SOL    HW2 3735   0.165   5.670   5.670
  946SOL     OW 3736   4.918   4.783   4.366
  946SOL    HW1 3737   4.988   4.727   4.409
  946SOL    HW2 3738   4.857   4.820   4.436
  947SOL     OW 3739   4.152   3.643   3.893
  947SOL    HW1 3740   4.153   3.597   3.804
  947SOL    HW2 3741   4.096   3.725   3.887
  948SOL     OW 3742   4.768   1.178   2.636
  948SOL    HW1 3743   4.819   1.238   2.697
  948SOL    HW2 3744   4.783   1.205   2.541
  949SOL     OW 3745   2.851   6.556   0.635
  949SOL    HW1 3746   2.772   6.522   0.687
  949SOL    HW2 3747   2.921   6.485   0.630
  950SOL     OW 3748   6.669   5.727   1.905
  950SOL    HW1 3749   6.739   5.784   1.861
  950SOL    HW2 3750   6.613   5.784   1.966
  951SOL     OW 3751   1.734   7.005   3.452
  951SOL    HW1 3752   1.833   7.006   3.438
  951SOL    HW2 3753   1.704   0.070   3.482
  952SOL     OW 3754   3.952   2.184   2.630
  952SOL    HW1 3755   3.904   2.257   2.581
  952SOL    HW2 3756   3.885   2.115   2.660
  953SOL     OW 3757   6.751   5.404   4.794
  953SOL    HW1 3758   6.703   5.483   4.832
  953SOL    HW2 3759   6.778   5.342   4.867
  954SOL     OW 3760   4.836   5.444   2.105
  954SOL    HW1 3761   4.798   5.514   2.164
  954SOL    HW2 3762   4.926   5.473   2.072
  955SOL     OW 3763   1.459   4.652   6.909
  955SOL    HW1 3764   1.520   4.731   6.910
  955SOL    HW2 3765   1.514   4.568   6.904
  956SOL     OW 3766   0.077   0.589   0.758
  956SOL    HW1 3767   0.061   0.569   0.855
  956SOL    HW2 3768   0.174   0.609   0.745
  957SOL     OW 3769   6.081   1.935   2.892
  957SOL    HW1 3770   6.129   1.847   2.885
  957SOL    HW2 3771   6.140   2.007   2.855
  958SOL     OW 3772   5.258   6.867   2.308
  958SOL    HW1 3773   5.217   6.856   2.399
  958SOL    HW2 3774   5.240   6.959   2.274
  959SOL     OW 3775   3.467   6.917   4.117
  959SOL    HW1 3776   3.383   6.928   4.064
  959SOL    HW2 3777   3.482   7.000   4.172
  960SOL     OW 3778   0.549   0.270   0.047
  960SOL    HW1 3779   0.561   0.230   0.138
  960SOL    HW2 3780   0.496   0.209   7.015
  961SOL     OW 3781   3.237   6.383   3.109
  961SOL    HW1 3782   3.227   6.449   3.034
  961SOL    HW2 3783   3.312   6.321   3.087
  962SOL     OW 3784   6.283   0.127   4.835
  962SOL    HW1 3785   6.342   0.191   4.884
  962SOL    HW2 3786   6.188   0.157   4.843
  963SOL     OW 3787   4.610   2.218   1.245
  963SOL    HW1 3788   4.592   2.316   1.256
  963SOL    HW2 3789   4.528   2.173   1.208
  964SOL     OW 3790   5.348   4.725   5.187
  964SOL    HW1 3791   5.249   4.713   5.179
  964SOL    HW2 3792   5.394   4.642   5.158
  965SOL     OW 3793   5.397   2.363   2.746
  965SOL    HW1 3794   5.396   2.426   2.824
  965SOL    HW2 3795   5.449   2.404   2.671
  966SOL     OW 3796   4.998   2.024   3.523
  966SOL    HW1 3797   5.067   1.989   3.587
  966SOL    HW2 3798   4.933   2.081   3.572
  967SOL     OW 3799   4.905   4.269   6.417
  967SOL    HW1 3800   5.004   4.269   6.431
  967SOL    HW2 3801   4.877   4.357   6.379
  968SOL     OW 3802   3.919   0.358   1.961
  968SOL    HW1 3803   3.839   0.321   2.009
  968SOL    HW2 3804   3.992   0.290   1.962
  969SOL     OW 3805   3.347   4.812   5.624
  969SOL    HW1 3806   3.441   4.796   5.596
  969SOL    HW2 3807   3.286   4.804   5.544
  970SOL     OW 3808   6.414   0.398   5.268
  970SOL    HW1 3809   6.456   0.451   5.342
  970SOL    HW2 3810   6.420   0.300   5.291
  971SOL     OW 3811   6.894   4.531   3.116
  971SOL    HW1 3812   6.972   4.504   3.172
  971SOL    HW2 3813   6.809   4.503   3.161
  972SOL     OW 3814   0.044   2.552   1.004
  972SOL    HW1 3815   0.008   2.557   1.097
  972SOL    HW2 3816   6.995   2.544   0.939
  973SOL     OW 3817   0.357   4.346   6.120
  973SOL    HW1 3818   0.320   4.307   6.204
  973SOL    HW2 3819   0.301   4.318   6.042
  974SOL     OW 3820   0.322   4.841   4.375
  974SOL    HW1 3821   0.318   4.786   4.291
  974SOL    HW2 3822   0.243   4.902   4.378
  975SOL     OW 3823   2.036   6.547   2.038
  975SOL    HW1 3824   2.129   6.541   2.003
  975SOL    HW2 3825   1.975   6.494   1.979
  976SOL     OW 3826   6.476   4.279   2.154
  976SOL    HW1 3827   6.476   4.213   2.080
  976SOL    HW2 3828   6.569   4.295   2.186
  977SOL     OW 3829   0.902   1.387   2.086
  977SOL    HW1 3830   0.982   1.439   2.056
  977SOL    HW2 3831   0.932   1.305   2.136
  978SOL     OW 3832   5.592   2.249   2.008
  978SOL    HW1 3833   5.643   2.169   1.973
  978SOL    HW2 3834   5.578   2.238   2.106
  979SOL     OW 3835   0.055   3.554   6.553
  979SOL    HW1 3836   6.987   3.537   6.523
  979SOL    HW2 3837   0.063   3.536   6.651
  980SOL     OW 3838   3.914   1.213   4.864
  980SOL    HW1 3839   3.912   1.163   4.778
  980SOL    HW2 3840   3.826   1.258   4.879
  981SOL     OW 3841   0.090   0.341   4.990
  981SOL    HW1 3842   0.163   0.405   4.968
  981SOL    HW2 3843   0.129   0.259   5.031
  982SOL     OW 3844   0.667   1.926   5.316
  982SOL    HW1 3845   0.723   1.845   5.335
  982SOL    HW2 3846   0.577   1.915   5.357
  983SOL     OW 3847   0.561   3.835   3.651
  983SOL    HW1 3848   0.486   3.771   3.670
  983SOL    HW2 3849   0.580   3.836   3.553
  984SOL     OW 3850   1.618   2.297   3.376
  984SOL    HW1 3851   1.668   2.258   3.453
  984SOL    HW2 3852   1.682   2.340   3.312
  985SOL     OW 3853   6.262   3.635   4.005
  985SOL    HW1 3854   6.329   3.706   4.029
  985SOL    HW2 3855   6.221   3.598   4.089
  986SOL     OW 3856   4.919   4.151   1.429
  986SOL    HW1 3857   4.956   4.064   1.396
  986SOL    HW2 3858   4.958   4.172   1.518
  987SOL     OW 3859   5.982   5.370   3.325
  987SOL    HW1 3860   5.947   5.428   3.400
  987SOL    HW2 3861   6.076   5.396   3.305
  988SOL     OW 3862   3.633   3.996   1.733
  988SOL    HW1 3863   3.663   3.964   1.823
  988SOL    HW2 3864   3.643   4.095   1.728
  989SOL     OW 3865   0.173   2.293   0.711
  989SOL    HW1 3866   0.224   2.291   0.797
  989SOL    HW2 3867   0.218   2.355   0.647
  990SOL     OW 3868   3.531   0.919   3.122
  990SOL    HW1 3869   3.584   0.931   3.038
  990SOL    HW2 3870   3.587   0.944   3.201
  991SOL     OW 3871   6.860   3.922   3.916
  991SOL    HW1 3872   6.857   3.855   3.990
  991SOL    HW2 3873   6.951   3.963   3.911
  992SOL     OW 3874   1.139   2.577   1.278
  992SOL    HW1 3875   1.107   2.617   1.364
  992SOL    HW2 3876   1.096   2.624   1.201
  993SOL     OW 3877   1.541   4.600   1.087
  993SOL    HW1 3878   1.557   4.592   1.185
  993SOL    HW2 3879   1.565   4.693   1.057
  994SOL     OW 3880   3.453   6.634   1.694
  994SOL    HW1 3881   3.433   6.699   1.621
  994SOL    HW2 3882   3.424   6.542   1.665
  995SOL     OW 3883   5.017   3.565   5.698
  995SOL    HW1 3884   5.067   3.480   5.684
  995SOL    HW2 3885   5.062   3.618   5.770
  996SOL     OW 3886   4.123   5.924   5.439
  996SOL    HW1 3887   4.220   5.920   5.414
  996SOL    HW2 3888   4.068   5.931   5.356
  997SOL     OW 3889   1.340   6.552   3.839
  997SOL    HW1 3890   1.259   6.500   3.814
  997SOL    HW2 3891   1.314   6.647   3.858
  998SOL     OW 3892   5.959   0.017   6.285
  998SOL    HW1 3893   6.040   6.985   6.298
  998SOL    HW2 3894   5.945   0.034   6.187
  999SOL     OW 3895   4.804   3.278   1.527
  999SOL    HW1 3896   4.868   3.218   1.576
  999SOL    HW2 3897   4.720   3.286   1.580
 1000SOL     OW 3898   3.950   1.846   1.491
 1000SOL    HW1 3899   3.950   1.848   1.591
 1000SOL    HW2 3900   3.858   1.824   1.459
 1001SOL     OW 3901   2.865   6.943   2.039
 1001SOL    HW1 3902   2.794   6.874   2.026
 1001SOL    HW2 3903   2.848   6.993   2.124
 1002SOL     OW 3904   5.387   2.748   1.519
 1002SOL    HW1 3905   5.387   2.753   1.419
 1002SOL    HW2 3906   5.412   2.656   1.548
 1003SOL     OW 3907   0.925   6.264   2.529
 1003SOL    HW1 3908   0.976   6.315   2.459
 1003SOL    HW2 3909   0.904   6.173   2.495
 1004SOL     OW 3910   6.290   1.585   3.494
 1004SOL    HW1 3911   6.279   1.684   3.498
 1004SOL    HW2 3912   6.359   1.562   3.426
 1005SOL     OW 3913   1.357   4.320   3.921
 1005SOL    HW1 3914   1.279   4.345   3.864
 1005SOL    HW2 3915   1.325   4.291   4.011
 1006SOL     OW 3916   2.385   4.257   0.547
 1006SOL    HW1 3917   2.309   4.195   0.568
 1006SOL    HW2 3918   2.462   4.204   0.511
 1007SOL     OW 3919   4.460   1.819   6.455
 1007SOL    HW1 3920   4.450   1.918   6.456
 1007SOL    HW2 3921   4.388   1.777   6.509
 1008SOL     OW 3922   0.649   4.743   5.133
 1008SOL    HW1 3923   0.680   4.814   5.069
 1008SOL    HW2 3924   0.564   4.774   5.178
 1009SOL     OW 3925   5.986   4.985   5.094
 1009SOL    HW1 3926   5.985   4.941   5.183
 1009SOL    HW2 3927   6.034   4.927   5.029
 1010SOL     OW 3928   2.261   3.100   1.441
 1010SOL    HW1 3929   2.341   3.081   1.499
 1010SOL    HW2 3930   2.179   3.100   1.498
 1011SOL     OW 3931   0.675   5.233   2.459
 1011SOL    HW1 3932   0.753   5.206   2.515
 1011SOL    HW2 3933   0.677   5.184   2.372
 1012SOL     OW 3934   5.897   0.264   2.247
 1012SOL    HW1 3935   5.938   0.351   2.219
 1012SOL    HW2 3936   5.962   0.190   2.233
 1013SOL     OW 3937   6.967   0.759   5.824
 1013SOL    HW1 3938   6.886   0.775   5.767
 1013SOL    HW2 3939   0.023   0.786   5.774
 1014SOL     OW 3940   1.659   4.951   3.872
 1014SOL    HW1 3941   1.649   5.039   3.919
 1014SOL    HW2 3942   1.747   4.910   3.898
 1015SOL     OW 3943   3.553   0.116   6.405
 1015SOL    HW1 3944   3.542   0.178   6.327
 1015SOL    HW2 3945   3.507   0.154   6.485
 1016SOL     OW 3946   5.267   3.845   1.297
 1016SOL    HW1 3947   5.328   3.776   1.337
 1016SOL    HW2 3948   5.241   3.911   1.368
 1017SOL     OW 3949   1.954   1.520   1.693
 1017SOL    HW1 3950   1.859   1.489   1.698
 1017SOL    HW2 3951   1.957   1.608   1.646
 1018SOL     OW 3952   0.128   5.177   3.680
 1018SOL    HW1 3953   0.141   5.244   3.753
 1018SOL    HW2 3954   0.161   5.088   3.710
 1019SOL     OW 3955   6.979   4.736   0.822
 1019SOL    HW1 3956   6.886   4.754   0.855
 1019SOL    HW2 3957   6.974   4.681   0.739
 1020SOL     OW 3958   0.216   0.129   1.629
 1020SOL    HW1 3959   0.278   0.116   1.551
 1020SOL    HW2 3960   0.133   0.176   1.598
 1021SOL     OW 3961   6.386   5.991   1.698
 1021SOL    HW1 3962   6.382   5.928   1.775
 1021SOL    HW2 3963   6.360   5.943   1.614
 1022SOL     OW 3964   2.312   6.219   6.141
 1022SOL    HW1 3965   2.312   6.305   6.191
 1022SOL    HW2 3966   2.218   6.193   6.120
 1023SOL     OW 3967   0.372   1.651   3.040
 1023SOL    HW1 3968   0.375   1.674   2.943
 1023SOL    HW2 3969   0.464   1.662   3.079
 1024SOL     OW 3970   0.969   1.513   4.892
 1024SOL    HW1 3971   0.901   1.585   4.884
 1024SOL    HW2 3972   1.046   1.546   4.946
 1025SOL     OW 3973   5.385   3.574   6.584
 1025SOL    HW1 3974   5.415   3.604   6.494
 1025SOL    HW2 3975   5.349   3.652   6.635
 1026SOL     OW 3976   2.984   2.325   1.462
 1026SOL    HW1 3977   3.022   2.394   1.525
 1026SOL    HW2 3978   3.054   2.257   1.442
 1027SOL     OW 3979   1.031   6.043   1.569
 1027SOL    HW1 3980   1.032   6.116   1.638
 1027SOL    HW2 3981   1.045   5.955   1.613
 1028SOL     OW 3982   1.008   6.446   3.185
 1028SOL    HW1 3983   1.050   6.356   3.174
 1028SOL    HW2 3984   0.952   6.467   3.105
 1029SOL     OW 3985   1.166   2.288   5.709
 1029SOL    HW1 3986   1.081   2.256   5.669
 1029SOL    HW2 3987   1.178   2.249   5.800
 1030SOL     OW 3988   3.248   3.440   1.604
 1030SOL    HW1 3989   3.190   3.506   1.557
 1030SOL    HW2 3990   3.325   3.487   1.647
 1031SOL     OW 3991   3.640   3.247   1.665
 1031SOL    HW1 3992   3.565   3.211   1.721
 1031SOL    HW2 3993   3.724   3.198   1.689
 1032SOL     OW 3994   2.274   1.221   6.059
 1032SOL    HW1 3995   2.194   1.240   6.117
 1032SOL    HW2 3996   2.274   1.284   5.982
 1033SOL     OW 3997   0.738   6.066   2.268
 1033SOL    HW1 3998   0.798   6.096   2.194
 1033SOL    HW2 3999   0.704   5.974   2.249
 1034SOL     OW 4000   3.530   6.739   4.337
 1034SOL    HW1 4001   3.494   6.786   4.256
 1034SOL    HW2 4002   3.490   6.648   4.344
 1035SOL     OW 4003   0.587   1.710   5.700
 1035SOL    HW1 4004   0.540   1.723   5.612
 1035SOL    HW2 4005   0.566   1.618   5.735
 1036SOL     OW 4006   5.088   1.179   1.339
 1036SOL    HW1 4007   5.132   1.094   1.308
 1036SOL    HW2 4008   5.001   1.157   1.382
 1037SOL     OW 4009   2.217   2.491   2.753
 1037SOL    HW1 4010   2.141   2.443   2.796
 1037SOL    HW2 4011   2.192   2.515   2.659
 1038SOL     OW 4012   2.473   0.266   6.888
 1038SOL    HW1 4013   2.541   0.277   6.816
 1038SOL    HW2 4014   2.434   0.355   6.913
 1039SOL     OW 4015   3.142   3.214   3.510
 1039SOL    HW1 4016   3.068   3.281   3.509
 1039SOL    HW2 4017   3.208   3.237   3.439
 1040SOL     OW 4018   4.527   1.069   2.501
 1040SOL    HW1 4019   4.589   1.049   2.425
 1040SOL    HW2 4020   4.576   1.124   2.570
 1041SOL     OW 4021   6.965   6.092   4.772
 1041SOL    HW1 4022   0.009   6.031   4.808
 1041SOL    HW2 4023   6.911   6.131   4.847
 1042SOL     OW 4024   4.742   4.905   2.360
 1042SOL    HW1 4025   4.703   4.838   2.424
 1042SOL    HW2 4026   4.833   4.874   2.332
 1043SOL     OW 4027   3.446   1.265   3.575
 1043SOL    HW1 4028   3.437   1.362   3.596
 1043SOL    HW2 4029   3.535   1.232   3.608
 1044SOL     OW 4030   5.967   4.502   1.029
 1044SOL    HW1 4031   5.881   4.551   1.015
 1044SOL    HW2 4032   5.948   4.413   1.072
 1045SOL     OW 4033   2.153   0.664   3.703
 1045SOL    HW1 4034   2.216   0.625   3.635
 1045SOL    HW2 4035   2.077   0.709   3.656
 1046SOL     OW 4036   3.080   1.315   1.258
 1046SOL    HW1 4037   3.158   1.270   1.303
 1046SOL    HW2 4038   3.112   1.398   1.212
 1047SOL     OW 4039   3.273   6.811   3.844
 1047SOL    HW1 4040   3.211   6.738   3.870
 1047SOL    HW2 4041   3.360   6.772   3.813
 1048SOL     OW 4042   1.915   5.899   2.194
 1048SOL    HW1 4043   1.824   5.920   2.230
 1048SOL    HW2 4044   1.907   5.835   2.118
 1049SOL     OW 4045   3.735   0.013   4.465
 1049SOL    HW1 4046   3.830   7.013   4.445
 1049SOL    HW2 4047   3.704   0.080   4.398
 1050SOL     OW 4048   4.148   5.337   3.806
 1050SOL    HW1 4049   4.247   5.347   3.799
 1050SOL    HW2 4050   4.115   5.385   3.887
 1051SOL     OW 4051   6.994   6.786   0.096
 1051SOL    HW1 4052   6.968   6.879   0.122
 1051SOL    HW2 4053   6.939   6.757   0.017
 1052SOL     OW 4054   4.152   0.309   6.109
 1052SOL    HW1 4055   4.068   0.256   6.121
 1052SOL    HW2 4056   4.195   0.324   6.198
 1053SOL     OW 4057   5.742   3.423   2.210
 1053SOL    HW1 4058   5.753   3.519   2.234
 1053SOL    HW2 4059   5.664   3.413   2.148
 1054SOL     OW 4060   3.133   4.171   0.741
 1054SOL    HW1 4061   3.148   4.105   0.668
 1054SOL    HW2 4062   3.218   4.186   0.791
 1055SOL     OW 4063   4.920   5.861   7.017
 1055SOL    HW1 4064   4.960   5.949   6.990
 1055SOL    HW2 4065   4.981   5.815   0.055
 1056SOL     OW 4066   1.962   4.461   0.341
 1056SOL    HW1 4067   2.052   4.425   0.367
 1056SOL    HW2 4068   1.909   4.482   0.423
 1057SOL     OW 4069   3.517   1.895   1.591
 1057SOL    HW1 4070   3.556   1.850   1.511
 1057SOL    HW2 4071   3.566   1.981   1.607
 1058SOL     OW 4072   3.682   2.121   2.876
 1058SOL    HW1 4073   3.739   2.059   2.822
 1058SOL    HW2 4074   3.586   2.112   2.847
 1059SOL     OW 4075   2.034   5.991   1.968
 1059SOL    HW1 4076   2.012   5.967   2.062
 1059SOL    HW2 4077   1.951   5.985   1.912
 1060SOL     OW 4078   0.435   5.560   4.478
 1060SOL    HW1 4079   0.340   5.559   4.445
 1060SOL    HW2 4080   0.478   5.646   4.454
 1061SOL     OW 4081   6.689   3.751   0.202
 1061SOL    HW1 4082   6.652   3.689   0.133
 1061SOL    HW2 4083   6.778   3.784   0.173
 1062SOL     OW 4084   4.156   6.485   5.072
 1062SOL    HW1 4085   4.130   6.554   5.004
 1062SOL    HW2 4086   4.191   6.404   5.025
 1063SOL     OW 4087   0.965   6.930   5.847
 1063SOL    HW1 4088   0.966   0.005   5.846
 1063SOL    HW2 4089   1.058   6.896   5.830
 1064SOL     OW 4090   0.895   4.579   1.153
 1064SOL    HW1 4091   0.963   4.650   1.171
 1064SOL    HW2 4092   0.804   4.621   1.145
 1065SOL     OW 4093   3.854   0.901   4.139
 1065SOL    HW1 4094   3.928   0.905   4.072
 1065SOL    HW2 4095   3.892   0.874   4.228
 1066SOL     OW 4096   4.969   0.484   2.161
 1066SOL    HW1 4097   4.887   0.501   2.106
 1066SOL    HW2 4098   4.947   0.421   2.235
 1067SOL     OW 4099   2.935   0.904   0.403
 1067SOL    HW1 4100   2.942   0.944   0.312
 1067SOL    HW2 4101   3.020   0.921   0.453
 1068SOL     OW 4102   6.325   3.538   0.684
 1068SOL    HW1 4103   6.331   3.516   0.586
 1068SOL    HW2 4104   6.259   3.476   0.728
 1069SOL     OW 4105   5.798   4.194   0.871
 1069SOL    HW1 4106   5.874   4.207   0.935
 1069SOL    HW2 4107   5.817   4.116   0.812
 1070SOL     OW 4108   2.345   0.772   2.480
 1070SOL    HW1 4109   2.313   0.714   2.556
 1070SOL    HW2 4110   2.269   0.827   2.446
 1071SOL     OW 4111   6.947   2.389   4.981
 1071SOL    HW1 4112   6.936   2.297   4.943
 1071SOL    HW2 4113   6.983   2.450   4.911
 1072SOL     OW 4114   2.882   0.668   1.759
 1072SOL    HW1 4115   2.903   0.749   1.815
 1072SOL    HW2 4116   2.832   0.602   1.814
 1073SOL     OW 4117   5.390   1.607   3.344
 1073SOL    HW1 4118   5.364   1.680   3.408
 1073SOL    HW2 4119   5.318   1.597   3.275
 1074SOL     OW 4120   3.162   4.863   2.157
 1074SOL    HW1 4121   3.141   4.867   2.255
 1074SOL    HW2 4122   3.261   4.870   2.143
 1075SOL     OW 4123   5.884   1.751   5.340
 1075SOL    HW1 4124   5.862   1.790   5.429
 1075SOL    HW2 4125   5.904   1.825   5.275
 1076SOL     OW 4126   2.140   4.038   5.310
 1076SOL    HW1 4127   2.207   4.052   5.237
 1076SOL    HW2 4128   2.060   3.990   5.274
 1077SOL     OW 4129   6.921   0.695   0.120
 1077SOL    HW1 4130   6.936   0.793   0.109
 1077SOL    HW2 4131   6.917   0.672   0.217
 1078SOL     OW 4132   6.500   6.873   4.101
 1078SOL    HW1 4133   6.413   6.839   4.067
 1078SOL    HW2 4134   6.549   6.798   4.146
 1079SOL     OW 4135   1.391   5.776   2.361
 1079SOL    HW1 4136   1.388   5.676   2.366
 1079SOL    HW2 4137   1.463   5.810   2.421
 1080SOL     OW 4138   2.063   5.667   5.212
 1080SOL    HW1 4139   1.977   5.718   5.202
 1080SOL    HW2 4140   2.136   5.715   5.163
 1081SOL     OW 4141   6.507   5.338   4.651
 1081SOL    HW1 4142   6.600   5.338   4.686
 1081SOL    HW2 4143   6.443   5.334   4.728
 1082SOL     OW 4144   5.649   0.013   5.865
 1082SOL    HW1 4145   5.630   0.110   5.880
 1082SOL    HW2 4146   5.563   6.987   5.871
 1083SOL     OW 4147   5.051   3.951   0.598
 1083SOL    HW1 4148   5.049   4.000   0.685
 1083SOL    HW2 4149   5.029   4.013   0.523
 1084SOL     OW 4150   6.665   6.878   6.609
 1084SOL    HW1 4151   6.751   6.873   6.559
 1084SOL    HW2 4152   6.595   6.920   6.552
 1085SOL     OW 4153   1.724   3.900   4.085
 1085SOL    HW1 4154   1.777   3.931   4.163
 1085SOL    HW2 4155   1.741   3.803   4.068
 1086SOL     OW 4156   6.697   4.634   6.155
 1086SOL    HW1 4157   6.788   4.666   6.125
 1086SOL    HW2 4158   6.631   4.708   6.143
 1087SOL     OW 4159   1.491   0.812   5.232
 1087SOL    HW1 4160   1.434   0.877   5.283
 1087SOL    HW2 4161   1.476   0.720   5.267
 1088SOL     OW 4162   6.876   4.976   3.608
 1088SOL    HW1 4163   6.792   4.935   3.644
 1088SOL    HW2 4164   6.889   5.067   3.648
 1089SOL     OW 4165   7.015   4.872   4.592
 1089SOL    HW1 4166   0.086   4.851   4.597
 1089SOL    HW2 4167   6.969   4.840   4.675
 1090SOL     OW 4168   5.919   1.573   4.502
 1090SOL    HW1 4169   5.989   1.638   4.471
 1090SOL    HW2 4170   5.836   1.623   4.528
 1091SOL     OW 4171   2.024   3.439   3.900
 1091SOL    HW1 4172   1.959   3.490   3.845
 1091SOL    HW2 4173   1.985   3.423   3.991
 1092SOL     OW 4174   1.109   5.111   1.103
 1092SOL    HW1 4175   1.073   5.175   1.036
 1092SOL    HW2 4176   1.052   5.028   1.103
 1093SOL     OW 4177   2.525   6.522   1.554
 1093SOL    HW1 4178   2.546   6.444   1.495
 1093SOL    HW2 4179   2.489   6.597   1.498
 1094SOL     OW 4180   1.142   6.931   2.534
 1094SOL    HW1 4181   1.211   6.880   2.585
 1094SOL    HW2 4182   1.132   7.023   2.574
 1095SOL     OW 4183   6.977   2.814   6.619
 1095SOL    HW1 4184   6.991   2.888   6.553
 1095SOL    HW2 4185   6.984   2.726   6.572
 1096SOL     OW 4186   2.913   5.792   1.014
 1096SOL    HW1 4187   2.993   5.789   0.953
 1096SOL    HW2 4188   2.897   5.886   1.042
 1097SOL     OW 4189   1.978   5.214   3.808
 1097SOL    HW1 4190   1.952   5.140   3.871
 1097SOL    HW2 4191   2.055   5.184   3.752
 1098SOL     OW 4192   6.040   4.268   6.980
 1098SOL    HW1 4193   6.066   4.280   6.884
 1098SOL    HW2 4194   6.035   4.170   7.001
 1099SOL     OW 4195   4.425   1.582   6.173
 1099SOL    HW1 4196   4.495   1.651   6.190
 1099SOL    HW2 4197   4.420   1.519   6.251
 1100SOL     OW 4198   4.076   0.886   3.778
 1100SOL    HW1 4199   4.148   0.859   3.715
 1100SOL    HW2 4200   4.054   0.810   3.839
 1101SOL     OW 4201   5.592   2.983   5.341
 1101SOL    HW1 4202   5.603   3.036   5.257
 1101SOL    HW2 4203   5.674   2.991   5.397
 1102SOL     OW 4204   2.287   0.695   4.514
 1102SOL    HW1 4205   2.269   0.633   4.438
 1102SOL    HW2 4206   2.256   0.787   4.491
 1103SOL     OW 4207   2.876   0.856   6.543
 1103SOL    HW1 4208   2.827   0.917   6.480
 1103SOL    HW2 4209   2.852   0.761   6.523
 1104SOL     OW 4210   0.802   4.492   3.348
 1104SOL    HW1 4211   0.788   4.395   3.367
 1104SOL    HW2 4212   0.716   4.541   3.362
 1105SOL     OW 4213   5.658   1.460   5.082
 1105SOL    HW1 4214   5.641   1.364   5.102
 1105SOL    HW2 4215   5.662   1.512   5.167
 1106SOL     OW 4216   0.851   1.291   0.042
 1106SOL    HW1 4217   0.838   1.192   0.032
 1106SOL    HW2 4218   0.865   1.313   0.138
 1107SOL     OW 4219   1.335   0.770   6.372
 1107SOL    HW1 4220   1.324   0.753   6.470
 1107SOL    HW2 4221   1.398   0.846   6.358
 1108SOL     OW 4222   3.080   6.138   4.583
 1108SOL    HW1 4223   3.180   6.134   4.577
 1108SOL    HW2 4224   3.046   6.053   4.624
 1109SOL     OW 4225   5.520   1.440   3.842
 1109SOL    HW1 4226   5.440   1.460   3.785
 1109SOL    HW2 4227   5.602   1.476   3.797
 1110SOL     OW 4228   3.378   1.002   2.619
 1110SOL    HW1 4229   3.365   0.981   2.522
 1110SOL    HW2 4230   3.290   1.029   2.659
 1111SOL     OW 4231   4.840   4.017   6.345
 1111SOL    HW1 4232   4.868   4.114   6.344
 1111SOL    HW2 4233   4.876   3.972   6.264
 1112SOL     OW 4234   6.400   0.170   3.123
 1112SOL    HW1 4235   6.412   0.165   3.024
 1112SOL    HW2 4236   6.328   0.107   3.151
 1113SOL     OW 4237   6.308   4.040   2.852
 1113SOL    HW1 4238   6.217   4.000   2.852
 1113SOL    HW2 4239   6.375   3.970   2.824
 1114SOL     OW 4240   3.970   2.536   6.044
 1114SOL    HW1 4241   3.969   2.636   6.045
 1114SOL    HW2 4242   3.937   2.503   5.955
 1115SOL     OW 4243   3.092   3.982   5.684
 1115SOL    HW1 4244   3.043   3.906   5.727
 1115SOL    HW2 4245   3.187   3.956   5.668
 1116SOL     OW 4246   5.013   1.226   0.381
 1116SOL    HW1 4247   4.922   1.195   0.407
 1116SOL    HW2 4248   5.024   1.216   0.282
 1117SOL     OW 4249   1.139   2.517   1.692
 1117SOL    HW1 4250   1.042   2.517   1.668
 1117SOL    HW2 4251   1.168   2.423   1.713
 1118SOL     OW 4252   2.781   5.451   6.946
 1118SOL    HW1 4253   2.831   5.525   6.989
 1118SOL    HW2 4254   2.829   5.422   6.862
 1119SOL     OW 4255   4.127   4.829   3.388
 1119SOL    HW1 4256   4.120   4.926   3.410
 1119SOL    HW2 4257   4.222   4.799   3.398
 1120SOL     OW 4258   6.477   5.487   1.120
 1120SOL    HW1 4259   6.515   5.537   1.043
 1120SOL    HW2 4260   6.551   5.446   1.174
 1121SOL     OW 4261   0.970   5.250   4.458
 1121SOL    HW1 4262   0.923   5.211   4.538
 1121SOL    HW2 4263   1.011   5.177   4.404
 1122SOL     OW 4264   5.576   2.876   2.135
 1122SOL    HW1 4265   5.629   2.941   2.080
 1122SOL    HW2 4266   5.615   2.871   2.227
 1123SOL     OW 4267   4.110   1.955   3.002
 1123SOL    HW1 4268   4.080   2.046   3.033
 1123SOL    HW2 4269   4.209   1.954   2.991
 1124SOL     OW 4270   1.751   2.770   4.923
 1124SOL    HW1 4271   1.818   2.801   4.991
 1124SOL    HW2 4272   1.687   2.843   4.903
 1125SOL     OW 4273   1.860   3.752   4.569
 1125SOL    HW1 4274   1.831   3.773   4.476
 1125SOL    HW2 4275   1.957   3.727   4.569
 1126SOL     OW 4276   3.961   5.810   5.705
 1126SOL    HW1 4277   3.948   5.880   5.635
 1126SOL    HW2 4278   3.983   5.854   5.793
 1127SOL     OW 4279   5.234   6.125   3.652
 1127SOL    HW1 4280   5.223   6.064   3.730
 1127SOL    HW2 4281   5.144   6.144   3.612
 1128SOL     OW 4282   6.188   1.141   3.682
 1128SOL    HW1 4283   6.113   1.100   3.734
 1128SOL    HW2 4284   6.177   1.118   3.585
 1129SOL     OW 4285   1.725   6.496   1.099
 1129SOL    HW1 4286   1.729   6.532   1.006
 1129SOL    HW2 4287   1.771   6.559   1.161
 1130SOL     OW 4288   1.728   5.231   2.813
 1130SOL    HW1 4289   1.736   5.157   2.880
 1130SOL    HW2 4290   1.785   5.308   2.842
 1131SOL     OW 4291   1.187   6.933   4.228
 1131SOL    HW1 4292   1.171   6.840   4.194
 1131SOL    HW2 4293   1.150   6.942   4.320
 1132SOL     OW 4294   4.451   0.866   2.668
 1132SOL    HW1 4295   4.359   0.865   2.707
 1132SOL    HW2 4296   4.457   0.938   2.599
 1133SOL     OW 4297   1.257   0.063   5.090
 1133SOL    HW1 4298   1.178   0.013   5.054
 1133SOL    HW2 4299   1.333   7.025   5.103
 1134SOL     OW 4300   4.567   6.918   1.803
 1134SOL    HW1 4301   4.646   6.978   1.790
 1134SOL    HW2 4302   4.595   6.834   1.849
 1135SOL     OW 4303   2.659   6.358   3.447
 1135SOL    HW1 4304   2.699   6.266   3.446
 1135SOL    HW2 4305   2.680   6.402   3.534
 1136SOL     OW 4306   2.683   6.040   2.795
 1136SOL    HW1 4307   2.678   6.139   2.781
 1136SOL    HW2 4308   2.616   5.994   2.737
 1137SOL     OW 4309   0.474   6.248   6.439
 1137SOL    HW1 4310   0.565   6.246   6.480
 1137SOL    HW2 4311   0.407   6.212   6.504
 1138SOL     OW 4312   2.041   3.329   5.337
 1138SOL    HW1 4313   2.043   3.335   5.437
 1138SOL    HW2 4314   2.090   3.407   5.298
 1139SOL     OW 4315   2.446   4.609   4.080
 1139SOL    HW1 4316   2.356   4.611   4.036
 1139SOL    HW2 4317   2.515   4.648   4.019
 1140SOL     OW 4318   2.019   1.305   1.509
 1140SOL    HW1 4319   1.976   1.358   1.437
 1140SOL    HW2 4320   2.083   1.362   1.560
 1141SOL     OW 4321   5.710   5.099   6.095
 1141SOL    HW1 4322   5.759   5.075   6.179
 1141SOL    HW2 4323   5.775   5.132   6.027
 1142SOL     OW 4324   2.540   6.794   3.750
 1142SOL    HW1 4325   2.506   6.738   3.675
 1142SOL    HW2 4326   2.620   6.846   3.720
 1143SOL     OW 4327   1.303   3.645   1.605
 1143SOL    HW1 4328   1.372   3.635   1.533
 1143SOL    HW2 4329   1.338   3.708   1.675
 1144SOL     OW 4330   5.424   4.375   2.567
 1144SOL    HW1 4331   5.480   4.366   2.485
 1144SOL    HW2 4332   5.480   4.405   2.644
 1145SOL     OW 4333   1.214   2.343   0.457
 1145SOL    HW1 4334   1.295   2.385   0.498
 1145SOL    HW2 4335   1.214   2.245   0.477
 1146SOL     OW 4336   0.723   1.324   1.759
 1146SOL    HW1 4337   0.814   1.301   1.793
 1146SOL    HW2 4338   0.693   1.410   1.798
 1147SOL     OW 4339   3.173   5.623   1.428
 1147SOL    HW1 4340   3.094   5.646   1.485
 1147SOL    HW2 4341   3.256   5.660   1.469
 1148SOL     OW 4342   4.105   6.117   2.030
 1148SOL    HW1 4343   4.179   6.168   1.986
 1148SOL    HW2 4344   4.018   6.140   1.986
 1149SOL     OW 4345   6.163   2.952   1.977
 1149SOL    HW1 4346   6.130   2.963   1.883
 1149SOL    HW2 4347   6.103   2.889   2.026
 1150SOL     OW 4348   1.600   4.422   6.873
 1150SOL    HW1 4349   1.650   4.381   6.797
 1150SOL    HW2 4350   1.516   4.370   6.890
 1151SOL     OW 4351   6.412   5.352   3.618
 1151SOL    HW1 4352   6.498   5.357   3.567
 1151SOL    HW2 4353   6.424   5.293   3.698
 1152SOL     OW 4354   4.374   0.845   0.174
 1152SOL    HW1 4355   4.455   0.870   0.122
 1152SOL    HW2 4356   4.399   0.821   0.268
 1153SOL     OW 4357   6.953   0.012   1.514
 1153SOL    HW1 4358   6.983   0.104   1.490
 1153SOL    HW2 4359   7.023   6.972   1.485
 1154SOL     OW 4360   1.195   3.499   2.774
 1154SOL    HW1 4361   1.141   3.470   2.695
 1154SOL    HW2 4362   1.292   3.488   2.753
 1155SOL     OW 4363   2.336   6.998   4.856
 1155SOL    HW1 4364   2.301   6.925   4.914
 1155SOL    HW2 4365   2.362   0.050   4.913
 1156SOL     OW 4366   3.969   1.620   4.242
 1156SOL    HW1 4367   4.031   1.670   4.183
 1156SOL    HW2 4368   4.021   1.564   4.307
 1157SOL     OW 4369   4.243   0.633   5.563
 1157SOL    HW1 4370   4.274   0.717   5.520
 1157SOL    HW2 4371   4.218   0.567   5.492
 1158SOL     OW 4372   5.172   5.944   3.905
 1158SOL    HW1 4373   5.086   5.898   3.882
 1158SOL    HW2 4374   5.245   5.877   3.913
 1159SOL     OW 4375   6.553   6.544   3.409
 1159SOL    HW1 4376   6.460   6.579   3.395
 1159SOL    HW2 4377   6.552   6.444   3.403
 1160SOL     OW 4378   4.331   6.848   1.137
 1160SOL    HW1 4379   4.418   6.801   1.150
 1160SOL    HW2 4380   4.286   6.860   1.226
 1161SOL     OW 4381   6.667   5.376   6.573
 1161SOL    HW1 4382   6.746   5.434   6.554
 1161SOL    HW2 4383   6.643   5.324   6.492
 1162SOL     OW 4384   1.914   3.045   5.674
 1162SOL    HW1 4385   1.932   3.013   5.767
 1162SOL    HW2 4386   2.000   3.064   5.628
 1163SOL     OW 4387   5.896   4.133   2.216
 1163SOL    HW1 4388   5.833   4.114   2.141
 1163SOL    HW2 4389   5.974   4.185   2.181
 1164SOL     OW 4390   5.631   2.016   4.521
 1164SOL    HW1 4391   5.607   1.949   4.452
 1164SOL    HW2 4392   5.551   2.036   4.578
 1165SOL     OW 4393   4.571   5.937   3.614
 1165SOL    HW1 4394   4.533   5.847   3.593
 1165SOL    HW2 4395   4.605   5.979   3.530
 1166SOL     OW 4396   2.211   6.430   6.276
 1166SOL    HW1 4397   2.263   6.498   6.224
 1166SOL    HW2 4398   2.130   6.472   6.315
 1167SOL     OW 4399   4.865   4.129   2.060
 1167SOL    HW1 4400   4.774   4.169   2.075
 1167SOL    HW2 4401   4.934   4.189   2.100
 1168SOL     OW 4402   5.984   2.588   2.534
 1168SOL    HW1 4403   6.041   2.667   2.557
 1168SOL    HW2 4404   5.992   2.569   2.436
 1169SOL     OW 4405   5.650   1.035   5.572
 1169SOL    HW1 4406   5.725   0.985   5.614
 1169SOL    HW2 4407   5.673   1.133   5.568
 1170SOL     OW 4408   4.865   0.133   3.072
 1170SOL    HW1 4409   4.892   0.148   2.977
 1170SOL    HW2 4410   4.905   0.047   3.104
 1171SOL     OW 4411   1.787   6.968   0.494
 1171SOL    HW1 4412   1.846   0.014   0.458
 1171SOL    HW2 4413   1.805   6.955   0.592
 1172SOL     OW 4414   6.020   3.477   0.444
 1172SOL    HW1 4415   5.935   3.516   0.479
 1172SOL    HW2 4416   6.088   3.550   0.433
 1173SOL     OW 4417   2.818   0.684   1.155
 1173SOL    HW1 4418   2.802   0.762   1.214
 1173SOL    HW2 4419   2.741   0.620   1.161
 1174SOL     OW 4420   3.504   3.750   1.637
 1174SOL    HW1 4421   3.533   3.843   1.659
 1174SOL    HW2 4422   3.479   3.702   1.721
 1175SOL     OW 4423   4.266   3.220   5.706
 1175SOL    HW1 4424   4.250   3.315   5.733
 1175SOL    HW2 4425   4.191   3.163   5.740
 1176SOL     OW 4426   4.771   3.219   5.926
 1176SOL    HW1 4427   4.834   3.142   5.921
 1176SOL    HW2 4428   4.746   3.247   5.833
 1177SOL     OW 4429   6.196   2.603   5.302
 1177SOL    HW1 4430   6.111   2.639   5.342
 1177SOL    HW2 4431   6.224   2.521   5.352
 1178SOL     OW 4432   2.787   4.048   0.954
 1178SOL    HW1 4433   2.856   3.976   0.960
 1178SOL    HW2 4434   2.826   4.128   0.908
 1179SOL     OW 4435   2.232   6.195   0.350
 1179SOL    HW1 4436   2.221   6.245   0.437
 1179SOL    HW2 4437   2.296   6.119   0.363
 1180SOL     OW 4438   3.075   5.666   1.988
 1180SOL    HW1 4439   3.010   5.591   1.979
 1180SOL    HW2 4440   3.120   5.660   2.077
 1181SOL     OW 4441   0.627   5.413   6.548
 1181SOL    HW1 4442   0.717   5.455   6.553
 1181SOL    HW2 4443   0.635   5.315   6.568
 1182SOL     OW 4444   3.662   5.521   3.145
 1182SOL    HW1 4445   3.576   5.571   3.132
 1182SOL    HW2 4446   3.643   5.424   3.153
 1183SOL     OW 4447   1.844   4.933   0.389
 1183SOL    HW1 4448   1.834   4.890   0.479
 1183SOL    HW2 4449   1.754   4.947   0.349
 1184SOL     OW 4450   0.680   0.625   4.272
 1184SOL    HW1 4451   0.628   0.680   4.207
 1184SOL    HW2 4452   0.778   0.647   4.264
 1185SOL     OW 4453   0.027   1.030   6.327
 1185SOL    HW1 4454   0.114   1.080   6.331
 1185SOL    HW2 4455   0.041   0.936   6.357
 1186SOL     OW 4456   4.800   5.231   4.803
 1186SOL    HW1 4457   4.730   5.256   4.737
 1186SOL    HW2 4458   4.857   5.158   4.765
 1187SOL     OW 4459   6.757   6.847   6.866
 1187SOL    HW1 4460   6.719   6.864   6.775
 1187SOL    HW2 4461   6.723   6.915   6.930
 1188SOL     OW 4462   2.916   6.216   5.278
 1188SOL    HW1 4463   3.007   6.254   5.293
 1188SOL    HW2 4464   2.848   6.289   5.280
 1189SOL     OW 4465   6.583   3.162   2.747
 1189SOL    HW1 4466   6.574   3.195   2.653
 1189SOL    HW2 4467   6.676   3.178   2.780
 1190SOL     OW 4468   2.502   6.051   3.543
 1190SOL    HW1 4469   2.490   6.040   3.444
 1190SOL    HW2 4470   2.434   6.116   3.577
 1191SOL     OW 4471   4.410   5.049   3.379
 1191SOL    HW1 4472   4.368   5.038   3.469
 1191SOL    HW2 4473   4.346   5.097   3.319
 1192SOL     OW 4474   3.402   5.650   3.357
 1192SOL    HW1 4475   3.462   5.577   3.391
 1192SOL    HW2 4476   3.418   5.663   3.259
 1193SOL     OW 4477   6.008   4.287   4.503
 1193SOL    HW1 4478   6.062   4.359   4.548
 1193SOL    HW2 4479   5.965   4.324   4.421
 1194SOL     OW 4480   5.423   6.982   1.648
 1194SOL    HW1 4481   5.377   6.999   1.735
 1194SOL    HW2 4482   5.420   6.884   1.628
 1195SOL     OW 4483   6.331   4.545   1.865
 1195SOL    HW1 4484   6.256   4.583   1.919
 1195SOL    HW2 4485   6.305   4.542   1.769
 1196SOL     OW 4486   6.921   5.940   2.956
 1196SOL    HW1 4487   6.959   6.015   2.902
 1196SOL    HW2 4488   6.943   5.853   2.913
 1197SOL     OW 4489   3.802   0.972   6.660
 1197SOL    HW1 4490   3.886   0.930   6.625
 1197SOL    HW2 4491   3.820   1.014   6.749
 1198SOL     OW 4492   1.139   3.022   1.787
 1198SOL    HW1 4493   1.092   3.108   1.807
 1198SOL    HW2 4494   1.237   3.034   1.799
 1199SOL     OW 4495   4.748   4.933   1.728
 1199SOL    HW1 4496   4.689   4.867   1.773
 1199SOL    HW2 4497   4.723   4.941   1.631
 1200SOL     OW 4498   3.261   3.351   2.956
 1200SOL    HW1 4499   3.195   3.322   2.886
 1200SOL    HW2 4500   3.221   3.421   3.014
 1201SOL     OW 4501   0.898   0.873   4.585
 1201SOL    HW1 4502   0.981   0.871   4.641
 1201SOL    HW2 4503   0.884   0.783   4.544
 1202SOL     OW 4504   0.682   6.029   6.513
 1202SOL    HW1 4505   0.592   6.008   6.475
 1202SOL    HW2 4506   0.752   6.017   6.442
 1203SOL     OW 4507   5.578   6.110   6.758
 1203SOL    HW1 4508   5.507   6.104   6.689
 1203SOL    HW2 4509   5.628   6.024   6.762
 1204SOL     OW 4510   2.701   0.408   1.147
 1204SOL    HW1 4511   2.656   0.428   1.060
 1204SOL    HW2 4512   2.632   0.389   1.217
 1205SOL     OW 4513   5.277   3.992   1.523
 1205SOL    HW1 4514   5.265   4.076   1.575
 1205SOL    HW2 4515   5.337   3.929   1.573
 1206SOL     OW 4516   3.350   2.924   5.015
 1206SOL    HW1 4517   3.318   2.921   4.920
 1206SOL    HW2 4518   3.272   2.943   5.075
 1207SOL     OW 4519   1.925   0.223   1.037
 1207SOL    HW1 4520   1.975   0.235   1.122
 1207SOL    HW2 4521   1.927   0.308   0.984
 1208SOL     OW 4522   3.414   4.231   0.501
 1208SOL    HW1 4523   3.354   4.302   0.464
 1208SOL    HW2 4524   3.475   4.272   0.569
 1209SOL     OW 4525   3.948   0.648   5.564
 1209SOL    HW1 4526   3.944   0.659   5.465
 1209SOL    HW2 4527   4.043   0.660   5.594
 1210SOL     OW 4528   2.504   6.953   2.870
 1210SOL    HW1 4529   2.566   6.946   2.791
 1210SOL    HW2 4530   2.409   6.950   2.839
 1211SOL     OW 4531   2.071   3.506   1.322
 1211SOL    HW1 4532   2.134   3.498   1.245
 1211SOL    HW2 4533   2.117   3.473   1.405
 1212SOL     OW 4534   0.241   0.950   6.005
 1212SOL    HW1 4535   0.247   0.875   5.939
 1212SOL    HW2 4536   0.200   0.915   6.090
 1213SOL     OW 4537   5.796   2.476   0.483
 1213SOL    HW1 4538   5.864   2.459   0.412
 1213SOL    HW2 4539   5.842   2.494   0.570
 1214SOL     OW 4540   6.955   2.246   0.622
 1214SOL    HW1 4541   0.021   2.253   0.661
 1214SOL    HW2 4542   6.916   2.338   0.614
 1215SOL     OW 4543   1.631   4.386   3.973
 1215SOL    HW1 4544   1.694   4.315   3.943
 1215SOL    HW2 4545   1.537   4.353   3.965
 1216SOL     OW 4546   4.035   0.682   0.397
 1216SOL    HW1 4547   4.010   0.585   0.400
 1216SOL    HW2 4548   3.952   0.737   0.385
 1217SOL     OW 4549   1.376   5.327   0.805
 1217SOL    HW1 4550   1.466   5.284   0.801
 1217SOL    HW2 4551   1.307   5.262   0.772
 1218SOL     OW 4552   1.449   4.924   4.355
 1218SOL    HW1 4553   1.472   4.911   4.259
 1218SOL    HW2 4554   1.441   4.836   4.400
 1219SOL     OW 4555   5.411   5.604   2.073
 1219SOL    HW1 4556   5.361   5.518   2.083
 1219SOL    HW2 4557   5.347   5.677   2.050
 1220SOL     OW 4558   0.848   5.280   2.999
 1220SOL    HW1 4559   0.832   5.199   3.056
 1220SOL    HW2 4560   0.778   5.286   2.929
 1221SOL     OW 4561   5.161   2.799   5.444
 1221SOL    HW1 4562   5.157   2.715   5.498
 1221SOL    HW2 4563   5.250   2.842   5.455
 1222SOL     OW 4564   6.115   0.279   7.009
 1222SOL    HW1 4565   6.147   0.228   6.930
 1222SOL    HW2 4566   6.021   0.311   6.993
 1223SOL     OW 4567   3.952   0.537   0.642
 1223SOL    HW1 4568   3.920   0.631   0.625
 1223SOL    HW2 4569   3.993   0.531   0.733
 1224SOL     OW 4570   2.429   6.702   1.327
 1224SOL    HW1 4571   2.431   6.794   1.364
 1224SOL    HW2 4572   2.351   6.693   1.264
 1225SOL     OW 4573   3.428   4.270   6.093
 1225SOL    HW1 4574   3.442   4.329   6.014
 1225SOL    HW2 4575   3.393   4.181   6.062
 1226SOL     OW 4576   2.405   4.513   1.296
 1226SOL    HW1 4577   2.470   4.496   1.222
 1226SOL    HW2 4578   2.393   4.429   1.350
 1227SOL     OW 4579   6.993   3.267   6.773
 1227SOL    HW1 4580   6.904   3.245   6.812
 1227SOL    HW2 4581   0.007   3.345   6.822
 1228SOL     OW 4582   4.091   3.458   6.428
 1228SOL    HW1 4583   4.115   3.362   6.445
 1228SOL    HW2 4584   4.037   3.465   6.344
 1229SOL     OW 4585   4.572   4.450   5.967
 1229SOL    HW1 4586   4.473   4.460   5.957
 1229SOL    HW2 4587   4.592   4.366   6.017
 1230SOL     OW 4588   4.522   0.523   4.554
 1230SOL    HW1 4589   4.482   0.485   4.471
 1230SOL    HW2 4590   4.551   0.617   4.538
 1231SOL     OW 4591   1.936   3.970   5.149
 1231SOL    HW1 4592   1.839   3.992   5.148
 1231SOL    HW2 4593   1.948   3.873   5.171
 1232SOL     OW 4594   1.087   2.011   5.148
 1232SOL    HW1 4595   1.182   2.037   5.130
 1232SOL    HW2 4596   1.026   2.082   5.111
 1233SOL     OW 4597   1.771   3.079   5.302
 1233SOL    HW1 4598   1.856   3.090   5.250
 1233SOL    HW2 4599   1.785   3.012   5.375
 1234SOL     OW 4600   6.910   4.293   3.900
 1234SOL    HW1 4601   6.911   4.219   3.832
 1234SOL    HW2 4602   6.817   4.305   3.933
 1235SOL     OW 4603   6.941   6.277   2.426
 1235SOL    HW1 4604   7.007   6.275   2.501
 1235SOL    HW2 4605   6.984   6.241   2.343
 1236SOL     OW 4606   5.097   0.923   6.376
 1236SOL    HW1 4607   5.036   0.975   6.436
 1236SOL    HW2 4608   5.134   0.845   6.425
 1237SOL     OW 4609   2.661   4.825   6.317
 1237SOL    HW1 4610   2.603   4.745   6.333
 1237SOL    HW2 4611   2.708   4.815   6.229
 1238SOL     OW 4612   2.024   1.189   0.920
 1238SOL    HW1 4613   2.067   1.214   1.007
 1238SOL    HW2 4614   2.009   1.090   0.919
 1239SOL     OW 4615   6.848   6.299   6.278
 1239SOL    HW1 4616   6.808   6.227   6.335
 1239SOL    HW2 4617   6.776   6.361   6.247
 1240SOL     OW 4618   5.764   6.387   1.534
 1240SOL    HW1 4619   5.725   6.393   1.626
 1240SOL    HW2 4620   5.855   6.345   1.539
 1241SOL     OW 4621   6.570   3.538   3.976
 1241SOL    HW1 4622   6.614   3.553   4.065
 1241SOL    HW2 4623   6.479   3.579   3.976
 1242SOL     OW 4624   1.769   3.643   6.918
 1242SOL    HW1 4625   1.817   3.656   7.005
 1242SOL    HW2 4626   1.832   3.664   6.843
 1243SOL     OW 4627   1.803   5.547   5.578
 1243SOL    HW1 4628   1.806   5.597   5.664
 1243SOL    HW2 4629   1.860   5.465   5.585
 1244SOL     OW 4630   0.051   0.261   2.670
 1244SOL    HW1 4631   6.986   0.292   2.640
 1244SOL    HW2 4632   0.095   0.211   2.595
 1245SOL     OW 4633   3.588   3.648   6.361
 1245SOL    HW1 4634   3.627   3.661   6.452
 1245SOL    HW2 4635   3.498   3.693   6.357
 1246SOL     OW 4636   2.099   6.408   2.359
 1246SOL    HW1 4637   2.169   6.479   2.369
 1246SOL    HW2 4638   2.008   6.450   2.362
 1247SOL     OW 4639   2.598   7.003   6.610
 1247SOL    HW1 4640   2.592   6.987   6.708
 1247SOL    HW2 4641   2.689   6.978   6.577
 1248SOL     OW 4642   1.485   6.798   3.817
 1248SOL    HW1 4643   1.561   6.811   3.879
 1248SOL    HW2 4644   1.487   6.869   3.746
 1249SOL     OW 4645   5.357   2.937   2.446
 1249SOL    HW1 4646   5.446   2.947   2.401
 1249SOL    HW2 4647   5.353   2.848   2.491
 1250SOL     OW 4648   0.969   4.484   4.551
 1250SOL    HW1 4649   0.996   4.388   4.565
 1250SOL    HW2 4650   1.032   4.544   4.600
 1251SOL     OW 4651   3.912   0.322   4.520
 1251SOL    HW1 4652   3.994   0.276   4.555
 1251SOL    HW2 4653   3.838   0.313   4.587
 1252SOL     OW 4654   3.422   4.082   5.851
 1252SOL    HW1 4655   3.343   4.140   5.872
 1252SOL    HW2 4656   3.395   4.011   5.787
 1253SOL     OW 4657   3.608   5.584   2.299
 1253SOL    HW1 4658   3.571   5.636   2.222
 1253SOL    HW2 4659   3.535   5.532   2.342
 1254SOL     OW 4660   6.043   2.856   2.934
 1254SOL    HW1 4661   6.065   2.869   3.031
 1254SOL    HW2 4662   6.047   2.945   2.887
 1255SOL     OW 4663   0.021   0.484   5.399
 1255SOL    HW1 4664   0.042   0.555   5.332
 1255SOL    HW2 4665   6.955   0.499   5.436
 1256SOL     OW 4666   6.943   0.112   2.875
 1256SOL    HW1 4667   7.010   0.154   2.937
 1256SOL    HW2 4668   6.954   0.151   2.783
 1257SOL     OW 4669   6.857   0.829   3.189
 1257SOL    HW1 4670   6.806   0.885   3.124
 1257SOL    HW2 4671   6.796   0.765   3.235
 1258SOL     OW 4672   0.840   5.748   3.042
 1258SOL    HW1 4673   0.751   5.737   2.999
 1258SOL    HW2 4674   0.910   5.703   2.985
 1259SOL     OW 4675   4.223   1.602   4.659
 1259SOL    HW1 4676   4.191   1.683   4.707
 1259SOL    HW2 4677   4.152   1.532   4.659
 1260SOL     OW 4678   0.927   1.192   6.414
 1260SOL    HW1 4679   0.922   1.093   6.426
 1260SOL    HW2 4680   1.003   1.214   6.353
 1261SOL     OW 4681   6.777   5.058   0.283
 1261SOL    HW1 4682   6.790   5.041   0.185
 1261SOL    HW2 4683   6.856   5.023   0.333
 1262SOL     OW 4684   5.721   5.479   1.926
 1262SOL    HW1 4685   5.723   5.389   1.969
 1262SOL    HW2 4686   5.675   5.544   1.985
 1263SOL     OW 4687   0.971   1.925   2.220
 1263SOL    HW1 4688   0.929   1.965   2.139
 1263SOL    HW2 4689   0.939   1.831   2.231
 1264SOL     OW 4690   1.067   3.921   5.099
 1264SOL    HW1 4691   1.079   4.009   5.054
 1264SOL    HW2 4692   0.982   3.923   5.153
 1265SOL     OW 4693   6.377   5.437   5.079
 1265SOL    HW1 4694   6.400   5.491   5.160
 1265SOL    HW2 4695   6.371   5.497   4.999
 1266SOL     OW 4696   1.339   1.130   4.933
 1266SOL    HW1 4697   1.365   1.035   4.919
 1266SOL    HW2 4698   1.246   1.145   4.900
 1267SOL     OW 4699   4.935   0.691   1.783
 1267SOL    HW1 4700   5.031   0.685   1.756
 1267SOL    HW2 4701   4.925   0.759   1.856
 1268SOL     OW 4702   4.170   2.355   5.382
 1268SOL    HW1 4703   4.247   2.371   5.443
 1268SOL    HW2 4704   4.166   2.430   5.315
 1269SOL     OW 4705   5.491   2.364   3.991
 1269SOL    HW1 4706   5.429   2.323   4.059
 1269SOL    HW2 4707   5.480   2.316   3.904
 1270SOL     OW 4708   1.890   4.697   2.447
 1270SOL    HW1 4709   1.934   4.639   2.516
 1270SOL    HW2 4710   1.851   4.778   2.492
 1271SOL     OW 4711   1.815   1.320   1.038
 1271SOL    HW1 4712   1.869   1.293   0.958
 1271SOL    HW2 4713   1.818   1.246   1.106
 1272SOL     OW 4714   6.364   3.819   6.618
 1272SOL    HW1 4715   6.392   3.728   6.648
 1272SOL    HW2 4716   6.415   3.844   6.536
 1273SOL     OW 4717   1.389   4.386   5.179
 1273SOL    HW1 4718   1.304   4.335   5.186
 1273SOL    HW2 4719   1.377   4.463   5.116
 1274SOL     OW 4720   0.287   4.494   2.091
 1274SOL    HW1 4721   0.362   4.503   2.026
 1274SOL    HW2 4722   0.257   4.585   2.120
 1275SOL     OW 4723   3.225   1.101   3.585
 1275SOL    HW1 4724   3.298   1.169   3.593
 1275SOL    HW2 4725   3.137   1.148   3.583
 1276SOL     OW 4726   5.373   5.094   4.256
 1276SOL    HW1 4727   5.373   5.097   4.156
 1276SOL    HW2 4728   5.466   5.081   4.290
 1277SOL     OW 4729   0.481   5.805   6.788
 1277SOL    HW1 4730   0.446   5.714   6.813
 1277SOL    HW2 4731   0.576   5.797   6.759
 1278SOL     OW 4732   1.486   6.913   3.271
 1278SOL    HW1 4733   1.405   6.923   3.330
 1278SOL    HW2 4734   1.567   6.946   3.320
 1279SOL     OW 4735   2.996   3.218   6.460
 1279SOL    HW1 4736   2.937   3.286   6.503
 1279SOL    HW2 4737   2.959   3.126   6.476
 1280SOL     OW 4738   3.370   1.467   3.303
 1280SOL    HW1 4739   3.465   1.470   3.333
 1280SOL    HW2 4740   3.335   1.374   3.312
 1281SOL     OW 4741   3.507   6.122   3.840
 1281SOL    HW1 4742   3.579   6.166   3.785
 1281SOL    HW2 4743   3.536   6.120   3.936
 1282SOL     OW 4744   6.975   2.888   0.806
 1282SOL    HW1 4745   6.882   2.921   0.827
 1282SOL    HW2 4746   6.969   2.796   0.768
 1283SOL     OW 4747   6.402   3.809   5.272
 1283SOL    HW1 4748   6.394   3.860   5.357
 1283SOL    HW2 4749   6.426   3.871   5.197
 1284SOL     OW 4750   3.601   1.249   1.369
 1284SOL    HW1 4751   3.672   1.200   1.421
 1284SOL    HW2 4752   3.609   1.224   1.273
 1285SOL     OW 4753   3.412   1.501   4.606
 1285SOL    HW1 4754   3.422   1.527   4.510
 1285SOL    HW2 4755   3.326   1.538   4.642
 1286SOL     OW 4756   5.031   2.628   1.490
 1286SOL    HW1 4757   5.131   2.626   1.491
 1286SOL    HW2 4758   4.999   2.706   1.544
 1287SOL     OW 4759   6.558   4.791   4.822
 1287SOL    HW1 4760   6.558   4.868   4.886
 1287SOL    HW2 4761   6.652   4.774   4.791
 1288SOL     OW 4762   4.556   4.415   6.358
 1288SOL    HW1 4763   4.560   4.428   6.457
 1288SOL    HW2 4764   4.518   4.496   6.314
 1289SOL     OW 4765   6.343   0.617   1.013
 1289SOL    HW1 4766   6.262   0.557   1.020
 1289SOL    HW2 4767   6.315   0.712   1.022
 1290SOL     OW 4768   1.459   0.491   0.138
 1290SOL    HW1 4769   1.514   0.573   0.147
 1290SOL    HW2 4770   1.386   0.491   0.206
 1291SOL     OW 4771   6.743   5.041   2.994
 1291SOL    HW1 4772   6.713   5.101   3.068
 1291SOL    HW2 4773   6.688   4.958   2.995
 1292SOL     OW 4774   0.262   5.696   2.253
 1292SOL    HW1 4775   0.274   5.768   2.321
 1292SOL    HW2 4776   0.209   5.731   2.176
 1293SOL     OW 4777   2.425   1.430   6.706
 1293SOL    HW1 4778   2.423   1.482   6.621
 1293SOL    HW2 4779   2.417   1.492   6.784
 1294SOL     OW 4780   2.064   4.252   6.403
 1294SOL    HW1 4781   2.118   4.331   6.433
 1294SOL    HW2 4782   2.055   4.254   6.303
 1295SOL     OW 4783   0.227   3.786   1.193
 1295SOL    HW1 4784   0.259   3.865   1.246
 1295SOL    HW2 4785   0.223   3.811   1.097
 1296SOL     OW 4786   4.825   6.961   5.801
 1296SOL    HW1 4787   4.925   6.955   5.807
 1296SOL    HW2 4788   4.790   6.880   5.754
 1297SOL     OW 4789   0.706   0.391   2.954
 1297SOL    HW1 4790   0.664   0.482   2.957
 1297SOL    HW2 4791   0.646   0.326   3.000
 1298SOL     OW 4792   5.581   5.592   2.470
 1298SOL    HW1 4793   5.545   5.499   2.465
 1298SOL    HW2 4794   5.634   5.612   2.387
 1299SOL     OW 4795   2.045   3.239   4.193
 1299SOL    HW1 4796   2.087   3.159   4.151
 1299SOL    HW2 4797   2.036   3.224   4.292
 1300SOL     OW 4798   2.576   4.093   0.783
 1300SOL    HW1 4799   2.641   4.050   0.846
 1300SOL    HW2 4800   2.540   4.176   0.825
 1301SOL     OW 4801   0.973   0.704   1.548
 1301SOL    HW1 4802   1.033   0.624   1.542
 1301SOL    HW2 4803   0.878   0.675   1.536
 1302SOL     OW 4804   5.557   6.956   6.238
 1302SOL    HW1 4805   5.558   0.030   6.231
 1302SOL    HW2 4806   5.638   6.926   6.289
 1303SOL     OW 4807   4.172   6.567   1.981
 1303SOL    HW1 4808   4.146   6.495   2.046
 1303SOL    HW2 4809   4.186   6.652   2.031
 1304SOL     OW 4810   1.081   1.118   1.356
 1304SOL    HW1 4811   1.076   1.019   1.349
 1304SOL    HW2 4812   1.170   1.145   1.392
 1305SOL     OW 4813   5.075   4.903   6.629
 1305SOL    HW1 4814   5.080   4.990   6.580
 1305SOL    HW2 4815   5.084   4.921   6.727
 1306SOL     OW 4816   1.225   5.913   4.913
 1306SOL    HW1 4817   1.284   5.835   4.932
 1306SOL    HW2 4818   1.203   5.915   4.815
 1307SOL     OW 4819   1.714   3.098   3.951
 1307SOL    HW1 4820   1.726   3.091   3.852
 1307SOL    HW2 4821   1.783   3.043   3.998
 1308SOL     OW 4822   6.426   5.437   6.701
 1308SOL    HW1 4823   6.429   5.530   6.737
 1308SOL    HW2 4824   6.513   5.416   6.655
 1309SOL     OW 4825   5.111   4.555   6.271
 1309SOL    HW1 4826   5.119   4.552   6.171
 1309SOL    HW2 4827   5.020   4.523   6.298
 1310SOL     OW 4828   1.174   3.513   4.022
 1310SOL    HW1 4829   1.154   3.526   3.925
 1310SOL    HW2 4830   1.229   3.590   4.055
 1311SOL     OW 4831   6.353   5.672   0.118
 1311SOL    HW1 4832   6.253   5.677   0.112
 1311SOL    HW2 4833   6.381   5.672   0.214
 1312SOL     OW 4834   0.895   0.980   5.507
 1312SOL    HW1 4835   0.962   0.992   5.581
 1312SOL    HW2 4836   0.942   0.986   5.419
 1313SOL     OW 4837   6.251   5.018   3.264
 1313SOL    HW1 4838   6.272   5.109   3.300
 1313SOL    HW2 4839   6.248   5.020   3.164
 1314SOL     OW 4840   2.301   1.759   4.770
 1314SOL    HW1 4841   2.321   1.842   4.823
 1314SOL    HW2 4842   2.240   1.782   4.694
 1315SOL     OW 4843   6.400   0.744   4.181
 1315SOL    HW1 4844   6.352   0.832   4.188
 1315SOL    HW2 4845   6.355   0.677   4.241
 1316SOL     OW 4846   3.944   0.462   5.175
 1316SOL    HW1 4847   3.920   0.559   5.187
 1316SOL    HW2 4848   3.950   0.440   5.078
 1317SOL     OW 4849   2.936   3.622   6.207
 1317SOL    HW1 4850   2.959   3.679   6.286
 1317SOL    HW2 4851   2.985   3.536   6.213
 1318SOL     OW 4852   2.125   2.326   6.979
 1318SOL    HW1 4853   2.207   2.347   6.926
 1318SOL    HW2 4854   2.044   2.355   6.928
 1319SOL     OW 4855   6.872   6.255   0.344
 1319SOL    HW1 4856   6.818   6.171   0.336
 1319SOL    HW2 4857   6.812   6.334   0.347
 1320SOL     OW 4858   3.518   3.057   6.501
 1320SOL    HW1 4859   3.437   3.006   6.529
 1320SOL    HW2 4860   3.498   3.109   6.418
 1321SOL     OW 4861   5.588   1.757   6.892
 1321SOL    HW1 4862   5.585   1.731   6.795
 1321SOL    HW2 4863   5.564   1.678   6.949
 1322SOL     OW 4864   3.418   1.207   6.020
 1322SOL    HW1 4865   3.339   1.263   5.996
 1322SOL    HW2 4866   3.394   1.110   6.012
 1323SOL     OW 4867   3.474   0.015   0.576
 1323SOL    HW1 4868   3.528   6.993   0.507
 1323SOL    HW2 4869   3.410   6.978   0.619
 1324SOL     OW 4870   1.356   3.950   0.184
 1324SOL    HW1 4871   1.322   3.919   0.273
 1324SOL    HW2 4872   1.346   3.876   0.117
 1325SOL     OW 4873   2.403   6.004   5.907
 1325SOL    HW1 4874   2.471   6.048   5.966
 1325SOL    HW2 4875   2.377   6.067   5.833
 1326SOL     OW 4876   4.775   4.117   4.795
 1326SOL    HW1 4877   4.832   4.035   4.786
 1326SOL    HW2 4878   4.767   4.142   4.892
 1327SOL     OW 4879   0.400   6.701   1.118
 1327SOL    HW1 4880   0.406   6.613   1.071
 1327SOL    HW2 4881   0.490   6.744   1.120
 1328SOL     OW 4882   1.000   3.431   5.836
 1328SOL    HW1 4883   1.078   3.369   5.835
 1328SOL    HW2 4884   0.917   3.381   5.862
 1329SOL     OW 4885   0.433   2.465   2.572
 1329SOL    HW1 4886   0.348   2.507   2.602
 1329SOL    HW2 4887   0.448   2.487   2.475
 1330SOL     OW 4888   6.846   2.056   1.056
 1330SOL    HW1 4889   6.858   2.038   0.958
 1330SOL    HW2 4890   6.797   1.980   1.098
 1331SOL     OW 4891   4.545   2.199   2.601
 1331SOL    HW1 4892   4.499   2.261   2.664
 1331SOL    HW2 4893   4.622   2.155   2.647
 1332SOL     OW 4894   1.690   0.518   0.785
 1332SOL    HW1 4895   1.637   0.527   0.869
 1332SOL    HW2 4896   1.638   0.557   0.709
 1333SOL     OW 4897   4.001   3.819   3.194
 1333SOL    HW1 4898   3.960   3.885   3.257
 1333SOL    HW2 4899   4.055   3.752   3.245
 1334SOL     OW 4900   6.906   1.744   2.905
 1334SOL    HW1 4901   6.961   1.754   2.989
 1334SOL    HW2 4902   6.958   1.691   2.838
 1335SOL     OW 4903   1.809   3.813   1.691
 1335SOL    HW1 4904   1.870   3.822   1.612
 1335SOL    HW2 4905   1.750   3.733   1.678
 1336SOL     OW 4906   3.870   0.853   5.726
 1336SOL    HW1 4907   3.775   0.869   5.699
 1336SOL    HW2 4908   3.902   0.767   5.687
 1337SOL     OW 4909   6.436   1.528   3.291
 1337SOL    HW1 4910   6.517   1.577   3.258
 1337SOL    HW2 4911   6.440   1.433   3.259
 1338SOL     OW 4912   6.423   3.859   4.073
 1338SOL    HW1 4913   6.456   3.852   4.167
 1338SOL    HW2 4914   6.405   3.955   4.051
 1339SOL     OW 4915   0.186   0.238   0.092
 1339SOL    HW1 4916   0.105   0.184   0.072
 1339SOL    HW2 4917   0.238   0.253   0.008
 1340SOL     OW 4918   5.259   1.638   1.813
 1340SOL    HW1 4919   5.239   1.706   1.744
 1340SOL    HW2 4920   5.174   1.613   1.860
 1341SOL     OW 4921   4.490   6.724   6.915
 1341SOL    HW1 4922   4.537   6.807   6.886
 1341SOL    HW2 4923   4.490   6.658   6.839
 1342SOL     OW 4924   3.348   5.588   0.830
 1342SOL    HW1 4925   3.340   5.639   0.744
 1342SOL    HW2 4926   3.318   5.494   0.815
 1343SOL     OW 4927   5.402   4.981   2.871
 1343SOL    HW1 4928   5.414   4.980   2.970
 1343SOL    HW2 4929   5.343   5.057   2.845
 1344SOL     OW 4930   0.206   7.022   4.510
 1344SOL    HW1 4931   0.211   6.925   4.485
 1344SOL    HW2 4932   0.242   0.053   4.436
 1345SOL     OW 4933   0.324   5.180   1.816
 1345SOL    HW1 4934   0.315   5.184   1.717
 1345SOL    HW2 4935   0.236   5.155   1.857
 1346SOL     OW 4936   2.211   5.435   5.702
 1346SOL    HW1 4937   2.142   5.439   5.774
 1346SOL    HW2 4938   2.192   5.505   5.633
 1347SOL     OW 4939   1.642   0.142   5.915
 1347SOL    HW1 4940   1.593   0.120   6.000
 1347SOL    HW2 4941   1.710   0.071   5.897
 1348SOL     OW 4942   6.895   5.751   5.494
 1348SOL    HW1 4943   6.815   5.804   5.465
 1348SOL    HW2 4944   6.932   5.791   5.578
 1349SOL     OW 4945   5.602   2.991   3.931
 1349SOL    HW1 4946   5.642   3.083   3.925
 1349SOL    HW2 4947   5.643   2.941   4.007
 1350SOL     OW 4948   3.555   3.992   0.518
 1350SOL    HW1 4949   3.494   4.071   0.520
 1350SOL    HW2 4950   3.501   3.908   0.506
 1351SOL     OW 4951   5.935   2.110   3.920
 1351SOL    HW1 4952   5.893   2.086   4.008
 1351SOL    HW2 4953   6.018   2.056   3.908
 1352SOL     OW 4954   6.639   0.394   2.413
 1352SOL    HW1 4955   6.639   0.314   2.353
 1352SOL    HW2 4956   6.546   0.430   2.420
 1353SOL     OW 4957   0.213   1.748   0.755
 1353SOL    HW1 4958   0.184   1.839   0.782
 1353SOL    HW2 4959   0.276   1.712   0.824
 1354SOL     OW 4960   6.733   4.311   2.281
 1354SOL    HW1 4961   6.755   4.231   2.337
 1354SOL    HW2 4962   6.810   4.375   2.282
 1355SOL     OW 4963   5.876   3.497   4.420
 1355SOL    HW1 4964   5.810   3.425   4.401
 1355SOL    HW2 4965   5.831   3.586   4.414
 1356SOL     OW 4966   3.755   3.122   2.505
 1356SOL    HW1 4967   3.696   3.079   2.436
 1356SOL    HW2 4968   3.760   3.221   2.486
 1357SOL     OW 4969   6.557   3.751   5.882
 1357SOL    HW1 4970   6.508   3.699   5.812
 1357SOL    HW2 4971   6.573   3.843   5.849
 1358SOL     OW 4972   0.681   0.006   6.837
 1358SOL    HW1 4973   0.679   6.977   6.753
 1358SOL    HW2 4974   0.746   6.991   6.902
 1359SOL     OW 4975   6.391   4.234   1.752
 1359SOL    HW1 4976   6.472   4.242   1.694
 1359SOL    HW2 4977   6.318   4.292   1.714
 1360SOL     OW 4978   3.552   2.904   6.763
 1360SOL    HW1 4979   3.473   2.912   6.703
 1360SOL    HW2 4980   3.611   2.984   6.751
 1361SOL     OW 4981   0.153   4.431   4.671
 1361SOL    HW1 4982   0.232   4.457   4.617
 1361SOL    HW2 4983   0.171   4.345   4.719
 1362SOL     OW 4984   3.942   3.137   2.691
 1362SOL    HW1 4985   3.867   3.142   2.625
 1362SOL    HW2 4986   3.921   3.068   2.760
 1363SOL     OW 4987   6.851   5.508   5.173
 1363SOL    HW1 4988   6.932   5.548   5.217
 1363SOL    HW2 4989   6.778   5.497   5.241
 1364SOL     OW 4990   4.375   4.411   6.979
 1364SOL    HW1 4991   4.457   4.469   6.979
 1364SOL    HW2 4992   4.390   4.332   6.919
 1365SOL     OW 4993   0.593   3.637   6.428
 1365SOL    HW1 4994   0.670   3.699   6.437
 1365SOL    HW2 4995   0.624   3.543   6.441
 1366SOL     OW 4996   1.048   0.471   4.759
 1366SOL    HW1 4997   1.118   0.448   4.692
 1366SOL    HW2 4998   1.053   0.406   4.835
 1367SOL     OW 4999   1.655   1.455   2.428
 1367SOL    HW1 5000   1.748   1.490   2.442
 1367SOL    HW2 5001   1.637   1.383   2.496
 1368SOL     OW 5002   5.770   0.030   4.083
 1368SOL    HW1 5003   5.750   0.099   4.152
 1368SOL    HW2 5004   5.724   0.055   3.997
 1369SOL     OW 5005   0.406   0.016   3.255
 1369SOL    HW1 5006   0.337   0.006   3.184
 1369SOL    HW2 5007   0.401   6.964   3.318
 1370SOL     OW 5008   3.162   1.006   1.608
 1370SOL    HW1 5009   3.213   1.055   1.679
 1370SOL    HW2 5010   3.132   0.917   1.644
 1371SOL     OW 5011   3.751   0.367   5.894
 1371SOL    HW1 5012   3.768   0.426   5.816
 1371SOL    HW2 5013   3.776   0.415   5.978
 1372SOL     OW 5014   2.640   2.433   1.925
 1372SOL    HW1 5015   2.726   2.387   1.948
 1372SOL    HW2 5016   2.655   2.493   1.847
 1373SOL     OW 5017   0.681   5.369   1.396
 1373SOL    HW1 5018   0.765   5.352   1.346
 1373SOL    HW2 5019   0.656   5.288   1.449
 1374SOL     OW 5020   4.274   2.433   1.115
 1374SOL    HW1 5021   4.253   2.456   1.210
 1374SOL    HW2 5022   4.373   2.444   1.100
 1375SOL     OW 5023   0.105   4.924   6.130
 1375SOL    HW1 5024   0.157   4.931   6.045
 1375SOL    HW2 5025   0.157   4.968   6.204
 1376SOL     OW 5026   4.851   3.016   3.648
 1376SOL    HW1 5027   4.910   2.971   3.716
 1376SOL    HW2 5028   4.758   2.979   3.655
 1377SOL     OW 5029   6.992   5.103   5.355
 1377SOL    HW1 5030   6.953   5.167   5.422
 1377SOL    HW2 5031   6.917   5.057   5.307
 1378SOL     OW 5032   1.319   2.285   0.150
 1378SOL    HW1 5033   1.374   2.260   0.230
 1378SOL    HW2 5034   1.367   2.356   0.098
 1379SOL     OW 5035   3.639   6.766   2.673
 1379SOL    HW1 5036   3.550   6.758   2.629
 1379SOL    HW2 5037   3.683   6.851   2.645
 1380SOL     OW 5038   6.476   7.025   2.403
 1380SOL    HW1 5039   6.507   6.930   2.403
 1380SOL    HW2 5040   6.534   0.054   2.464
 1381SOL     OW 5041   6.277   2.051   0.016
 1381SOL    HW1 5042   6.370   2.022   7.018
 1381SOL    HW2 5043   6.275   2.084   0.110
 1382SOL     OW 5044   5.348   4.832   6.408
 1382SOL    HW1 5045   5.393   4.921   6.417
 1382SOL    HW2 5046   5.344   4.788   6.498
 1383SOL     OW 5047   1.617   0.333   0.407
 1383SOL    HW1 5048   1.605   0.272   0.485
 1383SOL    HW2 5049   1.645   0.280   0.327
 1384SOL     OW 5050   3.458   1.802   2.612
 1384SOL    HW1 5051   3.462   1.884   2.555
 1384SOL    HW2 5052   3.491   1.823   2.704
 1385SOL     OW 5053   6.863   3.343   3.080
 1385SOL    HW1 5054   6.856   3.311   2.986
 1385SOL    HW2 5055   6.820   3.433   3.087
 1386SOL     OW 5056   1.999   3.117   4.432
 1386SOL    HW1 5057   1.965   3.148   4.521
 1386SOL    HW2 5058   2.093   3.083   4.442
 1387SOL     OW 5059   2.864   0.209   4.836
 1387SOL    HW1 5060   2.961   0.203   4.810
 1387SOL    HW2 5061   2.833   0.303   4.827
 1388SOL     OW 5062   6.472   1.398   4.085
 1388SOL    HW1 5063   6.476   1.461   4.163
 1388SOL    HW2 5064   6.399   1.428   4.022
 1389SOL     OW 5065   6.088   6.861   4.601
 1389SOL    HW1 5066   6.051   6.819   4.683
 1389SOL    HW2 5067   6.079   6.797   4.524
 1390SOL     OW 5068   4.622   2.112   1.747
 1390SOL    HW1 5069   4.537   2.162   1.731
 1390SOL    HW2 5070   4.700   2.170   1.724
 1391SOL     OW 5071   5.454   0.754   4.466
 1391SOL    HW1 5072   5.526   0.690   4.438
 1391SOL    HW2 5073   5.481   0.800   4.551
 1392SOL     OW 5074   5.432   5.755   6.420
 1392SOL    HW1 5075   5.463   5.695   6.347
 1392SOL    HW2 5076   5.358   5.711   6.471
 1393SOL     OW 5077   6.846   1.228   6.347
 1393SOL    HW1 5078   6.930   1.176   6.356
 1393SOL    HW2 5079   6.788   1.212   6.427
 1394SOL     OW 5080   4.623   6.852   3.891
 1394SOL    HW1 5081   4.528   6.881   3.901
 1394SOL    HW2 5082   4.679   6.893   3.963
 1395SOL     OW 5083   1.635   4.886   2.691
 1395SOL    HW1 5084   1.721   4.883   2.641
 1395SOL    HW2 5085   1.652   4.921   2.784
 1396SOL     OW 5086   2.142   1.121   4.315
 1396SOL    HW1 5087   2.241   1.114   4.330
 1396SOL    HW2 5088   2.125   1.178   4.235
 1397SOL     OW 5089   0.601   5.389   4.336
 1397SOL    HW1 5090   0.541   5.453   4.383
 1397SOL    HW2 5091   0.587   5.297   4.373
 1398SOL     OW 5092   0.651   0.916   1.256
 1398SOL    HW1 5093   0.669   1.013   1.273
 1398SOL    HW2 5094   0.736   0.870   1.230
 1399SOL     OW 5095   3.939   0.038   0.489
 1399SOL    HW1 5096   3.996   0.120   0.503
 1399SOL    HW2 5097   3.897   0.013   0.576
 1400SOL     OW 5098   6.101   0.457   4.724
 1400SOL    HW1 5099   6.198   0.433   4.718
 1400SOL    HW2 5100   6.080   0.528   4.657
 1401SOL     OW 5101   5.283   0.543   3.183
 1401SOL    HW1 5102   5.302   0.564   3.088
 1401SOL    HW2 5103   5.365   0.556   3.238
 1402SOL     OW 5104   6.209   4.249   1.974
 1402SOL    HW1 5105   6.209   4.332   2.030
 1402SOL    HW2 5106   6.290   4.248   1.916
 1403SOL     OW 5107   3.241   2.949   6.964
 1403SOL    HW1 5108   3.290   2.867   6.996
 1403SOL    HW2 5109   3.143   2.934   6.975
 1404SOL     OW 5110   4.265   6.753   0.723
 1404SOL    HW1 5111   4.330   6.826   0.705
 1404SOL    HW2 5112   4.183   6.791   0.767
 1405SOL     OW 5113   1.816   3.442   0.594
 1405SOL    HW1 5114   1.862   3.491   0.667
 1405SOL    HW2 5115   1.778   3.507   0.528
 1406SOL     OW 5116   2.516   3.300   1.074
 1406SOL    HW1 5117   2.584   3.369   1.052
 1406SOL    HW2 5118   2.540   3.214   1.029
 1407SOL     OW 5119   0.736   2.917   0.995
 1407SOL    HW1 5120   0.721   3.016   0.986
 1407SOL    HW2 5121   0.784   2.883   0.914
 1408SOL     OW 5122   5.827   6.225   6.858
 1408SOL    HW1 5123   5.758   6.176   6.805
 1408SOL    HW2 5124   5.853   6.308   6.809
 1409SOL     OW 5125   6.811   1.679   5.785
 1409SOL    HW1 5126   6.889   1.668   5.723
 1409SOL    HW2 5127   6.735   1.622   5.753
 1410SOL     OW 5128   3.643   1.932   6.237
 1410SOL    HW1 5129   3.588   2.011   6.265
 1410SOL    HW2 5130   3.703   1.959   6.162
 1411SOL     OW 5131   4.307   5.143   0.222
 1411SOL    HW1 5132   4.301   5.235   0.185
 1411SOL    HW2 5133   4.269   5.078   0.157
 1412SOL     OW 5134   2.125   2.799   0.631
 1412SOL    HW1 5135   2.031   2.792   0.597
 1412SOL    HW2 5136   2.138   2.888   0.676
 1413SOL     OW 5137   1.877   1.974   5.402
 1413SOL    HW1 5138   1.844   1.909   5.334
 1413SOL    HW2 5139   1.800   2.009   5.455
 1414SOL     OW 5140   1.390   4.194   2.164
 1414SOL    HW1 5141   1.338   4.261   2.217
 1414SOL    HW2 5142   1.427   4.125   2.226
 1415SOL     OW 5143   1.894   2.061   4.538
 1415SOL    HW1 5144   1.925   2.074   4.443
 1415SOL    HW2 5145   1.795   2.051   4.539
 1416SOL     OW 5146   4.129   0.437   5.401
 1416SOL    HW1 5147   4.121   0.356   5.458
 1416SOL    HW2 5148   4.051   0.442   5.339
 1417SOL     OW 5149   3.802   3.125   5.817
 1417SOL    HW1 5150   3.714   3.097   5.779
 1417SOL    HW2 5151   3.793   3.137   5.916
 1418SOL     OW 5152   3.500   4.179   6.928
 1418SOL    HW1 5153   3.540   4.225   6.849
 1418SOL    HW2 5154   3.564   4.109   6.962
 1419SOL     OW 5155   1.996   4.578   2.674
 1419SOL    HW1 5156   2.023   4.488   2.639
 1419SOL    HW2 5157   1.943   4.567   2.758
 1420SOL     OW 5158   3.030   5.958   3.428
 1420SOL    HW1 5159   3.097   5.896   3.469
 1420SOL    HW2 5160   3.046   5.964   3.330
 1421SOL     OW 5161   1.141   4.986   5.618
 1421SOL    HW1 5162   1.234   4.996   5.654
 1421SOL    HW2 5163   1.075   5.001   5.692
 1422SOL     OW 5164   2.232   3.921   5.938
 1422SOL    HW1 5165   2.300   3.995   5.931
 1422SOL    HW2 5166   2.228   3.889   6.033
 1423SOL     OW 5167   4.448   1.187   5.256
 1423SOL    HW1 5168   4.502   1.209   5.338
 1423SOL    HW2 5169   4.495   1.222   5.175
 1424SOL     OW 5170   5.841   2.729   6.643
 1424SOL    HW1 5171   5.798   2.818   6.627
 1424SOL    HW2 5172   5.932   2.728   6.601
 1425SOL     OW 5173   4.782   6.479   4.012
 1425SOL    HW1 5174   4.763   6.555   4.075
 1425SOL    HW2 5175   4.772   6.511   3.918
 1426SOL     OW 5176   3.170   2.123   6.897
 1426SOL    HW1 5177   3.079   2.082   6.886
 1426SOL    HW2 5178   3.229   2.095   6.822
 1427SOL     OW 5179   1.657   0.937   4.003
 1427SOL    HW1 5180   1.617   0.911   3.915
 1427SOL    HW2 5181   1.595   1.001   4.049
 1428SOL     OW 5182   0.388   3.614   3.718
 1428SOL    HW1 5183   0.314   3.681   3.717
 1428SOL    HW2 5184   0.357   3.531   3.764
 1429SOL     OW 5185   5.693   0.708   1.029
 1429SOL    HW1 5186   5.608   0.656   1.039
 1429SOL    HW2 5187   5.674   0.793   0.979
 1430SOL     OW 5188   1.516   3.799   3.601
 1430SOL    HW1 5189   1.510   3.898   3.596
 1430SOL    HW2 5190   1.447   3.758   3.542
 1431SOL     OW 5191   1.967   1.183   5.907
 1431SOL    HW1 5192   1.994   1.093   5.873
 1431SOL    HW2 5193   2.044   1.247   5.895
 1432SOL     OW 5194   2.406   1.521   2.675
 1432SOL    HW1 5195   2.442   1.474   2.594
 1432SOL    HW2 5196   2.437   1.473   2.757
 1433SOL     OW 5197   2.769   0.155   4.169
 1433SOL    HW1 5198   2.686   0.109   4.200
 1433SOL    HW2 5199   2.754   0.194   4.078
 1434SOL     OW 5200   0.455   2.936   0.253
 1434SOL    HW1 5201   0.379   2.897   0.201
 1434SOL    HW2 5202   0.434   2.930   0.351
 1435SOL     OW 5203   0.807   6.996   4.413
 1435SOL    HW1 5204   0.878   6.985   4.482
 1435SOL    HW2 5205   0.803   6.914   4.356
 1436SOL     OW 5206   5.203   1.540   0.305
 1436SOL    HW1 5207   5.136   1.480   0.349
 1436SOL    HW2 5208   5.155   1.613   0.255
 1437SOL     OW 5209   4.467   0.052   6.150
 1437SOL    HW1 5210   4.387   0.024   6.097
 1437SOL    HW2 5211   4.520   0.119   6.096
 1438SOL     OW 5212   2.557   0.229   1.974
 1438SOL    HW1 5213   2.521   0.143   2.012
 1438SOL    HW2 5214   2.652   0.215   1.944
 1439SOL     OW 5215   0.548   4.905   6.892
 1439SOL    HW1 5216   0.643   4.909   6.922
 1439SOL    HW2 5217   0.490   4.953   6.958
 1440SOL     OW 5218   3.170   2.962   3.925
 1440SOL    HW1 5219   3.102   2.889   3.936
 1440SOL    HW2 5220   3.166   2.997   3.831
 1441SOL     OW 5221   6.637   2.971   3.604
 1441SOL    HW1 5222   6.635   2.979   3.504
 1441SOL    HW2 5223   6.586   3.047   3.645
 1442SOL     OW 5224   5.055   4.388   0.748
 1442SOL    HW1 5225   5.088   4.475   0.784
 1442SOL    HW2 5226   5.119   4.353   0.680
 1443SOL     OW 5227   0.657   2.313   2.905
 1443SOL    HW1 5228   0.756   2.323   2.893
 1443SOL    HW2 5229   0.610   2.378   2.846
 1444SOL     OW 5230   4.567   0.962   3.615
 1444SOL    HW1 5231   4.486   1.011   3.582
 1444SOL    HW2 5232   4.619   1.022   3.677
 1445SOL     OW 5233   6.449   2.300   1.520
 1445SOL    HW1 5234   6.471   2.234   1.448
 1445SOL    HW2 5235   6.471   2.393   1.487
 1446SOL     OW 5236   3.968   0.610   1.285
 1446SOL    HW1 5237   3.917   0.655   1.359
 1446SOL    HW2 5238   4.058   0.652   1.276
 1447SOL     OW 5239   6.470   0.295   4.949
 1447SOL    HW1 5240   6.415   0.363   4.998
 1447SOL    HW2 5241   6.555   0.278   4.999
 1448SOL     OW 5242   5.283   0.759   6.551
 1448SOL    HW1 5243   5.273   0.834   6.616
 1448SOL    HW2 5244   5.368   0.709   6.570
 1449SOL     OW 5245   5.268   6.041   1.055
 1449SOL    HW1 5246   5.311   5.967   1.106
 1449SOL    HW2 5247   5.326   6.123   1.061
 1450SOL     OW 5248   6.040   2.810   3.205
 1450SOL    HW1 5249   6.009   2.738   3.267
 1450SOL    HW2 5250   6.111   2.865   3.249
 1451SOL     OW 5251   1.199   6.029   3.054
 1451SOL    HW1 5252   1.110   6.052   3.091
 1451SOL    HW2 5253   1.207   5.929   3.045
 1452SOL     OW 5254   4.622   1.271   5.450
 1452SOL    HW1 5255   4.692   1.222   5.502
 1452SOL    HW2 5256   4.646   1.368   5.446
 1453SOL     OW 5257   5.232   4.818   5.462
 1453SOL    HW1 5258   5.178   4.853   5.385
 1453SOL    HW2 5259   5.266   4.727   5.440
 1454SOL     OW 5260   4.141   3.938   1.176
 1454SOL    HW1 5261   4.230   3.981   1.194
 1454SOL    HW2 5262   4.081   3.953   1.254
 1455SOL     OW 5263   1.831   1.798   1.768
 1455SOL    HW1 5264   1.896   1.800   1.692
 1455SOL    HW2 5265   1.752   1.742   1.743
 1456SOL     OW 5266   6.020   6.346   3.520
 1456SOL    HW1 5267   6.087   6.419   3.526
 1456SOL    HW2 5268   6.026   6.288   3.601
 1457SOL     OW 5269   1.507   0.452   2.697
 1457SOL    HW1 5270   1.421   0.452   2.747
 1457SOL    HW2 5271   1.579   0.494   2.752
 1458SOL     OW 5272   5.401   5.329   6.804
 1458SOL    HW1 5273   5.348   5.288   6.878
 1458SOL    HW2 5274   5.433   5.256   6.743
 1459SOL     OW 5275   2.175   6.781   6.516
 1459SOL    HW1 5276   2.240   6.837   6.567
 1459SOL    HW2 5277   2.084   6.821   6.522
 1460SOL     OW 5278   1.309   0.055   6.749
 1460SOL    HW1 5279   1.325   7.024   6.668
 1460SOL    HW2 5280   1.390   0.054   6.807
 1461SOL     OW 5281   5.635   4.516   1.706
 1461SOL    HW1 5282   5.729   4.525   1.673
 1461SOL    HW2 5283   5.586   4.448   1.651
 1462SOL     OW 5284   5.747   0.998   6.461
 1462SOL    HW1 5285   5.827   1.056   6.442
 1462SOL    HW2 5286   5.771   0.931   6.531
 1463SOL     OW 5287   0.679   1.275   4.887
 1463SOL    HW1 5288   0.624   1.202   4.847
 1463SOL    HW2 5289   0.764   1.284   4.836
 1464SOL     OW 5290   0.165   6.612   0.998
 1464SOL    HW1 5291   0.083   6.637   1.049
 1464SOL    HW2 5292   0.237   6.679   1.015
 1465SOL     OW 5293   6.837   6.912   4.633
 1465SOL    HW1 5294   6.860   6.821   4.666
 1465SOL    HW2 5295   6.811   6.970   4.711
 1466SOL     OW 5296   5.539   4.635   3.514
 1466SOL    HW1 5297   5.503   4.546   3.485
 1466SOL    HW2 5298   5.636   4.642   3.488
 1467SOL     OW 5299   0.917   2.093   3.281
 1467SOL    HW1 5300   0.832   2.045   3.300
 1467SOL    HW2 5301   0.898   2.185   3.249
 1468SOL     OW 5302   5.579   5.828   3.473
 1468SOL    HW1 5303   5.543   5.749   3.522
 1468SOL    HW2 5304   5.678   5.820   3.465
 1469SOL     OW 5305   0.924   1.206   2.579
 1469SOL    HW1 5306   0.838   1.257   2.584
 1469SOL    HW2 5307   0.952   1.178   2.671
 1470SOL     OW 5308   0.830   1.058   3.273
 1470SOL    HW1 5309   0.901   1.084   3.208
 1470SOL    HW2 5310   0.744   1.105   3.249
 1471SOL     OW 5311   0.587   6.783   0.053
 1471SOL    HW1 5312   0.684   6.790   0.073
 1471SOL    HW2 5313   0.574   6.743   6.988
 1472SOL     OW 5314   4.335   1.267   6.052
 1472SOL    HW1 5315   4.376   1.343   6.002
 1472SOL    HW2 5316   4.338   1.185   5.996
 1473SOL     OW 5317   6.261   4.039   3.720
 1473SOL    HW1 5318   6.274   3.961   3.659
 1473SOL    HW2 5319   6.204   4.107   3.674
 1474SOL     OW 5320   4.815   5.586   3.977
 1474SOL    HW1 5321   4.728   5.626   4.005
 1474SOL    HW2 5322   4.878   5.659   3.950
 1475SOL     OW 5323   0.301   1.131   2.543
 1475SOL    HW1 5324   0.294   1.219   2.589
 1475SOL    HW2 5325   0.346   1.066   2.604
 1476SOL     OW 5326   6.589   1.784   1.990
 1476SOL    HW1 5327   6.669   1.843   1.980
 1476SOL    HW2 5328   6.585   1.749   2.084
 1477SOL     OW 5329   2.950   5.757   4.689
 1477SOL    HW1 5330   3.036   5.791   4.726
 1477SOL    HW2 5331   2.963   5.732   4.593
 1478SOL     OW 5332   6.486   4.451   0.594
 1478SOL    HW1 5333   6.390   4.478   0.592
 1478SOL    HW2 5334   6.506   4.395   0.513
 1479SOL     OW 5335   1.637   5.258   0.769
 1479SOL    HW1 5336   1.650   5.334   0.705
 1479SOL    HW2 5337   1.724   5.238   0.815
 1480SOL     OW 5338   2.598   0.670   0.157
 1480SOL    HW1 5339   2.646   0.661   0.244
 1480SOL    HW2 5340   2.563   0.763   0.148
 1481SOL     OW 5341   5.811   2.415   6.280
 1481SOL    HW1 5342   5.732   2.448   6.331
 1481SOL    HW2 5343   5.780   2.374   6.194
 1482SOL     OW 5344   6.573   0.607   6.665
 1482SOL    HW1 5345   6.552   0.535   6.732
 1482SOL    HW2 5346   6.641   0.573   6.600
 1483SOL     OW 5347   5.970   2.173   0.543
 1483SOL    HW1 5348   6.001   2.267   0.529
 1483SOL    HW2 5349   5.888   2.156   0.489
 1484SOL     OW 5350   6.204   5.173   2.735
 1484SOL    HW1 5351   6.254   5.203   2.816
 1484SOL    HW2 5352   6.121   5.228   2.724
 1485SOL     OW 5353   5.234   2.798   3.806
 1485SOL    HW1 5354   5.223   2.702   3.781
 1485SOL    HW2 5355   5.144   2.837   3.825
 1486SOL     OW 5356   4.904   1.868   2.306
 1486SOL    HW1 5357   4.826   1.812   2.277
 1486SOL    HW2 5358   4.872   1.960   2.330
 1487SOL     OW 5359   6.270   1.229   5.554
 1487SOL    HW1 5360   6.239   1.323   5.573
 1487SOL    HW2 5361   6.348   1.232   5.493
 1488SOL     OW 5362   4.415   1.793   3.208
 1488SOL    HW1 5363   4.347   1.813   3.279
 1488SOL    HW2 5364   4.370   1.785   3.119
 1489SOL     OW 5365   3.895   5.555   5.058
 1489SOL    HW1 5366   3.930   5.493   5.128
 1489SOL    HW2 5367   3.795   5.558   5.064
 1490SOL     OW 5368   1.978   2.738   0.047
 1490SOL    HW1 5369   2.074   2.716   0.027
 1490SOL    HW2 5370   1.960   2.832   0.020
 1491SOL     OW 5371   0.085   3.099   4.038
 1491SOL    HW1 5372   0.047   3.014   4.002
 1491SOL    HW2 5373   0.150   3.079   4.112
 1492SOL     OW 5374   5.247   2.174   1.490
 1492SOL    HW1 5375   5.172   2.149   1.551
 1492SOL    HW2 5376   5.219   2.159   1.395
 1493SOL     OW 5377   4.941   0.714   5.534
 1493SOL    HW1 5378   5.005   0.779   5.574
 1493SOL    HW2 5379   4.847   0.743   5.553
 1494SOL     OW 5380   4.430   2.607   5.991
 1494SOL    HW1 5381   4.369   2.528   5.993
 1494SOL    HW2 5382   4.415   2.659   5.906
 1495SOL     OW 5383   1.656   2.982   2.336
 1495SOL    HW1 5384   1.615   3.027   2.257
 1495SOL    HW2 5385   1.702   3.050   2.393
 1496SOL     OW 5386   0.638   0.345   2.280
 1496SOL    HW1 5387   0.554   0.297   2.254
 1496SOL    HW2 5388   0.666   0.314   2.371
 1497SOL     OW 5389   5.883   5.215   4.577
 1497SOL    HW1 5390   5.860   5.133   4.631
 1497SOL    HW2 5391   5.965   5.198   4.524
 1498SOL     OW 5392   2.111   6.145   0.091
 1498SOL    HW1 5393   2.191   6.183   0.044
 1498SOL    HW2 5394   2.136   6.119   0.184
 1499SOL     OW 5395   1.076   3.723   5.437
 1499SOL    HW1 5396   0.985   3.725   5.396
 1499SOL    HW2 5397   1.127   3.645   5.402
 1500SOL     OW 5398   4.924   7.011   6.336
 1500SOL    HW1 5399   4.940   0.084   6.341
 1500SOL    HW2 5400   4.826   6.994   6.324
 1501SOL     OW 5401   4.019   6.222   6.120
 1501SOL    HW1 5402   3.938   6.263   6.078
 1501SOL    HW2 5403   3.990   6.161   6.195
 1502SOL     OW 5404   6.155   6.554   0.140
 1502SOL    HW1 5405   6.082   6.488   0.125
 1502SOL    HW2 5406   6.160   6.578   0.236
 1503SOL     OW 5407   4.133   3.242   6.133
 1503SOL    HW1 5408   4.111   3.297   6.052
 1503SOL    HW2 5409   4.048   3.210   6.176
 1504SOL     OW 5410   2.957   6.111   5.012
 1504SOL    HW1 5411   2.959   6.132   5.109
 1504SOL    HW2 5412   3.006   6.026   4.994
 1505SOL     OW 5413   5.605   5.381   0.171
 1505SOL    HW1 5414   5.553   5.459   0.206
 1505SOL    HW2 5415   5.699   5.410   0.152
 1506SOL     OW 5416   0.988   6.262   4.491
 1506SOL    HW1 5417   1.078   6.305   4.503
 1506SOL    HW2 5418   0.953   6.283   4.400
 1507SOL     OW 5419   1.595   1.371   5.862
 1507SOL    HW1 5420   1.649   1.340   5.784
 1507SOL    HW2 5421   1.628   1.460   5.892
 1508SOL     OW 5422   5.137   0.110   0.192
 1508SOL    HW1 5423   5.115   0.022   0.150
 1508SOL    HW2 5424   5.101   0.112   0.286
 1509SOL     OW 5425   4.815   2.302   0.627
 1509SOL    HW1 5426   4.795   2.235   0.699
 1509SOL    HW2 5427   4.839   2.389   0.669
 1510SOL     OW 5428   6.826   2.091   4.016
 1510SOL    HW1 5429   6.888   2.061   4.088
 1510SOL    HW2 5430   6.823   2.190   4.013
 1511SOL     OW 5431   2.060   3.303   0.519
 1511SOL    HW1 5432   2.081   3.235   0.590
 1511SOL    HW2 5433   1.964   3.330   0.526
 1512SOL     OW 5434   0.150   0.986   2.078
 1512SOL    HW1 5435   0.070   0.929   2.098
 1512SOL    HW2 5436   0.232   0.944   2.118
 1513SOL     OW 5437   3.792   1.133   3.392
 1513SOL    HW1 5438   3.866   1.118   3.326
 1513SOL    HW2 5439   3.800   1.068   3.467
 1514SOL     OW 5440   5.575   1.134   5.280
 1514SOL    HW1 5441   5.514   1.067   5.321
 1514SOL    HW2 5442   5.635   1.089   5.213
 1515SOL     OW 5443   0.057   4.736   4.237
 1515SOL    HW1 5444   0.044   4.705   4.143
 1515SOL    HW2 5445   0.088   4.831   4.237
 1516SOL     OW 5446   0.686   0.952   0.604
 1516SOL    HW1 5447   0.632   0.963   0.688
 1516SOL    HW2 5448   0.771   1.003   0.612
 1517SOL     OW 5449   4.634   5.517   3.517
 1517SOL    HW1 5450   4.625   5.424   3.483
 1517SOL    HW2 5451   4.548   5.567   3.502
 1518SOL     OW 5452   0.692   4.346   1.336
 1518SOL    HW1 5453   0.741   4.291   1.268
 1518SOL    HW2 5454   0.742   4.343   1.422
 1519SOL     OW 5455   6.173   4.526   0.575
 1519SOL    HW1 5456   6.139   4.476   0.655
 1519SOL    HW2 5457   6.194   4.620   0.601
 1520SOL     OW 5458   1.531   3.445   3.023
 1520SOL    HW1 5459   1.588   3.482   3.096
 1520SOL    HW2 5460   1.489   3.359   3.053
 1521SOL     OW 5461   2.826   3.742   6.726
 1521SOL    HW1 5462   2.804   3.839   6.739
 1521SOL    HW2 5463   2.773   3.687   6.790
 1522SOL     OW 5464   5.849   2.131   6.977
 1522SOL    HW1 5465   5.775   2.077   6.936
 1522SOL    HW2 5466   5.936   2.104   6.935
 1523SOL     OW 5467   0.223   2.100   1.108
 1523SOL    HW1 5468   0.268   2.180   1.069
 1523SOL    HW2 5469   0.281   2.063   1.181
 1524SOL     OW 5470   7.011   0.898   2.321
 1524SOL    HW1 5471   6.952   0.881   2.242
 1524SOL    HW2 5472   6.967   0.862   2.403
 1525SOL     OW 5473   4.839   2.028   6.325
 1525SOL    HW1 5474   4.871   2.113   6.282
 1525SOL    HW2 5475   4.758   1.994   6.278
 1526SOL     OW 5476   6.711   2.431   1.820
 1526SOL    HW1 5477   6.782   2.361   1.821
 1526SOL    HW2 5478   6.629   2.395   1.865
 1527SOL     OW 5479   3.591   2.217   5.489
 1527SOL    HW1 5480   3.683   2.176   5.484
 1527SOL    HW2 5481   3.525   2.147   5.518
 1528SOL     OW 5482   4.984   6.215   3.491
 1528SOL    HW1 5483   4.912   6.170   3.543
 1528SOL    HW2 5484   5.004   6.162   3.409
 1529SOL     OW 5485   3.362   0.121   5.986
 1529SOL    HW1 5486   3.278   0.099   6.036
 1529SOL    HW2 5487   3.376   0.220   5.987
 1530SOL     OW 5488   3.658   6.647   2.246
 1530SOL    HW1 5489   3.609   6.574   2.292
 1530SOL    HW2 5490   3.596   6.695   2.184
 1531SOL     OW 5491   6.464   6.963   4.771
 1531SOL    HW1 5492   6.479   6.997   4.678
 1531SOL    HW2 5493   6.371   6.984   4.800
 1532SOL     OW 5494   3.083   2.003   5.137
 1532SOL    HW1 5495   3.013   1.942   5.100
 1532SOL    HW2 5496   3.097   2.079   5.074
 1533SOL     OW 5497   6.082   3.079   6.731
 1533SOL    HW1 5498   6.048   3.006   6.791
 1533SOL    HW2 5499   6.084   3.165   6.782
 1534SOL     OW 5500   6.681   5.915   0.990
 1534SOL    HW1 5501   6.775   5.937   0.962
 1534SOL    HW2 5502   6.618   5.978   0.946
 1535SOL     OW 5503   4.142   5.180   4.353
 1535SOL    HW1 5504   4.200   5.151   4.430
 1535SOL    HW2 5505   4.195   5.239   4.292
 1536SOL     OW 5506   2.904   5.976   5.426
 1536SOL    HW1 5507   2.988   5.944   5.470
 1536SOL    HW2 5508   2.922   6.064   5.382
 1537SOL     OW 5509   1.608   5.664   4.475
 1537SOL    HW1 5510   1.594   5.569   4.447
 1537SOL    HW2 5511   1.542   5.687   4.547
 1538SOL     OW 5512   2.469   5.573   6.528
 1538SOL    HW1 5513   2.481   5.486   6.575
 1538SOL    HW2 5514   2.398   5.564   6.458
 1539SOL     OW 5515   3.804   4.672   1.732
 1539SOL    HW1 5516   3.853   4.757   1.751
 1539SOL    HW2 5517   3.712   4.677   1.772
 1540SOL     OW 5518   0.674   6.758   4.767
 1540SOL    HW1 5519   0.612   6.754   4.689
 1540SOL    HW2 5520   0.724   6.672   4.775
 1541SOL     OW 5521   5.174   2.302   0.901
 1541SOL    HW1 5522   5.206   2.384   0.949
 1541SOL    HW2 5523   5.074   2.299   0.905
 1542SOL     OW 5524   0.682   6.922   1.151
 1542SOL    HW1 5525   0.741   6.884   1.080
 1542SOL    HW2 5526   0.659   6.850   1.217
 1543SOL     OW 5527   3.345   4.141   4.257
 1543SOL    HW1 5528   3.256   4.098   4.267
 1543SOL    HW2 5529   3.350   4.222   4.316
 1544SOL     OW 5530   3.219   4.040   3.050
 1544SOL    HW1 5531   3.223   4.065   2.953
 1544SOL    HW2 5532   3.294   4.085   3.099
 1545SOL     OW 5533   5.826   6.963   4.892
 1545SOL    HW1 5534   5.750   7.024   4.873
 1545SOL    HW2 5535   5.849   6.968   4.990
 1546SOL     OW 5536   0.700   6.573   5.924
 1546SOL    HW1 5537   0.646   6.561   6.007
 1546SOL    HW2 5538   0.655   6.528   5.847
 1547SOL     OW 5539   3.471   5.957   1.039
 1547SOL    HW1 5540   3.446   5.869   0.998
 1547SOL    HW2 5541   3.538   5.942   1.112
 1548SOL     OW 5542   5.290   4.343   4.683
 1548SOL    HW1 5543   5.323   4.271   4.621
 1548SOL    HW2 5544   5.194   4.362   4.662
 1549SOL     OW 5545   6.667   1.841   1.338
 1549SOL    HW1 5546   6.758   1.819   1.372
 1549SOL    HW2 5547   6.662   1.821   1.240
 1550SOL     OW 5548   2.302   5.929   4.372
 1550SOL    HW1 5549   2.295   6.017   4.419
 1550SOL    HW2 5550   2.214   5.882   4.376
 1551SOL     OW 5551   1.655   2.301   1.105
 1551SOL    HW1 5552   1.741   2.250   1.112
 1551SOL    HW2 5553   1.623   2.326   1.196
 1552SOL     OW 5554   0.872   0.456   0.653
 1552SOL    HW1 5555   0.919   0.542   0.635
 1552SOL    HW2 5556   0.777   0.474   0.679
 1553SOL     OW 5557   5.912   1.574   6.230
 1553SOL    HW1 5558   6.001   1.588   6.272
 1553SOL    HW2 5559   5.894   1.647   6.164
 1554SOL     OW 5560   3.973   1.802   1.760
 1554SOL    HW1 5561   3.894   1.862   1.775
 1554SOL    HW2 5562   4.012   1.775   1.848
 1555SOL     OW 5563   3.707   1.679   5.730
 1555SOL    HW1 5564   3.637   1.644   5.792
 1555SOL    HW2 5565   3.727   1.611   5.660
 1556SOL     OW 5566   3.556   1.487   0.807
 1556SOL    HW1 5567   3.533   1.495   0.710
 1556SOL    HW2 5568   3.476   1.513   0.862
 1557SOL     OW 5569   1.963   1.972   0.890
 1557SOL    HW1 5570   1.950   1.923   0.976
 1557SOL    HW2 5571   2.046   1.940   0.845
 1558SOL     OW 5572   6.479   3.341   6.088
 1558SOL    HW1 5573   6.539   3.378   6.017
 1558SOL    HW2 5574   6.438   3.417   6.139
 1559SOL     OW 5575   1.613   4.916   2.972
 1559SOL    HW1 5576   1.648   4.846   3.035
 1559SOL    HW2 5577   1.558   4.983   3.024
 1560SOL     OW 5578   3.995   1.293   1.533
 1560SOL    HW1 5579   4.070   1.229   1.548
 1560SOL    HW2 5580   4.003   1.370   1.597
 1561SOL     OW 5581   6.171   5.920   1.356
 1561SOL    HW1 5582   6.163   6.018   1.374
 1561SOL    HW2 5583   6.254   5.903   1.302
 1562SOL     OW 5584   3.559   6.426   2.386
 1562SOL    HW1 5585   3.589   6.333   2.406
 1562SOL    HW2 5586   3.462   6.426   2.364
 1563SOL     OW 5587   4.060   2.237   4.414
 1563SOL    HW1 5588   4.070   2.235   4.513
 1563SOL    HW2 5589   4.079   2.329   4.380
 1564SOL     OW 5590   1.456   2.060   2.395
 1564SOL    HW1 5591   1.480   2.087   2.489
 1564SOL    HW2 5592   1.362   2.028   2.393
 1565SOL     OW 5593   3.989   0.768   4.460
 1565SOL    HW1 5594   4.046   0.829   4.405
 1565SOL    HW2 5595   4.036   0.680   4.471
 1566SOL     OW 5596   4.717   4.772   2.972
 1566SOL    HW1 5597   4.731   4.792   3.069
 1566SOL    HW2 5598   4.795   4.718   2.938
 1567SOL     OW 5599   4.977   6.393   4.818
 1567SOL    HW1 5600   4.882   6.375   4.841
 1567SOL    HW2 5601   4.983   6.427   4.725
 1568SOL     OW 5602   2.385   5.987   2.917
 1568SOL    HW1 5603   2.429   5.911   2.964
 1568SOL    HW2 5604   2.317   5.951   2.852
 1569SOL     OW 5605   2.773   6.818   3.605
 1569SOL    HW1 5606   2.743   6.779   3.518
 1569SOL    HW2 5607   2.796   6.915   3.592
 1570SOL     OW 5608   3.250   6.823   0.195
 1570SOL    HW1 5609   3.183   6.749   0.188
 1570SOL    HW2 5610   3.327   6.804   0.134
 1571SOL     OW 5611   0.753   2.534   4.076
 1571SOL    HW1 5612   0.814   2.493   4.144
 1571SOL    HW2 5613   0.659   2.503   4.091
 1572SOL     OW 5614   2.078   5.195   1.890
 1572SOL    HW1 5615   2.093   5.186   1.791
 1572SOL    HW2 5616   2.076   5.104   1.932
 1573SOL     OW 5617   5.284   4.980   0.746
 1573SOL    HW1 5618   5.283   5.022   0.837
 1573SOL    HW2 5619   5.247   5.044   0.679
 1574SOL     OW 5620   6.957   3.620   2.816
 1574SOL    HW1 5621   7.023   3.563   2.766
 1574SOL    HW2 5622   6.999   3.708   2.837
 1575SOL     OW 5623   0.596   1.261   0.340
 1575SOL    HW1 5624   0.544   1.176   0.345
 1575SOL    HW2 5625   0.543   1.329   0.289
 1576SOL     OW 5626   0.193   6.992   2.573
 1576SOL    HW1 5627   0.127   6.989   2.648
 1576SOL    HW2 5628   0.164   6.930   2.500
 1577SOL     OW 5629   4.668   0.091   5.358
 1577SOL    HW1 5630   4.676   0.191   5.352
 1577SOL    HW2 5631   4.759   0.050   5.357
 1578SOL     OW 5632   4.986   0.806   0.219
 1578SOL    HW1 5633   5.022   0.727   0.170
 1578SOL    HW2 5634   4.987   0.788   0.317
 1579SOL     OW 5635   1.356   2.716   1.185
 1579SOL    HW1 5636   1.299   2.652   1.237
 1579SOL    HW2 5637   1.374   2.678   1.094
 1580SOL     OW 5638   3.509   3.543   3.076
 1580SOL    HW1 5639   3.511   3.469   3.008
 1580SOL    HW2 5640   3.575   3.614   3.050
 1581SOL     OW 5641   0.045   4.385   5.719
 1581SOL    HW1 5642   0.033   4.473   5.674
 1581SOL    HW2 5643   7.000   4.322   5.688
 1582SOL     OW 5644   4.843   6.807   5.449
 1582SOL    HW1 5645   4.803   6.798   5.540
 1582SOL    HW2 5646   4.769   6.811   5.381
 1583SOL     OW 5647   1.109   5.714   5.249
 1583SOL    HW1 5648   1.097   5.756   5.340
 1583SOL    HW2 5649   1.205   5.717   5.223
 1584SOL     OW 5650   0.734   5.161   6.701
 1584SOL    HW1 5651   0.766   5.089   6.640
 1584SOL    HW2 5652   0.748   5.133   6.796
 1585SOL     OW 5653   4.126   0.356   3.174
 1585SOL    HW1 5654   4.160   0.270   3.136
 1585SOL    HW2 5655   4.030   0.367   3.150
 1586SOL     OW 5656   2.879   4.817   3.798
 1586SOL    HW1 5657   2.827   4.896   3.765
 1586SOL    HW2 5658   2.963   4.808   3.745
 1587SOL     OW 5659   1.930   6.196   5.693
 1587SOL    HW1 5660   1.957   6.109   5.734
 1587SOL    HW2 5661   1.929   6.188   5.594
 1588SOL     OW 5662   5.775   0.649   2.429
 1588SOL    HW1 5663   5.686   0.609   2.406
 1588SOL    HW2 5664   5.841   0.626   2.357
 1589SOL     OW 5665   6.550   4.703   3.767
 1589SOL    HW1 5666   6.619   4.648   3.815
 1589SOL    HW2 5667   6.532   4.786   3.819
 1590SOL     OW 5668   6.839   2.110   3.594
 1590SOL    HW1 5669   6.749   2.139   3.627
 1590SOL    HW2 5670   6.901   2.188   3.594
 1591SOL     OW 5671   0.590   6.059   2.002
 1591SOL    HW1 5672   0.613   6.102   1.915
 1591SOL    HW2 5673   0.521   6.114   2.049
 1592SOL     OW 5674   0.700   3.871   6.871
 1592SOL    HW1 5675   0.783   3.910   6.832
 1592SOL    HW2 5676   0.620   3.921   6.838
 1593SOL     OW 5677   2.111   0.289   6.695
 1593SOL    HW1 5678   2.019   0.320   6.671
 1593SOL    HW2 5679   2.174   0.311   6.622
 1594SOL     OW 5680   6.526   0.516   2.168
 1594SOL    HW1 5681   6.478   0.437   2.128
 1594SOL    HW2 5682   6.472   0.552   2.244
 1595SOL     OW 5683   1.060   4.700   6.632
 1595SOL    HW1 5684   0.975   4.732   6.674
 1595SOL    HW2 5685   1.039   4.640   6.555
 1596SOL     OW 5686   5.251   4.694   2.195
 1596SOL    HW1 5687   5.243   4.638   2.278
 1596SOL    HW2 5688   5.183   4.663   2.128
 1597SOL     OW 5689   3.668   6.622   6.841
 1597SOL    HW1 5690   3.757   6.588   6.871
 1597SOL    HW2 5691   3.673   6.721   6.830
 1598SOL     OW 5692   1.541   5.920   6.961
 1598SOL    HW1 5693   1.581   5.855   7.025
 1598SOL    HW2 5694   1.591   5.916   6.874
 1599SOL     OW 5695   4.604   4.805   3.833
 1599SOL    HW1 5696   4.525   4.821   3.893
 1599SOL    HW2 5697   4.683   4.782   3.889
 1600SOL     OW 5698   3.707   0.410   2.824
 1600SOL    HW1 5699   3.628   0.470   2.807
 1600SOL    HW2 5700   3.740   0.374   2.737
 1601SOL     OW 5701   5.566   6.240   3.966
 1601SOL    HW1 5702   5.494   6.282   3.911
 1601SOL    HW2 5703   5.619   6.311   4.012
 1602SOL     OW 5704   4.449   5.333   3.737
 1602SOL    HW1 5705   4.450   5.318   3.638
 1602SOL    HW2 5706   4.534   5.300   3.777
 1603SOL     OW 5707   2.820   5.376   3.579
 1603SOL    HW1 5708   2.729   5.409   3.557
 1603SOL    HW2 5709   2.867   5.349   3.495
 1604SOL     OW 5710   3.907   5.075   2.343
 1604SOL    HW1 5711   3.877   5.005   2.408
 1604SOL    HW2 5712   3.888   5.045   2.250
 1605SOL     OW 5713   4.868   5.020   1.156
 1605SOL    HW1 5714   4.950   4.968   1.180
 1605SOL    HW2 5715   4.787   4.962   1.165
 1606SOL     OW 5716   4.278   6.309   4.926
 1606SOL    HW1 5717   4.331   6.238   4.971
 1606SOL    HW2 5718   4.330   6.347   4.850
 1607SOL     OW 5719   4.917   5.967   2.890
 1607SOL    HW1 5720   4.871   5.916   2.962
 1607SOL    HW2 5721   5.016   5.950   2.895
 1608SOL     OW 5722   6.612   0.863   3.056
 1608SOL    HW1 5723   6.616   0.955   3.019
 1608SOL    HW2 5724   6.571   0.866   3.148
 1609SOL     OW 5725   3.285   6.151   0.987
 1609SOL    HW1 5726   3.358   6.085   1.006
 1609SOL    HW2 5727   3.325   6.241   0.973
 1610SOL     OW 5728   4.568   0.388   0.105
 1610SOL    HW1 5729   4.662   0.420   0.116
 1610SOL    HW2 5730   4.506   0.451   0.152
 1611SOL     OW 5731   1.389   3.662   1.031
 1611SOL    HW1 5732   1.481   3.626   1.048
 1611SOL    HW2 5733   1.324   3.586   1.030
 1612SOL     OW 5734   3.642   0.016   1.955
 1612SOL    HW1 5735   3.582   7.005   2.026
 1612SOL    HW2 5736   3.648   0.115   1.964
 1613SOL     OW 5737   6.737   5.891   2.620
 1613SOL    HW1 5738   6.653   5.860   2.665
 1613SOL    HW2 5739   6.775   5.968   2.670
 1614SOL     OW 5740   6.062   2.324   6.213
 1614SOL    HW1 5741   6.097   2.347   6.304
 1614SOL    HW2 5742   5.964   2.345   6.209
 1615SOL     OW 5743   0.709   5.125   6.121
 1615SOL    HW1 5744   0.705   5.051   6.188
 1615SOL    HW2 5745   0.785   5.186   6.144
 1616SOL     OW 5746   2.392   1.543   4.925
 1616SOL    HW1 5747   2.303   1.498   4.930
 1616SOL    HW2 5748   2.386   1.623   4.866
 1617SOL     OW 5749   5.447   6.043   3.304
 1617SOL    HW1 5750   5.523   6.002   3.355
 1617SOL    HW2 5751   5.426   6.133   3.343
 1618SOL     OW 5752   2.805   5.475   3.275
 1618SOL    HW1 5753   2.894   5.489   3.232
 1618SOL    HW2 5754   2.754   5.406   3.224
 1619SOL     OW 5755   1.352   5.077   0.116
 1619SOL    HW1 5756   1.445   5.048   0.140
 1619SOL    HW2 5757   1.287   5.005   0.141
 1620SOL     OW 5758   3.629   5.450   6.775
 1620SOL    HW1 5759   3.701   5.496   6.827
 1620SOL    HW2 5760   3.669   5.387   6.709
 1621SOL     OW 5761   5.396   6.687   0.645
 1621SOL    HW1 5762   5.366   6.609   0.591
 1621SOL    HW2 5763   5.483   6.721   0.608
 1622SOL     OW 5764   0.462   4.209   4.574
 1622SOL    HW1 5765   0.398   4.183   4.501
 1622SOL    HW2 5766   0.550   4.234   4.534
 1623SOL     OW 5767   0.761   2.093   4.482
 1623SOL    HW1 5768   0.702   2.018   4.513
 1623SOL    HW2 5769   0.849   2.088   4.529
 1624SOL     OW 5770   3.882   1.259   1.058
 1624SOL    HW1 5771   3.879   1.343   1.004
 1624SOL    HW2 5772   3.973   1.247   1.097
 1625SOL     OW 5773   1.798   5.365   1.047
 1625SOL    HW1 5774   1.861   5.432   1.086
 1625SOL    HW2 5775   1.705   5.384   1.079
 1626SOL     OW 5776   3.218   1.669   1.679
 1626SOL    HW1 5777   3.144   1.728   1.649
 1626SOL    HW2 5778   3.279   1.720   1.740
 1627SOL     OW 5779   4.150   1.537   4.011
 1627SOL    HW1 5780   4.207   1.468   4.057
 1627SOL    HW2 5781   4.055   1.528   4.042
 1628SOL     OW 5782   5.459   6.512   6.600
 1628SOL    HW1 5783   5.503   6.599   6.579
 1628SOL    HW2 5784   5.466   6.493   6.698
 1629SOL     OW 5785   1.967   0.941   3.075
 1629SOL    HW1 5786   1.912   0.925   2.993
 1629SOL    HW2 5787   1.906   0.959   3.153
 1630SOL     OW 5788   0.850   3.815   0.078
 1630SOL    HW1 5789   0.801   3.839   7.020
 1630SOL    HW2 5790   0.943   3.852   0.074
 1631SOL     OW 5791   0.386   3.280   0.493
 1631SOL    HW1 5792   0.357   3.185   0.509
 1631SOL    HW2 5793   0.457   3.282   0.423
 1632SOL     OW 5794   6.616   4.867   2.545
 1632SOL    HW1 5795   6.592   4.931   2.472
 1632SOL    HW2 5796   6.533   4.824   2.580
 1633SOL     OW 5797   4.870   3.085   4.021
 1633SOL    HW1 5798   4.947   3.079   4.085
 1633SOL    HW2 5799   4.872   3.174   3.976
 1634SOL     OW 5800   5.446   0.320   4.634
 1634SOL    HW1 5801   5.494   0.302   4.720
 1634SOL    HW2 5802   5.394   0.405   4.642
 1635SOL     OW 5803   3.569   5.604   4.160
 1635SOL    HW1 5804   3.610   5.655   4.236
 1635SOL    HW2 5805   3.508   5.534   4.196
 1636SOL     OW 5806   5.825   6.098   1.444
 1636SOL    HW1 5807   5.917   6.133   1.426
 1636SOL    HW2 5808   5.830   5.999   1.458
 1637SOL     OW 5809   0.222   0.019   2.200
 1637SOL    HW1 5810   0.196   6.949   2.187
 1637SOL    HW2 5811   0.320   0.025   2.219
 1638SOL     OW 5812   0.134   2.912   1.799
 1638SOL    HW1 5813   0.165   2.871   1.885
 1638SOL    HW2 5814   0.065   2.981   1.818
 1639SOL     OW 5815   5.081   2.947   2.669
 1639SOL    HW1 5816   4.984   2.942   2.644
 1639SOL    HW2 5817   5.132   2.995   2.598
 1640SOL     OW 5818   6.434   0.295   0.264
 1640SOL    HW1 5819   6.463   0.292   0.169
 1640SOL    HW2 5820   6.513   0.314   0.322
 1641SOL     OW 5821   6.884   2.653   2.742
 1641SOL    HW1 5822   6.932   2.740   2.728
 1641SOL    HW2 5823   6.785   2.668   2.732
 1642SOL     OW 5824   5.479   2.062   5.564
 1642SOL    HW1 5825   5.501   2.041   5.469
 1642SOL    HW2 5826   5.410   2.135   5.567
 1643SOL     OW 5827   3.310   5.543   4.609
 1643SOL    HW1 5828   3.287   5.473   4.541
 1643SOL    HW2 5829   3.349   5.623   4.563
 1644SOL     OW 5830   5.820   3.034   0.887
 1644SOL    HW1 5831   5.872   2.970   0.830
 1644SOL    HW2 5832   5.731   2.994   0.910
 1645SOL     OW 5833   2.623   1.047   5.499
 1645SOL    HW1 5834   2.581   1.041   5.590
 1645SOL    HW2 5835   2.552   1.038   5.430
 1646SOL     OW 5836   0.856   5.589   0.718
 1646SOL    HW1 5837   0.947   5.547   0.721
 1646SOL    HW2 5838   0.788   5.523   0.750
 1647SOL     OW 5839   6.307   2.772   4.559
 1647SOL    HW1 5840   6.267   2.823   4.483
 1647SOL    HW2 5841   6.258   2.796   4.644
 1648SOL     OW 5842   5.390   6.269   0.778
 1648SOL    HW1 5843   5.411   6.228   0.867
 1648SOL    HW2 5844   5.421   6.208   0.706
 1649SOL     OW 5845   3.055   0.670   3.289
 1649SOL    HW1 5846   2.979   0.605   3.281
 1649SOL    HW2 5847   3.133   0.625   3.333
 1650SOL     OW 5848   2.863   5.124   6.838
 1650SOL    HW1 5849   2.945   5.085   6.880
 1650SOL    HW2 5850   2.889   5.200   6.779
 1651SOL     OW 5851   0.754   2.787   4.013
 1651SOL    HW1 5852   0.755   2.693   4.048
 1651SOL    HW2 5853   0.836   2.834   4.045
 1652SOL     OW 5854   0.803   2.548   1.287
 1652SOL    HW1 5855   0.783   2.642   1.256
 1652SOL    HW2 5856   0.846   2.498   1.212
 1653SOL     OW 5857   6.985   4.777   3.056
 1653SOL    HW1 5858   6.911   4.843   3.068
 1653SOL    HW2 5859   6.951   4.685   3.076
 1654SOL     OW 5860   0.660   3.015   1.757
 1654SOL    HW1 5861   0.755   2.999   1.781
 1654SOL    HW2 5862   0.653   3.099   1.702
 1655SOL     OW 5863   6.932   0.237   4.780
 1655SOL    HW1 5864   6.906   0.142   4.799
 1655SOL    HW2 5865   6.963   0.280   4.865
 1656SOL     OW 5866   2.376   4.927   4.146
 1656SOL    HW1 5867   2.420   5.009   4.182
 1656SOL    HW2 5868   2.416   4.904   4.057
 1657SOL     OW 5869   1.040   0.165   5.480
 1657SOL    HW1 5870   1.135   0.133   5.482
 1657SOL    HW2 5871   1.024   0.227   5.557
 1658SOL     OW 5872   6.882   0.111   6.579
 1658SOL    HW1 5873   6.972   0.132   6.541
 1658SOL    HW2 5874   6.868   0.012   6.579
 1659SOL     OW 5875   4.312   6.817   6.637
 1659SOL    HW1 5876   4.236   6.868   6.597
 1659SOL    HW2 5877   4.398   6.864   6.617
 1660SOL     OW 5878   1.641   6.910   1.714
 1660SOL    HW1 5879   1.704   6.834   1.729
 1660SOL    HW2 5880   1.692   6.988   1.678
 1661SOL     OW 5881   3.802   4.944   2.913
 1661SOL    HW1 5882   3.859   4.881   2.860
 1661SOL    HW2 5883   3.841   4.954   3.005
 1662SOL     OW 5884   0.277   1.012   4.864
 1662SOL    HW1 5885   0.263   0.996   4.961
 1662SOL    HW2 5886   0.272   0.925   4.815
 1663SOL     OW 5887   4.379   4.262   1.299
 1663SOL    HW1 5888   4.436   4.338   1.332
 1663SOL    HW2 5889   4.320   4.231   1.374
 1664SOL     OW 5890   0.730   0.142   5.047
 1664SOL    HW1 5891   0.803   0.093   5.094
 1664SOL    HW2 5892   0.681   0.199   5.112
 1665SOL     OW 5893   2.087   4.168   1.197
 1665SOL    HW1 5894   2.102   4.118   1.112
 1665SOL    HW2 5895   2.144   4.250   1.198
 1666SOL     OW 5896   5.775   6.970   6.485
 1666SOL    HW1 5897   5.816   6.888   6.525
 1666SOL    HW2 5898   5.837   7.009   6.417
 1667SOL     OW 5899   0.283   6.674   1.369
 1667SOL    HW1 5900   0.348   6.670   1.445
 1667SOL    HW2 5901   0.328   6.708   1.287
 1668SOL     OW 5902   4.678   4.308   4.224
 1668SOL    HW1 5903   4.708   4.258   4.143
 1668SOL    HW2 5904   4.601   4.367   4.200
 1669SOL     OW 5905   6.958   3.897   4.876
 1669SOL    HW1 5906   6.976   3.817   4.820
 1669SOL    HW2 5907   0.018   3.929   4.917
 1670SOL     OW 5908   2.288   4.360   5.870
 1670SOL    HW1 5909   2.286   4.319   5.779
 1670SOL    HW2 5910   2.199   4.399   5.891
 1671SOL     OW 5911   5.643   1.644   1.405
 1671SOL    HW1 5912   5.566   1.579   1.402
 1671SOL    HW2 5913   5.708   1.614   1.475
 1672SOL     OW 5914   0.778   2.901   7.008
 1672SOL    HW1 5915   0.832   2.832   6.960
 1672SOL    HW2 5916   0.744   2.863   0.068
 1673SOL     OW 5917   2.325   1.899   4.262
 1673SOL    HW1 5918   2.408   1.845   4.276
 1673SOL    HW2 5919   2.339   1.962   4.186
 1674SOL     OW 5920   4.742   2.372   2.825
 1674SOL    HW1 5921   4.680   2.450   2.819
 1674SOL    HW2 5922   4.689   2.288   2.838
 1675SOL     OW 5923   5.160   0.984   1.201
 1675SOL    HW1 5924   5.129   0.892   1.224
 1675SOL    HW2 5925   5.119   1.012   1.114
 1676SOL     OW 5926   1.630   1.660   2.950
 1676SOL    HW1 5927   1.701   1.677   3.019
 1676SOL    HW2 5928   1.583   1.745   2.928
 1677SOL     OW 5929   4.069   3.679   3.421
 1677SOL    HW1 5930   4.080   3.632   3.508
 1677SOL    HW2 5931   4.022   3.766   3.436
 1678SOL     OW 5932   0.590   6.637   0.870
 1678SOL    HW1 5933   0.639   6.643   0.957
 1678SOL    HW2 5934   0.537   6.720   0.855
 1679SOL     OW 5935   1.885   1.666   5.691
 1679SOL    HW1 5936   1.937   1.735   5.742
 1679SOL    HW2 5937   1.788   1.681   5.706
 1680SOL     OW 5938   4.668   2.693   4.108
 1680SOL    HW1 5939   4.734   2.756   4.149
 1680SOL    HW2 5940   4.648   2.619   4.173
 1681SOL     OW 5941   1.977   6.303   3.620
 1681SOL    HW1 5942   2.018   6.221   3.660
 1681SOL    HW2 5943   2.037   6.381   3.637
 1682SOL     OW 5944   2.479   0.160   5.414
 1682SOL    HW1 5945   2.562   0.171   5.360
 1682SOL    HW2 5946   2.405   0.212   5.370
 1683SOL     OW 5947   6.241   4.596   2.568
 1683SOL    HW1 5948   6.306   4.662   2.606
 1683SOL    HW2 5949   6.275   4.562   2.481
 1684SOL     OW 5950   2.023   5.032   1.408
 1684SOL    HW1 5951   2.122   5.037   1.392
 1684SOL    HW2 5952   2.002   4.949   1.459
 1685SOL     OW 5953   0.588   1.395   5.785
 1685SOL    HW1 5954   0.530   1.319   5.757
 1685SOL    HW2 5955   0.677   1.360   5.813
 1686SOL     OW 5956   4.709   5.503   3.192
 1686SOL    HW1 5957   4.708   5.542   3.284
 1686SOL    HW2 5958   4.782   5.436   3.185
 1687SOL     OW 5959   6.493   3.849   2.825
 1687SOL    HW1 5960   6.489   3.772   2.889
 1687SOL    HW2 5961   6.463   3.818   2.734
 1688SOL     OW 5962   2.119   2.063   3.681
 1688SOL    HW1 5963   2.120   2.001   3.603
 1688SOL    HW2 5964   2.112   2.010   3.766
 1689SOL     OW 5965   5.847   0.823   1.749
 1689SOL    HW1 5966   5.778   0.882   1.791
 1689SOL    HW2 5967   5.923   0.879   1.716
 1690SOL     OW 5968   0.881   4.134   4.408
 1690SOL    HW1 5969   0.864   4.124   4.310
 1690SOL    HW2 5970   0.815   4.079   4.459
 1691SOL     OW 5971   5.052   2.574   4.972
 1691SOL    HW1 5972   5.108   2.595   5.052
 1691SOL    HW2 5973   5.048   2.653   4.911
 1692SOL     OW 5974   6.226   5.237   1.292
 1692SOL    HW1 5975   6.128   5.239   1.272
 1692SOL    HW2 5976   6.267   5.157   1.248
 1693SOL     OW 5977   5.887   0.425   5.458
 1693SOL    HW1 5978   5.857   0.442   5.364
 1693SOL    HW2 5979   5.987   0.415   5.460
 1694SOL     OW 5980   5.637   0.840   5.205
 1694SOL    HW1 5981   5.685   0.812   5.289
 1694SOL    HW2 5982   5.579   0.919   5.225
 1695SOL     OW 5983   3.771   0.589   6.452
 1695SOL    HW1 5984   3.686   0.621   6.495
 1695SOL    HW2 5985   3.843   0.657   6.465
 1696SOL     OW 5986   4.678   5.972   0.101
 1696SOL    HW1 5987   4.749   5.925   0.049
 1696SOL    HW2 5988   4.623   5.904   0.150
 1697SOL     OW 5989   5.897   2.021   1.185
 1697SOL    HW1 5990   5.917   1.925   1.165
 1697SOL    HW2 5991   5.801   2.029   1.213
 1698SOL     OW 5992   3.276   0.625   1.741
 1698SOL    HW1 5993   3.215   0.627   1.662
 1698SOL    HW2 5994   3.227   0.655   1.823
 1699SOL     OW 5995   2.409   0.389   0.210
 1699SOL    HW1 5996   2.404   0.451   0.132
 1699SOL    HW2 5997   2.475   0.426   0.277
 1700SOL     OW 5998   5.738   3.701   3.081
 1700SOL    HW1 5999   5.831   3.702   3.044
 1700SOL    HW2 6000   5.730   3.629   3.150
 1701SOL     OW 6001   0.017   5.093   4.945
 1701SOL    HW1 6002   0.075   5.065   4.868
 1701SOL    HW2 6003   0.058   5.171   4.991
 1702SOL     OW 6004   1.948   2.526   5.785
 1702SOL    HW1 6005   1.920   2.474   5.704
 1702SOL    HW2 6006   1.971   2.462   5.859
 1703SOL     OW 6007   3.338   2.035   6.675
 1703SOL    HW1 6008   3.399   1.957   6.661
 1703SOL    HW2 6009   3.264   2.031   6.607
 1704SOL     OW 6010   2.596   1.932   0.985
 1704SOL    HW1 6011   2.653   1.850   0.990
 1704SOL    HW2 6012   2.639   1.998   0.923
 1705SOL     OW 6013   4.230   0.975   1.220
 1705SOL    HW1 6014   4.315   0.999   1.267
 1705SOL    HW2 6015   4.211   0.878   1.232
 1706SOL     OW 6016   3.822   2.155   0.896
 1706SOL    HW1 6017   3.802   2.207   0.813
 1706SOL    HW2 6018   3.878   2.211   0.957
 1707SOL     OW 6019   4.738   1.662   2.289
 1707SOL    HW1 6020   4.731   1.665   2.389
 1707SOL    HW2 6021   4.713   1.571   2.257
 1708SOL     OW 6022   3.158   5.245   1.491
 1708SOL    HW1 6023   3.136   5.342   1.500
 1708SOL    HW2 6024   3.176   5.223   1.395
 1709SOL     OW 6025   4.909   5.476   0.471
 1709SOL    HW1 6026   4.994   5.524   0.494
 1709SOL    HW2 6027   4.886   5.493   0.375
 1710SOL     OW 6028   4.352   5.494   2.879
 1710SOL    HW1 6029   4.451   5.505   2.893
 1710SOL    HW2 6030   4.303   5.522   2.961
 1711SOL     OW 6031   3.734   5.494   6.002
 1711SOL    HW1 6032   3.693   5.553   6.070
 1711SOL    HW2 6033   3.670   5.420   5.978
 1712SOL     OW 6034   0.008   1.993   4.171
 1712SOL    HW1 6035   6.995   1.902   4.160
 1712SOL    HW2 6036   0.095   1.998   4.121
 1713SOL     OW 6037   4.098   0.565   2.556
 1713SOL    HW1 6038   4.145   0.529   2.636
 1713SOL    HW2 6039   4.155   0.635   2.513
 1714SOL     OW 6040   3.589   2.701   6.914
 1714SOL    HW1 6041   3.587   2.789   6.867
 1714SOL    HW2 6042   3.509   2.693   6.973
 1715SOL     OW 6043   1.356   6.388   2.716
 1715SOL    HW1 6044   1.386   6.295   2.732
 1715SOL    HW2 6045   1.261   6.399   2.746
 1716SOL     OW 6046   4.494   0.272   4.070
 1716SOL    HW1 6047   4.477   0.268   3.971
 1716SOL    HW2 6048   4.555   0.348   4.090
 1717SOL     OW 6049   3.782   6.056   5.856
 1717SOL    HW1 6050   3.801   6.151   5.833
 1717SOL    HW2 6051   3.858   6.020   5.912
 1718SOL     OW 6052   1.779   2.834   1.905
 1718SOL    HW1 6053   1.822   2.763   1.961
 1718SOL    HW2 6054   1.681   2.819   1.901
 1719SOL     OW 6055   0.900   5.099   1.470
 1719SOL    HW1 6056   0.958   5.141   1.400
 1719SOL    HW2 6057   0.893   5.001   1.453
 1720SOL     OW 6058   6.312   3.109   5.904
 1720SOL    HW1 6059   6.263   3.051   5.838
 1720SOL    HW2 6060   6.327   3.199   5.863
 1721SOL     OW 6061   1.666   1.654   1.563
 1721SOL    HW1 6062   1.719   1.677   1.481
 1721SOL    HW2 6063   1.591   1.719   1.574
 1722SOL     OW 6064   2.747   2.075   3.269
 1722SOL    HW1 6065   2.732   2.070   3.170
 1722SOL    HW2 6066   2.824   2.016   3.294
 1723SOL     OW 6067   5.648   2.803   0.340
 1723SOL    HW1 6068   5.601   2.715   0.334
 1723SOL    HW2 6069   5.633   2.843   0.431
 1724SOL     OW 6070   6.951   2.532   1.248
 1724SOL    HW1 6071   6.897   2.455   1.215
 1724SOL    HW2 6072   6.901   2.580   1.320
 1725SOL     OW 6073   2.008   6.001   6.916
 1725SOL    HW1 6074   1.940   5.936   6.949
 1725SOL    HW2 6075   2.047   6.051   6.993
 1726SOL     OW 6076   5.904   4.211   3.941
 1726SOL    HW1 6077   5.836   4.255   3.883
 1726SOL    HW2 6078   5.875   4.117   3.962
 1727SOL     OW 6079   3.271   3.292   3.272
 1727SOL    HW1 6080   3.296   3.225   3.201
 1727SOL    HW2 6081   3.280   3.384   3.235
 1728SOL     OW 6082   4.990   2.356   4.791
 1728SOL    HW1 6083   4.934   2.280   4.822
 1728SOL    HW2 6084   5.000   2.422   4.866
 1729SOL     OW 6085   2.103   4.159   1.802
 1729SOL    HW1 6086   2.012   4.141   1.837
 1729SOL    HW2 6087   2.161   4.194   1.876
 1730SOL     OW 6088   2.759   4.939   5.837
 1730SOL    HW1 6089   2.691   4.991   5.889
 1730SOL    HW2 6090   2.740   4.841   5.846
 1731SOL     OW 6091   6.060   3.961   4.308
 1731SOL    HW1 6092   6.131   4.023   4.274
 1731SOL    HW2 6093   5.979   4.014   4.334
 1732SOL     OW 6094   2.264   4.451   6.381
 1732SOL    HW1 6095   2.285   4.409   6.293
 1732SOL    HW2 6096   2.286   4.549   6.376
 1733SOL     OW 6097   3.120   4.157   0.283
 1733SOL    HW1 6098   3.076   4.095   0.348
 1733SOL    HW2 6099   3.071   4.155   0.196
 1734SOL     OW 6100   0.040   3.048   1.067
 1734SOL    HW1 6101   0.100   2.995   1.127
 1734SOL    HW2 6102   0.011   2.992   0.991
 1735SOL     OW 6103   3.825   4.972   6.087
 1735SOL    HW1 6104   3.915   5.007   6.062
 1735SOL    HW2 6105   3.836   4.887   6.139
 1736SOL     OW 6106   4.476   3.181   0.917
 1736SOL    HW1 6107   4.561   3.193   0.968
 1736SOL    HW2 6108   4.487   3.105   0.852
 1737SOL     OW 6109   4.986   1.208   4.776
 1737SOL    HW1 6110   4.934   1.289   4.748
 1737SOL    HW2 6111   5.079   1.214   4.740
 1738SOL     OW 6112   1.021   3.441   4.512
 1738SOL    HW1 6113   1.110   3.395   4.517
 1738SOL    HW2 6114   0.963   3.408   4.586
 1739SOL     OW 6115   5.364   0.183   4.150
 1739SOL    HW1 6116   5.355   0.282   4.135
 1739SOL    HW2 6117   5.431   0.166   4.222
 1740SOL     OW 6118   6.470   2.707   4.260
 1740SOL    HW1 6119   6.447   2.664   4.347
 1740SOL    HW2 6120   6.448   2.804   4.264
 1741SOL     OW 6121   1.151   1.919   4.704
 1741SOL    HW1 6122   1.110   1.851   4.764
 1741SOL    HW2 6123   1.079   1.977   4.664
 1742SOL     OW 6124   6.270   5.779   6.159
 1742SOL    HW1 6125   6.215   5.858   6.133
 1742SOL    HW2 6126   6.351   5.773   6.099
 1743SOL     OW 6127   1.383   0.894   2.929
 1743SOL    HW1 6128   1.460   0.958   2.924
 1743SOL    HW2 6129   1.350   0.875   2.837
 1744SOL     OW 6130   4.534   2.024   4.040
 1744SOL    HW1 6131   4.501   2.118   4.030
 1744SOL    HW2 6132   4.510   1.990   4.131
 1745SOL     OW 6133   6.849   6.476   1.301
 1745SOL    HW1 6134   6.792   6.552   1.331
 1745SOL    HW2 6135   6.827   6.453   1.206
 1746SOL     OW 6136   1.769   4.147   3.646
 1746SOL    HW1 6137   1.686   4.134   3.592
 1746SOL    HW2 6138   1.849   4.132   3.587
 1747SOL     OW 6139   3.732   0.798   2.284
 1747SOL    HW1 6140   3.781   0.768   2.202
 1747SOL    HW2 6141   3.771   0.753   2.365
 1748SOL     OW 6142   6.775   1.998   5.040
 1748SOL    HW1 6143   6.702   1.930   5.036
 1748SOL    HW2 6144   6.860   1.954   5.065
 1749SOL     OW 6145   1.807   5.043   0.867
 1749SOL    HW1 6146   1.723   4.991   0.854
 1749SOL    HW2 6147   1.833   5.040   0.964
 1750SOL     OW 6148   4.471   0.218   5.186
 1750SOL    HW1 6149   4.547   0.232   5.250
 1750SOL    HW2 6150   4.496   0.149   5.118
 1751SOL     OW 6151   5.828   2.446   4.954
 1751SOL    HW1 6152   5.924   2.422   4.951
 1751SOL    HW2 6153   5.815   2.523   5.017
 1752SOL     OW 6154   6.655   0.868   1.246
 1752SOL    HW1 6155   6.710   0.939   1.202
 1752SOL    HW2 6156   6.558   0.886   1.229
 1753SOL     OW 6157   6.270   1.302   1.885
 1753SOL    HW1 6158   6.351   1.253   1.918
 1753SOL    HW2 6159   6.284   1.330   1.791
 1754SOL     OW 6160   3.294   5.181   5.630
 1754SOL    HW1 6161   3.390   5.152   5.629
 1754SOL    HW2 6162   3.278   5.247   5.557
 1755SOL     OW 6163   6.516   6.784   4.989
 1755SOL    HW1 6164   6.474   6.844   4.921
 1755SOL    HW2 6165   6.590   6.731   4.946
 1756SOL     OW 6166   5.573   0.552   6.106
 1756SOL    HW1 6167   5.527   0.641   6.105
 1756SOL    HW2 6168   5.504   0.480   6.103
 1757SOL     OW 6169   2.286   5.226   5.129
 1757SOL    HW1 6170   2.356   5.286   5.169
 1757SOL    HW2 6171   2.243   5.172   5.201
 1758SOL     OW 6172   2.365   6.681   4.859
 1758SOL    HW1 6173   2.272   6.648   4.846
 1758SOL    HW2 6174   2.394   6.730   4.777
 1759SOL     OW 6175   1.284   6.675   6.835
 1759SOL    HW1 6176   1.228   6.681   6.917
 1759SOL    HW2 6177   1.376   6.711   6.855
 1760SOL     OW 6178   6.200   0.910   5.176
 1760SOL    HW1 6179   6.166   0.818   5.196
 1760SOL    HW2 6180   6.291   0.922   5.218
 1761SOL     OW 6181   6.103   1.876   2.324
 1761SOL    HW1 6182   6.122   1.782   2.294
 1761SOL    HW2 6183   6.044   1.874   2.404
 1762SOL     OW 6184   0.244   1.391   5.150
 1762SOL    HW1 6185   0.291   1.451   5.086
 1762SOL    HW2 6186   0.145   1.400   5.137
 1763SOL     OW 6187   0.663   3.947   4.504
 1763SOL    HW1 6188   0.730   3.895   4.556
 1763SOL    HW2 6189   0.606   3.884   4.450
 1764SOL     OW 6190   0.974   5.342   2.659
 1764SOL    HW1 6191   1.007   5.417   2.602
 1764SOL    HW2 6192   1.048   5.277   2.676
 1765SOL     OW 6193   5.163   3.390   2.420
 1765SOL    HW1 6194   5.244   3.439   2.385
 1765SOL    HW2 6195   5.082   3.420   2.370
 1766SOL     OW 6196   4.571   5.038   4.690
 1766SOL    HW1 6197   4.546   5.015   4.784
 1766SOL    HW2 6198   4.605   4.956   4.643
 1767SOL     OW 6199   0.626   4.842   2.255
 1767SOL    HW1 6200   0.655   4.805   2.167
 1767SOL    HW2 6201   0.602   4.938   2.244
 1768SOL     OW 6202   5.046   6.692   2.312
 1768SOL    HW1 6203   4.993   6.728   2.236
 1768SOL    HW2 6204   5.139   6.727   2.307
 1769SOL     OW 6205   5.261   0.491   6.779
 1769SOL    HW1 6206   5.177   0.532   6.744
 1769SOL    HW2 6207   5.309   0.444   6.704
 1770SOL     OW 6208   2.166   5.151   6.356
 1770SOL    HW1 6209   2.121   5.224   6.407
 1770SOL    HW2 6210   2.143   5.063   6.397
 1771SOL     OW 6211   1.054   3.745   6.212
 1771SOL    HW1 6212   1.116   3.666   6.217
 1771SOL    HW2 6213   1.038   3.770   6.117
 1772SOL     OW 6214   2.469   4.472   3.761
 1772SOL    HW1 6215   2.452   4.460   3.663
 1772SOL    HW2 6216   2.438   4.390   3.809
 1773SOL     OW 6217   0.713   6.458   4.805
 1773SOL    HW1 6218   0.717   6.500   4.896
 1773SOL    HW2 6219   0.771   6.376   4.804
 1774SOL     OW 6220   5.790   4.934   1.369
 1774SOL    HW1 6221   5.769   5.021   1.325
 1774SOL    HW2 6222   5.708   4.896   1.410
 1775SOL     OW 6223   2.177   5.730   6.391
 1775SOL    HW1 6224   2.145   5.643   6.352
 1775SOL    HW2 6225   2.168   5.802   6.322
 1776SOL     OW 6226   4.746   1.300   6.245
 1776SOL    HW1 6227   4.711   1.299   6.339
 1776SOL    HW2 6228   4.794   1.386   6.228
 1777SOL     OW 6229   4.703   6.715   6.436
 1777SOL    HW1 6230   4.628   6.650   6.422
 1777SOL    HW2 6231   4.675   6.806   6.407
 1778SOL     OW 6232   6.053   0.003   4.121
 1778SOL    HW1 6233   6.079   0.088   4.167
 1778SOL    HW2 6234   5.957   0.007   4.096
 1779SOL     OW 6235   5.652   5.911   3.917
 1779SOL    HW1 6236   5.558   5.925   3.888
 1779SOL    HW2 6237   5.665   5.944   4.010
 1780SOL     OW 6238   2.348   5.599   4.933
 1780SOL    HW1 6239   2.302   5.673   4.885
 1780SOL    HW2 6240   2.303   5.512   4.912
 1781SOL     OW 6241   4.060   0.690   4.000
 1781SOL    HW1 6242   4.107   0.626   3.940
 1781SOL    HW2 6243   4.118   0.711   4.079
 1782SOL     OW 6244   1.526   1.652   2.572
 1782SOL    HW1 6245   1.584   1.599   2.510
 1782SOL    HW2 6246   1.559   1.747   2.575
 1783SOL     OW 6247   2.120   4.206   6.720
 1783SOL    HW1 6248   2.063   4.193   6.638
 1783SOL    HW2 6249   2.209   4.241   6.692
 1784SOL     OW 6250   2.418   0.233   0.957
 1784SOL    HW1 6251   2.332   0.268   0.920
 1784SOL    HW2 6252   2.444   0.150   0.908
 1785SOL     OW 6253   0.915   6.249   4.198
 1785SOL    HW1 6254   0.974   6.179   4.158
 1785SOL    HW2 6255   0.853   6.283   4.128
 1786SOL     OW 6256   0.910   6.013   0.683
 1786SOL    HW1 6257   0.982   6.053   0.625
 1786SOL    HW2 6258   0.892   6.075   0.759
 1787SOL     OW 6259   2.640   3.802   6.319
 1787SOL    HW1 6260   2.655   3.890   6.364
 1787SOL    HW2 6261   2.594   3.739   6.382
 1788SOL     OW 6262   4.611   3.706   0.954
 1788SOL    HW1 6263   4.554   3.626   0.936
 1788SOL    HW2 6264   4.663   3.729   0.871
 1789SOL     OW 6265   6.387   3.854   1.941
 1789SOL    HW1 6266   6.457   3.783   1.951
 1789SOL    HW2 6267   6.315   3.840   2.009
 1790SOL     OW 6268   2.687   2.358   4.636
 1790SOL    HW1 6269   2.670   2.391   4.729
 1790SOL    HW2 6270   2.785   2.354   4.619
 1791SOL     OW 6271   5.160   6.738   3.363
 1791SOL    HW1 6272   5.195   6.645   3.374
 1791SOL    HW2 6273   5.122   6.770   3.450
 1792SOL     OW 6274   0.014   1.364   5.527
 1792SOL    HW1 6275   7.011   1.283   5.475
 1792SOL    HW2 6276   0.095   1.340   5.581
 1793SOL     OW 6277   0.085   1.481   5.844
 1793SOL    HW1 6278   0.178   1.457   5.874
 1793SOL    HW2 6279   0.031   1.397   5.834
 1794SOL     OW 6280   0.699   6.807   6.138
 1794SOL    HW1 6281   0.631   6.870   6.177
 1794SOL    HW2 6282   0.661   6.715   6.135
 1795SOL     OW 6283   6.126   4.439   0.817
 1795SOL    HW1 6284   6.046   4.450   0.877
 1795SOL    HW2 6285   6.192   4.378   0.860
 1796SOL     OW 6286   1.024   7.011   6.282
 1796SOL    HW1 6287   0.986   7.003   6.374
 1796SOL    HW2 6288   1.016   6.923   6.235
 1797SOL     OW 6289   2.616   5.616   4.897
 1797SOL    HW1 6290   2.638   5.712   4.883
 1797SOL    HW2 6291   2.521   5.607   4.928
 1798SOL     OW 6292   2.893   3.541   4.302
 1798SOL    HW1 6293   2.819   3.487   4.263
 1798SOL    HW2 6294   2.979   3.517   4.256
 1799SOL     OW 6295   3.488   1.249   0.279
 1799SOL    HW1 6296   3.465   1.178   0.346
 1799SOL    HW2 6297   3.416   1.318   0.278
 1800SOL     OW 6298   5.707   3.619   4.606
 1800SOL    HW1 6299   5.628   3.591   4.552
 1800SOL    HW2 6300   5.763   3.539   4.627
 1801SOL     OW 6301   1.286   1.462   1.838
 1801SOL    HW1 6302   1.223   1.457   1.761
 1801SOL    HW2 6303   1.335   1.375   1.846
 1802SOL     OW 6304   6.916   5.002   3.356
 1802SOL    HW1 6305   6.906   4.987   3.454
 1802SOL    HW2 6306   6.985   5.073   3.340
 1803SOL     OW 6307   0.766   6.893   3.706
 1803SOL    HW1 6308   0.749   6.835   3.626
 1803SOL    HW2 6309   0.859   6.930   3.702
 1804SOL     OW 6310   2.146   3.213   5.836
 1804SOL    HW1 6311   2.226   3.261   5.871
 1804SOL    HW2 6312   2.152   3.116   5.861
 1805SOL     OW 6313   0.058   5.720   6.487
 1805SOL    HW1 6314   0.081   5.719   6.584
 1805SOL    HW2 6315   0.142   5.722   6.433
 1806SOL     OW 6316   7.012   1.671   1.949
 1806SOL    HW1 6317   6.971   1.745   2.001
 1806SOL    HW2 6318   0.063   1.706   1.896
 1807SOL     OW 6319   6.636   3.177   2.174
 1807SOL    HW1 6320   6.550   3.130   2.189
 1807SOL    HW2 6321   6.643   3.206   2.078
 1808SOL     OW 6322   5.194   2.086   5.910
 1808SOL    HW1 6323   5.256   2.163   5.920
 1808SOL    HW2 6324   5.168   2.051   6.000
 1809SOL     OW 6325   4.100   1.274   5.677
 1809SOL    HW1 6326   4.067   1.208   5.745
 1809SOL    HW2 6327   4.192   1.249   5.648
 1810SOL     OW 6328   0.264   0.263   4.340
 1810SOL    HW1 6329   0.218   0.236   4.256
 1810SOL    HW2 6330   0.309   0.352   4.326
 1811SOL     OW 6331   4.406   5.646   1.894
 1811SOL    HW1 6332   4.325   5.598   1.861
 1811SOL    HW2 6333   4.480   5.580   1.907
 1812SOL     OW 6334   4.611   6.520   5.090
 1812SOL    HW1 6335   4.523   6.559   5.062
 1812SOL    HW2 6336   4.670   6.593   5.126
 1813SOL     OW 6337   4.450   4.602   2.727
 1813SOL    HW1 6338   4.352   4.594   2.710
 1813SOL    HW2 6339   4.501   4.559   2.652
 1814SOL     OW 6340   0.075   6.174   0.450
 1814SOL    HW1 6341   0.156   6.233   0.454
 1814SOL    HW2 6342   7.022   6.227   0.418
 1815SOL     OW 6343   5.686   6.471   1.290
 1815SOL    HW1 6344   5.743   6.462   1.372
 1815SOL    HW2 6345   5.593   6.441   1.309
 1816SOL     OW 6346   4.510   5.243   5.974
 1816SOL    HW1 6347   4.547   5.286   6.057
 1816SOL    HW2 6348   4.455   5.164   6.000
 1817SOL     OW 6349   0.992   1.398   3.729
 1817SOL    HW1 6350   0.937   1.369   3.651
 1817SOL    HW2 6351   1.081   1.431   3.698
 1818SOL     OW 6352   1.965   6.905   1.046
 1818SOL    HW1 6353   1.881   6.856   1.024
 1818SOL    HW2 6354   2.040   6.868   0.991
 1819SOL     OW 6355   2.021   5.368   3.512
 1819SOL    HW1 6356   2.005   5.309   3.591
 1819SOL    HW2 6357   2.062   5.314   3.437
 1820SOL     OW 6358   3.761   0.495   4.386
 1820SOL    HW1 6359   3.678   0.441   4.372
 1820SOL    HW2 6360   3.837   0.435   4.412
 1821SOL     OW 6361   3.410   2.039   2.813
 1821SOL    HW1 6362   3.399   2.115   2.749
 1821SOL    HW2 6363   3.320   2.014   2.851
 1822SOL     OW 6364   6.869   2.760   2.357
 1822SOL    HW1 6365   6.778   2.763   2.399
 1822SOL    HW2 6366   6.939   2.781   2.426
 1823SOL     OW 6367   3.907   6.708   2.192
 1823SOL    HW1 6368   3.960   6.680   2.272
 1823SOL    HW2 6369   3.811   6.684   2.206
 1824SOL     OW 6370   3.878   2.877   1.539
 1824SOL    HW1 6371   3.796   2.898   1.485
 1824SOL    HW2 6372   3.948   2.838   1.479
 1825SOL     OW 6373   2.034   1.744   5.158
 1825SOL    HW1 6374   1.934   1.742   5.163
 1825SOL    HW2 6375   2.063   1.820   5.099
 1826SOL     OW 6376   3.660   2.123   1.675
 1826SOL    HW1 6377   3.671   2.208   1.727
 1826SOL    HW2 6378   3.713   2.128   1.591
 1827SOL     OW 6379   5.763   4.152   1.354
 1827SOL    HW1 6380   5.754   4.053   1.341
 1827SOL    HW2 6381   5.675   4.195   1.333
 1828SOL     OW 6382   1.744   3.384   5.259
 1828SOL    HW1 6383   1.806   3.413   5.186
 1828SOL    HW2 6384   1.784   3.306   5.308
 1829SOL     OW 6385   3.323   0.574   3.600
 1829SOL    HW1 6386   3.423   0.583   3.609
 1829SOL    HW2 6387   3.288   0.647   3.541
 1830SOL     OW 6388   4.817   6.919   4.967
 1830SOL    HW1 6389   4.814   6.868   4.882
 1830SOL    HW2 6390   4.774   7.008   4.954
 1831SOL     OW 6391   4.236   5.488   1.521
 1831SOL    HW1 6392   4.232   5.487   1.620
 1831SOL    HW2 6393   4.320   5.442   1.491
 1832SOL     OW 6394   2.553   3.390   0.096
 1832SOL    HW1 6395   2.589   3.309   0.050
 1832SOL    HW2 6396   2.463   3.412   0.060
 1833SOL     OW 6397   4.985   0.301   0.625
 1833SOL    HW1 6398   5.054   0.332   0.690
 1833SOL    HW2 6399   5.026   0.235   0.562
 1834SOL     OW 6400   2.209   2.141   6.237
 1834SOL    HW1 6401   2.125   2.195   6.242
 1834SOL    HW2 6402   2.241   2.121   6.330
 1835SOL     OW 6403   6.196   5.655   0.797
 1835SOL    HW1 6404   6.209   5.728   0.864
 1835SOL    HW2 6405   6.264   5.666   0.724
 1836SOL     OW 6406   5.283   2.449   1.552
 1836SOL    HW1 6407   5.285   2.355   1.518
 1836SOL    HW2 6408   5.268   2.447   1.651
 1837SOL     OW 6409   3.461   2.610   6.546
 1837SOL    HW1 6410   3.518   2.551   6.603
 1837SOL    HW2 6411   3.364   2.588   6.561
 1838SOL     OW 6412   6.473   1.121   0.265
 1838SOL    HW1 6413   6.384   1.165   0.257
 1838SOL    HW2 6414   6.514   1.113   0.174
 1839SOL     OW 6415   0.569   1.271   6.679
 1839SOL    HW1 6416   0.561   1.232   6.587
 1839SOL    HW2 6417   0.644   1.226   6.727
 1840SOL     OW 6418   4.821   6.273   3.257
 1840SOL    HW1 6419   4.809   6.316   3.347
 1840SOL    HW2 6420   4.794   6.337   3.186
 1841SOL     OW 6421   2.454   1.356   2.187
 1841SOL    HW1 6422   2.433   1.357   2.284
 1841SOL    HW2 6423   2.376   1.319   2.136
 1842SOL     OW 6424   1.559   5.342   0.054
 1842SOL    HW1 6425   1.643   5.381   0.091
 1842SOL    HW2 6426   1.484   5.356   0.119
 1843SOL     OW 6427   3.364   1.270   4.754
 1843SOL    HW1 6428   3.413   1.353   4.728
 1843SOL    HW2 6429   3.284   1.258   4.694
 1844SOL     OW 6430   5.505   2.264   6.856
 1844SOL    HW1 6431   5.503   2.170   6.889
 1844SOL    HW2 6432   5.576   2.315   6.903
 1845SOL     OW 6433   1.367   1.451   3.218
 1845SOL    HW1 6434   1.389   1.444   3.121
 1845SOL    HW2 6435   1.272   1.424   3.233
 1846SOL     OW 6436   4.299   1.676   2.044
 1846SOL    HW1 6437   4.374   1.674   1.977
 1846SOL    HW2 6438   4.322   1.616   2.121
 1847SOL     OW 6439   2.119   6.739   5.428
 1847SOL    HW1 6440   2.117   6.649   5.384
 1847SOL    HW2 6441   2.182   6.737   5.505
 1848SOL     OW 6442   3.046   5.668   4.447
 1848SOL    HW1 6443   3.027   5.607   4.371
 1848SOL    HW2 6444   3.067   5.759   4.413
 1849SOL     OW 6445   4.602   2.811   1.758
 1849SOL    HW1 6446   4.688   2.761   1.765
 1849SOL    HW2 6447   4.617   2.907   1.781
 1850SOL     OW 6448   4.947   1.545   1.191
 1850SOL    HW1 6449   4.912   1.540   1.284
 1850SOL    HW2 6450   4.960   1.641   1.165
 1851SOL     OW 6451   0.111   4.104   5.224
 1851SOL    HW1 6452   0.123   4.038   5.150
 1851SOL    HW2 6453   0.022   4.091   5.267
 1852SOL     OW 6454   0.741   6.471   2.576
 1852SOL    HW1 6455   0.706   6.448   2.485
 1852SOL    HW2 6456   0.827   6.422   2.591
 1853SOL     OW 6457   0.356   2.601   4.348
 1853SOL    HW1 6458   0.421   2.675   4.332
 1853SOL    HW2 6459   0.366   2.568   4.442
 1854SOL     OW 6460   0.181   0.227   3.573
 1854SOL    HW1 6461   0.206   0.140   3.615
 1854SOL    HW2 6462   0.193   0.220   3.474
 1855SOL     OW 6463   4.736   2.756   4.433
 1855SOL    HW1 6464   4.723   2.823   4.360
 1855SOL    HW2 6465   4.803   2.688   4.404
 1856SOL     OW 6466   3.600   2.500   6.730
 1856SOL    HW1 6467   3.689   2.455   6.728
 1856SOL    HW2 6468   3.593   2.557   6.811
 1857SOL     OW 6469   4.339   1.441   0.992
 1857SOL    HW1 6470   4.276   1.404   0.924
 1857SOL    HW2 6471   4.286   1.475   1.071
 1858SOL     OW 6472   4.489   2.541   4.267
 1858SOL    HW1 6473   4.523   2.527   4.360
 1858SOL    HW2 6474   4.469   2.638   4.253
 1859SOL     OW 6475   5.922   2.389   3.937
 1859SOL    HW1 6476   5.909   2.416   4.032
 1859SOL    HW2 6477   5.917   2.289   3.930
 1860SOL     OW 6478   1.202   1.485   4.718
 1860SOL    HW1 6479   1.287   1.524   4.753
 1860SOL    HW2 6480   1.132   1.491   4.789
 1861SOL     OW 6481   6.867   0.316   3.389
 1861SOL    HW1 6482   6.783   0.270   3.417
 1861SOL    HW2 6483   6.869   0.408   3.429
 1862SOL     OW 6484   2.566   5.798   6.596
 1862SOL    HW1 6485   2.660   5.816   6.567
 1862SOL    HW2 6486   2.538   5.707   6.565
 1863SOL     OW 6487   0.905   2.808   0.795
 1863SOL    HW1 6488   0.886   2.761   0.709
 1863SOL    HW2 6489   1.004   2.826   0.802
 1864SOL     OW 6490   4.027   5.779   2.988
 1864SOL    HW1 6491   3.974   5.712   2.936
 1864SOL    HW2 6492   4.096   5.731   3.043
 1865SOL     OW 6493   5.386   1.922   6.655
 1865SOL    HW1 6494   5.292   1.923   6.690
 1865SOL    HW2 6495   5.424   1.830   6.664
 1866SOL     OW 6496   0.485   5.142   3.703
 1866SOL    HW1 6497   0.482   5.062   3.763
 1866SOL    HW2 6498   0.489   5.112   3.608
 1867SOL     OW 6499   2.098   2.290   1.479
 1867SOL    HW1 6500   2.196   2.274   1.463
 1867SOL    HW2 6501   2.073   2.257   1.570
 1868SOL     OW 6502   6.208   4.211   5.676
 1868SOL    HW1 6503   6.129   4.263   5.708
 1868SOL    HW2 6504   6.233   4.142   5.744
 1869SOL     OW 6505   4.565   1.364   4.227
 1869SOL    HW1 6506   4.651   1.356   4.276
 1869SOL    HW2 6507   4.542   1.461   4.213
 1870SOL     OW 6508   0.183   5.962   4.331
 1870SOL    HW1 6509   0.241   5.941   4.409
 1870SOL    HW2 6510   0.100   5.906   4.335
 1871SOL     OW 6511   0.453   6.419   0.707
 1871SOL    HW1 6512   0.512   6.477   0.763
 1871SOL    HW2 6513   0.451   6.327   0.745
 1872SOL     OW 6514   2.657   2.769   1.261
 1872SOL    HW1 6515   2.648   2.865   1.233
 1872SOL    HW2 6516   2.716   2.721   1.197
 1873SOL     OW 6517   0.160   1.437   0.568
 1873SOL    HW1 6518   0.244   1.465   0.616
 1873SOL    HW2 6519   0.175   1.440   0.469
 1874SOL     OW 6520   0.768   6.178   0.188
 1874SOL    HW1 6521   0.715   6.262   0.184
 1874SOL    HW2 6522   0.720   6.112   0.246
 1875SOL     OW 6523   6.609   4.974   0.490
 1875SOL    HW1 6524   6.681   4.940   0.551
 1875SOL    HW2 6525   6.650   5.002   0.403
 1876SOL     OW 6526   0.005   6.229   6.859
 1876SOL    HW1 6527   7.020   6.268   6.768
 1876SOL    HW2 6528   6.967   6.274   6.922
 1877SOL     OW 6529   0.408   0.922   2.678
 1877SOL    HW1 6530   0.397   0.827   2.705
 1877SOL    HW2 6531   0.505   0.945   2.676
 1878SOL     OW 6532   6.538   4.169   3.285
 1878SOL    HW1 6533   6.529   4.122   3.373
 1878SOL    HW2 6534   6.631   4.206   3.276
 1879SOL     OW 6535   4.180   5.701   4.743
 1879SOL    HW1 6536   4.262   5.714   4.799
 1879SOL    HW2 6537   4.099   5.723   4.797
 1880SOL     OW 6538   0.666   1.760   3.892
 1880SOL    HW1 6539   0.754   1.768   3.940
 1880SOL    HW2 6540   0.614   1.844   3.904
 1881SOL     OW 6541   0.866   1.455   4.445
 1881SOL    HW1 6542   0.843   1.443   4.542
 1881SOL    HW2 6543   0.947   1.513   4.438
 1882SOL     OW 6544   1.668   5.599   6.575
 1882SOL    HW1 6545   1.724   5.530   6.530
 1882SOL    HW2 6546   1.609   5.555   6.642
 1883SOL     OW 6547   1.548   2.747   2.405
 1883SOL    HW1 6548   1.572   2.832   2.359
 1883SOL    HW2 6549   1.567   2.755   2.503
 1884SOL     OW 6550   2.960   1.013   0.133
 1884SOL    HW1 6551   2.963   0.921   0.094
 1884SOL    HW2 6552   2.875   1.058   0.105
 1885SOL     OW 6553   0.205   2.198   1.486
 1885SOL    HW1 6554   0.134   2.171   1.421
 1885SOL    HW2 6555   0.232   2.292   1.469
 1886SOL     OW 6556   2.931   2.948   6.356
 1886SOL    HW1 6557   3.030   2.947   6.349
 1886SOL    HW2 6558   2.898   2.859   6.387
 1887SOL     OW 6559   0.651   6.587   5.266
 1887SOL    HW1 6560   0.594   6.595   5.347
 1887SOL    HW2 6561   0.635   6.665   5.205
 1888SOL     OW 6562   2.571   2.004   6.010
 1888SOL    HW1 6563   2.498   1.955   6.057
 1888SOL    HW2 6564   2.532   2.081   5.960
 1889SOL     OW 6565   3.792   2.756   0.098
 1889SOL    HW1 6566   3.724   2.722   0.033
 1889SOL    HW2 6567   3.780   2.854   0.111
 1890SOL     OW 6568   6.321   5.196   6.545
 1890SOL    HW1 6569   6.229   5.192   6.585
 1890SOL    HW2 6570   6.375   5.265   6.592
 1891SOL     OW 6571   6.114   3.972   5.153
 1891SOL    HW1 6572   6.162   3.978   5.066
 1891SOL    HW2 6573   6.096   4.064   5.187
 1892SOL     OW 6574   4.011   5.957   1.438
 1892SOL    HW1 6575   3.957   5.952   1.353
 1892SOL    HW2 6576   4.054   6.047   1.444
 1893SOL     OW 6577   3.873   2.154   4.230
 1893SOL    HW1 6578   3.779   2.165   4.261
 1893SOL    HW2 6579   3.935   2.192   4.298
 1894SOL     OW 6580   3.982   4.030   0.943
 1894SOL    HW1 6581   4.044   3.985   1.008
 1894SOL    HW2 6582   3.982   3.980   0.857
 1895SOL     OW 6583   5.006   0.611   3.243
 1895SOL    HW1 6584   5.099   0.616   3.206
 1895SOL    HW2 6585   4.957   0.535   3.200
 1896SOL     OW 6586   6.788   1.178   5.937
 1896SOL    HW1 6587   6.763   1.114   6.009
 1896SOL    HW2 6588   6.781   1.272   5.971
 1897SOL     OW 6589   5.793   4.615   3.422
 1897SOL    HW1 6590   5.817   4.668   3.341
 1897SOL    HW2 6591   5.871   4.560   3.451
 1898SOL     OW 6592   5.889   5.188   0.015
 1898SOL    HW1 6593   5.977   5.152   7.011
 1898SOL    HW2 6594   5.835   5.114   0.055
 1899SOL     OW 6595   1.266   3.182   2.915
 1899SOL    HW1 6596   1.292   3.271   2.878
 1899SOL    HW2 6597   1.167   3.170   2.904
 1900SOL     OW 6598   2.426   5.685   6.921
 1900SOL    HW1 6599   2.337   5.722   6.898
 1900SOL    HW2 6600   2.497   5.732   6.868
 1901SOL     OW 6601   1.535   1.255   6.629
 1901SOL    HW1 6602   1.537   1.291   6.536
 1901SOL    HW2 6603   1.623   1.271   6.673
 1902SOL     OW 6604   1.046   3.073   4.701
 1902SOL    HW1 6605   1.035   3.016   4.782
 1902SOL    HW2 6606   1.120   3.037   4.645
 1903SOL     OW 6607   6.294   3.116   3.878
 1903SOL    HW1 6608   6.279   3.027   3.835
 1903SOL    HW2 6609   6.269   3.111   3.974
 1904SOL     OW 6610   6.584   7.025   3.916
 1904SOL    HW1 6611   6.660   0.058   3.944
 1904SOL    HW2 6612   6.561   6.963   3.991
 1905SOL     OW 6613   6.905   2.918   3.639
 1905SOL    HW1 6614   6.807   2.916   3.621
 1905SOL    HW2 6615   6.944   3.003   3.604
 1906SOL     OW 6616   2.297   6.954   0.380
 1906SOL    HW1 6617   2.387   6.976   0.419
 1906SOL    HW2 6618   2.256   0.012   0.343
 1907SOL     OW 6619   3.782   6.094   3.381
 1907SOL    HW1 6620   3.853   6.134   3.324
 1907SOL    HW2 6621   3.744   6.013   3.336
 1908SOL     OW 6622   4.719   1.653   6.256
 1908SOL    HW1 6623   4.762   1.685   6.340
 1908SOL    HW2 6624   4.777   1.585   6.213
 1909SOL     OW 6625   2.837   5.161   4.458
 1909SOL    HW1 6626   2.762   5.098   4.481
 1909SOL    HW2 6627   2.923   5.125   4.494
 1910SOL     OW 6628   5.203   1.843   5.551
 1910SOL    HW1 6629   5.250   1.871   5.635
 1910SOL    HW2 6630   5.225   1.906   5.477
 1911SOL     OW 6631   6.355   3.375   5.736
 1911SOL    HW1 6632   6.303   3.446   5.785
 1911SOL    HW2 6633   6.370   3.404   5.642
 1912SOL     OW 6634   3.862   0.318   3.444
 1912SOL    HW1 6635   3.846   0.252   3.371
 1912SOL    HW2 6636   3.930   0.385   3.414
 1913SOL     OW 6637   1.454   4.609   5.662
 1913SOL    HW1 6638   1.485   4.587   5.570
 1913SOL    HW2 6639   1.354   4.619   5.663
 1914SOL     OW 6640   3.938   1.832   5.598
 1914SOL    HW1 6641   3.884   1.772   5.657
 1914SOL    HW2 6642   4.024   1.787   5.575
 1915SOL     OW 6643   3.309   0.556   5.782
 1915SOL    HW1 6644   3.303   0.588   5.877
 1915SOL    HW2 6645   3.348   0.463   5.781
 1916SOL     OW 6646   3.517   6.316   1.664
 1916SOL    HW1 6647   3.466   6.329   1.749
 1916SOL    HW2 6648   3.507   6.221   1.634
 1917SOL     OW 6649   2.975   3.226   4.218
 1917SOL    HW1 6650   3.018   3.316   4.218
 1917SOL    HW2 6651   2.898   3.226   4.153
 1918SOL     OW 6652   5.478   6.774   4.290
 1918SOL    HW1 6653   5.489   6.726   4.377
 1918SOL    HW2 6654   5.398   6.834   4.295
 1919SOL     OW 6655   6.522   6.953   1.682
 1919SOL    HW1 6656   6.526   6.855   1.662
 1919SOL    HW2 6657   6.538   7.005   1.598
 1920SOL     OW 6658   6.740   5.836   4.413
 1920SOL    HW1 6659   6.652   5.791   4.394
 1920SOL    HW2 6660   6.735   5.882   4.502
 1921SOL     OW 6661   1.087   6.886   6.824
 1921SOL    HW1 6662   1.175   6.843   6.803
 1921SOL    HW2 6663   1.104   6.978   6.861
 1922SOL     OW 6664   3.602   4.296   0.670
 1922SOL    HW1 6665   3.653   4.380   0.653
 1922SOL    HW2 6666   3.663   4.218   0.669
 1923SOL     OW 6667   1.738   1.910   0.726
 1923SOL    HW1 6668   1.796   1.838   0.688
 1923SOL    HW2 6669   1.787   1.958   0.798
 1924SOL     OW 6670   0.548   4.723   1.406
 1924SOL    HW1 6671   0.489   4.792   1.448
 1924SOL    HW2 6672   0.492   4.655   1.358
 1925SOL     OW 6673   2.928   4.036   1.318
 1925SOL    HW1 6674   2.981   4.000   1.395
 1925SOL    HW2 6675   2.848   4.085   1.353
 1926SOL     OW 6676   1.215   6.851   3.868
 1926SOL    HW1 6677   1.173   6.935   3.833
 1926SOL    HW2 6678   1.309   6.844   3.836
 1927SOL     OW 6679   3.951   3.846   6.616
 1927SOL    HW1 6680   3.954   3.835   6.516
 1927SOL    HW2 6681   4.042   3.830   6.654
 1928SOL     OW 6682   6.536   4.536   5.600
 1928SOL    HW1 6683   6.491   4.525   5.511
 1928SOL    HW2 6684   6.590   4.455   5.621
 1929SOL     OW 6685   1.433   0.078   1.524
 1929SOL    HW1 6686   1.403   0.023   1.601
 1929SOL    HW2 6687   1.533   0.073   1.516
 1930SOL     OW 6688   5.842   3.784   6.017
 1930SOL    HW1 6689   5.748   3.804   5.989
 1930SOL    HW2 6690   5.843   3.704   6.077
 1931SOL     OW 6691   0.680   2.840   4.638
 1931SOL    HW1 6692   0.656   2.899   4.715
 1931SOL    HW2 6693   0.668   2.744   4.665
 1932SOL     OW 6694   6.032   3.729   1.395
 1932SOL    HW1 6695   5.950   3.783   1.376
 1932SOL    HW2 6696   6.107   3.790   1.420
 1933SOL     OW 6697   3.000   4.539   1.298
 1933SOL    HW1 6698   2.976   4.509   1.391
 1933SOL    HW2 6699   3.094   4.575   1.298
 1934SOL     OW 6700   0.931   6.018   5.471
 1934SOL    HW1 6701   0.883   5.931   5.465
 1934SOL    HW2 6702   0.867   6.089   5.501
 1935SOL     OW 6703   2.583   0.922   3.435
 1935SOL    HW1 6704   2.672   0.964   3.454
 1935SOL    HW2 6705   2.516   0.994   3.418
 1936SOL     OW 6706   5.941   5.346   5.444
 1936SOL    HW1 6707   5.961   5.336   5.542
 1936SOL    HW2 6708   5.861   5.292   5.421
 1937SOL     OW 6709   3.781   6.370   1.737
 1937SOL    HW1 6710   3.686   6.353   1.709
 1937SOL    HW2 6711   3.838   6.377   1.655
 1938SOL     OW 6712   4.672   1.115   3.833
 1938SOL    HW1 6713   4.764   1.077   3.838
 1938SOL    HW2 6714   4.635   1.125   3.926
 1939SOL     OW 6715   1.873   1.017   3.318
 1939SOL    HW1 6716   1.948   1.018   3.384
 1939SOL    HW2 6717   1.802   0.954   3.348
 1940SOL     OW 6718   0.104   5.145   0.217
 1940SOL    HW1 6719   0.081   5.078   0.147
 1940SOL    HW2 6720   0.098   5.102   0.308
 1941SOL     OW 6721   4.743   4.159   2.802
 1941SOL    HW1 6722   4.764   4.064   2.779
 1941SOL    HW2 6723   4.791   4.185   2.885
 1942SOL     OW 6724   6.115   4.842   2.490
 1942SOL    HW1 6725   6.174   4.761   2.486
 1942SOL    HW2 6726   6.172   4.923   2.505
 1943SOL     OW 6727   2.499   5.003   3.043
 1943SOL    HW1 6728   2.544   5.001   3.133
 1943SOL    HW2 6729   2.546   5.069   2.984
 1944SOL     OW 6730   6.908   1.329   1.029
 1944SOL    HW1 6731   6.917   1.373   0.940
 1944SOL    HW2 6732   6.851   1.386   1.089
 1945SOL     OW 6733   3.176   4.952   3.872
 1945SOL    HW1 6734   3.141   5.045   3.886
 1945SOL    HW2 6735   3.115   4.887   3.917
 1946SOL     OW 6736   1.374   0.418   6.662
 1946SOL    HW1 6737   1.276   0.405   6.647
 1946SOL    HW2 6738   1.397   0.515   6.651
 1947SOL     OW 6739   5.860   5.519   3.532
 1947SOL    HW1 6740   5.812   5.495   3.617
 1947SOL    HW2 6741   5.830   5.610   3.502
 1948SOL     OW 6742   6.560   5.214   4.391
 1948SOL    HW1 6743   6.571   5.117   4.414
 1948SOL    HW2 6744   6.550   5.267   4.475
 1949SOL     OW 6745   4.126   4.200   6.549
 1949SOL    HW1 6746   4.134   4.214   6.450
 1949SOL    HW2 6747   4.203   4.245   6.595
 1950SOL     OW 6748   3.241   4.011   6.469
 1950SOL    HW1 6749   3.152   4.001   6.515
 1950SOL    HW2 6750   3.258   4.108   6.451
 1951SOL     OW 6751   6.038   1.692   6.707
 1951SOL    HW1 6752   6.124   1.693   6.757
 1951SOL    HW2 6753   6.030   1.607   6.655
 1952SOL     OW 6754   3.667   2.221   6.891
 1952SOL    HW1 6755   3.736   2.265   6.834
 1952SOL    HW2 6756   3.700   2.131   6.919
 1953SOL     OW 6757   6.970   2.577   6.470
 1953SOL    HW1 6758   6.907   2.503   6.494
 1953SOL    HW2 6759   6.994   2.568   6.373
 1954SOL     OW 6760   3.328   2.160   4.225
 1954SOL    HW1 6761   3.287   2.125   4.141
 1954SOL    HW2 6762   3.278   2.124   4.304
 1955SOL     OW 6763   0.146   6.551   2.971
 1955SOL    HW1 6764   0.178   6.643   2.950
 1955SOL    HW2 6765   0.099   6.550   3.059
 1956SOL     OW 6766   6.200   5.505   2.471
 1956SOL    HW1 6767   6.172   5.600   2.478
 1956SOL    HW2 6768   6.230   5.485   2.378
 1957SOL     OW 6769   0.289   6.537   5.256
 1957SOL    HW1 6770   0.198   6.531   5.297
 1957SOL    HW2 6771   0.354   6.485   5.313
 1958SOL     OW 6772   5.448   3.222   5.785
 1958SOL    HW1 6773   5.374   3.165   5.750
 1958SOL    HW2 6774   5.442   3.227   5.885
 1959SOL     OW 6775   1.597   2.348   6.103
 1959SOL    HW1 6776   1.563   2.336   6.196
 1959SOL    HW2 6777   1.666   2.420   6.101
 1960SOL     OW 6778   5.488   5.354   0.818
 1960SOL    HW1 6779   5.555   5.415   0.861
 1960SOL    HW2 6780   5.399   5.364   0.862
 1961SOL     OW 6781   5.638   4.049   3.756
 1961SOL    HW1 6782   5.573   4.114   3.795
 1961SOL    HW2 6783   5.698   4.014   3.828
 1962SOL     OW 6784   1.318   6.151   3.739
 1962SOL    HW1 6785   1.396   6.192   3.691
 1962SOL    HW2 6786   1.350   6.101   3.818
 1963SOL     OW 6787   1.267   0.493   2.825
 1963SOL    HW1 6788   1.230   0.561   2.887
 1963SOL    HW2 6789   1.202   0.475   2.751
 1964SOL     OW 6790   4.915   3.148   2.979
 1964SOL    HW1 6791   4.939   3.234   2.934
 1964SOL    HW2 6792   4.945   3.151   3.074
 1965SOL     OW 6793   1.092   3.750   3.347
 1965SOL    HW1 6794   1.188   3.736   3.370
 1965SOL    HW2 6795   1.073   3.708   3.258
 1966SOL     OW 6796   6.685   5.474   5.411
 1966SOL    HW1 6797   6.742   5.490   5.492
 1966SOL    HW2 6798   6.636   5.387   5.421
 1967SOL     OW 6799   4.677   2.826   5.109
 1967SOL    HW1 6800   4.760   2.796   5.156
 1967SOL    HW2 6801   4.607   2.847   5.176
 1968SOL     OW 6802   3.303   6.041   0.105
 1968SOL    HW1 6803   3.338   5.961   0.153
 1968SOL    HW2 6804   3.341   6.125   0.145
 1969SOL     OW 6805   0.466   2.330   1.334
 1969SOL    HW1 6806   0.383   2.373   1.299
 1969SOL    HW2 6807   0.516   2.395   1.391
 1970SOL     OW 6808   1.615   0.416   4.482
 1970SOL    HW1 6809   1.618   0.515   4.466
 1970SOL    HW2 6810   1.604   0.399   4.580
 1971SOL     OW 6811   0.386   6.557   6.838
 1971SOL    HW1 6812   0.300   6.551   6.889
 1971SOL    HW2 6813   0.371   6.532   6.743
 1972SOL     OW 6814   0.737   4.442   4.039
 1972SOL    HW1 6815   0.762   4.478   4.129
 1972SOL    HW2 6816   0.698   4.515   3.984
 1973SOL     OW 6817   3.287   3.173   1.457
 1973SOL    HW1 6818   3.298   3.106   1.530
 1973SOL    HW2 6819   3.263   3.262   1.497
 1974SOL     OW 6820   5.509   0.810   4.160
 1974SOL    HW1 6821   5.560   0.755   4.094
 1974SOL    HW2 6822   5.522   0.773   4.252
 1975SOL     OW 6823   3.346   0.673   4.010
 1975SOL    HW1 6824   3.390   0.620   3.938
 1975SOL    HW2 6825   3.329   0.615   4.090
 1976SOL     OW 6826   0.086   6.078   0.193
 1976SOL    HW1 6827   0.013   6.134   0.155
 1976SOL    HW2 6828   0.114   6.114   0.282
 1977SOL     OW 6829   1.145   2.494   4.950
 1977SOL    HW1 6830   1.205   2.517   5.026
 1977SOL    HW2 6831   1.106   2.578   4.911
 1978SOL     OW 6832   6.490   2.005   4.624
 1978SOL    HW1 6833   6.576   2.056   4.615
 1978SOL    HW2 6834   6.421   2.064   4.667
 1979SOL     OW 6835   6.188   4.792   3.905
 1979SOL    HW1 6836   6.287   4.784   3.901
 1979SOL    HW2 6837   6.159   4.871   3.850
 1980SOL     OW 6838   3.730   0.309   1.499
 1980SOL    HW1 6839   3.701   0.213   1.497
 1980SOL    HW2 6840   3.662   0.365   1.452
 1981SOL     OW 6841   5.011   2.927   1.943
 1981SOL    HW1 6842   5.001   2.828   1.935
 1981SOL    HW2 6843   4.922   2.968   1.962
 1982SOL     OW 6844   5.648   5.342   4.779
 1982SOL    HW1 6845   5.686   5.300   4.697
 1982SOL    HW2 6846   5.629   5.438   4.761
 1983SOL     OW 6847   1.018   3.204   3.323
 1983SOL    HW1 6848   1.069   3.273   3.272
 1983SOL    HW2 6849   1.042   3.210   3.420
 1984SOL     OW 6850   4.074   1.789   6.134
 1984SOL    HW1 6851   3.997   1.793   6.071
 1984SOL    HW2 6852   4.117   1.698   6.128
 1985SOL     OW 6853   1.181   0.458   1.271
 1985SOL    HW1 6854   1.108   0.490   1.210
 1985SOL    HW2 6855   1.270   0.483   1.233
 1986SOL     OW 6856   1.622   2.010   0.056
 1986SOL    HW1 6857   1.568   2.081   0.011
 1986SOL    HW2 6858   1.718   2.037   0.060
 1987SOL     OW 6859   2.175   3.456   0.829
 1987SOL    HW1 6860   2.229   3.486   0.908
 1987SOL    HW2 6861   2.142   3.363   0.845
 1988SOL     OW 6862   4.793   3.603   0.104
 1988SOL    HW1 6863   4.757   3.680   0.051
 1988SOL    HW2 6864   4.887   3.585   0.076
 1989SOL     OW 6865   2.441   0.215   4.138
 1989SOL    HW1 6866   2.430   0.185   4.044
 1989SOL    HW2 6867   2.459   0.314   4.140
 1990SOL     OW 6868   2.886   1.106   1.142
 1990SOL    HW1 6869   2.953   1.179   1.157
 1990SOL    HW2 6870   2.933   1.017   1.141
 1991SOL     OW 6871   3.394   5.368   4.216
 1991SOL    HW1 6872   3.327   5.341   4.284
 1991SOL    HW2 6873   3.467   5.300   4.212
 1992SOL     OW 6874   2.236   6.428   5.620
 1992SOL    HW1 6875   2.185   6.465   5.543
 1992SOL    HW2 6876   2.173   6.400   5.692
 1993SOL     OW 6877   3.680   3.722   5.608
 1993SOL    HW1 6878   3.719   3.812   5.587
 1993SOL    HW2 6879   3.658   3.717   5.706
 1994SOL     OW 6880   6.539   2.059   2.254
 1994SOL    HW1 6881   6.546   1.960   2.242
 1994SOL    HW2 6882   6.444   2.084   2.268
 1995SOL     OW 6883   5.869   1.988   1.626
 1995SOL    HW1 6884   5.771   1.983   1.644
 1995SOL    HW2 6885   5.895   2.083   1.610
 1996SOL     OW 6886   3.544   4.266   0.206
 1996SOL    HW1 6887   3.503   4.176   0.194
 1996SOL    HW2 6888   3.624   4.259   0.264
 1997SOL     OW 6889   4.932   0.533   4.280
 1997SOL    HW1 6890   4.970   0.598   4.215
 1997SOL    HW2 6891   4.941   0.569   4.373
 1998SOL     OW 6892   2.745   4.300   6.319
 1998SOL    HW1 6893   2.800   4.361   6.262
 1998SOL    HW2 6894   2.715   4.222   6.264
 1999SOL     OW 6895   2.439   0.021   2.181
 1999SOL    HW1 6896   2.417   6.979   2.110
 1999SOL    HW2 6897   2.464   6.999   2.265
 2000SOL     OW 6898   4.001   1.285   5.124
 2000SOL    HW1 6899   4.064   1.209   5.138
 2000SOL    HW2 6900   3.963   1.280   5.032
 2001SOL     OW 6901   2.767   1.593   0.969
 2001SOL    HW1 6902   2.792   1.524   1.038
 2001SOL    HW2 6903   2.679   1.569   0.929
 2002SOL     OW 6904   1.877   5.440   5.848
 2002SOL    HW1 6905   1.878   5.538   5.867
 2002SOL    HW2 6906   1.848   5.391   5.930
 2003SOL     OW 6907   5.951   6.237   3.270
 2003SOL    HW1 6908   5.998   6.150   3.259
 2003SOL    HW2 6909   5.974   6.278   3.358
 2004SOL     OW 6910   3.403   1.014   5.737
 2004SOL    HW1 6911   3.372   0.971   5.822
 2004SOL    HW2 6912   3.439   0.944   5.676
 2005SOL     OW 6913   1.882   5.708   5.943
 2005SOL    HW1 6914   1.956   5.762   5.902
 2005SOL    HW2 6915   1.880   5.724   6.042
 2006SOL     OW 6916   4.342   5.167   4.567
 2006SOL    HW1 6917   4.426   5.117   4.586
 2006SOL    HW2 6918   4.355   5.264   4.588
 2007SOL     OW 6919   5.187   5.559   0.483
 2007SOL    HW1 6920   5.268   5.542   0.540
 2007SOL    HW2 6921   5.203   5.640   0.426
 2008SOL     OW 6922   6.890   6.306   3.327
 2008SOL    HW1 6923   6.867   6.243   3.254
 2008SOL    HW2 6924   6.956   6.263   3.389
 2009SOL     OW 6925   0.219   0.614   2.154
 2009SOL    HW1 6926   0.136   0.582   2.200
 2009SOL    HW2 6927   0.266   0.537   2.111
 2010SOL     OW 6928   0.828   0.194   0.581
 2010SOL    HW1 6929   0.867   0.283   0.602
 2010SOL    HW2 6930   0.728   0.201   0.579
 2011SOL     OW 6931   6.288   1.803   4.907
 2011SOL    HW1 6932   6.269   1.728   4.971
 2011SOL    HW2 6933   6.291   1.890   4.957
 2012SOL     OW 6934   1.486   4.378   0.931
 2012SOL    HW1 6935   1.442   4.429   1.005
 2012SOL    HW2 6936   1.567   4.428   0.901
 2013SOL     OW 6937   5.606   1.878   2.745
 2013SOL    HW1 6938   5.563   1.794   2.713
 2013SOL    HW2 6939   5.678   1.856   2.811
 2014SOL     OW 6940   1.542   5.492   3.910
 2014SOL    HW1 6941   1.548   5.576   3.963
 2014SOL    HW2 6942   1.633   5.451   3.902
 2015SOL     OW 6943   3.310   0.373   0.071
 2015SOL    HW1 6944   3.341   0.411   7.010
 2015SOL    HW2 6945   3.293   0.447   0.136
 2016SOL     OW 6946   0.849   5.505   4.443
 2016SOL    HW1 6947   0.909   5.431   4.472
 2016SOL    HW2 6948   0.755   5.472   4.437
 2017SOL     OW 6949   2.565   5.827   3.059
 2017SOL    HW1 6950   2.593   5.852   3.152
 2017SOL    HW2 6951   2.566   5.728   3.050
 2018SOL     OW 6952   0.340   5.687   5.961
 2018SOL    HW1 6953   0.340   5.674   6.060
 2018SOL    HW2 6954   0.273   5.626   5.919
 2019SOL     OW 6955   6.007   2.393   1.911
 2019SOL    HW1 6956   6.019   2.350   2.000
 2019SOL    HW2 6957   6.061   2.344   1.842
 2020SOL     OW 6958   2.430   4.969   3.405
 2020SOL    HW1 6959   2.429   4.941   3.501
 2020SOL    HW2 6960   2.375   4.906   3.351
 2021SOL     OW 6961   1.874   0.933   2.336
 2021SOL    HW1 6962   1.850   0.851   2.388
 2021SOL    HW2 6963   1.800   0.954   2.272
 2022SOL     OW 6964   2.253   3.651   1.740
 2022SOL    HW1 6965   2.240   3.750   1.754
 2022SOL    HW2 6966   2.218   3.602   1.819
 2023SOL     OW 6967   6.609   1.308   6.495
 2023SOL    HW1 6968   6.536   1.239   6.491
 2023SOL    HW2 6969   6.670   1.288   6.571
 2024SOL     OW 6970   5.983   0.529   3.735
 2024SOL    HW1 6971   6.013   0.442   3.695
 2024SOL    HW2 6972   6.032   0.545   3.821
 2025SOL     OW 6973   0.523   1.712   1.834
 2025SOL    HW1 6974   0.615   1.677   1.817
 2025SOL    HW2 6975   0.479   1.659   1.906
 2026SOL     OW 6976   2.615   1.623   5.531
 2026SOL    HW1 6977   2.580   1.664   5.615
 2026SOL    HW2 6978   2.592   1.526   5.529
 2027SOL     OW 6979   1.246   1.176   2.050
 2027SOL    HW1 6980   1.285   1.208   2.136
 2027SOL    HW2 6981   1.297   1.216   1.973
 2028SOL     OW 6982   3.541   2.323   0.079
 2028SOL    HW1 6983   3.568   2.243   0.133
 2028SOL    HW2 6984   3.557   2.304   7.007
 2029SOL     OW 6985   0.931   1.502   6.268
 2029SOL    HW1 6986   0.862   1.464   6.329
 2029SOL    HW2 6987   0.898   1.499   6.174
 2030SOL     OW 6988   1.897   1.988   3.127
 2030SOL    HW1 6989   1.880   1.890   3.142
 2030SOL    HW2 6990   1.827   2.041   3.175
 2031SOL     OW 6991   5.753   6.546   2.061
 2031SOL    HW1 6992   5.791   6.455   2.043
 2031SOL    HW2 6993   5.810   6.591   2.130
 2032SOL     OW 6994   4.947   6.090   0.427
 2032SOL    HW1 6995   4.858   6.079   0.383
 2032SOL    HW2 6996   4.972   6.187   0.426
 2033SOL     OW 6997   5.340   4.424   6.342
 2033SOL    HW1 6998   5.403   4.491   6.304
 2033SOL    HW2 6999   5.250   4.467   6.355
 2034SOL     OW 7000   2.360   6.577   2.891
 2034SOL    HW1 7001   2.417   6.603   2.813
 2034SOL    HW2 7002   2.269   6.551   2.858
 2035SOL     OW 7003   0.853   1.509   2.499
 2035SOL    HW1 7004   0.791   1.431   2.491
 2035SOL    HW2 7005   0.946   1.481   2.477
 2036SOL     OW 7006   0.329   5.561   0.902
 2036SOL    HW1 7007   0.332   5.492   0.830
 2036SOL    HW2 7008   0.410   5.620   0.895
 2037SOL     OW 7009   6.626   2.497   5.572
 2037SOL    HW1 7010   6.574   2.418   5.537
 2037SOL    HW2 7011   6.670   2.544   5.495
 2038SOL     OW 7012   0.436   1.526   4.570
 2038SOL    HW1 7013   0.355   1.564   4.526
 2038SOL    HW2 7014   0.451   1.573   4.657
 2039SOL     OW 7015   6.710   5.499   3.198
 2039SOL    HW1 7016   6.775   5.484   3.123
 2039SOL    HW2 7017   6.626   5.539   3.162
 2040SOL     OW 7018   3.857   3.107   4.661
 2040SOL    HW1 7019   3.902   3.190   4.692
 2040SOL    HW2 7020   3.859   3.104   4.561
 2041SOL     OW 7021   5.913   4.765   5.658
 2041SOL    HW1 7022   5.829   4.733   5.614
 2041SOL    HW2 7023   5.903   4.758   5.757
 2042SOL     OW 7024   4.973   4.806   0.482
 2042SOL    HW1 7025   5.029   4.728   0.510
 2042SOL    HW2 7026   4.988   4.882   0.545
 2043SOL     OW 7027   5.749   4.666   2.626
 2043SOL    HW1 7028   5.849   4.665   2.625
 2043SOL    HW2 7029   5.714   4.678   2.533
 2044SOL     OW 7030   5.771   0.137   1.720
 2044SOL    HW1 7031   5.672   0.148   1.710
 2044SOL    HW2 7032   5.818   0.195   1.654
 2045SOL     OW 7033   2.519   4.584   6.287
 2045SOL    HW1 7034   2.611   4.554   6.262
 2045SOL    HW2 7035   2.457   4.568   6.210
 2046SOL     OW 7036   6.233   0.410   4.405
 2046SOL    HW1 7037   6.195   0.337   4.349
 2046SOL    HW2 7038   6.329   0.390   4.425
 2047SOL     OW 7039   5.207   2.582   1.012
 2047SOL    HW1 7040   5.141   2.603   0.939
 2047SOL    HW2 7041   5.169   2.610   1.100
 2048SOL     OW 7042   4.088   0.328   6.995
 2048SOL    HW1 7043   4.118   0.423   7.004
 2048SOL    HW2 7044   4.163   0.267   7.018
 2049SOL     OW 7045   4.099   1.572   0.151
 2049SOL    HW1 7046   4.004   1.555   0.126
 2049SOL    HW2 7047   4.129   1.659   0.112
 2050SOL     OW 7048   6.290   2.610   3.853
 2050SOL    HW1 7049   6.288   2.692   3.796
 2050SOL    HW2 7050   6.247   2.629   3.941
 2051SOL     OW 7051   1.256   6.034   0.349
 2051SOL    HW1 7052   1.281   6.056   0.255
 2051SOL    HW2 7053   1.188   6.099   0.382
 2052SOL     OW 7054   0.810   2.935   6.683
 2052SOL    HW1 7055   0.818   3.026   6.722
 2052SOL    HW2 7056   0.729   2.930   6.624
 2053SOL     OW 7057   6.479   1.063   6.727
 2053SOL    HW1 7058   6.472   0.995   6.799
 2053SOL    HW2 7059   6.547   1.034   6.660
 2054SOL     OW 7060   5.939   2.554   0.681
 2054SOL    HW1 7061   6.036   2.555   0.655
 2054SOL    HW2 7062   5.932   2.546   0.781
 2055SOL     OW 7063   5.445   2.454   3.408
 2055SOL    HW1 7064   5.486   2.394   3.340
 2055SOL    HW2 7065   5.475   2.427   3.499
 2056SOL     OW 7066   2.137   0.732   3.086
 2056SOL    HW1 7067   2.229   0.761   3.060
 2056SOL    HW2 7068   2.070   0.800   3.056
 2057SOL     OW 7069   5.959   2.708   4.081
 2057SOL    HW1 7070   6.058   2.708   4.086
 2057SOL    HW2 7071   5.922   2.650   4.154
 2058SOL     OW 7072   0.321   2.112   2.882
 2058SOL    HW1 7073   0.239   2.168   2.900
 2058SOL    HW2 7074   0.343   2.058   2.963
 2059SOL     OW 7075   2.145   1.279   6.761
 2059SOL    HW1 7076   2.238   1.307   6.735
 2059SOL    HW2 7077   2.080   1.350   6.734
 2060SOL     OW 7078   0.176   4.532   1.718
 2060SOL    HW1 7079   0.202   4.490   1.631
 2060SOL    HW2 7080   0.083   4.504   1.742
 2061SOL     OW 7081   0.174   1.380   2.337
 2061SOL    HW1 7082   0.138   1.426   2.256
 2061SOL    HW2 7083   0.118   1.300   2.358
 2062SOL     OW 7084   4.535   0.165   2.063
 2062SOL    HW1 7085   4.512   0.147   2.158
 2062SOL    HW2 7086   4.482   0.244   2.030
 2063SOL     OW 7087   1.830   2.951   6.254
 2063SOL    HW1 7088   1.733   2.961   6.277
 2063SOL    HW2 7089   1.862   2.860   6.281
 2064SOL     OW 7090   0.689   2.260   5.681
 2064SOL    HW1 7091   0.640   2.319   5.617
 2064SOL    HW2 7092   0.724   2.316   5.757
 2065SOL     OW 7093   6.078   3.547   2.738
 2065SOL    HW1 7094   6.065   3.622   2.673
 2065SOL    HW2 7095   6.080   3.460   2.688
 2066SOL     OW 7096   0.384   6.901   4.953
 2066SOL    HW1 7097   0.330   6.890   4.869
 2066SOL    HW2 7098   0.406   6.998   4.966
 2067SOL     OW 7099   6.150   6.858   0.671
 2067SOL    HW1 7100   6.097   6.904   0.599
 2067SOL    HW2 7101   6.230   6.814   0.631
 2068SOL     OW 7102   2.205   1.559   5.239
 2068SOL    HW1 7103   2.292   1.543   5.192
 2068SOL    HW2 7104   2.148   1.619   5.183
 2069SOL     OW 7105   0.801   3.089   2.009
 2069SOL    HW1 7106   0.707   3.071   1.978
 2069SOL    HW2 7107   0.862   3.021   1.969
 2070SOL     OW 7108   1.790   0.688   2.438
 2070SOL    HW1 7109   1.692   0.694   2.459
 2070SOL    HW2 7110   1.831   0.616   2.493
 2071SOL     OW 7111   0.223   6.770   4.404
 2071SOL    HW1 7112   0.298   6.705   4.394
 2071SOL    HW2 7113   0.152   6.750   4.337
 2072SOL     OW 7114   4.785   6.276   1.893
 2072SOL    HW1 7115   4.811   6.179   1.887
 2072SOL    HW2 7116   4.851   6.325   1.949
 2073SOL     OW 7117   3.578   6.554   5.168
 2073SOL    HW1 7118   3.596   6.472   5.221
 2073SOL    HW2 7119   3.611   6.634   5.218
 2074SOL     OW 7120   6.703   1.681   0.809
 2074SOL    HW1 7121   6.785   1.655   0.757
 2074SOL    HW2 7122   6.727   1.752   0.875
 2075SOL     OW 7123   3.869   3.345   0.941
 2075SOL    HW1 7124   3.918   3.382   1.020
 2075SOL    HW2 7125   3.780   3.311   0.970
 2076SOL     OW 7126   5.197   5.833   0.379
 2076SOL    HW1 7127   5.177   5.852   0.475
 2076SOL    HW2 7128   5.266   5.897   0.346
 2077SOL     OW 7129   5.898   1.695   2.628
 2077SOL    HW1 7130   5.874   1.713   2.724
 2077SOL    HW2 7131   5.940   1.605   2.622
 2078SOL     OW 7132   2.875   5.368   6.675
 2078SOL    HW1 7133   2.890   5.463   6.649
 2078SOL    HW2 7134   2.880   5.310   6.593
 2079SOL     OW 7135   5.864   0.768   3.725
 2079SOL    HW1 7136   5.862   0.779   3.626
 2079SOL    HW2 7137   5.926   0.693   3.749
 2080SOL     OW 7138   2.688   2.153   5.088
 2080SOL    HW1 7139   2.698   2.246   5.052
 2080SOL    HW2 7140   2.757   2.138   5.159
 2081SOL     OW 7141   1.338   6.426   5.172
 2081SOL    HW1 7142   1.356   6.340   5.125
 2081SOL    HW2 7143   1.416   6.488   5.159
 2082SOL     OW 7144   5.448   0.780   0.789
 2082SOL    HW1 7145   5.443   0.680   0.784
 2082SOL    HW2 7146   5.363   0.819   0.754
 2083SOL     OW 7147   3.759   5.068   6.685
 2083SOL    HW1 7148   3.771   5.151   6.630
 2083SOL    HW2 7149   3.701   5.088   6.763
 2084SOL     OW 7150   0.091   2.234   3.259
 2084SOL    HW1 7151   0.082   2.303   3.187
 2084SOL    HW2 7152   0.002   2.221   3.303
 2085SOL     OW 7153   4.833   0.992   6.237
 2085SOL    HW1 7154   4.814   1.082   6.196
 2085SOL    HW2 7155   4.898   1.003   6.312
 2086SOL     OW 7156   3.214   4.865   0.772
 2086SOL    HW1 7157   3.249   4.916   0.694
 2086SOL    HW2 7158   3.188   4.928   0.845
 2087SOL     OW 7159   5.612   6.368   2.595
 2087SOL    HW1 7160   5.531   6.409   2.635
 2087SOL    HW2 7161   5.693   6.422   2.620
 2088SOL     OW 7162   3.398   6.620   1.079
 2088SOL    HW1 7163   3.432   6.667   0.998
 2088SOL    HW2 7164   3.325   6.675   1.121
 2089SOL     OW 7165   4.716   1.324   0.302
 2089SOL    HW1 7166   4.782   1.312   0.228
 2089SOL    HW2 7167   4.695   1.235   0.343
 2090SOL     OW 7168   3.765   3.689   4.738
 2090SOL    HW1 7169   3.749   3.654   4.830
 2090SOL    HW2 7170   3.861   3.675   4.713
 2091SOL     OW 7171   0.462   5.929   0.927
 2091SOL    HW1 7172   0.507   5.861   0.869
 2091SOL    HW2 7173   0.370   5.946   0.894
 2092SOL     OW 7174   6.047   6.120   1.068
 2092SOL    HW1 7175   6.145   6.118   1.089
 2092SOL    HW2 7176   5.995   6.124   1.153
 2093SOL     OW 7177   1.276   2.853   2.116
 2093SOL    HW1 7178   1.371   2.840   2.143
 2093SOL    HW2 7179   1.271   2.873   2.018
 2094SOL     OW 7180   5.944   0.468   1.913
 2094SOL    HW1 7181   5.925   0.371   1.923
 2094SOL    HW2 7182   5.867   0.514   1.869
 2095SOL     OW 7183   5.591   6.043   4.154
 2095SOL    HW1 7184   5.667   6.100   4.188
 2095SOL    HW2 7185   5.549   6.089   4.076
 2096SOL     OW 7186   4.722   4.146   2.539
 2096SOL    HW1 7187   4.751   4.051   2.531
 2096SOL    HW2 7188   4.683   4.162   2.630
 2097SOL     OW 7189   0.498   2.518   6.922
 2097SOL    HW1 7190   0.452   2.440   6.963
 2097SOL    HW2 7191   0.530   2.580   6.994
 2098SOL     OW 7192   4.403   6.386   3.645
 2098SOL    HW1 7193   4.371   6.444   3.720
 2098SOL    HW2 7194   4.489   6.342   3.671
 2099SOL     OW 7195   2.697   1.168   4.512
 2099SOL    HW1 7196   2.773   1.104   4.528
 2099SOL    HW2 7197   2.734   1.255   4.480
 2100SOL     OW 7198   4.033   4.114   6.792
 2100SOL    HW1 7199   4.074   4.138   6.704
 2100SOL    HW2 7200   3.945   4.068   6.776
 2101SOL     OW 7201   0.317   0.471   3.035
 2101SOL    HW1 7202   0.339   0.475   3.133
 2101SOL    HW2 7203   0.334   0.561   2.994
 2102SOL     OW 7204   7.023   5.709   2.857
 2102SOL    HW1 7205   6.987   5.629   2.809
 2102SOL    HW2 7206   0.091   5.727   2.827
 2103SOL     OW 7207   3.650   3.185   6.767
 2103SOL    HW1 7208   3.661   3.223   6.858
 2103SOL    HW2 7209   3.565   3.220   6.726
 2104SOL     OW 7210   1.490   3.369   5.849
 2104SOL    HW1 7211   1.556   3.441   5.828
 2104SOL    HW2 7212   1.539   3.285   5.875
 2105SOL     OW 7213   5.332   5.466   2.652
 2105SOL    HW1 7214   5.394   5.405   2.602
 2105SOL    HW2 7215   5.239   5.450   2.621
 2106SOL     OW 7216   4.456   5.408   6.460
 2106SOL    HW1 7217   4.402   5.399   6.376
 2106SOL    HW2 7218   4.430   5.335   6.524
 2107SOL     OW 7219   3.872   4.280   5.762
 2107SOL    HW1 7220   3.891   4.287   5.664
 2107SOL    HW2 7221   3.824   4.362   5.793
 2108SOL     OW 7222   6.275   5.606   5.746
 2108SOL    HW1 7223   6.285   5.537   5.674
 2108SOL    HW2 7224   6.281   5.562   5.836
 2109SOL     OW 7225   5.622   5.984   3.011
 2109SOL    HW1 7226   5.525   6.010   3.008
 2109SOL    HW2 7227   5.640   5.915   2.940
 2110SOL     OW 7228   3.032   4.528   6.485
 2110SOL    HW1 7229   3.121   4.527   6.530
 2110SOL    HW2 7230   3.017   4.440   6.439
 2111SOL     OW 7231   0.665   2.500   6.269
 2111SOL    HW1 7232   0.765   2.493   6.269
 2111SOL    HW2 7233   0.631   2.472   6.359
 2112SOL     OW 7234   4.020   2.824   1.773
 2112SOL    HW1 7235   4.065   2.908   1.803
 2112SOL    HW2 7236   3.952   2.846   1.703
 2113SOL     OW 7237   1.716   0.253   2.640
 2113SOL    HW1 7238   1.759   0.278   2.553
 2113SOL    HW2 7239   1.649   0.323   2.664
 2114SOL     OW 7240   1.335   4.462   0.271
 2114SOL    HW1 7241   1.245   4.418   0.266
 2114SOL    HW2 7242   1.338   4.538   0.206
 2115SOL     OW 7243   2.390   4.499   3.002
 2115SOL    HW1 7244   2.483   4.532   3.022
 2115SOL    HW2 7245   2.368   4.519   2.907
 2116SOL     OW 7246   6.844   3.893   3.073
 2116SOL    HW1 7247   6.781   3.960   3.033
 2116SOL    HW2 7248   6.828   3.803   3.032
 2117SOL     OW 7249   0.266   4.419   1.491
 2117SOL    HW1 7250   0.337   4.392   1.426
 2117SOL    HW2 7251   0.192   4.466   1.442
 2118SOL     OW 7252   6.750   3.727   2.495
 2118SOL    HW1 7253   6.798   3.802   2.449
 2118SOL    HW2 7254   6.741   3.649   2.433
 2119SOL     OW 7255   2.072   5.730   1.325
 2119SOL    HW1 7256   2.130   5.751   1.246
 2119SOL    HW2 7257   2.029   5.641   1.310
 2120SOL     OW 7258   6.124   4.474   2.206
 2120SOL    HW1 7259   6.147   4.560   2.160
 2120SOL    HW2 7260   6.197   4.450   2.270
 2121SOL     OW 7261   0.585   5.653   5.088
 2121SOL    HW1 7262   0.507   5.702   5.127
 2121SOL    HW2 7263   0.639   5.614   5.162
 2122SOL     OW 7264   5.417   4.331   5.457
 2122SOL    HW1 7265   5.367   4.298   5.378
 2122SOL    HW2 7266   5.510   4.356   5.430
 2123SOL     OW 7267   7.008   4.575   2.641
 2123SOL    HW1 7268   0.068   4.526   2.655
 2123SOL    HW2 7269   6.937   4.535   2.699
 2124SOL     OW 7270   1.930   1.472   1.297
 2124SOL    HW1 7271   1.895   1.564   1.316
 2124SOL    HW2 7272   1.887   1.436   1.215
 2125SOL     OW 7273   1.934   0.829   0.189
 2125SOL    HW1 7274   1.991   0.748   0.174
 2125SOL    HW2 7275   1.838   0.801   0.194
 2126SOL     OW 7276   2.775   0.917   6.810
 2126SOL    HW1 7277   2.842   0.905   6.736
 2126SOL    HW2 7278   2.805   0.992   6.870
 2127SOL     OW 7279   6.186   2.986   4.167
 2127SOL    HW1 7280   6.170   2.971   4.265
 2127SOL    HW2 7281   6.112   3.041   4.129
 2128SOL     OW 7282   0.796   4.323   4.764
 2128SOL    HW1 7283   0.736   4.250   4.798
 2128SOL    HW2 7284   0.764   4.411   4.800
 2129SOL     OW 7285   4.555   2.981   5.309
 2129SOL    HW1 7286   4.598   2.931   5.383
 2129SOL    HW2 7287   4.455   2.981   5.321
 2130SOL     OW 7288   5.227   6.849   2.595
 2130SOL    HW1 7289   5.198   6.802   2.678
 2130SOL    HW2 7290   5.249   6.945   2.617
 2131SOL     OW 7291   0.149   1.034   0.827
 2131SOL    HW1 7292   0.216   0.960   0.838
 2131SOL    HW2 7293   0.061   1.005   0.865
 2132SOL     OW 7294   2.830   3.102   1.045
 2132SOL    HW1 7295   2.773   3.084   0.965
 2132SOL    HW2 7296   2.911   3.043   1.041
 2133SOL     OW 7297   2.847   2.513   5.947
 2133SOL    HW1 7298   2.856   2.440   6.014
 2133SOL    HW2 7299   2.899   2.594   5.978
 2134SOL     OW 7300   6.801   1.767   1.083
 2134SOL    HW1 7301   6.898   1.746   1.095
 2134SOL    HW2 7302   6.747   1.683   1.089
 2135SOL     OW 7303   1.066   4.248   4.594
 2135SOL    HW1 7304   1.102   4.185   4.662
 2135SOL    HW2 7305   0.993   4.203   4.543
 2136SOL     OW 7306   2.454   5.311   1.896
 2136SOL    HW1 7307   2.545   5.329   1.933
 2136SOL    HW2 7308   2.391   5.384   1.923
 2137SOL     OW 7309   3.096   5.845   5.024
 2137SOL    HW1 7310   3.003   5.826   5.054
 2137SOL    HW2 7311   3.151   5.762   5.032
 2138SOL     OW 7312   6.324   0.902   2.701
 2138SOL    HW1 7313   6.329   0.867   2.795
 2138SOL    HW2 7314   6.259   0.846   2.649
 2139SOL     OW 7315   3.503   0.740   5.654
 2139SOL    HW1 7316   3.433   0.675   5.687
 2139SOL    HW2 7317   3.491   0.755   5.556
 2140SOL     OW 7318   3.017   0.834   4.763
 2140SOL    HW1 7319   2.966   0.918   4.746
 2140SOL    HW2 7320   3.000   0.768   4.690
 2141SOL     OW 7321   6.386   4.485   2.331
 2141SOL    HW1 7322   6.457   4.528   2.387
 2141SOL    HW2 7323   6.422   4.402   2.289
 2142SOL     OW 7324   1.892   2.957   4.056
 2142SOL    HW1 7325   1.992   2.961   4.056
 2142SOL    HW2 7326   1.863   2.868   4.021
 2143SOL     OW 7327   2.446   5.495   1.212
 2143SOL    HW1 7328   2.510   5.570   1.233
 2143SOL    HW2 7329   2.495   5.422   1.165
 2144SOL     OW 7330   6.965   5.745   4.704
 2144SOL    HW1 7331   6.905   5.674   4.668
 2144SOL    HW2 7332   6.938   5.768   4.797
 2145SOL     OW 7333   4.024   6.472   4.427
 2145SOL    HW1 7334   4.046   6.569   4.437
 2145SOL    HW2 7335   4.012   6.451   4.330
 2146SOL     OW 7336   2.406   3.034   0.931
 2146SOL    HW1 7337   2.375   2.939   0.930
 2146SOL    HW2 7338   2.377   3.077   1.017
 2147SOL     OW 7339   6.600   1.551   5.637
 2147SOL    HW1 7340   6.586   1.460   5.676
 2147SOL    HW2 7341   6.520   1.607   5.654
 2148SOL     OW 7342   6.986   3.106   6.529
 2148SOL    HW1 7343   0.034   3.143   6.472
 2148SOL    HW2 7344   6.989   3.149   6.619
 2149SOL     OW 7345   0.895   0.729   0.600
 2149SOL    HW1 7346   0.833   0.721   0.522
 2149SOL    HW2 7347   0.869   0.808   0.655
 2150SOL     OW 7348   2.537   2.825   1.699
 2150SOL    HW1 7349   2.456   2.815   1.756
 2150SOL    HW2 7350   2.616   2.784   1.746
 2151SOL     OW 7351   1.023   6.739   0.304
 2151SOL    HW1 7352   1.060   6.759   0.395
 2151SOL    HW2 7353   0.951   6.670   0.312
 2152SOL     OW 7354   4.009   5.622   2.439
 2152SOL    HW1 7355   4.085   5.683   2.417
 2152SOL    HW2 7356   3.986   5.568   2.358
 2153SOL     OW 7357   4.212   0.828   2.451
 2153SOL    HW1 7358   4.170   0.893   2.387
 2153SOL    HW2 7359   4.273   0.766   2.400
 2154SOL     OW 7360   3.668   6.498   3.517
 2154SOL    HW1 7361   3.718   6.477   3.433
 2154SOL    HW2 7362   3.580   6.539   3.494
 2155SOL     OW 7363   4.126   6.811   0.962
 2155SOL    HW1 7364   4.036   6.802   1.006
 2155SOL    HW2 7365   4.190   6.855   1.025
 2156SOL     OW 7366   5.753   1.511   3.689
 2156SOL    HW1 7367   5.725   1.513   3.593
 2156SOL    HW2 7368   5.852   1.522   3.695
 2157SOL     OW 7369   4.411   5.116   3.963
 2157SOL    HW1 7370   4.476   5.061   4.016
 2157SOL    HW2 7371   4.320   5.109   4.004
 2158SOL     OW 7372   3.746   0.401   0.762
 2158SOL    HW1 7373   3.816   0.458   0.719
 2158SOL    HW2 7374   3.693   0.354   0.692
 2159SOL     OW 7375   1.510   0.631   5.625
 2159SOL    HW1 7376   1.463   0.717   5.648
 2159SOL    HW2 7377   1.472   0.557   5.680
 2160SOL     OW 7378   5.091   6.047   0.193
 2160SOL    HW1 7379   5.042   6.042   0.280
 2160SOL    HW2 7380   5.186   6.072   0.209
 2161SOL     OW 7381   1.094   3.909   2.168
 2161SOL    HW1 7382   1.153   3.897   2.247
 2161SOL    HW2 7383   1.108   3.833   2.104
 2162SOL     OW 7384   2.323   6.964   3.484
 2162SOL    HW1 7385   2.371   0.003   3.425
 2162SOL    HW2 7386   2.241   7.007   3.521
 2163SOL     OW 7387   1.436   3.136   0.666
 2163SOL    HW1 7388   1.390   3.126   0.754
 2163SOL    HW2 7389   1.533   3.156   0.681
 2164SOL     OW 7390   2.357   2.641   1.392
 2164SOL    HW1 7391   2.457   2.642   1.388
 2164SOL    HW2 7392   2.320   2.660   1.302
 2165SOL     OW 7393   0.247   2.042   3.548
 2165SOL    HW1 7394   0.250   2.090   3.635
 2165SOL    HW2 7395   0.263   2.107   3.474
 2166SOL     OW 7396   0.747   4.008   4.134
 2166SOL    HW1 7397   0.658   4.011   4.181
 2166SOL    HW2 7398   0.782   3.915   4.137
 2167SOL     OW 7399   1.768   2.987   4.319
 2167SOL    HW1 7400   1.850   3.028   4.358
 2167SOL    HW2 7401   1.778   2.979   4.220
 2168SOL     OW 7402   1.174   2.027   3.209
 2168SOL    HW1 7403   1.082   2.058   3.233
 2168SOL    HW2 7404   1.242   2.075   3.265
 2169SOL     OW 7405   0.372   0.478   1.480
 2169SOL    HW1 7406   0.369   0.558   1.421
 2169SOL    HW2 7407   0.301   0.485   1.550
 2170SOL     OW 7408   1.121   4.075   5.769
 2170SOL    HW1 7409   1.032   4.039   5.742
 2170SOL    HW2 7410   1.148   4.148   5.706
 2171SOL     OW 7411   0.221   5.500   1.405
 2171SOL    HW1 7412   0.239   5.576   1.344
 2171SOL    HW2 7413   0.239   5.413   1.358
 2172SOL     OW 7414   0.193   1.969   5.121
 2172SOL    HW1 7415   0.113   1.923   5.083
 2172SOL    HW2 7416   0.271   1.907   5.120
 2173SOL     OW 7417   5.830   0.500   5.183
 2173SOL    HW1 7418   5.733   0.514   5.164
 2173SOL    HW2 7419   5.864   0.423   5.128
 2174SOL     OW 7420   0.020   6.011   5.117
 2174SOL    HW1 7421   0.002   5.933   5.056
 2174SOL    HW2 7422   0.118   6.015   5.137
 2175SOL     OW 7423   2.835   2.928   5.525
 2175SOL    HW1 7424   2.777   2.972   5.457
 2175SOL    HW2 7425   2.799   2.837   5.547
 2176SOL     OW 7426   5.548   2.960   1.219
 2176SOL    HW1 7427   5.587   2.908   1.295
 2176SOL    HW2 7428   5.535   3.055   1.247
 2177SOL     OW 7429   6.906   1.108   3.219
 2177SOL    HW1 7430   6.896   1.015   3.255
 2177SOL    HW2 7431   6.977   1.156   3.270
 2178SOL     OW 7432   0.866   1.684   2.240
 2178SOL    HW1 7433   0.885   1.613   2.173
 2178SOL    HW2 7434   0.858   1.643   2.331
 2179SOL     OW 7435   2.345   4.342   6.620
 2179SOL    HW1 7436   2.320   4.392   6.536
 2179SOL    HW2 7437   2.418   4.392   6.667
 2180SOL     OW 7438   1.404   4.712   2.057
 2180SOL    HW1 7439   1.386   4.692   2.154
 2180SOL    HW2 7440   1.329   4.677   2.002
 2181SOL     OW 7441   5.090   4.653   4.541
 2181SOL    HW1 7442   5.159   4.624   4.475
 2181SOL    HW2 7443   5.055   4.572   4.589
 2182SOL     OW 7444   0.625   4.856   3.361
 2182SOL    HW1 7445   0.691   4.846   3.435
 2182SOL    HW2 7446   0.586   4.948   3.363
 2183SOL     OW 7447   3.713   3.459   7.011
 2183SOL    HW1 7448   3.621   3.484   0.015
 2183SOL    HW2 7449   3.759   3.541   6.976
 2184SOL     OW 7450   6.353   0.822   0.291
 2184SOL    HW1 7451   6.312   0.731   0.282
 2184SOL    HW2 7452   6.323   0.864   0.377
 2185SOL     OW 7453   1.142   1.460   6.671
 2185SOL    HW1 7454   1.089   1.508   6.601
 2185SOL    HW2 7455   1.080   1.404   6.727
 2186SOL     OW 7456   6.476   5.016   4.949
 2186SOL    HW1 7457   6.567   5.052   4.930
 2186SOL    HW2 7458   6.422   5.087   4.995
 2187SOL     OW 7459   0.557   5.621   2.977
 2187SOL    HW1 7460   0.594   5.552   3.038
 2187SOL    HW2 7461   0.558   5.586   2.883
 2188SOL     OW 7462   1.828   6.476   0.002
 2188SOL    HW1 7463   1.848   6.479   6.930
 2188SOL    HW2 7464   1.760   6.406   0.021
 2189SOL     OW 7465   1.936   1.260   2.028
 2189SOL    HW1 7466   1.851   1.312   2.025
 2189SOL    HW2 7467   1.997   1.291   1.955
 2190SOL     OW 7468   6.688   4.110   2.494
 2190SOL    HW1 7469   6.747   4.136   2.570
 2190SOL    HW2 7470   6.605   4.165   2.495
 2191SOL     OW 7471   1.977   0.942   5.408
 2191SOL    HW1 7472   2.013   1.027   5.369
 2191SOL    HW2 7473   1.932   0.889   5.336
 2192SOL     OW 7474   5.137   0.823   2.203
 2192SOL    HW1 7475   5.083   0.842   2.121
 2192SOL    HW2 7476   5.162   0.726   2.205
 2193SOL     OW 7477   6.463   6.939   6.336
 2193SOL    HW1 7478   6.396   6.966   6.267
 2193SOL    HW2 7479   6.417   6.889   6.410
 2194SOL     OW 7480   0.739   4.446   5.182
 2194SOL    HW1 7481   0.750   4.522   5.245
 2194SOL    HW2 7482   0.791   4.367   5.214
 2195SOL     OW 7483   0.532   5.444   6.256
 2195SOL    HW1 7484   0.531   5.373   6.325
 2195SOL    HW2 7485   0.521   5.403   6.165
 2196SOL     OW 7486   2.524   6.215   5.426
 2196SOL    HW1 7487   2.597   6.254   5.370
 2196SOL    HW2 7488   2.508   6.120   5.399
 2197SOL     OW 7489   2.992   2.916   5.940
 2197SOL    HW1 7490   2.915   2.945   5.995
 2197SOL    HW2 7491   2.988   2.961   5.850
 2198SOL     OW 7492   0.414   0.096   6.518
 2198SOL    HW1 7493   0.504   0.131   6.545
 2198SOL    HW2 7494   0.426   0.023   6.451
 2199SOL     OW 7495   4.919   6.693   4.342
 2199SOL    HW1 7496   4.984   6.734   4.278
 2199SOL    HW2 7497   4.841   6.656   4.291
 2200SOL     OW 7498   3.285   1.023   3.990
 2200SOL    HW1 7499   3.373   0.987   4.022
 2200SOL    HW2 7500   3.259   0.977   3.905
 2201SOL     OW 7501   6.616   2.655   3.329
 2201SOL    HW1 7502   6.581   2.573   3.282
 2201SOL    HW2 7503   6.540   2.702   3.375
 2202SOL     OW 7504   3.459   5.168   2.819
 2202SOL    HW1 7505   3.428   5.263   2.821
 2202SOL    HW2 7506   3.468   5.134   2.912
 2203SOL     OW 7507   2.312   3.849   0.944
 2203SOL    HW1 7508   2.307   3.835   0.845
 2203SOL    HW2 7509   2.401   3.889   0.967
 2204SOL     OW 7510   4.132   3.040   1.304
 2204SOL    HW1 7511   4.088   2.951   1.303
 2204SOL    HW2 7512   4.082   3.102   1.365
 2205SOL     OW 7513   1.428   6.622   0.795
 2205SOL    HW1 7514   1.400   6.527   0.812
 2205SOL    HW2 7515   1.503   6.623   0.729
 2206SOL     OW 7516   2.894   3.550   6.539
 2206SOL    HW1 7517   2.855   3.621   6.598
 2206SOL    HW2 7518   2.987   3.529   6.570
 2207SOL     OW 7519   4.302   5.785   0.738
 2207SOL    HW1 7520   4.257   5.873   0.720
 2207SOL    HW2 7521   4.237   5.723   0.782
 2208SOL     OW 7522   0.908   5.994   3.435
 2208SOL    HW1 7523   0.834   5.957   3.379
 2208SOL    HW2 7524   0.985   5.931   3.433
 2209SOL     OW 7525   2.889   5.553   4.883
 2209SOL    HW1 7526   2.796   5.519   4.896
 2209SOL    HW2 7527   2.890   5.617   4.806
 2210SOL     OW 7528   6.158   6.140   1.692
 2210SOL    HW1 7529   6.244   6.090   1.700
 2210SOL    HW2 7530   6.083   6.082   1.725
 2211SOL     OW 7531   6.249   0.408   0.692
 2211SOL    HW1 7532   6.219   0.416   0.787
 2211SOL    HW2 7533   6.324   0.472   0.675
 2212SOL     OW 7534   1.953   6.224   6.785
 2212SOL    HW1 7535   2.033   6.266   6.742
 2212SOL    HW2 7536   1.983   6.148   6.843
 2213SOL     OW 7537   4.542   2.557   4.584
 2213SOL    HW1 7538   4.596   2.641   4.580
 2213SOL    HW2 7539   4.480   2.560   4.663
 2214SOL     OW 7540   4.106   2.961   5.746
 2214SOL    HW1 7541   4.136   2.871   5.715
 2214SOL    HW2 7542   4.066   3.011   5.670
 2215SOL     OW 7543   5.325   1.557   6.422
 2215SOL    HW1 7544   5.300   1.525   6.513
 2215SOL    HW2 7545   5.388   1.492   6.380
 2216SOL     OW 7546   0.297   5.960   5.872
 2216SOL    HW1 7547   0.245   5.921   5.795
 2216SOL    HW2 7548   0.319   5.888   5.937
 2217SOL     OW 7549   4.620   0.476   3.714
 2217SOL    HW1 7550   4.608   0.558   3.657
 2217SOL    HW2 7551   4.562   0.483   3.795
 2218SOL     OW 7552   0.516   5.497   6.779
 2218SOL    HW1 7553   0.545   5.452   6.695
 2218SOL    HW2 7554   0.516   5.431   6.854
 2219SOL     OW 7555   5.688   1.424   0.813
 2219SOL    HW1 7556   5.599   1.389   0.787
 2219SOL    HW2 7557   5.731   1.468   0.734
 2220SOL     OW 7558   1.844   6.172   5.431
 2220SOL    HW1 7559   1.758   6.199   5.387
 2220SOL    HW2 7560   1.918   6.174   5.364
 2221SOL     OW 7561   6.496   1.480   4.693
 2221SOL    HW1 7562   6.541   1.562   4.656
 2221SOL    HW2 7563   6.534   1.458   4.782
 2222SOL     OW 7564   6.436   0.119   1.018
 2222SOL    HW1 7565   6.437   0.134   0.919
 2222SOL    HW2 7566   6.530   0.110   1.052
 2223SOL     OW 7567   6.903   0.884   5.559
 2223SOL    HW1 7568   6.814   0.929   5.544
 2223SOL    HW2 7569   6.959   0.942   5.618
 2224SOL     OW 7570   5.680   3.662   1.905
 2224SOL    HW1 7571   5.776   3.642   1.888
 2224SOL    HW2 7572   5.673   3.732   1.976
 2225SOL     OW 7573   6.964   6.526   3.740
 2225SOL    HW1 7574   6.988   6.518   3.643
 2225SOL    HW2 7575   6.984   6.618   3.772
 2226SOL     OW 7576   3.455   5.202   0.673
 2226SOL    HW1 7577   3.457   5.114   0.625
 2226SOL    HW2 7578   3.522   5.263   0.630
 2227SOL     OW 7579   4.315   2.640   1.344
 2227SOL    HW1 7580   4.276   2.562   1.393
 2227SOL    HW2 7581   4.382   2.686   1.403
 2228SOL     OW 7582   4.524   5.410   0.287
 2228SOL    HW1 7583   4.612   5.401   0.241
 2228SOL    HW2 7584   4.510   5.333   0.349
 2229SOL     OW 7585   3.190   3.610   4.777
 2229SOL    HW1 7586   3.275   3.641   4.820
 2229SOL    HW2 7587   3.206   3.523   4.730
 2230SOL     OW 7588   5.155   6.442   1.260
 2230SOL    HW1 7589   5.097   6.365   1.232
 2230SOL    HW2 7590   5.100   6.525   1.265
 2231SOL     OW 7591   0.749   1.408   6.453
 2231SOL    HW1 7592   0.823   1.342   6.468
 2231SOL    HW2 7593   0.661   1.364   6.467
 2232SOL     OW 7594   0.708   0.676   4.919
 2232SOL    HW1 7595   0.722   0.599   4.981
 2232SOL    HW2 7596   0.747   0.655   4.830
 2233SOL     OW 7597   3.217   3.431   0.615
 2233SOL    HW1 7598   3.167   3.428   0.701
 2233SOL    HW2 7599   3.315   3.419   0.633
 2234SOL     OW 7600   3.461   1.500   0.547
 2234SOL    HW1 7601   3.371   1.480   0.586
 2234SOL    HW2 7602   3.449   1.535   0.454
 2235SOL     OW 7603   2.579   0.232   2.315
 2235SOL    HW1 7604   2.598   0.320   2.272
 2235SOL    HW2 7605   2.521   0.178   2.255
 2236SOL     OW 7606   2.004   4.084   5.944
 2236SOL    HW1 7607   2.086   4.034   5.916
 2236SOL    HW2 7608   1.943   4.095   5.866
 2237SOL     OW 7609   6.202   5.315   4.706
 2237SOL    HW1 7610   6.210   5.215   4.710
 2237SOL    HW2 7611   6.190   5.343   4.611
 2238SOL     OW 7612   4.936   4.995   2.574
 2238SOL    HW1 7613   4.840   5.011   2.599
 2238SOL    HW2 7614   4.968   5.069   2.515
 2239SOL     OW 7615   4.149   5.456   4.054
 2239SOL    HW1 7616   4.060   5.475   4.096
 2239SOL    HW2 7617   4.208   5.410   4.121
 2240SOL     OW 7618   3.701   5.888   2.749
 2240SOL    HW1 7619   3.717   5.823   2.675
 2240SOL    HW2 7620   3.666   5.973   2.712
 2241SOL     OW 7621   6.548   6.674   1.629
 2241SOL    HW1 7622   6.599   6.611   1.687
 2241SOL    HW2 7623   6.457   6.636   1.611
 2242SOL     OW 7624   5.416   3.157   2.645
 2242SOL    HW1 7625   5.347   3.091   2.616
 2242SOL    HW2 7626   5.371   3.242   2.673
 2243SOL     OW 7627   2.632   6.206   7.001
 2243SOL    HW1 7628   2.681   6.276   0.026
 2243SOL    HW2 7629   2.624   6.123   0.031
 2244SOL     OW 7630   3.012   0.022   1.322
 2244SOL    HW1 7631   3.045   0.080   1.248
 2244SOL    HW2 7632   2.982   6.960   1.286
 2245SOL     OW 7633   0.394   1.181   1.011
 2245SOL    HW1 7634   0.442   1.268   1.023
 2245SOL    HW2 7635   0.295   1.197   1.013
 2246SOL     OW 7636   2.074   0.408   3.786
 2246SOL    HW1 7637   2.124   0.494   3.784
 2246SOL    HW2 7638   1.984   0.423   3.828
 2247SOL     OW 7639   3.313   3.687   2.705
 2247SOL    HW1 7640   3.365   3.751   2.649
 2247SOL    HW2 7641   3.308   3.598   2.659
 2248SOL     OW 7642   6.616   4.210   4.110
 2248SOL    HW1 7643   6.539   4.146   4.118
 2248SOL    HW2 7644   6.695   4.173   4.157
 2249SOL     OW 7645   3.463   6.616   3.763
 2249SOL    HW1 7646   3.452   6.613   3.664
 2249SOL    HW2 7647   3.427   6.532   3.803
 2250SOL     OW 7648   3.335   3.921   5.585
 2250SOL    HW1 7649   3.376   3.839   5.545
 2250SOL    HW2 7650   3.334   3.994   5.517
 2251SOL     OW 7651   5.299   6.966   6.076
 2251SOL    HW1 7652   5.375   6.988   6.138
 2251SOL    HW2 7653   5.221   6.932   6.129
 2252SOL     OW 7654   5.290   1.591   3.056
 2252SOL    HW1 7655   5.291   1.494   3.032
 2252SOL    HW2 7656   5.383   1.628   3.046
 2253SOL     OW 7657   0.586   3.298   0.302
 2253SOL    HW1 7658   0.641   3.224   0.265
 2253SOL    HW2 7659   0.561   3.361   0.228
 2254SOL     OW 7660   3.696   3.666   3.348
 2254SOL    HW1 7661   3.769   3.719   3.392
 2254SOL    HW2 7662   3.713   3.663   3.249
 2255SOL     OW 7663   2.680   3.723   6.042
 2255SOL    HW1 7664   2.737   3.790   5.995
 2255SOL    HW2 7665   2.707   3.718   6.138
 2256SOL     OW 7666   4.416   6.453   2.041
 2256SOL    HW1 7667   4.334   6.503   2.013
 2256SOL    HW2 7668   4.490   6.474   1.977
 2257SOL     OW 7669   0.274   1.690   4.379
 2257SOL    HW1 7670   0.328   1.739   4.310
 2257SOL    HW2 7671   0.177   1.705   4.363
 2258SOL     OW 7672   2.114   6.142   3.934
 2258SOL    HW1 7673   2.094   6.074   3.864
 2258SOL    HW2 7674   2.197   6.192   3.909
 2259SOL     OW 7675   5.750   2.736   4.853
 2259SOL    HW1 7676   5.771   2.640   4.837
 2259SOL    HW2 7677   5.785   2.764   4.942
 2260SOL     OW 7678   1.282   3.424   0.991
 2260SOL    HW1 7679   1.351   3.380   0.933
 2260SOL    HW2 7680   1.289   3.388   1.084
 2261SOL     OW 7681   6.489   4.000   0.837
 2261SOL    HW1 7682   6.497   3.901   0.825
 2261SOL    HW2 7683   6.413   4.034   0.782
 2262SOL     OW 7684   6.447   0.873   3.285
 2262SOL    HW1 7685   6.364   0.929   3.275
 2262SOL    HW2 7686   6.467   0.860   3.382
 2263SOL     OW 7687   1.852   5.831   1.155
 2263SOL    HW1 7688   1.920   5.856   1.225
 2263SOL    HW2 7689   1.880   5.869   1.067
 2264SOL     OW 7690   2.521   6.629   6.538
 2264SOL    HW1 7691   2.617   6.610   6.561
 2264SOL    HW2 7692   2.516   6.716   6.488
 2265SOL     OW 7693   1.530   0.389   4.229
 2265SOL    HW1 7694   1.542   0.404   4.327
 2265SOL    HW2 7695   1.481   0.303   4.215
 2266SOL     OW 7696   4.896   1.492   6.090
 2266SOL    HW1 7697   4.966   1.561   6.069
 2266SOL    HW2 7698   4.822   1.499   6.024
 2267SOL     OW 7699   4.805   2.814   4.678
 2267SOL    HW1 7700   4.765   2.796   4.588
 2267SOL    HW2 7701   4.830   2.910   4.685
 2268SOL     OW 7702   6.097   3.604   6.354
 2268SOL    HW1 7703   6.059   3.695   6.335
 2268SOL    HW2 7704   6.060   3.569   6.440
 2269SOL     OW 7705   0.581   3.470   5.031
 2269SOL    HW1 7706   0.618   3.415   5.107
 2269SOL    HW2 7707   0.644   3.545   5.011
 2270SOL     OW 7708   4.347   3.424   6.241
 2270SOL    HW1 7709   4.255   3.399   6.208
 2270SOL    HW2 7710   4.364   3.521   6.221
 2271SOL     OW 7711   5.675   4.682   6.906
 2271SOL    HW1 7712   5.617   4.654   6.983
 2271SOL    HW2 7713   5.767   4.646   6.920
 2272SOL     OW 7714   6.597   1.727   6.446
 2272SOL    HW1 7715   6.663   1.776   6.503
 2272SOL    HW2 7716   6.612   1.751   6.350
 2273SOL     OW 7717   1.821   2.330   2.333
 2273SOL    HW1 7718   1.870   2.364   2.413
 2273SOL    HW2 7719   1.883   2.329   2.254
 2274SOL     OW 7720   0.505   1.877   6.741
 2274SOL    HW1 7721   0.582   1.890   6.678
 2274SOL    HW2 7722   0.502   1.954   6.805
 2275SOL     OW 7723   5.930   5.450   2.484
 2275SOL    HW1 7724   5.920   5.499   2.571
 2275SOL    HW2 7725   6.024   5.460   2.451
 2276SOL     OW 7726   1.226   6.072   1.386
 2276SOL    HW1 7727   1.147   6.083   1.447
 2276SOL    HW2 7728   1.305   6.121   1.425
 2277SOL     OW 7729   3.198   3.783   4.511
 2277SOL    HW1 7730   3.270   3.844   4.546
 2277SOL    HW2 7731   3.238   3.694   4.489
 2278SOL     OW 7732   6.623   2.865   4.030
 2278SOL    HW1 7733   6.673   2.945   3.995
 2278SOL    HW2 7734   6.566   2.893   4.107
 2279SOL     OW 7735   6.755   6.315   5.969
 2279SOL    HW1 7736   6.701   6.233   5.983
 2279SOL    HW2 7737   6.843   6.290   5.928
 2280SOL     OW 7738   6.582   0.568   4.888
 2280SOL    HW1 7739   6.597   0.578   4.790
 2280SOL    HW2 7740   6.666   0.539   4.932
 2281SOL     OW 7741   4.350   0.780   1.847
 2281SOL    HW1 7742   4.275   0.713   1.852
 2281SOL    HW2 7743   4.315   0.870   1.872
 2282SOL     OW 7744   4.835   6.278   5.545
 2282SOL    HW1 7745   4.750   6.327   5.527
 2282SOL    HW2 7746   4.905   6.308   5.480
 2283SOL     OW 7747   1.819   0.338   2.085
 2283SOL    HW1 7748   1.904   0.289   2.066
 2283SOL    HW2 7749   1.839   0.434   2.106
 2284SOL     OW 7750   0.895   3.592   5.636
 2284SOL    HW1 7751   0.946   3.608   5.552
 2284SOL    HW2 7752   0.952   3.542   5.701
 2285SOL     OW 7753   1.082   3.454   0.272
 2285SOL    HW1 7754   1.158   3.404   0.313
 2285SOL    HW2 7755   1.110   3.490   0.183
 2286SOL     OW 7756   5.279   6.972   3.481
 2286SOL    HW1 7757   5.245   6.919   3.403
 2286SOL    HW2 7758   5.311   6.910   3.552
 2287SOL     OW 7759   2.799   0.996   3.692
 2287SOL    HW1 7760   2.817   1.018   3.596
 2287SOL    HW2 7761   2.748   1.070   3.735
 2288SOL     OW 7762   0.521   5.565   3.802
 2288SOL    HW1 7763   0.486   5.489   3.857
 2288SOL    HW2 7764   0.557   5.636   3.863
 2289SOL     OW 7765   6.649   4.770   1.095
 2289SOL    HW1 7766   6.637   4.860   1.053
 2289SOL    HW2 7767   6.699   4.779   1.181
 2290SOL     OW 7768   0.983   4.362   0.979
 2290SOL    HW1 7769   0.941   4.407   1.058
 2290SOL    HW2 7770   1.074   4.329   1.004
 2291SOL     OW 7771   3.103   2.205   5.946
 2291SOL    HW1 7772   3.183   2.250   5.906
 2291SOL    HW2 7773   3.117   2.190   6.043
 2292SOL     OW 7774   1.448   1.489   4.857
 2292SOL    HW1 7775   1.446   1.389   4.861
 2292SOL    HW2 7776   1.542   1.521   4.847
 2293SOL     OW 7777   5.673   5.649   2.164
 2293SOL    HW1 7778   5.577   5.663   2.140
 2293SOL    HW2 7779   5.719   5.738   2.167
 2294SOL     OW 7780   3.424   6.738   0.618
 2294SOL    HW1 7781   3.426   6.703   0.712
 2294SOL    HW2 7782   3.509   6.714   0.572
 2295SOL     OW 7783   0.534   2.156   2.376
 2295SOL    HW1 7784   0.467   2.161   2.450
 2295SOL    HW2 7785   0.571   2.063   2.371
 2296SOL     OW 7786   3.240   6.898   0.774
 2296SOL    HW1 7787   3.167   6.897   0.843
 2296SOL    HW2 7788   3.240   6.810   0.726
 2297SOL     OW 7789   3.935   4.260   5.515
 2297SOL    HW1 7790   3.958   4.165   5.493
 2297SOL    HW2 7791   3.935   4.314   5.431
 2298SOL     OW 7792   3.484   2.221   1.168
 2298SOL    HW1 7793   3.499   2.271   1.253
 2298SOL    HW2 7794   3.390   2.237   1.136
 2299SOL     OW 7795   5.465   6.997   6.961
 2299SOL    HW1 7796   5.522   6.965   0.011
 2299SOL    HW2 7797   5.415   6.920   6.921
 2300SOL     OW 7798   1.527   5.272   1.778
 2300SOL    HW1 7799   1.477   5.355   1.754
 2300SOL    HW2 7800   1.592   5.292   1.851
 2301SOL     OW 7801   2.955   3.669   3.178
 2301SOL    HW1 7802   2.954   3.582   3.128
 2301SOL    HW2 7803   2.959   3.745   3.113
 2302SOL     OW 7804   4.078   6.605   2.411
 2302SOL    HW1 7805   4.058   6.676   2.478
 2302SOL    HW2 7806   4.169   6.567   2.429
 2303SOL     OW 7807   1.501   3.819   5.336
 2303SOL    HW1 7808   1.419   3.802   5.281
 2303SOL    HW2 7809   1.533   3.733   5.375
 2304SOL     OW 7810   2.667   0.442   3.641
 2304SOL    HW1 7811   2.617   0.527   3.628
 2304SOL    HW2 7812   2.765   0.460   3.643
 2305SOL     OW 7813   3.728   5.833   3.298
 2305SOL    HW1 7814   3.686   5.806   3.385
 2305SOL    HW2 7815   3.813   5.782   3.284
 2306SOL     OW 7816   2.360   5.576   1.572
 2306SOL    HW1 7817   2.374   5.650   1.506
 2306SOL    HW2 7818   2.335   5.615   1.661
 2307SOL     OW 7819   2.024   4.175   2.885
 2307SOL    HW1 7820   2.033   4.169   2.984
 2307SOL    HW2 7821   2.111   4.152   2.841
 2308SOL     OW 7822   1.036   0.470   6.524
 2308SOL    HW1 7823   1.038   0.487   6.426
 2308SOL    HW2 7824   1.055   0.374   6.543
 2309SOL     OW 7825   2.854   6.366   0.089
 2309SOL    HW1 7826   2.837   6.443   0.151
 2309SOL    HW2 7827   2.877   6.284   0.142
 2310SOL     OW 7828   6.405   6.846   0.998
 2310SOL    HW1 7829   6.322   6.849   0.941
 2310SOL    HW2 7830   6.436   6.939   1.016
 2311SOL     OW 7831   2.498   6.921   2.430
 2311SOL    HW1 7832   2.578   6.928   2.491
 2311SOL    HW2 7833   2.416   6.948   2.481
 2312SOL     OW 7834   3.014   6.751   3.274
 2312SOL    HW1 7835   2.997   6.782   3.368
 2312SOL    HW2 7836   3.002   6.652   3.269
 2313SOL     OW 7837   4.485   5.045   2.151
 2313SOL    HW1 7838   4.441   4.958   2.127
 2313SOL    HW2 7839   4.584   5.033   2.153
 2314SOL     OW 7840   5.617   0.861   3.175
 2314SOL    HW1 7841   5.527   0.904   3.182
 2314SOL    HW2 7842   5.680   0.922   3.127
 2315SOL     OW 7843   5.078   3.296   5.597
 2315SOL    HW1 7844   5.013   3.225   5.570
 2315SOL    HW2 7845   5.095   3.357   5.520
 2316SOL     OW 7846   2.651   1.362   5.399
 2316SOL    HW1 7847   2.625   1.410   5.316
 2316SOL    HW2 7848   2.570   1.345   5.455
 2317SOL     OW 7849   6.347   6.458   3.827
 2317SOL    HW1 7850   6.395   6.404   3.896
 2317SOL    HW2 7851   6.257   6.416   3.810
 2318SOL     OW 7852   2.098   3.500   4.269
 2318SOL    HW1 7853   2.101   3.411   4.223
 2318SOL    HW2 7854   2.066   3.488   4.363
 2319SOL     OW 7855   3.464   5.313   5.006
 2319SOL    HW1 7856   3.383   5.341   4.955
 2319SOL    HW2 7857   3.468   5.213   5.011
 2320SOL     OW 7858   0.962   2.302   5.399
 2320SOL    HW1 7859   0.870   2.285   5.363
 2320SOL    HW2 7860   0.963   2.390   5.446
 2321SOL     OW 7861   2.454   5.879   6.303
 2321SOL    HW1 7862   2.407   5.809   6.250
 2321SOL    HW2 7863   2.436   5.866   6.401
 2322SOL     OW 7864   1.927   4.285   2.059
 2322SOL    HW1 7865   1.939   4.381   2.031
 2322SOL    HW2 7866   1.887   4.234   1.983
 2323SOL     OW 7867   3.332   4.780   1.734
 2323SOL    HW1 7868   3.408   4.739   1.785
 2323SOL    HW2 7869   3.270   4.708   1.702
 2324SOL     OW 7870   6.589   5.635   0.915
 2324SOL    HW1 7871   6.599   5.595   0.824
 2324SOL    HW2 7872   6.623   5.729   0.915
 2325SOL     OW 7873   0.131   4.758   1.385
 2325SOL    HW1 7874   0.068   4.707   1.327
 2325SOL    HW2 7875   0.079   4.812   1.452
 2326SOL     OW 7876   1.311   6.187   6.102
 2326SOL    HW1 7877   1.314   6.282   6.073
 2326SOL    HW2 7878   1.339   6.181   6.198
 2327SOL     OW 7879   0.454   1.310   3.536
 2327SOL    HW1 7880   0.411   1.397   3.512
 2327SOL    HW2 7881   0.477   1.260   3.452
 2328SOL     OW 7882   1.638   1.951   2.962
 2328SOL    HW1 7883   1.720   1.920   3.010
 2328SOL    HW2 7884   1.569   1.981   3.029
 2329SOL     OW 7885   0.784   4.648   4.670
 2329SOL    HW1 7886   0.789   4.660   4.769
 2329SOL    HW2 7887   0.862   4.594   4.639
 2330SOL     OW 7888   0.480   2.903   0.603
 2330SOL    HW1 7889   0.515   2.935   0.691
 2330SOL    HW2 7890   0.402   2.960   0.576
 2331SOL     OW 7891   3.241   5.408   0.021
 2331SOL    HW1 7892   3.312   5.430   0.088
 2331SOL    HW2 7893   3.279   5.350   6.976
 2332SOL     OW 7894   0.096   0.122   5.671
 2332SOL    HW1 7895   0.102   0.125   5.770
 2332SOL    HW2 7896   0.155   0.050   5.635
 2333SOL     OW 7897   0.039   4.965   2.725
 2333SOL    HW1 7898   0.104   4.969   2.801
 2333SOL    HW2 7899   6.999   5.041   2.734
 2334SOL     OW 7900   1.531   1.074   6.837
 2334SOL    HW1 7901   1.506   1.136   6.763
 2334SOL    HW2 7902   1.614   1.107   6.882
 2335SOL     OW 7903   5.770   0.287   3.729
 2335SOL    HW1 7904   5.798   0.339   3.810
 2335SOL    HW2 7905   5.719   0.347   3.667
 2336SOL     OW 7906   3.238   1.200   4.318
 2336SOL    HW1 7907   3.161   1.143   4.344
 2336SOL    HW2 7908   3.279   1.241   4.400
 2337SOL     OW 7909   4.107   0.584   1.832
 2337SOL    HW1 7910   4.032   0.641   1.799
 2337SOL    HW2 7911   4.106   0.581   1.932
 2338SOL     OW 7912   0.719   3.408   4.307
 2338SOL    HW1 7913   0.730   3.448   4.398
 2338SOL    HW2 7914   0.803   3.418   4.256
 2339SOL     OW 7915   3.283   3.992   3.498
 2339SOL    HW1 7916   3.328   4.076   3.467
 2339SOL    HW2 7917   3.232   3.952   3.422
 2340SOL     OW 7918   0.603   4.422   6.954
 2340SOL    HW1 7919   0.552   4.339   6.931
 2340SOL    HW2 7920   0.694   4.397   6.987
 2341SOL     OW 7921   2.864   4.781   2.161
 2341SOL    HW1 7922   2.841   4.693   2.119
 2341SOL    HW2 7923   2.961   4.781   2.186
 2342SOL     OW 7924   1.789   6.911   4.815
 2342SOL    HW1 7925   1.746   6.940   4.729
 2342SOL    HW2 7926   1.889   6.917   4.805
 2343SOL     OW 7927   1.825   5.236   2.549
 2343SOL    HW1 7928   1.809   5.243   2.648
 2343SOL    HW2 7929   1.753   5.285   2.500
 2344SOL     OW 7930   0.141   5.830   6.737
 2344SOL    HW1 7931   0.092   5.884   6.806
 2344SOL    HW2 7932   0.239   5.844   6.747
 2345SOL     OW 7933   2.376   5.644   4.441
 2345SOL    HW1 7934   2.369   5.584   4.361
 2345SOL    HW2 7935   2.436   5.721   4.419
 2346SOL     OW 7936   3.834   3.409   5.744
 2346SOL    HW1 7937   3.842   3.430   5.646
 2346SOL    HW2 7938   3.774   3.331   5.756
 2347SOL     OW 7939   2.606   2.194   1.483
 2347SOL    HW1 7940   2.636   2.154   1.569
 2347SOL    HW2 7941   2.665   2.161   1.409
 2348SOL     OW 7942   1.552   6.252   3.614
 2348SOL    HW1 7943   1.637   6.241   3.563
 2348SOL    HW2 7944   1.523   6.348   3.610
 2349SOL     OW 7945   0.945   4.773   6.067
 2349SOL    HW1 7946   0.934   4.866   6.032
 2349SOL    HW2 7947   0.963   4.710   5.992
 2350SOL     OW 7948   6.065   5.327   6.060
 2350SOL    HW1 7949   5.971   5.315   6.029
 2350SOL    HW2 7950   6.088   5.256   6.127
 2351SOL     OW 7951   3.408   4.933   4.238
 2351SOL    HW1 7952   3.462   4.951   4.320
 2351SOL    HW2 7953   3.312   4.922   4.264
 2352SOL     OW 7954   0.071   3.396   2.615
 2352SOL    HW1 7955   0.059   3.297   2.606
 2352SOL    HW2 7956   0.035   3.442   2.534
 2353SOL     OW 7957   3.554   4.993   4.451
 2353SOL    HW1 7958   3.570   5.088   4.477
 2353SOL    HW2 7959   3.640   4.942   4.455
 2354SOL     OW 7960   2.368   2.025   4.627
 2354SOL    HW1 7961   2.410   1.934   4.620
 2354SOL    HW2 7962   2.269   2.016   4.617
 2355SOL     OW 7963   1.830   6.950   5.884
 2355SOL    HW1 7964   1.912   6.909   5.924
 2355SOL    HW2 7965   1.851   6.984   5.793
 2356SOL     OW 7966   1.188   3.205   6.086
 2356SOL    HW1 7967   1.218   3.284   6.033
 2356SOL    HW2 7968   1.187   3.229   6.183
 2357SOL     OW 7969   4.387   0.674   2.328
 2357SOL    HW1 7970   4.422   0.596   2.379
 2357SOL    HW2 7971   4.456   0.705   2.262
 2358SOL     OW 7972   3.193   5.413   5.410
 2358SOL    HW1 7973   3.269   5.467   5.374
 2358SOL    HW2 7974   3.111   5.470   5.413
 2359SOL     OW 7975   6.828   0.688   5.386
 2359SOL    HW1 7976   6.730   0.696   5.367
 2359SOL    HW2 7977   6.858   0.767   5.440
 2360SOL     OW 7978   5.530   3.416   6.994
 2360SOL    HW1 7979   5.558   3.501   0.014
 2360SOL    HW2 7980   5.598   3.345   7.012
 2361SOL     OW 7981   2.325   0.441   6.578
 2361SOL    HW1 7982   2.327   0.517   6.643
 2361SOL    HW2 7983   2.309   0.476   6.485
 2362SOL     OW 7984   2.381   5.730   4.161
 2362SOL    HW1 7985   2.350   5.797   4.228
 2362SOL    HW2 7986   2.472   5.698   4.186
 2363SOL     OW 7987   4.115   2.250   4.671
 2363SOL    HW1 7988   4.068   2.326   4.714
 2363SOL    HW2 7989   4.180   2.210   4.735
 2364SOL     OW 7990   1.114   2.667   2.219
 2364SOL    HW1 7991   1.170   2.744   2.190
 2364SOL    HW2 7992   1.116   2.660   2.319
 2365SOL     OW 7993   6.622   2.482   6.800
 2365SOL    HW1 7994   6.643   2.421   6.876
 2365SOL    HW2 7995   6.576   2.564   6.835
 2366SOL     OW 7996   2.215   5.835   6.817
 2366SOL    HW1 7997   2.161   5.775   6.757
 2366SOL    HW2 7998   2.157   5.907   6.853
 2367SOL     OW 7999   2.615   3.711   1.239
 2367SOL    HW1 8000   2.683   3.723   1.311
 2367SOL    HW2 8001   2.565   3.626   1.254
 2368SOL     OW 8002   5.335   6.436   4.531
 2368SOL    HW1 8003   5.273   6.426   4.609
 2368SOL    HW2 8004   5.425   6.399   4.555
 2369SOL     OW 8005   1.849   0.777   4.592
 2369SOL    HW1 8006   1.761   0.802   4.631
 2369SOL    HW2 8007   1.923   0.810   4.652
 2370SOL     OW 8008   5.517   3.106   0.287
 2370SOL    HW1 8009   5.509   3.023   0.342
 2370SOL    HW2 8010   5.515   3.082   0.190
 2371SOL     OW 8011   1.596   6.668   1.512
 2371SOL    HW1 8012   1.563   6.716   1.430
 2371SOL    HW2 8013   1.544   6.699   1.592
 2372SOL     OW 8014   6.887   2.875   2.096
 2372SOL    HW1 8015   6.884   2.817   2.177
 2372SOL    HW2 8016   6.980   2.911   2.083
 2373SOL     OW 8017   0.697   3.010   5.793
 2373SOL    HW1 8018   0.782   2.958   5.784
 2373SOL    HW2 8019   0.653   2.986   5.880
 2374SOL     OW 8020   6.099   1.738   4.075
 2374SOL    HW1 8021   6.027   1.700   4.132
 2374SOL    HW2 8022   6.157   1.800   4.129
 2375SOL     OW 8023   3.564   6.309   4.925
 2375SOL    HW1 8024   3.602   6.280   4.836
 2375SOL    HW2 8025   3.621   6.272   4.998
 2376SOL     OW 8026   6.450   2.984   4.215
 2376SOL    HW1 8027   6.465   3.039   4.297
 2376SOL    HW2 8028   6.356   2.993   4.185
 2377SOL     OW 8029   3.829   3.953   4.222
 2377SOL    HW1 8030   3.749   3.947   4.162
 2377SOL    HW2 8031   3.806   4.008   4.302
 2378SOL     OW 8032   4.867   1.694   0.515
 2378SOL    HW1 8033   4.917   1.767   0.563
 2378SOL    HW2 8034   4.850   1.722   0.421
 2379SOL     OW 8035   6.977   1.336   0.712
 2379SOL    HW1 8036   6.998   1.252   0.764
 2379SOL    HW2 8037   0.031   1.363   0.659
 2380SOL     OW 8038   0.282   2.240   6.691
 2380SOL    HW1 8039   0.273   2.339   6.699
 2380SOL    HW2 8040   0.195   2.200   6.661
 2381SOL     OW 8041   1.778   5.314   4.383
 2381SOL    HW1 8042   1.822   5.305   4.293
 2381SOL    HW2 8043   1.839   5.277   4.453
 2382SOL     OW 8044   2.124   3.714   4.624
 2382SOL    HW1 8045   2.178   3.797   4.617
 2382SOL    HW2 8046   2.182   3.639   4.657
 2383SOL     OW 8047   5.112   6.724   0.545
 2383SOL    HW1 8048   5.182   6.746   0.613
 2383SOL    HW2 8049   5.152   6.727   0.453
 2384SOL     OW 8050   5.973   1.079   2.713
 2384SOL    HW1 8051   5.897   1.138   2.740
 2384SOL    HW2 8052   5.945   1.020   2.638
 2385SOL     OW 8053   1.097   0.347   0.315
 2385SOL    HW1 8054   1.102   0.388   0.224
 2385SOL    HW2 8055   1.004   0.356   0.351
 2386SOL     OW 8056   5.730   6.179   4.632
 2386SOL    HW1 8057   5.654   6.222   4.681
 2386SOL    HW2 8058   5.757   6.094   4.678
 2387SOL     OW 8059   1.181   1.991   4.201
 2387SOL    HW1 8060   1.084   2.017   4.202
 2387SOL    HW2 8061   1.202   1.944   4.116
 2388SOL     OW 8062   0.610   2.042   3.959
 2388SOL    HW1 8063   0.574   2.134   3.943
 2388SOL    HW2 8064   0.709   2.043   3.948
 2389SOL     OW 8065   4.564   4.551   2.957
 2389SOL    HW1 8066   4.507   4.540   2.876
 2389SOL    HW2 8067   4.614   4.637   2.951
 2390SOL     OW 8068   3.677   2.930   3.512
 2390SOL    HW1 8069   3.684   2.882   3.425
 2390SOL    HW2 8070   3.599   2.992   3.511
 2391SOL     OW 8071   5.399   3.963   5.868
 2391SOL    HW1 8072   5.460   4.040   5.849
 2391SOL    HW2 8073   5.355   3.933   5.783
 2392SOL     OW 8074   3.613   6.376   5.393
 2392SOL    HW1 8075   3.577   6.455   5.441
 2392SOL    HW2 8076   3.655   6.313   5.459
 2393SOL     OW 8077   5.531   3.788   6.041
 2393SOL    HW1 8078   5.474   3.836   5.974
 2393SOL    HW2 8079   5.521   3.832   6.130
 2394SOL     OW 8080   1.008   4.347   4.912
 2394SOL    HW1 8081   1.094   4.363   4.864
 2394SOL    HW2 8082   0.937   4.324   4.846
 2395SOL     OW 8083   5.324   1.116   5.660
 2395SOL    HW1 8084   5.327   1.177   5.739
 2395SOL    HW2 8085   5.414   1.077   5.644
 2396SOL     OW 8086   3.919   5.220   1.081
 2396SOL    HW1 8087   3.965   5.269   1.007
 2396SOL    HW2 8088   3.858   5.283   1.129
 2397SOL     OW 8089   0.345   3.692   5.648
 2397SOL    HW1 8090   0.351   3.792   5.652
 2397SOL    HW2 8091   0.318   3.657   5.738
 2398SOL     OW 8092   4.298   4.360   6.665
 2398SOL    HW1 8093   4.351   4.293   6.717
 2398SOL    HW2 8094   4.348   4.446   6.660
 2399SOL     OW 8095   4.228   0.455   1.339
 2399SOL    HW1 8096   4.147   0.465   1.396
 2399SOL    HW2 8097   4.226   0.365   1.294
 2400SOL     OW 8098   2.821   4.346   1.173
 2400SOL    HW1 8099   2.887   4.404   1.220
 2400SOL    HW2 8100   2.869   4.275   1.122
 2401SOL     OW 8101   5.037   6.813   6.721
 2401SOL    HW1 8102   5.068   6.790   6.629
 2401SOL    HW2 8103   4.943   6.782   6.733
 2402SOL     OW 8104   0.279   0.624   3.529
 2402SOL    HW1 8105   0.297   0.718   3.559
 2402SOL    HW2 8106   0.306   0.560   3.601
 2403SOL     OW 8107   1.867   2.060   6.623
 2403SOL    HW1 8108   1.800   2.010   6.679
 2403SOL    HW2 8109   1.923   1.995   6.573
 2404SOL     OW 8110   2.591   0.808   0.825
 2404SOL    HW1 8111   2.565   0.829   0.731
 2404SOL    HW2 8112   2.551   0.875   0.887
 2405SOL     OW 8113   3.329   3.824   2.336
 2405SOL    HW1 8114   3.343   3.903   2.277
 2405SOL    HW2 8115   3.392   3.829   2.414
 2406SOL     OW 8116   3.123   0.158   1.833
 2406SOL    HW1 8117   3.096   0.245   1.792
 2406SOL    HW2 8118   3.145   0.092   1.760
 2407SOL     OW 8119   5.643   1.565   2.997
 2407SOL    HW1 8120   5.601   1.598   2.912
 2407SOL    HW2 8121   5.676   1.643   3.050
 2408SOL     OW 8122   4.408   4.768   3.393
 2408SOL    HW1 8123   4.406   4.672   3.422
 2408SOL    HW2 8124   4.491   4.812   3.429
 2409SOL     OW 8125   2.392   5.141   1.343
 2409SOL    HW1 8126   2.395   5.041   1.355
 2409SOL    HW2 8127   2.412   5.185   1.430
 2410SOL     OW 8128   4.157   3.000   5.347
 2410SOL    HW1 8129   4.201   3.081   5.384
 2410SOL    HW2 8130   4.219   2.922   5.356
 2411SOL     OW 8131   5.021   5.899   4.685
 2411SOL    HW1 8132   5.028   5.810   4.731
 2411SOL    HW2 8133   5.043   5.887   4.588
 2412SOL     OW 8134   5.948   4.273   1.164
 2412SOL    HW1 8135   5.866   4.265   1.221
 2412SOL    HW2 8136   5.963   4.187   1.116
 2413SOL     OW 8137   6.499   1.151   1.230
 2413SOL    HW1 8138   6.471   1.240   1.196
 2413SOL    HW2 8139   6.586   1.124   1.188
 2414SOL     OW 8140   4.865   4.250   3.045
 2414SOL    HW1 8141   4.870   4.150   3.043
 2414SOL    HW2 8142   4.786   4.277   3.100
 2415SOL     OW 8143   6.355   1.143   2.977
 2415SOL    HW1 8144   6.443   1.101   2.958
 2415SOL    HW2 8145   6.338   1.216   2.911
 2416SOL     OW 8146   5.087   2.521   4.581
 2416SOL    HW1 8147   5.050   2.446   4.637
 2416SOL    HW2 8148   5.030   2.533   4.499
 2417SOL     OW 8149   3.706   3.656   5.018
 2417SOL    HW1 8150   3.751   3.570   5.041
 2417SOL    HW2 8151   3.745   3.730   5.074
 2418SOL     OW 8152   3.641   2.956   4.800
 2418SOL    HW1 8153   3.719   2.986   4.743
 2418SOL    HW2 8154   3.672   2.944   4.894
 2419SOL     OW 8155   6.746   6.712   4.429
 2419SOL    HW1 8156   6.798   6.635   4.466
 2419SOL    HW2 8157   6.768   6.795   4.480
 2420SOL     OW 8158   3.494   0.656   3.073
 2420SOL    HW1 8159   3.491   0.751   3.104
 2420SOL    HW2 8160   3.575   0.643   3.015
 2421SOL     OW 8161   2.401   2.273   4.995
 2421SOL    HW1 8162   2.377   2.368   5.011
 2421SOL    HW2 8163   2.499   2.265   4.977
 2422SOL     OW 8164   5.150   1.654   0.690
 2422SOL    HW1 8165   5.225   1.620   0.747
 2422SOL    HW2 8166   5.068   1.663   0.747
 2423SOL     OW 8167   1.765   5.677   2.609
 2423SOL    HW1 8168   1.737   5.594   2.559
 2423SOL    HW2 8169   1.694   5.747   2.599
 2424SOL     OW 8170   6.376   6.770   6.519
 2424SOL    HW1 8171   6.381   6.677   6.482
 2424SOL    HW2 8172   6.467   6.798   6.550
 2425SOL     OW 8173   5.789   0.418   3.980
 2425SOL    HW1 8174   5.878   0.392   3.943
 2425SOL    HW2 8175   5.798   0.440   4.077
 2426SOL     OW 8176   1.347   5.480   5.466
 2426SOL    HW1 8177   1.429   5.532   5.485
 2426SOL    HW2 8178   1.346   5.452   5.370
 2427SOL     OW 8179   5.313   6.052   5.532
 2427SOL    HW1 8180   5.335   5.988   5.606
 2427SOL    HW2 8181   5.256   6.006   5.464
 2428SOL     OW 8182   0.279   0.676   2.502
 2428SOL    HW1 8183   0.205   0.624   2.545
 2428SOL    HW2 8184   0.241   0.755   2.455
 2429SOL     OW 8185   6.066   5.200   2.281
 2429SOL    HW1 8186   6.002   5.134   2.241
 2429SOL    HW2 8187   6.045   5.211   2.378
 2430SOL     OW 8188   6.488   1.154   2.068
 2430SOL    HW1 8189   6.542   1.199   2.139
 2430SOL    HW2 8190   6.517   1.059   2.058
 2431SOL     OW 8191   4.211   0.338   2.136
 2431SOL    HW1 8192   4.176   0.285   2.058
 2431SOL    HW2 8193   4.218   0.279   2.216
 2432SOL     OW 8194   4.063   6.763   2.629
 2432SOL    HW1 8195   4.057   6.729   2.723
 2432SOL    HW2 8196   4.159   6.777   2.604
 2433SOL     OW 8197   4.284   1.850   0.302
 2433SOL    HW1 8198   4.294   1.858   0.401
 2433SOL    HW2 8199   4.361   1.894   0.257
 2434SOL     OW 8200   4.138   1.535   6.075
 2434SOL    HW1 8201   4.231   1.533   6.037
 2434SOL    HW2 8202   4.084   1.461   6.035
 2435SOL     OW 8203   5.029   5.577   5.384
 2435SOL    HW1 8204   4.985   5.626   5.308
 2435SOL    HW2 8205   5.128   5.575   5.369
 2436SOL     OW 8206   1.357   5.646   6.365
 2436SOL    HW1 8207   1.387   5.639   6.270
 2436SOL    HW2 8208   1.429   5.611   6.426
 2437SOL     OW 8209   6.180   0.082   6.800
 2437SOL    HW1 8210   6.258   0.038   6.844
 2437SOL    HW2 8211   6.163   0.038   6.712
 2438SOL     OW 8212   3.193   2.231   0.440
 2438SOL    HW1 8213   3.122   2.296   0.468
 2438SOL    HW2 8214   3.211   2.242   0.342
 2439SOL     OW 8215   0.759   4.024   6.392
 2439SOL    HW1 8216   0.808   4.059   6.311
 2439SOL    HW2 8217   0.676   4.078   6.405
 2440SOL     OW 8218   4.797   5.832   6.000
 2440SOL    HW1 8219   4.783   5.921   6.045
 2440SOL    HW2 8220   4.715   5.806   5.950
 2441SOL     OW 8221   7.024   2.787   0.057
 2441SOL    HW1 8222   6.997   2.696   0.025
 2441SOL    HW2 8223   6.942   2.843   0.070
 2442SOL     OW 8224   1.087   3.791   5.701
 2442SOL    HW1 8225   1.153   3.867   5.704
 2442SOL    HW2 8226   1.073   3.763   5.606
 2443SOL     OW 8227   3.307   4.400   6.281
 2443SOL    HW1 8228   3.265   4.490   6.269
 2443SOL    HW2 8229   3.341   4.368   6.193
 2444SOL     OW 8230   2.869   4.883   6.493
 2444SOL    HW1 8231   2.954   4.876   6.440
 2444SOL    HW2 8232   2.793   4.852   6.436
 2445SOL     OW 8233   0.294   0.755   0.886
 2445SOL    HW1 8234   0.376   0.811   0.890
 2445SOL    HW2 8235   0.281   0.708   0.973
 2446SOL     OW 8236   6.358   4.186   4.292
 2446SOL    HW1 8237   6.299   4.231   4.226
 2446SOL    HW2 8238   6.359   4.238   4.378
 2447SOL     OW 8239   1.855   2.288   6.835
 2447SOL    HW1 8240   1.794   2.313   6.910
 2447SOL    HW2 8241   1.812   2.217   6.780
 2448SOL     OW 8242   0.398   0.488   4.279
 2448SOL    HW1 8243   0.363   0.525   4.193
 2448SOL    HW2 8244   0.496   0.505   4.285
 2449SOL     OW 8245   0.290   3.816   0.076
 2449SOL    HW1 8246   0.221   3.798   0.146
 2449SOL    HW2 8247   0.246   3.860   7.023
 2450SOL     OW 8248   2.596   4.662   2.804
 2450SOL    HW1 8249   2.514   4.715   2.785
 2450SOL    HW2 8250   2.616   4.601   2.727
 2451SOL     OW 8251   2.144   6.972   4.194
 2451SOL    HW1 8252   2.147   6.911   4.115
 2451SOL    HW2 8253   2.236   6.979   4.234
 2452SOL     OW 8254   1.322   3.809   2.781
 2452SOL    HW1 8255   1.356   3.717   2.760
 2452SOL    HW2 8256   1.224   3.804   2.803
 2453SOL     OW 8257   6.520   4.380   1.278
 2453SOL    HW1 8258   6.458   4.384   1.199
 2453SOL    HW2 8259   6.495   4.302   1.335
 2454SOL     OW 8260   3.509   0.642   2.463
 2454SOL    HW1 8261   3.444   0.691   2.405
 2454SOL    HW2 8262   3.602   0.676   2.444
 2455SOL     OW 8263   5.544   5.416   1.204
 2455SOL    HW1 8264   5.544   5.386   1.109
 2455SOL    HW2 8265   5.618   5.482   1.218
 2456SOL     OW 8266   5.001   6.587   1.778
 2456SOL    HW1 8267   5.092   6.627   1.784
 2456SOL    HW2 8268   5.003   6.508   1.716
 2457SOL     OW 8269   5.999   6.987   0.956
 2457SOL    HW1 8270   6.044   0.048   0.975
 2457SOL    HW2 8271   6.068   6.914   0.955
 2458SOL     OW 8272   2.108   6.105   3.271
 2458SOL    HW1 8273   2.098   6.202   3.295
 2458SOL    HW2 8274   2.203   6.086   3.247
 2459SOL     OW 8275   2.155   0.290   0.833
 2459SOL    HW1 8276   2.073   0.284   0.889
 2459SOL    HW2 8277   2.133   0.266   0.738
 2460SOL     OW 8278   2.683   6.140   2.160
 2460SOL    HW1 8279   2.614   6.176   2.097
 2460SOL    HW2 8280   2.762   6.106   2.109
 2461SOL     OW 8281   5.349   0.479   2.023
 2461SOL    HW1 8282   5.417   0.405   2.027
 2461SOL    HW2 8283   5.311   0.493   2.115
 2462SOL     OW 8284   2.229   5.240   6.853
 2462SOL    HW1 8285   2.246   5.141   6.856
 2462SOL    HW2 8286   2.316   5.289   6.852
 2463SOL     OW 8287   6.306   1.890   3.462
 2463SOL    HW1 8288   6.395   1.901   3.507
 2463SOL    HW2 8289   6.315   1.912   3.365
 2464SOL     OW 8290   1.354   3.298   1.219
 2464SOL    HW1 8291   1.345   3.361   1.296
 2464SOL    HW2 8292   1.338   3.205   1.250
 2465SOL     OW 8293   0.248   6.072   2.004
 2465SOL    HW1 8294   0.282   5.981   1.980
 2465SOL    HW2 8295   0.180   6.101   1.936
 2466SOL     OW 8296   4.069   1.843   2.594
 2466SOL    HW1 8297   4.094   1.819   2.500
 2466SOL    HW2 8298   4.129   1.916   2.627
 2467SOL     OW 8299   7.019   0.754   6.078
 2467SOL    HW1 8300   6.934   0.735   6.127
 2467SOL    HW2 8301   6.999   0.766   5.980
 2468SOL     OW 8302   6.666   6.054   1.446
 2468SOL    HW1 8303   6.719   6.124   1.399
 2468SOL    HW2 8304   6.668   5.969   1.393
 2469SOL     OW 8305   2.735   3.150   5.651
 2469SOL    HW1 8306   2.811   3.208   5.680
 2469SOL    HW2 8307   2.770   3.072   5.600
 2470SOL     OW 8308   4.229   3.735   6.650
 2470SOL    HW1 8309   4.224   3.638   6.625
 2470SOL    HW2 8310   4.317   3.773   6.620
 2471SOL     OW 8311   0.291   6.787   3.003
 2471SOL    HW1 8312   0.384   6.817   2.982
 2471SOL    HW2 8313   0.276   6.789   3.102
 2472SOL     OW 8314   5.560   2.549   4.504
 2472SOL    HW1 8315   5.633   2.500   4.551
 2472SOL    HW2 8316   5.599   2.624   4.451
 2473SOL     OW 8317   0.952   5.840   4.568
 2473SOL    HW1 8318   0.892   5.897   4.512
 2473SOL    HW2 8319   0.901   5.763   4.605
 2474SOL     OW 8320   6.766   4.705   5.077
 2474SOL    HW1 8321   6.673   4.741   5.085
 2474SOL    HW2 8322   6.831   4.779   5.092
 2475SOL     OW 8323   3.786   2.570   0.479
 2475SOL    HW1 8324   3.795   2.558   0.380
 2475SOL    HW2 8325   3.844   2.647   0.508
 2476SOL     OW 8326   0.968   1.789   3.462
 2476SOL    HW1 8327   0.903   1.837   3.403
 2476SOL    HW2 8328   0.920   1.752   3.541
 2477SOL     OW 8329   5.290   5.100   1.369
 2477SOL    HW1 8330   5.387   5.101   1.392
 2477SOL    HW2 8331   5.271   5.169   1.299
 2478SOL     OW 8332   5.769   6.664   2.617
 2478SOL    HW1 8333   5.858   6.707   2.602
 2478SOL    HW2 8334   5.699   6.714   2.567
 2479SOL     OW 8335   0.822   2.530   0.346
 2479SOL    HW1 8336   0.856   2.623   0.331
 2479SOL    HW2 8337   0.892   2.464   0.319
 2480SOL     OW 8338   0.909   3.635   1.094
 2480SOL    HW1 8339   0.859   3.684   1.166
 2480SOL    HW2 8340   0.890   3.537   1.100
 2481SOL     OW 8341   4.121   5.022   2.514
 2481SOL    HW1 8342   4.217   5.003   2.495
 2481SOL    HW2 8343   4.069   5.025   2.429
 2482SOL     OW 8344   5.065   2.729   4.766
 2482SOL    HW1 8345   5.058   2.642   4.717
 2482SOL    HW2 8346   5.024   2.801   4.711
 2483SOL     OW 8347   1.037   1.762   6.852
 2483SOL    HW1 8348   1.054   1.672   6.893
 2483SOL    HW2 8349   0.981   1.817   6.914
 2484SOL     OW 8350   3.029   1.484   0.109
 2484SOL    HW1 8351   3.043   1.554   0.179
 2484SOL    HW2 8352   3.012   1.396   0.154
 2485SOL     OW 8353   0.300   5.269   2.261
 2485SOL    HW1 8354   0.353   5.351   2.284
 2485SOL    HW2 8355   0.269   5.224   2.344
 2486SOL     OW 8356   1.562   5.509   2.892
 2486SOL    HW1 8357   1.532   5.565   2.969
 2486SOL    HW2 8358   1.661   5.518   2.881
 2487SOL     OW 8359   3.669   7.019   1.005
 2487SOL    HW1 8360   3.697   0.035   0.919
 2487SOL    HW2 8361   3.623   0.062   1.062
 2488SOL     OW 8362   2.911   5.393   1.233
 2488SOL    HW1 8363   2.921   5.483   1.275
 2488SOL    HW2 8364   2.936   5.398   1.137
 2489SOL     OW 8365   1.533   5.538   4.852
 2489SOL    HW1 8366   1.490   5.454   4.820
 2489SOL    HW2 8367   1.503   5.559   4.945
 2490SOL     OW 8368   5.902   3.491   1.375
 2490SOL    HW1 8369   5.939   3.400   1.395
 2490SOL    HW2 8370   5.972   3.560   1.393
 2491SOL     OW 8371   3.102   5.578   2.648
 2491SOL    HW1 8372   3.129   5.521   2.726
 2491SOL    HW2 8373   3.024   5.635   2.675
 2492SOL     OW 8374   4.998   3.205   6.633
 2492SOL    HW1 8375   5.029   3.114   6.659
 2492SOL    HW2 8376   5.071   3.271   6.650
 2493SOL     OW 8377   6.001   1.739   3.275
 2493SOL    HW1 8378   6.087   1.698   3.243
 2493SOL    HW2 8379   6.014   1.776   3.367
 2494SOL     OW 8380   4.809   2.910   2.570
 2494SOL    HW1 8381   4.779   2.933   2.662
 2494SOL    HW2 8382   4.769   2.823   2.542
 2495SOL     OW 8383   5.407   1.151   4.992
 2495SOL    HW1 8384   5.501   1.126   5.016
 2495SOL    HW2 8385   5.352   1.154   5.075
 2496SOL     OW 8386   1.245   6.482   0.332
 2496SOL    HW1 8387   1.237   6.433   0.244
 2496SOL    HW2 8388   1.156   6.484   0.377
 2497SOL     OW 8389   6.292   1.642   6.789
 2497SOL    HW1 8390   6.337   1.575   6.730
 2497SOL    HW2 8391   6.354   1.666   6.864
 2498SOL     OW 8392   1.903   3.076   4.940
 2498SOL    HW1 8393   1.951   3.079   5.027
 2498SOL    HW2 8394   1.804   3.071   4.957
 2499SOL     OW 8395   5.773   0.391   4.793
 2499SOL    HW1 8396   5.684   0.432   4.774
 2499SOL    HW2 8397   5.841   0.463   4.809
 2500SOL     OW 8398   4.866   2.871   7.017
 2500SOL    HW1 8399   4.789   2.891   0.052
 2500SOL    HW2 8400   4.895   2.776   0.006
 2501SOL     OW 8401   6.833   4.164   0.436
 2501SOL    HW1 8402   6.761   4.115   0.484
 2501SOL    HW2 8403   6.907   4.100   0.412
 2502SOL     OW 8404   2.555   6.883   3.151
 2502SOL    HW1 8405   2.550   6.902   3.053
 2502SOL    HW2 8406   2.613   6.802   3.167
 2503SOL     OW 8407   4.183   5.193   5.465
 2503SOL    HW1 8408   4.269   5.229   5.429
 2503SOL    HW2 8409   4.135   5.265   5.516
 2504SOL     OW 8410   1.661   4.653   3.994
 2504SOL    HW1 8411   1.656   4.553   3.990
 2504SOL    HW2 8412   1.579   4.689   4.038
 2505SOL     OW 8413   4.640   5.348   4.594
 2505SOL    HW1 8414   4.548   5.378   4.618
 2505SOL    HW2 8415   4.649   5.346   4.495
 2506SOL     OW 8416   6.806   2.398   6.571
 2506SOL    HW1 8417   6.784   2.323   6.508
 2506SOL    HW2 8418   6.725   2.421   6.625
 2507SOL     OW 8419   6.649   6.242   0.050
 2507SOL    HW1 8420   6.604   6.234   6.987
 2507SOL    HW2 8421   6.599   6.308   0.107
 2508SOL     OW 8422   2.784   2.192   2.412
 2508SOL    HW1 8423   2.737   2.279   2.400
 2508SOL    HW2 8424   2.860   2.185   2.347
 2509SOL     OW 8425   4.957   2.864   3.878
 2509SOL    HW1 8426   4.951   2.940   3.942
 2509SOL    HW2 8427   4.867   2.821   3.870
 2510SOL     OW 8428   4.013   5.488   0.313
 2510SOL    HW1 8429   4.098   5.457   0.271
 2510SOL    HW2 8430   4.000   5.440   0.400
 2511SOL     OW 8431   1.168   0.697   4.858
 2511SOL    HW1 8432   1.251   0.673   4.808
 2511SOL    HW2 8433   1.099   0.626   4.843
 2512SOL     OW 8434   5.387   3.442   5.201
 2512SOL    HW1 8435   5.385   3.366   5.136
 2512SOL    HW2 8436   5.305   3.440   5.258
 2513SOL     OW 8437   0.818   3.058   0.633
 2513SOL    HW1 8438   0.829   3.120   0.710
 2513SOL    HW2 8439   0.723   3.025   0.630
 2514SOL     OW 8440   1.184   0.547   3.477
 2514SOL    HW1 8441   1.276   0.532   3.512
 2514SOL    HW2 8442   1.117   0.513   3.543
 2515SOL     OW 8443   0.547   5.708   0.726
 2515SOL    HW1 8444   0.533   5.736   0.631
 2515SOL    HW2 8445   0.618   5.638   0.730
 2516SOL     OW 8446   5.382   6.249   3.466
 2516SOL    HW1 8447   5.303   6.214   3.517
 2516SOL    HW2 8448   5.369   6.346   3.448
 2517SOL     OW 8449   1.936   4.683   0.183
 2517SOL    HW1 8450   1.918   4.614   0.253
 2517SOL    HW2 8451   2.033   4.680   0.159
 2518SOL     OW 8452   2.617   2.725   6.736
 2518SOL    HW1 8453   2.561   2.765   6.663
 2518SOL    HW2 8454   2.563   2.655   6.784
 2519SOL     OW 8455   4.906   4.819   4.964
 2519SOL    HW1 8456   4.844   4.850   5.036
 2519SOL    HW2 8457   4.984   4.881   4.958
 2520SOL     OW 8458   2.389   4.356   1.884
 2520SOL    HW1 8459   2.451   4.338   1.808
 2520SOL    HW2 8460   2.399   4.284   1.952
 2521SOL     OW 8461   5.680   6.700   5.492
 2521SOL    HW1 8462   5.706   6.607   5.463
 2521SOL    HW2 8463   5.607   6.733   5.432
 2522SOL     OW 8464   0.912   3.298   4.713
 2522SOL    HW1 8465   0.965   3.214   4.723
 2522SOL    HW2 8466   0.818   3.282   4.742
 2523SOL     OW 8467   0.930   3.545   6.913
 2523SOL    HW1 8468   0.869   3.469   6.938
 2523SOL    HW2 8469   0.885   3.632   6.935
 2524SOL     OW 8470   1.367   6.411   4.256
 2524SOL    HW1 8471   1.429   6.338   4.285
 2524SOL    HW2 8472   1.306   6.376   4.185
 2525SOL     OW 8473   1.427   3.310   3.808
 2525SOL    HW1 8474   1.419   3.406   3.778
 2525SOL    HW2 8475   1.382   3.300   3.897
 2526SOL     OW 8476   6.558   1.723   4.597
 2526SOL    HW1 8477   6.578   1.717   4.499
 2526SOL    HW2 8478   6.529   1.816   4.620
 2527SOL     OW 8479   5.646   6.530   3.608
 2527SOL    HW1 8480   5.720   6.583   3.568
 2527SOL    HW2 8481   5.680   6.440   3.635
 2528SOL     OW 8482   6.562   5.683   6.936
 2528SOL    HW1 8483   6.514   5.689   7.023
 2528SOL    HW2 8484   6.603   5.593   6.926
 2529SOL     OW 8485   4.865   3.862   4.619
 2529SOL    HW1 8486   4.782   3.834   4.667
 2529SOL    HW2 8487   4.842   3.932   4.551
 2530SOL     OW 8488   0.560   0.543   3.956
 2530SOL    HW1 8489   0.584   0.448   3.971
 2530SOL    HW2 8490   0.596   0.573   3.867
 2531SOL     OW 8491   3.515   1.815   6.469
 2531SOL    HW1 8492   3.590   1.837   6.408
 2531SOL    HW2 8493   3.460   1.741   6.429
 2532SOL     OW 8494   1.363   4.691   6.658
 2532SOL    HW1 8495   1.263   4.693   6.655
 2532SOL    HW2 8496   1.393   4.685   6.753
 2533SOL     OW 8497   5.397   6.687   5.937
 2533SOL    HW1 8498   5.411   6.692   6.036
 2533SOL    HW2 8499   5.418   6.776   5.896
 2534SOL     OW 8500   1.040   1.067   3.643
 2534SOL    HW1 8501   1.019   1.050   3.740
 2534SOL    HW2 8502   0.974   1.131   3.605
 2535SOL     OW 8503   2.157   1.383   3.582
 2535SOL    HW1 8504   2.146   1.339   3.671
 2535SOL    HW2 8505   2.149   1.313   3.510
 2536SOL     OW 8506   5.933   0.902   3.997
 2536SOL    HW1 8507   5.912   0.854   3.911
 2536SOL    HW2 8508   5.853   0.955   4.026
 2537SOL     OW 8509   5.070   5.439   1.129
 2537SOL    HW1 8510   5.021   5.421   1.044
 2537SOL    HW2 8511   5.004   5.449   1.204
 2538SOL     OW 8512   2.305   4.771   4.611
 2538SOL    HW1 8513   2.261   4.861   4.609
 2538SOL    HW2 8514   2.313   4.736   4.518
 2539SOL     OW 8515   3.484   0.139   5.218
 2539SOL    HW1 8516   3.559   0.141   5.284
 2539SOL    HW2 8517   3.499   0.064   5.154
 2540SOL     OW 8518   5.667   2.025   2.434
 2540SOL    HW1 8519   5.625   1.942   2.471
 2540SOL    HW2 8520   5.622   2.105   2.473
 2541SOL     OW 8521   0.863   6.383   6.072
 2541SOL    HW1 8522   0.955   6.352   6.048
 2541SOL    HW2 8523   0.840   6.463   6.016
 2542SOL     OW 8524   3.449   1.832   4.579
 2542SOL    HW1 8525   3.363   1.795   4.615
 2542SOL    HW2 8526   3.519   1.829   4.650
 2543SOL     OW 8527   0.530   1.904   3.445
 2543SOL    HW1 8528   0.535   1.870   3.539
 2543SOL    HW2 8529   0.449   1.866   3.400
 2544SOL     OW 8530   6.750   5.132   1.434
 2544SOL    HW1 8531   6.839   5.121   1.479
 2544SOL    HW2 8532   6.677   5.118   1.500
 2545SOL     OW 8533   0.534   1.534   1.372
 2545SOL    HW1 8534   0.629   1.517   1.396
 2545SOL    HW2 8535   0.491   1.589   1.443
 2546SOL     OW 8536   0.209   4.074   2.330
 2546SOL    HW1 8537   0.121   4.059   2.285
 2546SOL    HW2 8538   0.200   4.058   2.428
 2547SOL     OW 8539   5.645   3.561   0.822
 2547SOL    HW1 8540   5.712   3.635   0.812
 2547SOL    HW2 8541   5.686   3.475   0.792
 2548SOL     OW 8542   6.971   6.983   5.136
 2548SOL    HW1 8543   6.988   6.904   5.078
 2548SOL    HW2 8544   0.030   0.009   5.148
 2549SOL     OW 8545   2.621   2.631   0.630
 2549SOL    HW1 8546   2.548   2.625   0.697
 2549SOL    HW2 8547   2.581   2.639   0.538
 2550SOL     OW 8548   4.255   6.993   6.045
 2550SOL    HW1 8549   4.247   6.895   6.060
 2550SOL    HW2 8550   4.239   7.013   5.948
 2551SOL     OW 8551   3.224   5.779   0.247
 2551SOL    HW1 8552   3.299   5.762   0.184
 2551SOL    HW2 8553   3.145   5.723   0.221
 2552SOL     OW 8554   2.278   6.214   0.843
 2552SOL    HW1 8555   2.267   6.272   0.924
 2552SOL    HW2 8556   2.303   6.121   0.872
 2553SOL     OW 8557   4.597   1.075   6.831
 2553SOL    HW1 8558   4.603   0.995   6.771
 2553SOL    HW2 8559   4.510   1.122   6.816
 2554SOL     OW 8560   1.205   5.677   1.516
 2554SOL    HW1 8561   1.180   5.733   1.595
 2554SOL    HW2 8562   1.254   5.733   1.450
 2555SOL     OW 8563   5.533   5.701   5.268
 2555SOL    HW1 8564   5.596   5.772   5.238
 2555SOL    HW2 8565   5.581   5.613   5.274
 2556SOL     OW 8566   3.990   7.024   1.367
 2556SOL    HW1 8567   3.943   0.054   1.299
 2556SOL    HW2 8568   3.926   6.960   1.408
 2557SOL     OW 8569   3.570   0.117   6.879
 2557SOL    HW1 8570   3.494   0.133   6.817
 2557SOL    HW2 8571   3.611   0.204   6.905
 2558SOL     OW 8572   5.989   3.850   6.334
 2558SOL    HW1 8573   5.965   3.927   6.274
 2558SOL    HW2 8574   5.915   3.832   6.398
 2559SOL     OW 8575   0.799   4.549   4.323
 2559SOL    HW1 8576   0.855   4.552   4.405
 2559SOL    HW2 8577   0.714   4.600   4.339
 2560SOL     OW 8578   4.847   1.809   3.372
 2560SOL    HW1 8579   4.866   1.870   3.449
 2560SOL    HW2 8580   4.932   1.785   3.326
 2561SOL     OW 8581   3.601   0.791   4.304
 2561SOL    HW1 8582   3.692   0.825   4.282
 2561SOL    HW2 8583   3.605   0.737   4.388
 2562SOL     OW 8584   3.326   0.063   3.308
 2562SOL    HW1 8585   3.294   0.075   3.402
 2562SOL    HW2 8586   3.282   0.130   3.249
 2563SOL     OW 8587   3.666   1.368   0.077
 2563SOL    HW1 8588   3.638   1.298   0.143
 2563SOL    HW2 8589   3.618   1.354   7.016
 2564SOL     OW 8590   1.536   1.287   0.611
 2564SOL    HW1 8591   1.445   1.252   0.631
 2564SOL    HW2 8592   1.572   1.242   0.529
 2565SOL     OW 8593   1.496   2.204   6.876
 2565SOL    HW1 8594   1.406   2.167   6.897
 2565SOL    HW2 8595   1.491   2.260   6.793
 2566SOL     OW 8596   2.285   0.966   0.994
 2566SOL    HW1 8597   2.277   1.029   0.917
 2566SOL    HW2 8598   2.380   0.936   1.003
 2567SOL     OW 8599   1.564   0.589   0.512
 2567SOL    HW1 8600   1.479   0.581   0.563
 2567SOL    HW2 8601   1.583   0.502   0.465
 2568SOL     OW 8602   2.876   6.314   1.332
 2568SOL    HW1 8603   2.887   6.321   1.233
 2568SOL    HW2 8604   2.931   6.237   1.366
 2569SOL     OW 8605   0.841   0.424   1.371
 2569SOL    HW1 8606   0.914   0.366   1.407
 2569SOL    HW2 8607   0.805   0.482   1.444
 2570SOL     OW 8608   5.416   6.707   6.202
 2570SOL    HW1 8609   5.461   6.783   6.248
 2570SOL    HW2 8610   5.334   6.680   6.254
 2571SOL     OW 8611   3.440   3.114   4.722
 2571SOL    HW1 8612   3.503   3.047   4.763
 2571SOL    HW2 8613   3.362   3.127   4.782
 2572SOL     OW 8614   1.866   6.437   1.835
 2572SOL    HW1 8615   1.822   6.405   1.751
 2572SOL    HW2 8616   1.855   6.368   1.907
 2573SOL     OW 8617   6.958   2.408   4.421
 2573SOL    HW1 8618   7.006   2.469   4.358
 2573SOL    HW2 8619   6.976   2.313   4.396
 2574SOL     OW 8620   1.004   3.932   1.501
 2574SOL    HW1 8621   0.926   3.991   1.478
 2574SOL    HW2 8622   0.970   3.844   1.536
 2575SOL     OW 8623   6.175   3.699   0.410
 2575SOL    HW1 8624   6.198   3.747   0.495
 2575SOL    HW2 8625   6.223   3.741   0.333
 2576SOL     OW 8626   2.064   6.765   3.181
 2576SOL    HW1 8627   2.060   6.841   3.117
 2576SOL    HW2 8628   2.034   6.681   3.135
 2577SOL     OW 8629   2.440   5.949   2.556
 2577SOL    HW1 8630   2.343   5.950   2.578
 2577SOL    HW2 8631   2.482   5.867   2.594
 2578SOL     OW 8632   5.209   2.795   4.468
 2578SOL    HW1 8633   5.198   2.703   4.504
 2578SOL    HW2 8634   5.266   2.848   4.530
 2579SOL     OW 8635   0.128   2.735   6.819
 2579SOL    HW1 8636   0.101   2.803   6.750
 2579SOL    HW2 8637   0.046   2.702   6.866
 2580SOL     OW 8638   1.726   2.656   6.535
 2580SOL    HW1 8639   1.631   2.681   6.520
 2580SOL    HW2 8640   1.761   2.703   6.616
 2581SOL     OW 8641   6.450   6.684   3.029
 2581SOL    HW1 8642   6.372   6.638   3.072
 2581SOL    HW2 8643   6.504   6.729   3.100
 2582SOL     OW 8644   0.821   5.356   2.086
 2582SOL    HW1 8645   0.762   5.368   2.007
 2582SOL    HW2 8646   0.815   5.437   2.145
 2583SOL     OW 8647   1.275   0.122   0.278
 2583SOL    HW1 8648   1.237   0.215   0.283
 2583SOL    HW2 8649   1.297   0.091   0.371
 2584SOL     OW 8650   3.885   6.242   1.368
 2584SOL    HW1 8651   3.815   6.183   1.407
 2584SOL    HW2 8652   3.924   6.300   1.439
 2585SOL     OW 8653   3.556   0.207   1.115
 2585SOL    HW1 8654   3.537   0.237   1.208
 2585SOL    HW2 8655   3.544   0.284   1.052
 2586SOL     OW 8656   6.363   2.086   3.836
 2586SOL    HW1 8657   6.273   2.058   3.803
 2586SOL    HW2 8658   6.409   2.007   3.877
 2587SOL     OW 8659   5.771   6.270   3.665
 2587SOL    HW1 8660   5.702   6.199   3.656
 2587SOL    HW2 8661   5.808   6.293   3.575
 2588SOL     OW 8662   5.374   0.810   1.356
 2588SOL    HW1 8663   5.439   0.766   1.418
 2588SOL    HW2 8664   5.419   0.884   1.306
 2589SOL     OW 8665   6.526   6.106   6.120
 2589SOL    HW1 8666   6.437   6.125   6.080
 2589SOL    HW2 8667   6.524   6.123   6.218
 2590SOL     OW 8668   4.512   0.038   2.600
 2590SOL    HW1 8669   4.516   6.998   2.675
 2590SOL    HW2 8670   4.472   0.124   2.634
 2591SOL     OW 8671   5.282   6.590   1.530
 2591SOL    HW1 8672   5.249   6.684   1.540
 2591SOL    HW2 8673   5.204   6.528   1.523
 2592SOL     OW 8674   3.729   5.482   2.071
 2592SOL    HW1 8675   3.723   5.535   2.156
 2592SOL    HW2 8676   3.639   5.476   2.029
 2593SOL     OW 8677   2.890   6.445   2.623
 2593SOL    HW1 8678   2.913   6.400   2.537
 2593SOL    HW2 8679   2.802   6.413   2.656
 2594SOL     OW 8680   0.534   6.636   6.421
 2594SOL    HW1 8681   0.443   6.603   6.395
 2594SOL    HW2 8682   0.584   6.562   6.467
 2595SOL     OW 8683   6.106   3.637   4.503
 2595SOL    HW1 8684   6.184   3.589   4.462
 2595SOL    HW2 8685   6.028   3.575   4.509
 2596SOL     OW 8686   3.985   2.177   1.918
 2596SOL    HW1 8687   4.027   2.220   1.998
 2596SOL    HW2 8688   3.886   2.174   1.931
 2597SOL     OW 8689   2.301   3.741   0.649
 2597SOL    HW1 8690   2.359   3.809   0.603
 2597SOL    HW2 8691   2.208   3.778   0.658
 2598SOL     OW 8692   6.658   3.210   3.383
 2598SOL    HW1 8693   6.685   3.115   3.362
 2598SOL    HW2 8694   6.634   3.217   3.479
 2599SOL     OW 8695   3.566   5.504   0.072
 2599SOL    HW1 8696   3.655   5.529   0.033
 2599SOL    HW2 8697   3.571   5.506   0.172
 2600SOL     OW 8698   5.809   3.491   3.261
 2600SOL    HW1 8699   5.735   3.424   3.256
 2600SOL    HW2 8700   5.897   3.444   3.251
 2601SOL     OW 8701   3.581   3.417   6.186
 2601SOL    HW1 8702   3.584   3.485   6.259
 2601SOL    HW2 8703   3.628   3.453   6.105
 2602SOL     OW 8704   6.380   5.222   3.860
 2602SOL    HW1 8705   6.333   5.183   3.939
 2602SOL    HW2 8706   6.424   5.308   3.886
 2603SOL     OW 8707   2.777   2.090   1.288
 2603SOL    HW1 8708   2.871   2.057   1.296
 2603SOL    HW2 8709   2.769   2.150   1.209
 2604SOL     OW 8710   5.600   0.405   1.189
 2604SOL    HW1 8711   5.564   0.313   1.173
 2604SOL    HW2 8712   5.606   0.422   1.287
 2605SOL     OW 8713   4.427   4.879   4.940
 2605SOL    HW1 8714   4.493   4.809   4.966
 2605SOL    HW2 8715   4.368   4.845   4.867
 2606SOL     OW 8716   7.023   4.264   0.614
 2606SOL    HW1 8717   6.947   4.229   0.560
 2606SOL    HW2 8718   0.072   4.198   0.615
 2607SOL     OW 8719   0.690   0.271   3.557
 2607SOL    HW1 8720   0.733   0.353   3.519
 2607SOL    HW2 8721   0.606   0.251   3.506
 2608SOL     OW 8722   4.783   0.930   1.125
 2608SOL    HW1 8723   4.741   1.009   1.080
 2608SOL    HW2 8724   4.715   0.885   1.183
 2609SOL     OW 8725   0.986   2.094   2.429
 2609SOL    HW1 8726   0.984   2.015   2.367
 2609SOL    HW2 8727   0.924   2.165   2.396
 2610SOL     OW 8728   6.123   5.951   4.743
 2610SOL    HW1 8729   6.076   5.910   4.666
 2610SOL    HW2 8730   6.221   5.954   4.725
 2611SOL     OW 8731   4.849   6.627   1.430
 2611SOL    HW1 8732   4.863   6.712   1.480
 2611SOL    HW2 8733   4.919   6.560   1.457
 2612SOL     OW 8734   5.545   6.606   3.147
 2612SOL    HW1 8735   5.540   6.609   3.048
 2612SOL    HW2 8736   5.543   6.511   3.178
 2613SOL     OW 8737   3.729   0.234   2.110
 2613SOL    HW1 8738   3.792   0.223   2.186
 2613SOL    HW2 8739   3.636   0.212   2.139
 2614SOL     OW 8740   6.674   6.766   6.090
 2614SOL    HW1 8741   6.773   6.770   6.089
 2614SOL    HW2 8742   6.637   6.853   6.123
 2615SOL     OW 8743   4.760   5.414   2.511
 2615SOL    HW1 8744   4.750   5.337   2.449
 2615SOL    HW2 8745   4.764   5.499   2.458
 2616SOL     OW 8746   3.899   3.025   2.955
 2616SOL    HW1 8747   3.983   3.055   3.001
 2616SOL    HW2 8748   3.820   3.050   3.012
 2617SOL     OW 8749   3.550   6.440   1.380
 2617SOL    HW1 8750   3.554   6.438   1.480
 2617SOL    HW2 8751   3.562   6.347   1.344
 2618SOL     OW 8752   0.381   0.246   0.742
 2618SOL    HW1 8753   0.364   0.260   0.840
 2618SOL    HW2 8754   0.384   0.335   0.696
 2619SOL     OW 8755   4.514   1.932   2.148
 2619SOL    HW1 8756   4.418   1.961   2.147
 2619SOL    HW2 8757   4.522   1.845   2.197
 2620SOL     OW 8758   0.804   4.901   3.561
 2620SOL    HW1 8759   0.770   4.991   3.587
 2620SOL    HW2 8760   0.902   4.906   3.540
 2621SOL     OW 8761   0.685   5.442   3.596
 2621SOL    HW1 8762   0.688   5.517   3.530
 2621SOL    HW2 8763   0.637   5.472   3.678
 2622SOL     OW 8764   2.737   2.924   6.959
 2622SOL    HW1 8765   2.688   2.935   6.873
 2622SOL    HW2 8766   2.693   2.854   7.015
 2623SOL     OW 8767   3.652   1.064   5.574
 2623SOL    HW1 8768   3.666   0.987   5.513
 2623SOL    HW2 8769   3.594   1.133   5.529
 2624SOL     OW 8770   5.902   2.588   3.391
 2624SOL    HW1 8771   5.997   2.602   3.417
 2624SOL    HW2 8772   5.846   2.663   3.425
 2625SOL     OW 8773   2.617   2.469   5.824
 2625SOL    HW1 8774   2.699   2.480   5.880
 2625SOL    HW2 8775   2.641   2.471   5.727
 2626SOL     OW 8776   1.965   6.521   3.119
 2626SOL    HW1 8777   1.893   6.501   3.052
 2626SOL    HW2 8778   1.925   6.555   3.204
 2627SOL     OW 8779   6.833   0.028   4.412
 2627SOL    HW1 8780   6.847   6.997   4.493
 2627SOL    HW2 8781   6.899   0.003   4.341
 2628SOL     OW 8782   4.016   6.173   6.867
 2628SOL    HW1 8783   3.965   6.101   6.820
 2628SOL    HW2 8784   4.065   6.134   6.945
 2629SOL     OW 8785   3.978   4.199   1.210
 2629SOL    HW1 8786   3.956   4.126   1.276
 2629SOL    HW2 8787   4.003   4.158   1.123
 2630SOL     OW 8788   3.396   2.042   2.486
 2630SOL    HW1 8789   3.318   2.075   2.433
 2630SOL    HW2 8790   3.478   2.094   2.460
 2631SOL     OW 8791   4.359   6.552   3.863
 2631SOL    HW1 8792   4.375   6.643   3.901
 2631SOL    HW2 8793   4.409   6.484   3.918
 2632SOL     OW 8794   3.356   2.139   0.242
 2632SOL    HW1 8795   3.398   2.101   0.159
 2632SOL    HW2 8796   3.422   2.136   0.317
 2633SOL     OW 8797   5.997   2.409   6.644
 2633SOL    HW1 8798   5.901   2.425   6.619
 2633SOL    HW2 8799   6.005   2.322   6.692
 2634SOL     OW 8800   1.954   4.413   1.351
 2634SOL    HW1 8801   1.992   4.410   1.443
 2634SOL    HW2 8802   1.942   4.320   1.317
 2635SOL     OW 8803   5.550   4.489   5.078
 2635SOL    HW1 8804   5.586   4.546   5.004
 2635SOL    HW2 8805   5.531   4.397   5.044
 2636SOL     OW 8806   4.744   0.474   5.776
 2636SOL    HW1 8807   4.799   0.554   5.797
 2636SOL    HW2 8808   4.802   0.403   5.737
 2637SOL     OW 8809   5.491   6.326   3.156
 2637SOL    HW1 8810   5.573   6.289   3.110
 2637SOL    HW2 8811   5.419   6.257   3.155
 2638SOL     OW 8812   5.772   5.952   0.719
 2638SOL    HW1 8813   5.753   6.006   0.637
 2638SOL    HW2 8814   5.748   5.857   0.703
 2639SOL     OW 8815   6.285   6.491   1.153
 2639SOL    HW1 8816   6.367   6.443   1.122
 2639SOL    HW2 8817   6.283   6.494   1.253
 2640SOL     OW 8818   6.738   6.218   5.303
 2640SOL    HW1 8819   6.651   6.181   5.337
 2640SOL    HW2 8820   6.741   6.208   5.204
 2641SOL     OW 8821   5.115   3.739   6.388
 2641SOL    HW1 8822   5.056   3.759   6.466
 2641SOL    HW2 8823   5.179   3.666   6.412
 2642SOL     OW 8824   5.053   0.445   3.749
 2642SOL    HW1 8825   5.002   0.368   3.787
 2642SOL    HW2 8826   5.011   0.473   3.662
 2643SOL     OW 8827   6.964   6.815   3.201
 2643SOL    HW1 8828   6.960   6.881   3.277
 2643SOL    HW2 8829   7.004   6.859   3.121
 2644SOL     OW 8830   0.439   4.829   5.917
 2644SOL    HW1 8831   0.497   4.829   5.836
 2644SOL    HW2 8832   0.352   4.873   5.896
 2645SOL     OW 8833   5.400   6.219   6.008
 2645SOL    HW1 8834   5.495   6.217   6.038
 2645SOL    HW2 8835   5.379   6.308   5.969
 2646SOL     OW 8836   0.096   0.173   6.454
 2646SOL    HW1 8837   0.185   0.150   6.493
 2646SOL    HW2 8838   0.099   0.265   6.416
 2647SOL     OW 8839   4.338   1.787   1.127
 2647SOL    HW1 8840   4.275   1.812   1.053
 2647SOL    HW2 8841   4.287   1.776   1.212
 2648SOL     OW 8842   5.733   0.025   2.129
 2648SOL    HW1 8843   5.730   0.123   2.149
 2648SOL    HW2 8844   5.759   7.001   2.212
 2649SOL     OW 8845   3.245   1.752   6.211
 2649SOL    HW1 8846   3.306   1.722   6.284
 2649SOL    HW2 8847   3.248   1.851   6.203
 2650SOL     OW 8848   0.396   5.292   3.267
 2650SOL    HW1 8849   0.297   5.276   3.275
 2650SOL    HW2 8850   0.412   5.390   3.255
 2651SOL     OW 8851   6.904   1.441   1.873
 2651SOL    HW1 8852   6.935   1.531   1.903
 2651SOL    HW2 8853   6.941   1.371   1.934
 2652SOL     OW 8854   2.968   3.177   3.286
 2652SOL    HW1 8855   3.020   3.240   3.343
 2652SOL    HW2 8856   2.874   3.170   3.320
 2653SOL     OW 8857   5.763   6.671   6.345
 2653SOL    HW1 8858   5.730   6.580   6.372
 2653SOL    HW2 8859   5.838   6.698   6.406
 2654SOL     OW 8860   4.752   2.459   5.794
 2654SOL    HW1 8861   4.772   2.371   5.837
 2654SOL    HW2 8862   4.776   2.456   5.697
 2655SOL     OW 8863   4.574   6.149   4.567
 2655SOL    HW1 8864   4.526   6.072   4.608
 2655SOL    HW2 8865   4.673   6.135   4.576
 2656SOL     OW 8866   5.490   3.522   3.432
 2656SOL    HW1 8867   5.520   3.445   3.376
 2656SOL    HW2 8868   5.545   3.602   3.411
 2657SOL     OW 8869   1.999   4.419   6.848
 2657SOL    HW1 8870   1.972   4.401   6.943
 2657SOL    HW2 8871   2.053   4.343   6.813
 2658SOL     OW 8872   6.322   4.644   5.750
 2658SOL    HW1 8873   6.391   4.596   5.695
 2658SOL    HW2 8874   6.335   4.743   5.740
 2659SOL     OW 8875   6.894   2.779   4.645
 2659SOL    HW1 8876   6.829   2.759   4.719
 2659SOL    HW2 8877   6.854   2.753   4.557
 2660SOL     OW 8878   6.381   1.960   2.592
 2660SOL    HW1 8879   6.364   1.946   2.689
 2660SOL    HW2 8880   6.310   2.019   2.554
 2661SOL     OW 8881   3.964   5.925   1.176
 2661SOL    HW1 8882   4.034   5.995   1.189
 2661SOL    HW2 8883   3.948   5.911   1.079
 2662SOL     OW 8884   4.000   6.967   4.584
 2662SOL    HW1 8885   4.009   6.926   4.493
 2662SOL    HW2 8886   4.090   6.997   4.616
 2663SOL     OW 8887   2.107   4.813   2.283
 2663SOL    HW1 8888   2.044   4.796   2.359
 2663SOL    HW2 8889   2.163   4.893   2.304
 2664SOL     OW 8890   3.999   3.858   2.928
 2664SOL    HW1 8891   3.997   3.855   3.028
 2664SOL    HW2 8892   4.030   3.770   2.892
 2665SOL     OW 8893   3.478   1.160   5.377
 2665SOL    HW1 8894   3.544   1.217   5.328
 2665SOL    HW2 8895   3.400   1.142   5.317
 2666SOL     OW 8896   5.091   4.029   1.097
 2666SOL    HW1 8897   5.097   4.128   1.113
 2666SOL    HW2 8898   5.060   3.984   1.181
 2667SOL     OW 8899   1.863   6.171   4.867
 2667SOL    HW1 8900   1.918   6.201   4.789
 2667SOL    HW2 8901   1.797   6.103   4.837
 2668SOL     OW 8902   6.683   3.307   5.257
 2668SOL    HW1 8903   6.711   3.221   5.299
 2668SOL    HW2 8904   6.597   3.293   5.207
 2669SOL     OW 8905   4.118   5.594   5.772
 2669SOL    HW1 8906   4.200   5.573   5.718
 2669SOL    HW2 8907   4.062   5.660   5.724
 2670SOL     OW 8908   0.781   1.009   7.017
 2670SOL    HW1 8909   0.708   1.059   6.970
 2670SOL    HW2 8910   0.815   0.936   6.958
 2671SOL     OW 8911   2.481   3.557   6.423
 2671SOL    HW1 8912   2.395   3.552   6.373
 2671SOL    HW2 8913   2.546   3.491   6.385
 2672SOL     OW 8914   2.160   5.529   0.150
 2672SOL    HW1 8915   2.119   5.485   0.070
 2672SOL    HW2 8916   2.170   5.627   0.133
 2673SOL     OW 8917   3.791   2.138   3.129
 2673SOL    HW1 8918   3.743   2.137   3.041
 2673SOL    HW2 8919   3.881   2.180   3.117
 2674SOL     OW 8920   0.167   5.568   4.409
 2674SOL    HW1 8921   0.116   5.654   4.411
 2674SOL    HW2 8922   0.110   5.494   4.445
 2675SOL     OW 8923   0.312   4.547   5.617
 2675SOL    HW1 8924   0.297   4.641   5.649
 2675SOL    HW2 8925   0.364   4.497   5.686
 2676SOL     OW 8926   4.963   1.597   1.715
 2676SOL    HW1 8927   5.035   1.531   1.694
 2676SOL    HW2 8928   4.940   1.592   1.812
 2677SOL     OW 8929   1.774   4.630   1.519
 2677SOL    HW1 8930   1.853   4.615   1.459
 2677SOL    HW2 8931   1.800   4.693   1.592
 2678SOL     OW 8932   1.023   5.051   6.118
 2678SOL    HW1 8933   0.981   5.142   6.121
 2678SOL    HW2 8934   1.094   5.046   6.188
 2679SOL     OW 8935   3.264   5.338   0.847
 2679SOL    HW1 8936   3.205   5.296   0.778
 2679SOL    HW2 8937   3.351   5.288   0.851
 2680SOL     OW 8938   2.209   1.555   0.964
 2680SOL    HW1 8939   2.295   1.542   1.014
 2680SOL    HW2 8940   2.144   1.605   1.021
 2681SOL     OW 8941   1.272   2.827   4.003
 2681SOL    HW1 8942   1.307   2.799   3.914
 2681SOL    HW2 8943   1.273   2.926   4.010
 2682SOL     OW 8944   5.160   3.129   2.481
 2682SOL    HW1 8945   5.164   3.219   2.437
 2682SOL    HW2 8946   5.222   3.066   2.435
 2683SOL     OW 8947   0.637   5.647   1.172
 2683SOL    HW1 8948   0.658   5.621   1.266
 2683SOL    HW2 8949   0.721   5.677   1.126
 2684SOL     OW 8950   2.920   6.706   2.716
 2684SOL    HW1 8951   2.932   6.610   2.691
 2684SOL    HW2 8952   2.906   6.713   2.815
 2685SOL     OW 8953   4.985   5.929   4.964
 2685SOL    HW1 8954   4.926   6.006   4.991
 2685SOL    HW2 8955   5.003   5.934   4.865
 2686SOL     OW 8956   2.176   3.024   4.103
 2686SOL    HW1 8957   2.209   2.965   4.177
 2686SOL    HW2 8958   2.203   2.985   4.015
 2687SOL     OW 8959   3.737   5.264   2.385
 2687SOL    HW1 8960   3.782   5.352   2.401
 2687SOL    HW2 8961   3.805   5.192   2.382
 2688SOL     OW 8962   4.635   4.734   6.422
 2688SOL    HW1 8963   4.639   4.805   6.352
 2688SOL    HW2 8964   4.637   4.776   6.512
 2689SOL     OW 8965   0.760   2.264   3.567
 2689SOL    HW1 8966   0.665   2.235   3.570
 2689SOL    HW2 8967   0.777   2.331   3.639
 2690SOL     OW 8968   4.077   3.330   3.895
 2690SOL    HW1 8969   4.069   3.419   3.940
 2690SOL    HW2 8970   4.170   3.295   3.907
 2691SOL     OW 8971   1.680   5.623   2.286
 2691SOL    HW1 8972   1.666   5.720   2.265
 2691SOL    HW2 8973   1.591   5.576   2.283
 2692SOL     OW 8974   0.273   5.781   3.434
 2692SOL    HW1 8975   0.250   5.687   3.463
 2692SOL    HW2 8976   0.355   5.812   3.482
 2693SOL     OW 8977   2.048   3.802   3.868
 2693SOL    HW1 8978   2.066   3.711   3.904
 2693SOL    HW2 8979   1.965   3.801   3.813
 2694SOL     OW 8980   2.776   6.685   3.138
 2694SOL    HW1 8981   2.855   6.738   3.169
 2694SOL    HW2 8982   2.806   6.615   3.073
 2695SOL     OW 8983   4.846   2.135   2.374
 2695SOL    HW1 8984   4.798   2.172   2.294
 2695SOL    HW2 8985   4.859   2.208   2.441
 2696SOL     OW 8986   4.084   3.922   5.713
 2696SOL    HW1 8987   4.087   3.970   5.626
 2696SOL    HW2 8988   4.175   3.888   5.736
 2697SOL     OW 8989   3.477   1.773   4.021
 2697SOL    HW1 8990   3.471   1.822   4.108
 2697SOL    HW2 8991   3.386   1.765   3.981
 2698SOL     OW 8992   0.719   4.132   0.462
 2698SOL    HW1 8993   0.620   4.138   0.451
 2698SOL    HW2 8994   0.745   4.037   0.475
 2699SOL     OW 8995   3.875   5.694   1.652
 2699SOL    HW1 8996   3.884   5.678   1.750
 2699SOL    HW2 8997   3.917   5.619   1.601
 2700SOL     OW 8998   1.803   3.422   2.747
 2700SOL    HW1 8999   1.816   3.323   2.748
 2700SOL    HW2 9000   1.892   3.467   2.748
 2701SOL     OW 9001   3.878   0.140   6.491
 2701SOL    HW1 9002   3.862   0.077   6.567
 2701SOL    HW2 9003   3.871   0.091   6.405
 2702SOL     OW 9004   6.971   1.442   3.186
 2702SOL    HW1 9005   6.903   1.446   3.113
 2702SOL    HW2 9006   6.926   1.417   3.272
 2703SOL     OW 9007   2.071   1.794   2.499
 2703SOL    HW1 9008   2.170   1.793   2.509
 2703SOL    HW2 9009   2.037   1.888   2.508
 2704SOL     OW 9010   2.857   5.093   1.889
 2704SOL    HW1 9011   2.790   5.104   1.816
 2704SOL    HW2 9012   2.938   5.149   1.869
 2705SOL     OW 9013   5.959   5.938   3.815
 2705SOL    HW1 9014   5.871   5.923   3.861
 2705SOL    HW2 9015   6.033   5.934   3.882
 2706SOL     OW 9016   6.734   1.503   2.340
 2706SOL    HW1 9017   6.821   1.534   2.378
 2706SOL    HW2 9018   6.686   1.582   2.300
 2707SOL     OW 9019   1.732   1.915   6.801
 2707SOL    HW1 9020   1.684   1.828   6.793
 2707SOL    HW2 9021   1.698   1.964   6.882
 2708SOL     OW 9022   1.883   2.585   1.988
 2708SOL    HW1 9023   1.921   2.495   2.007
 2708SOL    HW2 9024   1.923   2.652   2.050
 2709SOL     OW 9025   5.451   5.943   0.822
 2709SOL    HW1 9026   5.389   5.999   0.876
 2709SOL    HW2 9027   5.526   5.910   0.879
 2710SOL     OW 9028   0.074   3.820   2.562
 2710SOL    HW1 9029   0.066   3.729   2.521
 2710SOL    HW2 9030   7.012   3.868   2.553
 2711SOL     OW 9031   1.100   0.528   1.810
 2711SOL    HW1 9032   1.084   0.498   1.716
 2711SOL    HW2 9033   1.164   0.605   1.809
 2712SOL     OW 9034   2.462   4.716   0.687
 2712SOL    HW1 9035   2.366   4.739   0.698
 2712SOL    HW2 9036   2.504   4.703   0.777
 2713SOL     OW 9037   2.348   3.268   5.269
 2713SOL    HW1 9038   2.375   3.184   5.223
 2713SOL    HW2 9039   2.361   3.258   5.368
 2714SOL     OW 9040   4.998   0.886   5.928
 2714SOL    HW1 9041   5.093   0.914   5.941
 2714SOL    HW2 9042   4.966   0.837   6.009
 2715SOL     OW 9043   5.767   1.330   6.575
 2715SOL    HW1 9044   5.688   1.277   6.545
 2715SOL    HW2 9045   5.794   1.300   6.667
 2716SOL     OW 9046   6.712   5.822   2.345
 2716SOL    HW1 9047   6.719   5.806   2.443
 2716SOL    HW2 9048   6.803   5.834   2.306
 2717SOL     OW 9049   0.736   6.890   3.068
 2717SOL    HW1 9050   0.702   6.816   3.127
 2717SOL    HW2 9051   0.836   6.890   3.071
 2718SOL     OW 9052   2.001   4.269   4.116
 2718SOL    HW1 9053   2.083   4.288   4.063
 2718SOL    HW2 9054   1.956   4.187   4.081
 2719SOL     OW 9055   4.178   5.288   2.232
 2719SOL    HW1 9056   4.252   5.301   2.165
 2719SOL    HW2 9057   4.203   5.333   2.318
 2720SOL     OW 9058   1.902   6.664   3.965
 2720SOL    HW1 9059   1.973   6.734   3.960
 2720SOL    HW2 9060   1.823   6.701   4.014
 2721SOL     OW 9061   3.152   6.900   4.426
 2721SOL    HW1 9062   3.182   6.825   4.368
 2721SOL    HW2 9063   3.063   6.933   4.394
 2722SOL     OW 9064   0.503   6.023   3.227
 2722SOL    HW1 9065   0.406   6.019   3.251
 2722SOL    HW2 9066   0.513   6.019   3.128
 2723SOL     OW 9067   2.138   1.196   5.616
 2723SOL    HW1 9068   2.204   1.129   5.650
 2723SOL    HW2 9069   2.123   1.182   5.518
 2724SOL     OW 9070   4.137   5.768   6.632
 2724SOL    HW1 9071   4.135   5.867   6.650
 2724SOL    HW2 9072   4.139   5.719   6.719
 2725SOL     OW 9073   4.230   4.697   3.784
 2725SOL    HW1 9074   4.215   4.735   3.692
 2725SOL    HW2 9075   4.176   4.749   3.850
 2726SOL     OW 9076   5.029   4.933   1.724
 2726SOL    HW1 9077   5.033   5.033   1.717
 2726SOL    HW2 9078   4.934   4.903   1.711
 2727SOL     OW 9079   1.012   4.775   2.618
 2727SOL    HW1 9080   0.919   4.738   2.619
 2727SOL    HW2 9081   1.020   4.843   2.546
 2728SOL     OW 9082   2.551   6.784   5.540
 2728SOL    HW1 9083   2.600   6.870   5.523
 2728SOL    HW2 9084   2.545   6.732   5.455
 2729SOL     OW 9085   5.910   4.740   3.197
 2729SOL    HW1 9086   5.957   4.656   3.169
 2729SOL    HW2 9087   5.867   4.782   3.117
 2730SOL     OW 9088   1.910   0.353   0.630
 2730SOL    HW1 9089   1.858   0.435   0.652
 2730SOL    HW2 9090   1.894   0.283   0.701
 2731SOL     OW 9091   2.936   3.788   1.861
 2731SOL    HW1 9092   3.001   3.864   1.873
 2731SOL    HW2 9093   2.980   3.703   1.888
 2732SOL     OW 9094   5.365   2.682   2.723
 2732SOL    HW1 9095   5.441   2.746   2.732
 2732SOL    HW2 9096   5.350   2.634   2.810
 2733SOL     OW 9097   0.936   6.480   5.413
 2733SOL    HW1 9098   0.973   6.507   5.502
 2733SOL    HW2 9099   0.985   6.528   5.340
 2734SOL     OW 9100   1.906   6.698   3.663
 2734SOL    HW1 9101   1.992   6.678   3.616
 2734SOL    HW2 9102   1.909   6.660   3.756
 2735SOL     OW 9103   1.442   4.947   2.331
 2735SOL    HW1 9104   1.423   4.849   2.332
 2735SOL    HW2 9105   1.540   4.962   2.345
 2736SOL     OW 9106   3.966   0.399   4.880
 2736SOL    HW1 9107   3.966   0.379   4.782
 2736SOL    HW2 9108   3.877   0.438   4.905
 2737SOL     OW 9109   4.580   3.970   6.277
 2737SOL    HW1 9110   4.679   3.975   6.292
 2737SOL    HW2 9111   4.533   4.000   6.360
 2738SOL     OW 9112   5.849   5.073   4.876
 2738SOL    HW1 9113   5.754   5.043   4.869
 2738SOL    HW2 9114   5.877   5.073   4.972
 2739SOL     OW 9115   5.254   3.457   1.556
 2739SOL    HW1 9116   5.199   3.376   1.534
 2739SOL    HW2 9117   5.261   3.516   1.475
 2740SOL     OW 9118   6.014   2.403   2.927
 2740SOL    HW1 9119   6.081   2.476   2.911
 2740SOL    HW2 9120   6.006   2.387   3.025
 2741SOL     OW 9121   0.292   2.386   5.451
 2741SOL    HW1 9122   0.206   2.436   5.441
 2741SOL    HW2 9123   0.295   2.344   5.542
 2742SOL     OW 9124   1.693   6.271   6.621
 2742SOL    HW1 9125   1.749   6.252   6.702
 2742SOL    HW2 9126   1.604   6.306   6.651
 2743SOL     OW 9127   5.372   4.667   1.251
 2743SOL    HW1 9128   5.452   4.647   1.308
 2743SOL    HW2 9129   5.397   4.733   1.180
 2744SOL     OW 9130   3.890   2.136   5.907
 2744SOL    HW1 9131   3.860   2.220   5.862
 2744SOL    HW2 9132   3.855   2.134   6.000
 2745SOL     OW 9133   2.579   6.325   1.375
 2745SOL    HW1 9134   2.520   6.244   1.382
 2745SOL    HW2 9135   2.673   6.296   1.358
 2746SOL     OW 9136   2.125   1.718   6.100
 2746SOL    HW1 9137   2.133   1.679   6.192
 2746SOL    HW2 9138   2.065   1.661   6.045
 2747SOL     OW 9139   5.237   6.557   4.041
 2747SOL    HW1 9140   5.305   6.514   4.100
 2747SOL    HW2 9141   5.283   6.605   3.966
 2748SOL     OW 9142   3.806   1.504   2.986
 2748SOL    HW1 9143   3.789   1.602   2.973
 2748SOL    HW2 9144   3.901   1.490   3.014
 2749SOL     OW 9145   4.451   4.963   4.366
 2749SOL    HW1 9146   4.531   5.022   4.382
 2749SOL    HW2 9147   4.385   4.977   4.440
 2750SOL     OW 9148   0.666   5.797   2.550
 2750SOL    HW1 9149   0.595   5.822   2.485
 2750SOL    HW2 9150   0.669   5.865   2.624
 2751SOL     OW 9151   1.889   6.800   6.558
 2751SOL    HW1 9152   1.894   6.738   6.636
 2751SOL    HW2 9153   1.820   6.765   6.493
 2752SOL     OW 9154   5.855   6.009   5.337
 2752SOL    HW1 9155   5.757   5.995   5.327
 2752SOL    HW2 9156   5.904   5.929   5.304
 2753SOL     OW 9157   4.147   6.089   6.569
 2753SOL    HW1 9158   4.070   6.152   6.559
 2753SOL    HW2 9159   4.205   6.095   6.487
 2754SOL     OW 9160   0.355   0.962   4.450
 2754SOL    HW1 9161   0.348   1.029   4.377
 2754SOL    HW2 9162   0.449   0.928   4.456
 2755SOL     OW 9163   3.151   6.330   2.162
 2755SOL    HW1 9164   3.197   6.244   2.139
 2755SOL    HW2 9165   3.065   6.310   2.209
 2756SOL     OW 9166   6.770   3.190   5.847
 2756SOL    HW1 9167   6.683   3.182   5.798
 2756SOL    HW2 9168   6.770   3.272   5.903
 2757SOL     OW 9169   4.402   2.637   6.755
 2757SOL    HW1 9170   4.481   2.693   6.780
 2757SOL    HW2 9171   4.369   2.666   6.665
 2758SOL     OW 9172   6.201   5.558   2.769
 2758SOL    HW1 9173   6.115   5.531   2.813
 2758SOL    HW2 9174   6.202   5.527   2.674
 2759SOL     OW 9175   3.267   4.599   6.607
 2759SOL    HW1 9176   3.357   4.615   6.649
 2759SOL    HW2 9177   3.202   4.666   6.643
 2760SOL     OW 9178   5.195   5.662   3.318
 2760SOL    HW1 9179   5.233   5.727   3.253
 2760SOL    HW2 9180   5.196   5.702   3.410
 2761SOL     OW 9181   1.765   3.528   2.462
 2761SOL    HW1 9182   1.769   3.475   2.546
 2761SOL    HW2 9183   1.834   3.494   2.397
 2762SOL     OW 9184   2.069   1.914   0.325
 2762SOL    HW1 9185   2.005   1.893   0.251
 2762SOL    HW2 9186   2.085   1.832   0.379
 2763SOL     OW 9187   4.768   1.591   5.175
 2763SOL    HW1 9188   4.857   1.622   5.209
 2763SOL    HW2 9189   4.781   1.511   5.116
 2764SOL     OW 9190   0.983   4.028   1.931
 2764SOL    HW1 9191   1.023   3.959   1.992
 2764SOL    HW2 9192   1.046   4.046   1.856
 2765SOL     OW 9193   6.530   6.462   6.689
 2765SOL    HW1 9194   6.544   6.558   6.665
 2765SOL    HW2 9195   6.481   6.417   6.615
 2766SOL     OW 9196   5.798   0.872   6.693
 2766SOL    HW1 9197   5.846   0.784   6.687
 2766SOL    HW2 9198   5.763   0.884   6.785
 2767SOL     OW 9199   0.011   5.123   6.610
 2767SOL    HW1 9200   6.958   5.062   6.622
 2767SOL    HW2 9201   0.090   5.069   6.581
 2768SOL     OW 9202   4.713   6.943   0.951
 2768SOL    HW1 9203   4.678   6.946   1.045
 2768SOL    HW2 9204   4.730   0.011   0.920
 2769SOL     OW 9205   1.985   4.712   5.571
 2769SOL    HW1 9206   1.930   4.784   5.528
 2769SOL    HW2 9207   2.062   4.688   5.512
 2770SOL     OW 9208   2.517   6.719   0.647
 2770SOL    HW1 9209   2.458   6.789   0.687
 2770SOL    HW2 9210   2.587   6.762   0.590
 2771SOL     OW 9211   4.410   0.130   4.874
 2771SOL    HW1 9212   4.319   0.144   4.914
 2771SOL    HW2 9213   4.407   0.155   4.777
 2772SOL     OW 9214   3.860   0.744   3.135
 2772SOL    HW1 9215   3.847   0.654   3.094
 2772SOL    HW2 9216   3.852   0.736   3.235
 2773SOL     OW 9217   5.770   2.883   4.129
 2773SOL    HW1 9218   5.822   2.964   4.157
 2773SOL    HW2 9219   5.834   2.812   4.100
 2774SOL     OW 9220   5.171   1.663   3.649
 2774SOL    HW1 9221   5.102   1.657   3.577
 2774SOL    HW2 9222   5.151   1.740   3.709
 2775SOL     OW 9223   0.678   4.344   4.492
 2775SOL    HW1 9224   0.751   4.343   4.424
 2775SOL    HW2 9225   0.713   4.382   4.577
 2776SOL     OW 9226   5.063   4.206   5.977
 2776SOL    HW1 9227   4.966   4.180   5.981
 2776SOL    HW2 9228   5.111   4.145   5.914
 2777SOL     OW 9229   3.088   2.188   6.229
 2777SOL    HW1 9230   3.062   2.099   6.266
 2777SOL    HW2 9231   3.172   2.219   6.274
 2778SOL     OW 9232   3.093   5.997   6.698
 2778SOL    HW1 9233   3.108   5.998   6.599
 2778SOL    HW2 9234   3.012   6.052   6.719
 2779SOL     OW 9235   6.029   6.792   2.010
 2779SOL    HW1 9236   5.967   6.756   2.080
 2779SOL    HW2 9237   6.104   6.842   2.054
 2780SOL     OW 9238   0.353   1.873   5.730
 2780SOL    HW1 9239   0.399   1.789   5.759
 2780SOL    HW2 9240   0.402   1.952   5.767
 2781SOL     OW 9241   6.403   0.669   2.903
 2781SOL    HW1 9242   6.440   0.648   2.993
 2781SOL    HW2 9243   6.304   0.663   2.904
 2782SOL     OW 9244   4.154   1.007   0.256
 2782SOL    HW1 9245   4.232   0.947   0.239
 2782SOL    HW2 9246   4.143   1.070   0.179
 2783SOL     OW 9247   5.666   3.865   1.650
 2783SOL    HW1 9248   5.573   3.828   1.650
 2783SOL    HW2 9249   5.664   3.963   1.669
 2784SOL     OW 9250   1.130   1.379   0.847
 2784SOL    HW1 9251   1.126   1.446   0.920
 2784SOL    HW2 9252   1.082   1.296   0.875
 2785SOL     OW 9253   5.501   2.784   1.792
 2785SOL    HW1 9254   5.448   2.766   1.709
 2785SOL    HW2 9255   5.481   2.713   1.860
 2786SOL     OW 9256   6.899   6.355   0.021
 2786SOL    HW1 9257   6.813   6.311   0.045
 2786SOL    HW2 9258   6.904   6.446   0.064
 2787SOL     OW 9259   6.394   4.962   6.663
 2787SOL    HW1 9260   6.368   5.041   6.607
 2787SOL    HW2 9261   6.428   4.889   6.604
 2788SOL     OW 9262   3.113   6.189   5.590
 2788SOL    HW1 9263   3.093   6.096   5.560
 2788SOL    HW2 9264   3.054   6.213   5.668
 2789SOL     OW 9265   0.754   2.596   5.185
 2789SOL    HW1 9266   0.787   2.616   5.093
 2789SOL    HW2 9267   0.694   2.517   5.183
 2790SOL     OW 9268   1.606   5.929   1.340
 2790SOL    HW1 9269   1.586   6.015   1.293
 2790SOL    HW2 9270   1.667   5.874   1.284
 2791SOL     OW 9271   6.985   4.025   3.259
 2791SOL    HW1 9272   6.918   3.969   3.210
 2791SOL    HW2 9273   0.051   3.987   3.245
 2792SOL     OW 9274   3.023   1.469   5.339
 2792SOL    HW1 9275   2.964   1.527   5.395
 2792SOL    HW2 9276   3.099   1.434   5.395
 2793SOL     OW 9277   3.274   4.380   1.104
 2793SOL    HW1 9278   3.291   4.466   1.056
 2793SOL    HW2 9279   3.306   4.388   1.198
 2794SOL     OW 9280   0.643   2.294   6.035
 2794SOL    HW1 9281   0.559   2.258   6.075
 2794SOL    HW2 9282   0.674   2.373   6.087
 2795SOL     OW 9283   1.247   4.691   1.653
 2795SOL    HW1 9284   1.296   4.626   1.596
 2795SOL    HW2 9285   1.237   4.653   1.746
 2796SOL     OW 9286   1.477   6.089   5.537
 2796SOL    HW1 9287   1.425   6.145   5.473
 2796SOL    HW2 9288   1.573   6.089   5.511
 2797SOL     OW 9289   5.649   0.057   3.826
 2797SOL    HW1 9290   5.558   0.082   3.860
 2797SOL    HW2 9291   5.685   0.131   3.769
 2798SOL     OW 9292   5.932   6.958   1.636
 2798SOL    HW1 9293   5.907   6.973   1.540
 2798SOL    HW2 9294   5.892   0.005   1.693
 2799SOL     OW 9295   3.586   5.986   5.116
 2799SOL    HW1 9296   3.593   5.926   5.195
 2799SOL    HW2 9297   3.649   5.955   5.045
 2800SOL     OW 9298   6.333   0.741   6.733
 2800SOL    HW1 9299   6.258   0.695   6.687
 2800SOL    HW2 9300   6.420   0.698   6.708
 2801SOL     OW 9301   0.742   5.157   5.506
 2801SOL    HW1 9302   0.737   5.063   5.542
 2801SOL    HW2 9303   0.666   5.172   5.443
 2802SOL     OW 9304   6.891   5.247   5.564
 2802SOL    HW1 9305   6.888   5.202   5.653
 2802SOL    HW2 9306   6.929   5.339   5.575
 2803SOL     OW 9307   3.820   2.719   6.636
 2803SOL    HW1 9308   3.839   2.806   6.591
 2803SOL    HW2 9309   3.755   2.732   6.710
 2804SOL     OW 9310   0.246   2.700   3.563
 2804SOL    HW1 9311   0.311   2.625   3.554
 2804SOL    HW2 9312   0.294   2.784   3.585
 2805SOL     OW 9313   4.386   3.234   1.162
 2805SOL    HW1 9314   4.410   3.143   1.197
 2805SOL    HW2 9315   4.398   3.236   1.063
 2806SOL     OW 9316   0.305   4.605   6.049
 2806SOL    HW1 9317   0.348   4.517   6.068
 2806SOL    HW2 9318   0.365   4.660   5.992
 2807SOL     OW 9319   3.304   0.390   3.339
 2807SOL    HW1 9320   3.379   0.397   3.272
 2807SOL    HW2 9321   3.340   0.404   3.431
 2808SOL     OW 9322   6.165   4.674   6.879
 2808SOL    HW1 9323   6.190   4.628   6.793
 2808SOL    HW2 9324   6.248   4.690   6.933
 2809SOL     OW 9325   6.537   5.049   1.894
 2809SOL    HW1 9326   6.549   5.090   1.984
 2809SOL    HW2 9327   6.509   4.954   1.905
 2810SOL     OW 9328   2.452   5.509   3.117
 2810SOL    HW1 9329   2.477   5.568   3.194
 2810SOL    HW2 9330   2.359   5.475   3.129
 2811SOL     OW 9331   0.877   0.592   1.945
 2811SOL    HW1 9332   0.954   0.563   1.888
 2811SOL    HW2 9333   0.869   0.691   1.942
 2812SOL     OW 9334   0.785   2.812   1.232
 2812SOL    HW1 9335   0.750   2.843   1.143
 2812SOL    HW2 9336   0.879   2.843   1.243
 2813SOL     OW 9337   0.911   2.226   1.486
 2813SOL    HW1 9338   0.837   2.292   1.502
 2813SOL    HW2 9339   0.993   2.276   1.456
 2814SOL     OW 9340   2.226   4.289   0.011
 2814SOL    HW1 9341   2.296   4.234   6.992
 2814SOL    HW2 9342   2.142   4.236   0.020
 2815SOL     OW 9343   0.389   5.787   5.476
 2815SOL    HW1 9344   0.396   5.757   5.382
 2815SOL    HW2 9345   0.399   5.887   5.480
 2816SOL     OW 9346   0.578   5.929   5.942
 2816SOL    HW1 9347   0.575   6.026   5.915
 2816SOL    HW2 9348   0.525   5.875   5.877
 2817SOL     OW 9349   4.581   0.746   2.167
 2817SOL    HW1 9350   4.581   0.814   2.093
 2817SOL    HW2 9351   4.632   0.666   2.138
 2818SOL     OW 9352   1.006   0.375   0.916
 2818SOL    HW1 9353   0.967   0.407   0.830
 2818SOL    HW2 9354   0.975   0.281   0.933
 2819SOL     OW 9355   0.625   0.646   0.275
 2819SOL    HW1 9356   0.626   0.744   0.297
 2819SOL    HW2 9357   0.674   0.631   0.189
 2820SOL     OW 9358   1.114   2.811   1.546
 2820SOL    HW1 9359   1.078   2.810   1.639
 2820SOL    HW2 9360   1.205   2.853   1.545
 2821SOL     OW 9361   3.003   3.823   6.396
 2821SOL    HW1 9362   3.000   3.896   6.465
 2821SOL    HW2 9363   3.092   3.778   6.400
 2822SOL     OW 9364   4.707   2.727   1.178
 2822SOL    HW1 9365   4.622   2.755   1.135
 2822SOL    HW2 9366   4.752   2.807   1.219
 2823SOL     OW 9367   5.609   2.011   1.251
 2823SOL    HW1 9368   5.545   2.074   1.207
 2823SOL    HW2 9369   5.564   1.967   1.329
 2824SOL     OW 9370   0.794   3.964   5.089
 2824SOL    HW1 9371   0.805   4.060   5.115
 2824SOL    HW2 9372   0.835   3.949   4.999
 2825SOL     OW 9373   5.046   1.615   6.382
 2825SOL    HW1 9374   5.013   1.651   6.470
 2825SOL    HW2 9375   5.134   1.570   6.396
 2826SOL     OW 9376   2.189   3.388   6.730
 2826SOL    HW1 9377   2.255   3.330   6.778
 2826SOL    HW2 9378   2.114   3.412   6.792
 2827SOL     OW 9379   6.676   1.098   6.183
 2827SOL    HW1 9380   6.750   1.153   6.222
 2827SOL    HW2 9381   6.600   1.158   6.158
 2828SOL     OW 9382   1.261   3.774   0.794
 2828SOL    HW1 9383   1.278   3.710   0.870
 2828SOL    HW2 9384   1.227   3.724   0.715
 2829SOL     OW 9385   3.888   3.954   3.418
 2829SOL    HW1 9386   3.800   3.998   3.434
 2829SOL    HW2 9387   3.939   3.948   3.504
 2830SOL     OW 9388   3.095   4.791   5.470
 2830SOL    HW1 9389   3.028   4.850   5.516
 2830SOL    HW2 9390   3.122   4.834   5.383
 2831SOL     OW 9391   6.206   1.727   2.039
 2831SOL    HW1 9392   6.109   1.737   2.019
 2831SOL    HW2 9393   6.259   1.786   1.978
 2832SOL     OW 9394   0.769   3.374   1.101
 2832SOL    HW1 9395   0.676   3.337   1.101
 2832SOL    HW2 9396   0.822   3.329   1.028
 2833SOL     OW 9397   1.755   2.099   2.044
 2833SOL    HW1 9398   1.706   2.139   2.121
 2833SOL    HW2 9399   1.690   2.070   1.974
 2834SOL     OW 9400   3.759   6.200   5.586
 2834SOL    HW1 9401   3.801   6.290   5.594
 2834SOL    HW2 9402   3.747   6.160   5.677
 2835SOL     OW 9403   0.430   6.614   0.181
 2835SOL    HW1 9404   0.496   6.554   0.138
 2835SOL    HW2 9405   0.453   6.709   0.161
 2836SOL     OW 9406   3.515   6.548   3.036
 2836SOL    HW1 9407   3.529   6.481   2.963
 2836SOL    HW2 9408   3.598   6.602   3.047
 2837SOL     OW 9409   5.242   4.207   2.499
 2837SOL    HW1 9410   5.310   4.278   2.517
 2837SOL    HW2 9411   5.155   4.233   2.542
 2838SOL     OW 9412   5.323   4.261   6.124
 2838SOL    HW1 9413   5.331   4.322   6.202
 2838SOL    HW2 9414   5.227   4.234   6.112
 2839SOL     OW 9415   5.927   2.854   5.010
 2839SOL    HW1 9416   5.942   2.891   5.102
 2839SOL    HW2 9417   5.992   2.781   4.992
 2840SOL     OW 9418   0.109   6.380   3.912
 2840SOL    HW1 9419   0.077   6.416   3.824
 2840SOL    HW2 9420   0.090   6.446   3.984
 2841SOL     OW 9421   6.197   2.830   2.283
 2841SOL    HW1 9422   6.198   2.884   2.367
 2841SOL    HW2 9423   6.239   2.741   2.300
 2842SOL     OW 9424   1.318   6.507   3.089
 2842SOL    HW1 9425   1.351   6.422   3.048
 2842SOL    HW2 9426   1.334   6.504   3.188
 2843SOL     OW 9427   2.255   2.886   3.293
 2843SOL    HW1 9428   2.221   2.813   3.353
 2843SOL    HW2 9429   2.323   2.848   3.230
 2844SOL     OW 9430   4.842   4.357   1.241
 2844SOL    HW1 9431   4.875   4.451   1.247
 2844SOL    HW2 9432   4.880   4.303   1.317
 2845SOL     OW 9433   3.167   1.982   2.956
 2845SOL    HW1 9434   3.075   1.958   2.986
 2845SOL    HW2 9435   3.228   1.989   3.035
 2846SOL     OW 9436   5.433   0.613   0.092
 2846SOL    HW1 9437   5.478   0.524   0.081
 2846SOL    HW2 9438   5.472   0.660   0.171
 2847SOL     OW 9439   4.638   4.742   2.538
 2847SOL    HW1 9440   4.608   4.649   2.557
 2847SOL    HW2 9441   4.684   4.780   2.618
 2848SOL     OW 9442   0.767   3.979   5.563
 2848SOL    HW1 9443   0.839   3.991   5.495
 2848SOL    HW2 9444   0.807   3.975   5.654
 2849SOL     OW 9445   4.874   0.510   2.719
 2849SOL    HW1 9446   4.814   0.488   2.797
 2849SOL    HW2 9447   4.823   0.566   2.654
 2850SOL     OW 9448   2.068   6.697   2.764
 2850SOL    HW1 9449   2.071   6.605   2.804
 2850SOL    HW2 9450   1.989   6.704   2.703
 2851SOL     OW 9451   3.680   3.688   0.721
 2851SOL    HW1 9452   3.596   3.714   0.768
 2851SOL    HW2 9453   3.758   3.735   0.764
 2852SOL     OW 9454   6.269   4.028   5.851
 2852SOL    HW1 9455   6.367   4.027   5.836
 2852SOL    HW2 9456   6.240   3.939   5.887
 2853SOL     OW 9457   0.455   3.870   6.512
 2853SOL    HW1 9458   0.365   3.873   6.469
 2853SOL    HW2 9459   0.489   3.776   6.513
 2854SOL     OW 9460   3.279   1.601   5.992
 2854SOL    HW1 9461   3.249   1.508   6.012
 2854SOL    HW2 9462   3.266   1.659   6.073
 2855SOL     OW 9463   2.109   1.478   4.949
 2855SOL    HW1 9464   2.014   1.493   4.920
 2855SOL    HW2 9465   2.120   1.384   4.979
 2856SOL     OW 9466   0.497   5.071   3.444
 2856SOL    HW1 9467   0.407   5.030   3.429
 2856SOL    HW2 9468   0.503   5.157   3.395
 2857SOL     OW 9469   0.144   3.445   0.477
 2857SOL    HW1 9470   0.218   3.377   0.481
 2857SOL    HW2 9471   0.056   3.398   0.467
 2858SOL     OW 9472   4.589   5.147   2.771
 2858SOL    HW1 9473   4.533   5.112   2.846
 2858SOL    HW2 9474   4.532   5.163   2.690
 2859SOL     OW 9475   5.012   4.532   1.540
 2859SOL    HW1 9476   4.942   4.467   1.569
 2859SOL    HW2 9477   5.057   4.498   1.457
 2860SOL     OW 9478   0.636   6.300   2.363
 2860SOL    HW1 9479   0.624   6.364   2.288
 2860SOL    HW2 9480   0.675   6.215   2.328
 2861SOL     OW 9481   4.776   5.112   6.955
 2861SOL    HW1 9482   4.723   5.028   6.945
 2861SOL    HW2 9483   4.769   5.165   6.870
 2862SOL     OW 9484   3.814   3.172   0.605
 2862SOL    HW1 9485   3.907   3.167   0.569
 2862SOL    HW2 9486   3.799   3.262   0.645
 2863SOL     OW 9487   5.817   6.957   5.451
 2863SOL    HW1 9488   5.759   6.875   5.450
 2863SOL    HW2 9489   5.773   0.003   5.504
 2864SOL     OW 9490   3.909   3.871   0.284
 2864SOL    HW1 9491   3.849   3.897   0.209
 2864SOL    HW2 9492   3.909   3.944   0.353
 2865SOL     OW 9493   5.025   5.502   4.434
 2865SOL    HW1 9494   5.046   5.457   4.347
 2865SOL    HW2 9495   5.109   5.509   4.488
 2866SOL     OW 9496   4.330   4.718   7.020
 2866SOL    HW1 9497   4.259   4.670   6.970
 2866SOL    HW2 9498   4.415   4.667   7.016
 2867SOL     OW 9499   5.415   6.027   1.718
 2867SOL    HW1 9500   5.426   6.103   1.782
 2867SOL    HW2 9501   5.465   6.048   1.633
 2868SOL     OW 9502   1.279   1.754   6.048
 2868SOL    HW1 9503   1.317   1.685   5.988
 2868SOL    HW2 9504   1.319   1.746   6.139
 2869SOL     OW 9505   5.456   5.807   4.598
 2869SOL    HW1 9506   5.511   5.839   4.522
 2869SOL    HW2 9507   5.459   5.874   4.673
 2870SOL     OW 9508   6.492   2.040   1.404
 2870SOL    HW1 9509   6.568   1.985   1.371
 2870SOL    HW2 9510   6.507   2.065   1.500
 2871SOL     OW 9511   4.941   1.868   1.324
 2871SOL    HW1 9512   4.922   1.920   1.241
 2871SOL    HW2 9513   4.866   1.881   1.389
 2872SOL     OW 9514   2.589   2.454   2.369
 2872SOL    HW1 9515   2.607   2.499   2.282
 2872SOL    HW2 9516   2.490   2.440   2.380
 2873SOL     OW 9517   0.701   6.205   1.502
 2873SOL    HW1 9518   0.744   6.147   1.432
 2873SOL    HW2 9519   0.623   6.253   1.463
 2874SOL     OW 9520   2.776   0.727   2.482
 2874SOL    HW1 9521   2.678   0.712   2.495
 2874SOL    HW2 9522   2.812   0.780   2.559
 2875SOL     OW 9523   3.318   6.674   3.234
 2875SOL    HW1 9524   3.360   6.614   3.166
 2875SOL    HW2 9525   3.225   6.642   3.254
 2876SOL     OW 9526   1.191   6.114   2.134
 2876SOL    HW1 9527   1.240   6.109   2.221
 2876SOL    HW2 9528   1.231   6.186   2.077
 2877SOL     OW 9529   0.802   1.538   5.987
 2877SOL    HW1 9530   0.708   1.571   5.999
 2877SOL    HW2 9531   0.866   1.611   6.012
 2878SOL     OW 9532   4.120   3.435   4.484
 2878SOL    HW1 9533   4.072   3.379   4.416
 2878SOL    HW2 9534   4.216   3.445   4.457
 2879SOL     OW 9535   4.536   4.110   0.123
 2879SOL    HW1 9536   4.483   4.187   0.160
 2879SOL    HW2 9537   4.521   4.029   0.180
 2880SOL     OW 9538   1.694   1.480   4.505
 2880SOL    HW1 9539   1.600   1.502   4.480
 2880SOL    HW2 9540   1.747   1.458   4.423
 2881SOL     OW 9541   4.603   6.073   6.707
 2881SOL    HW1 9542   4.528   6.048   6.769
 2881SOL    HW2 9543   4.566   6.125   6.630
 2882SOL     OW 9544   4.880   6.590   0.341
 2882SOL    HW1 9545   4.785   6.559   0.343
 2882SOL    HW2 9546   4.885   6.685   0.371
 2883SOL     OW 9547   6.061   6.171   3.738
 2883SOL    HW1 9548   6.002   6.092   3.722
 2883SOL    HW2 9549   6.025   6.224   3.815
 2884SOL     OW 9550   0.022   5.283   2.996
 2884SOL    HW1 9551   0.024   5.332   3.083
 2884SOL    HW2 9552   7.020   5.345   2.923
 2885SOL     OW 9553   0.937   2.776   2.972
 2885SOL    HW1 9554   1.013   2.750   2.913
 2885SOL    HW2 9555   0.951   2.870   3.005
 2886SOL     OW 9556   2.396   4.145   6.026
 2886SOL    HW1 9557   2.342   4.223   5.994
 2886SOL    HW2 9558   2.486   4.145   5.981
 2887SOL     OW 9559   1.144   5.848   3.444
 2887SOL    HW1 9560   1.119   5.763   3.490
 2887SOL    HW2 9561   1.243   5.862   3.452
 2888SOL     OW 9562   6.418   6.979   0.240
 2888SOL    HW1 9563   6.390   6.883   0.236
 2888SOL    HW2 9564   6.425   7.008   0.336
 2889SOL     OW 9565   3.793   6.465   3.298
 2889SOL    HW1 9566   3.771   6.549   3.247
 2889SOL    HW2 9567   3.840   6.401   3.237
 2890SOL     OW 9568   2.849   0.294   1.464
 2890SOL    HW1 9569   2.768   0.324   1.516
 2890SOL    HW2 9570   2.823   0.217   1.406
 2891SOL     OW 9571   0.495   2.437   4.163
 2891SOL    HW1 9572   0.531   2.368   4.226
 2891SOL    HW2 9573   0.443   2.505   4.215
 2892SOL     OW 9574   6.855   3.924   2.376
 2892SOL    HW1 9575   6.791   3.989   2.416
 2892SOL    HW2 9576   6.891   3.961   2.290
 2893SOL     OW 9577   7.009   5.375   4.668
 2893SOL    HW1 9578   6.945   5.399   4.594
 2893SOL    HW2 9579   6.959   5.366   4.754
 2894SOL     OW 9580   1.189   5.160   2.724
 2894SOL    HW1 9581   1.285   5.160   2.695
 2894SOL    HW2 9582   1.179   5.107   2.808
 2895SOL     OW 9583   4.002   6.611   6.145
 2895SOL    HW1 9584   3.949   6.667   6.080
 2895SOL    HW2 9585   4.099   6.625   6.130
 2896SOL     OW 9586   5.890   5.960   4.955
 2896SOL    HW1 9587   5.905   5.883   5.018
 2896SOL    HW2 9588   5.892   5.927   4.861
 2897SOL     OW 9589   3.979   4.897   3.173
 2897SOL    HW1 9590   4.043   4.866   3.103
 2897SOL    HW2 9591   4.003   4.854   3.261
 2898SOL     OW 9592   5.682   3.948   2.714
 2898SOL    HW1 9593   5.733   4.014   2.659
 2898SOL    HW2 9594   5.588   3.943   2.681
 2899SOL     OW 9595   0.173   3.285   1.035
 2899SOL    HW1 9596   0.116   3.203   1.043
 2899SOL    HW2 9597   0.123   3.365   1.068
 2900SOL     OW 9598   2.991   3.990   6.598
 2900SOL    HW1 9599   3.010   3.940   6.682
 2900SOL    HW2 9600   2.989   4.088   6.617
 2901SOL     OW 9601   1.261   3.823   3.758
 2901SOL    HW1 9602   1.209   3.888   3.814
 2901SOL    HW2 9603   1.356   3.822   3.789
 2902SOL     OW 9604   0.753   6.170   3.609
 2902SOL    HW1 9605   0.804   6.135   3.687
 2902SOL    HW2 9606   0.795   6.138   3.524
 2903SOL     OW 9607   4.824   5.629   0.747
 2903SOL    HW1 9608   4.831   5.559   0.818
 2903SOL    HW2 9609   4.916   5.663   0.726
 2904SOL     OW 9610   2.373   4.337   5.173
 2904SOL    HW1 9611   2.389   4.243   5.144
 2904SOL    HW2 9612   2.301   4.378   5.117
 2905SOL     OW 9613   0.497   4.795   1.898
 2905SOL    HW1 9614   0.423   4.784   1.831
 2905SOL    HW2 9615   0.460   4.832   1.983
 2906SOL     OW 9616   5.988   5.923   2.927
 2906SOL    HW1 9617   5.993   5.825   2.945
 2906SOL    HW2 9618   6.072   5.953   2.881
 2907SOL     OW 9619   0.592   0.862   3.463
 2907SOL    HW1 9620   0.652   0.935   3.495
 2907SOL    HW2 9621   0.519   0.901   3.406
 2908SOL     OW 9622   4.323   6.832   2.550
 2908SOL    HW1 9623   4.363   6.871   2.633
 2908SOL    HW2 9624   4.388   6.840   2.475
 2909SOL     OW 9625   0.928   5.999   2.434
 2909SOL    HW1 9626   0.842   6.027   2.392
 2909SOL    HW2 9627   0.914   5.912   2.482
 2910SOL     OW 9628   0.005   1.203   3.610
 2910SOL    HW1 9629   0.084   1.168   3.559
 2910SOL    HW2 9630   0.035   1.238   3.698
 2911SOL     OW 9631   6.805   4.224   4.430
 2911SOL    HW1 9632   6.805   4.175   4.343
 2911SOL    HW2 9633   6.854   4.311   4.419
 2912SOL     OW 9634   0.101   6.872   1.418
 2912SOL    HW1 9635   0.153   6.789   1.397
 2912SOL    HW2 9636   0.080   6.921   1.334
 2913SOL     OW 9637   2.382   6.168   1.398
 2913SOL    HW1 9638   2.310   6.106   1.365
 2913SOL    HW2 9639   2.373   6.180   1.496
 2914SOL     OW 9640   5.104   5.103   0.298
 2914SOL    HW1 9641   5.053   5.096   0.212
 2914SOL    HW2 9642   5.139   5.196   0.308
 2915SOL     OW 9643   2.815   0.894   2.702
 2915SOL    HW1 9644   2.798   0.894   2.801
 2915SOL    HW2 9645   2.811   0.988   2.668
 2916SOL     OW 9646   1.293   5.698   0.110
 2916SOL    HW1 9647   1.388   5.710   0.138
 2916SOL    HW2 9648   1.233   5.721   0.187
 2917SOL     OW 9649   2.969   6.243   4.065
 2917SOL    HW1 9650   2.965   6.303   4.145
 2917SOL    HW2 9651   2.985   6.298   3.983
 2918SOL     OW 9652   5.790   3.382   1.724
 2918SOL    HW1 9653   5.855   3.373   1.799
 2918SOL    HW2 9654   5.793   3.475   1.688
 2919SOL     OW 9655   1.366   5.374   4.192
 2919SOL    HW1 9656   1.417   5.369   4.277
 2919SOL    HW2 9657   1.360   5.470   4.162
 2920SOL     OW 9658   1.670   1.778   2.325
 2920SOL    HW1 9659   1.583   1.806   2.284
 2920SOL    HW2 9660   1.697   1.845   2.395
 2921SOL     OW 9661   0.749   0.496   5.102
 2921SOL    HW1 9662   0.794   0.415   5.066
 2921SOL    HW2 9663   0.781   0.514   5.195
 2922SOL     OW 9664   3.639   0.787   3.368
 2922SOL    HW1 9665   3.564   0.765   3.431
 2922SOL    HW2 9666   3.726   0.762   3.410
 2923SOL     OW 9667   5.952   5.482   4.656
 2923SOL    HW1 9668   5.860   5.514   4.631
 2923SOL    HW2 9669   5.955   5.382   4.649
 2924SOL     OW 9670   5.947   2.717   5.344
 2924SOL    HW1 9671   5.930   2.694   5.439
 2924SOL    HW2 9672   5.920   2.812   5.326
 2925SOL     OW 9673   4.819   0.167   6.067
 2925SOL    HW1 9674   4.798   0.091   6.128
 2925SOL    HW2 9675   4.735   0.216   6.044
 2926SOL     OW 9676   6.964   2.072   4.436
 2926SOL    HW1 9677   0.010   2.042   4.499
 2926SOL    HW2 9678   6.981   2.034   4.345
 2927SOL     OW 9679   1.212   2.365   2.109
 2927SOL    HW1 9680   1.172   2.398   2.195
 2927SOL    HW2 9681   1.308   2.391   2.104
 2928SOL     OW 9682   0.248   2.992   0.473
 2928SOL    HW1 9683   0.241   3.036   0.383
 2928SOL    HW2 9684   0.201   2.903   0.470
 2929SOL     OW 9685   2.373   2.559   5.069
 2929SOL    HW1 9686   2.413   2.579   4.979
 2929SOL    HW2 9687   2.274   2.548   5.059
 2930SOL     OW 9688   6.714   4.888   5.337
 2930SOL    HW1 9689   6.775   4.863   5.262
 2930SOL    HW2 9690   6.752   4.855   5.423
 2931SOL     OW 9691   4.823   4.046   5.553
 2931SOL    HW1 9692   4.772   4.072   5.635
 2931SOL    HW2 9693   4.805   3.950   5.532
 2932SOL     OW 9694   6.428   5.554   0.374
 2932SOL    HW1 9695   6.507   5.492   0.373
 2932SOL    HW2 9696   6.344   5.502   0.357
 2933SOL     OW 9697   1.659   0.150   1.008
 2933SOL    HW1 9698   1.608   0.156   1.094
 2933SOL    HW2 9699   1.752   0.182   1.023
 2934SOL     OW 9700   4.164   4.688   0.551
 2934SOL    HW1 9701   4.159   4.782   0.584
 2934SOL    HW2 9702   4.168   4.688   0.451
 2935SOL     OW 9703   6.739   2.285   6.111
 2935SOL    HW1 9704   6.722   2.187   6.109
 2935SOL    HW2 9705   6.837   2.303   6.113
 2936SOL     OW 9706   4.571   6.457   0.771
 2936SOL    HW1 9707   4.549   6.450   0.869
 2936SOL    HW2 9708   4.495   6.422   0.717
 2937SOL     OW 9709   4.857   5.169   2.150
 2937SOL    HW1 9710   4.831   5.264   2.132
 2937SOL    HW2 9711   4.834   5.146   2.245
 2938SOL     OW 9712   6.325   5.873   6.936
 2938SOL    HW1 9713   6.362   5.794   6.985
 2938SOL    HW2 9714   6.364   5.876   6.844
 2939SOL     OW 9715   7.009   5.810   0.755
 2939SOL    HW1 9716   6.985   5.713   0.757
 2939SOL    HW2 9717   6.958   5.855   0.681
 2940SOL     OW 9718   4.722   5.992   3.809
 2940SOL    HW1 9719   4.681   5.990   3.718
 2940SOL    HW2 9720   4.650   5.984   3.878
 2941SOL     OW 9721   1.569   3.589   3.906
 2941SOL    HW1 9722   1.594   3.497   3.936
 2941SOL    HW2 9723   1.477   3.611   3.937
 2942SOL     OW 9724   3.705   1.801   1.384
 2942SOL    HW1 9725   3.686   1.707   1.356
 2942SOL    HW2 9726   3.681   1.863   1.310
 2943SOL     OW 9727   5.864   4.069   3.528
 2943SOL    HW1 9728   5.902   4.077   3.436
 2943SOL    HW2 9729   5.935   4.088   3.595
 2944SOL     OW 9730   1.636   5.965   3.039
 2944SOL    HW1 9731   1.600   5.989   3.129
 2944SOL    HW2 9732   1.728   6.003   3.029
 2945SOL     OW 9733   5.174   4.199   1.653
 2945SOL    HW1 9734   5.132   4.171   1.740
 2945SOL    HW2 9735   5.150   4.294   1.634
 2946SOL     OW 9736   3.038   3.721   5.749
 2946SOL    HW1 9737   3.131   3.695   5.722
 2946SOL    HW2 9738   2.972   3.661   5.703
 2947SOL     OW 9739   5.657   6.720   0.593
 2947SOL    HW1 9740   5.702   6.748   0.508
 2947SOL    HW2 9741   5.694   6.772   0.670
 2948SOL     OW 9742   6.305   4.152   2.319
 2948SOL    HW1 9743   6.384   4.198   2.280
 2948SOL    HW2 9744   6.244   4.122   2.246
 2949SOL     OW 9745   1.344   6.835   0.924
 2949SOL    HW1 9746   1.389   6.761   0.874
 2949SOL    HW2 9747   1.276   6.797   0.986
 2950SOL     OW 9748   5.574   4.918   2.639
 2950SOL    HW1 9749   5.657   4.867   2.661
 2950SOL    HW2 9750   5.519   4.929   2.722
 2951SOL     OW 9751   6.146   2.024   1.646
 2951SOL    HW1 9752   6.050   2.000   1.651
 2951SOL    HW2 9753   6.199   1.967   1.709
 2952SOL     OW 9754   5.523   1.580   4.097
 2952SOL    HW1 9755   5.431   1.606   4.125
 2952SOL    HW2 9756   5.518   1.518   4.019
 2953SOL     OW 9757   1.039   5.704   4.319
 2953SOL    HW1 9758   1.012   5.765   4.394
 2953SOL    HW2 9759   0.993   5.616   4.330
 2954SOL     OW 9760   0.061   4.638   5.874
 2954SOL    HW1 9761   0.140   4.656   5.932
 2954SOL    HW2 9762   0.049   4.539   5.864
 2955SOL     OW 9763   2.060   4.918   6.819
 2955SOL    HW1 9764   2.085   4.821   6.819
 2955SOL    HW2 9765   2.026   4.943   6.729
 2956SOL     OW 9766   6.073   4.470   3.485
 2956SOL    HW1 9767   6.098   4.422   3.402
 2956SOL    HW2 9768   6.112   4.562   3.484
 2957SOL     OW 9769   2.759   5.160   1.303
 2957SOL    HW1 9770   2.820   5.232   1.269
 2957SOL    HW2 9771   2.682   5.150   1.241
 2958SOL     OW 9772   2.781   5.229   2.836
 2958SOL    HW1 9773   2.723   5.224   2.917
 2958SOL    HW2 9774   2.734   5.186   2.759
 2959SOL     OW 9775   0.185   2.928   3.235
 2959SOL    HW1 9776   0.276   2.940   3.276
 2959SOL    HW2 9777   0.124   2.885   3.300
 2960SOL     OW 9778   4.422   0.785   0.424
 2960SOL    HW1 9779   4.334   0.780   0.471
 2960SOL    HW2 9780   4.490   0.827   0.484
 2961SOL     OW 9781   5.422   3.972   2.638
 2961SOL    HW1 9782   5.350   3.973   2.707
 2961SOL    HW2 9783   5.403   4.042   2.568
 2962SOL     OW 9784   0.097   6.808   2.394
 2962SOL    HW1 9785   0.050   6.725   2.425
 2962SOL    HW2 9786   0.146   6.789   2.309
 2963SOL     OW 9787   1.908   1.289   4.776
 2963SOL    HW1 9788   1.830   1.227   4.785
 2963SOL    HW2 9789   1.947   1.281   4.684
 2964SOL     OW 9790   1.211   2.038   0.219
 2964SOL    HW1 9791   1.169   1.986   0.145
 2964SOL    HW2 9792   1.235   2.129   0.185
 2965SOL     OW 9793   1.207   0.221   4.420
 2965SOL    HW1 9794   1.252   0.148   4.471
 2965SOL    HW2 9795   1.115   0.237   4.457
 2966SOL     OW 9796   3.920   5.591   3.241
 2966SOL    HW1 9797   3.950   5.532   3.167
 2966SOL    HW2 9798   3.821   5.582   3.253
 2967SOL     OW 9799   6.273   7.023   5.474
 2967SOL    HW1 9800   6.194   0.009   5.534
 2967SOL    HW2 9801   6.313   6.932   5.489
 2968SOL     OW 9802   2.034   2.360   1.096
 2968SOL    HW1 9803   2.088   2.398   1.022
 2968SOL    HW2 9804   2.004   2.434   1.157
 2969SOL     OW 9805   5.301   3.345   4.509
 2969SOL    HW1 9806   5.351   3.258   4.508
 2969SOL    HW2 9807   5.327   3.398   4.590
 2970SOL     OW 9808   2.451   2.516   4.134
 2970SOL    HW1 9809   2.542   2.485   4.104
 2970SOL    HW2 9810   2.460   2.564   4.222
 2971SOL     OW 9811   5.515   2.898   6.432
 2971SOL    HW1 9812   5.432   2.857   6.469
 2971SOL    HW2 9813   5.492   2.957   6.355
 2972SOL     OW 9814   5.673   4.927   0.016
 2972SOL    HW1 9815   5.708   4.847   6.993
 2972SOL    HW2 9816   5.673   4.909   0.114
 2973SOL     OW 9817   4.712   0.967   2.317
 2973SOL    HW1 9818   4.662   0.883   2.295
 2973SOL    HW2 9819   4.794   0.972   2.259
 2974SOL     OW 9820   4.750   5.834   3.077
 2974SOL    HW1 9821   4.704   5.775   3.011
 2974SOL    HW2 9822   4.686   5.859   3.150
 2975SOL     OW 9823   4.793   4.065   4.422
 2975SOL    HW1 9824   4.877   4.119   4.431
 2975SOL    HW2 9825   4.718   4.124   4.396
 2976SOL     OW 9826   4.120   2.279   2.132
 2976SOL    HW1 9827   4.191   2.215   2.161
 2976SOL    HW2 9828   4.161   2.368   2.111
 2977SOL     OW 9829   1.265   0.775   1.492
 2977SOL    HW1 9830   1.183   0.805   1.443
 2977SOL    HW2 9831   1.344   0.778   1.431
 2978SOL     OW 9832   4.699   5.451   6.555
 2978SOL    HW1 9833   4.734   5.537   6.519
 2978SOL    HW2 9834   4.605   5.438   6.523
 2979SOL     OW 9835   3.495   0.890   4.069
 2979SOL    HW1 9836   3.455   0.815   4.016
 2979SOL    HW2 9837   3.552   0.853   4.141
 2980SOL     OW 9838   3.636   4.045   6.006
 2980SOL    HW1 9839   3.638   4.063   6.104
 2980SOL    HW2 9840   3.544   4.058   5.971
 2981SOL     OW 9841   1.321   0.995   0.713
 2981SOL    HW1 9842   1.239   0.990   0.656
 2981SOL    HW2 9843   1.401   0.972   0.657
 2982SOL     OW 9844   0.706   0.584   1.543
 2982SOL    HW1 9845   0.704   0.545   1.635
 2982SOL    HW2 9846   0.660   0.673   1.544
 2983SOL     OW 9847   5.652   2.815   6.154
 2983SOL    HW1 9848   5.611   2.799   6.065
 2983SOL    HW2 9849   5.580   2.835   6.221
 2984SOL     OW 9850   0.432   4.884   0.346
 2984SOL    HW1 9851   0.516   4.835   0.369
 2984SOL    HW2 9852   0.436   4.976   0.383
 2985SOL     OW 9853   0.221   6.547   4.719
 2985SOL    HW1 9854   0.299   6.490   4.694
 2985SOL    HW2 9855   0.196   6.530   4.815
 2986SOL     OW 9856   3.579   4.063   2.713
 2986SOL    HW1 9857   3.560   4.161   2.699
 2986SOL    HW2 9858   3.559   4.039   2.808
 2987SOL     OW 9859   1.996   0.673   4.342
 2987SOL    HW1 9860   2.032   0.690   4.434
 2987SOL    HW2 9861   1.901   0.702   4.338
 2988SOL     OW 9862   0.539   1.926   0.209
 2988SOL    HW1 9863   0.563   1.867   0.131
 2988SOL    HW2 9864   0.622   1.959   0.253
 2989SOL     OW 9865   5.327   3.779   4.143
 2989SOL    HW1 9866   5.266   3.713   4.098
 2989SOL    HW2 9867   5.295   3.796   4.236
 2990SOL     OW 9868   5.273   1.689   4.193
 2990SOL    HW1 9869   5.193   1.698   4.252
 2990SOL    HW2 9870   5.299   1.779   4.158
 2991SOL     OW 9871   6.727   4.138   0.803
 2991SOL    HW1 9872   6.693   4.228   0.829
 2991SOL    HW2 9873   6.663   4.068   0.836
 2992SOL     OW 9874   0.146   3.650   5.172
 2992SOL    HW1 9875   0.090   3.575   5.207
 2992SOL    HW2 9876   0.224   3.612   5.122
 2993SOL     OW 9877   1.086   4.349   0.326
 2993SOL    HW1 9878   1.071   4.259   0.365
 2993SOL    HW2 9879   1.006   4.376   0.272
 2994SOL     OW 9880   4.202   6.950   6.881
 2994SOL    HW1 9881   4.299   6.966   6.899
 2994SOL    HW2 9882   4.192   6.867   6.825
 2995SOL     OW 9883   5.186   0.586   1.280
 2995SOL    HW1 9884   5.263   0.650   1.274
 2995SOL    HW2 9885   5.119   0.608   1.210
 2996SOL     OW 9886   0.276   1.571   4.933
 2996SOL    HW1 9887   0.195   1.556   4.876
 2996SOL    HW2 9888   0.355   1.587   4.874
 2997SOL     OW 9889   5.337   0.404   3.746
 2997SOL    HW1 9890   5.242   0.434   3.754
 2997SOL    HW2 9891   5.342   0.321   3.692
 2998SOL     OW 9892   2.338   1.738   2.490
 2998SOL    HW1 9893   2.407   1.788   2.438
 2998SOL    HW2 9894   2.382   1.665   2.541
 2999SOL     OW 9895   2.632   4.501   0.550
 2999SOL    HW1 9896   2.695   4.570   0.588
 2999SOL    HW2 9897   2.554   4.490   0.611
 3000SOL     OW 9898   2.900   3.797   5.027
 3000SOL    HW1 9899   2.810   3.797   5.071
 3000SOL    HW2 9900   2.897   3.745   4.942
 3001SOL     OW 9901   5.903   0.362   5.730
 3001SOL    HW1 9902   5.814   0.343   5.772
 3001SOL    HW2 9903   5.891   0.419   5.649
 3002SOL     OW 9904   2.513   1.807   1.711
 3002SOL    HW1 9905   2.579   1.869   1.668
 3002SOL    HW2 9906   2.551   1.773   1.797
 3003SOL     OW 9907   1.149   6.467   0.061
 3003SOL    HW1 9908   1.191   6.557   0.076
 3003SOL    HW2 9909   1.076   6.475   7.019
 3004SOL     OW 9910   2.632   6.124   3.864
 3004SOL    HW1 9911   2.673   6.078   3.943
 3004SOL    HW2 9912   2.617   6.058   3.791
 3005SOL     OW 9913   0.983   2.610   5.659
 3005SOL    HW1 9914   0.930   2.575   5.582
 3005SOL    HW2 9915   1.075   2.571   5.656
 3006SOL     OW 9916   5.466   1.547   5.859
 3006SOL    HW1 9917   5.439   1.642   5.842
 3006SOL    HW2 9918   5.513   1.542   5.948
 3007SOL     OW 9919   5.311   4.527   6.855
 3007SOL    HW1 9920   5.391   4.511   6.912
 3007SOL    HW2 9921   5.336   4.585   6.778
 3008SOL     OW 9922   4.693   2.678   6.064
 3008SOL    HW1 9923   4.614   2.621   6.039
 3008SOL    HW2 9924   4.667   2.775   6.059
 3009SOL     OW 9925   0.229   3.640   2.243
 3009SOL    HW1 9926   0.299   3.579   2.281
 3009SOL    HW2 9927   0.271   3.729   2.225
 3010SOL     OW 9928   4.386   6.105   6.398
 3010SOL    HW1 9929   4.455   6.154   6.451
 3010SOL    HW2 9930   4.336   6.170   6.341
 3011SOL     OW 9931   6.836   6.867   0.875
 3011SOL    HW1 9932   6.786   6.804   0.814
 3011SOL    HW2 9933   6.907   6.913   0.823
 3012SOL     OW 9934   2.495   2.606   6.020
 3012SOL    HW1 9935   2.549   2.581   5.940
 3012SOL    HW2 9936   2.466   2.523   6.068
 3013SOL     OW 9937   0.765   5.230   5.047
 3013SOL    HW1 9938   0.821   5.259   5.125
 3013SOL    HW2 9939   0.752   5.307   4.984
 3014SOL     OW 9940   4.930   0.462   5.436
 3014SOL    HW1 9941   4.923   0.555   5.470
 3014SOL    HW2 9942   5.003   0.457   5.367
 3015SOL     OW 9943   1.220   1.220   0.096
 3015SOL    HW1 9944   1.217   1.138   0.039
 3015SOL    HW2 9945   1.264   1.294   0.045
 3016SOL     OW 9946   2.000   6.684   4.403
 3016SOL    HW1 9947   1.907   6.715   4.386
 3016SOL    HW2 9948   2.062   6.726   4.337
 3017SOL     OW 9949   6.991   5.536   0.763
 3017SOL    HW1 9950   6.979   5.499   0.855
 3017SOL    HW2 9951   0.059   5.520   0.733
 3018SOL     OW 9952   3.184   0.246   0.313
 3018SOL    HW1 9953   3.265   0.276   0.262
 3018SOL    HW2 9954   3.136   0.176   0.260
 3019SOL     OW 9955   2.117   0.369   4.843
 3019SOL    HW1 9956   2.198   0.324   4.879
 3019SOL    HW2 9957   2.112   0.356   4.744
 3020SOL     OW 9958   5.279   3.385   0.078
 3020SOL    HW1 9959   5.262   3.364   0.174
 3020SOL    HW2 9960   5.378   3.392   0.063
 3021SOL     OW 9961   3.900   6.451   4.829
 3021SOL    HW1 9962   3.966   6.523   4.852
 3021SOL    HW2 9963   3.947   6.364   4.818
 3022SOL     OW 9964   4.545   5.651   3.982
 3022SOL    HW1 9965   4.550   5.748   4.004
 3022SOL    HW2 9966   4.499   5.639   3.894
 3023SOL     OW 9967   5.056   6.458   2.886
 3023SOL    HW1 9968   5.002   6.474   2.803
 3023SOL    HW2 9969   5.002   6.483   2.966
 3024SOL     OW 9970   0.102   6.350   6.425
 3024SOL    HW1 9971   0.153   6.267   6.400
 3024SOL    HW2 9972   0.104   6.414   6.349
 3025SOL     OW 9973   3.672   6.100   0.884
 3025SOL    HW1 9974   3.698   6.024   0.824
 3025SOL    HW2 9975   3.581   6.081   0.922
 3026SOL     OW 9976   6.232   1.008   0.651
 3026SOL    HW1 9977   6.214   1.091   0.599
 3026SOL    HW2 9978   6.194   0.929   0.602
 3027SOL     OW 9979   4.651   1.267   1.263
 3027SOL    HW1 9980   4.634   1.351   1.313
 3027SOL    HW2 9981   4.722   1.283   1.194
 3028SOL     OW 9982   3.053   4.196   5.519
 3028SOL    HW1 9983   3.076   4.122   5.583
 3028SOL    HW2 9984   3.059   4.162   5.425
 3029SOL     OW 9985   0.781   2.560   4.465
 3029SOL    HW1 9986   0.768   2.526   4.558
 3029SOL    HW2 9987   0.843   2.638   4.466
 3030SOL     OW 9988   2.587   3.353   0.544
 3030SOL    HW1 9989   2.509   3.416   0.539
 3030SOL    HW2 9990   2.555   3.260   0.528
 3031SOL     OW 9991   0.721   6.467   1.625
 3031SOL    HW1 9992   0.637   6.517   1.606
 3031SOL    HW2 9993   0.719   6.378   1.580
 3032SOL     OW 9994   2.114   0.711   2.113
 3032SOL    HW1 9995   2.182   0.654   2.066
 3032SOL    HW2 9996   2.025   0.667   2.109
 3033SOL     OW 9997   6.728   2.135   4.542
 3033SOL    HW1 9998   6.678   2.184   4.470
 3033SOL    HW2 9999   6.826   2.134   4.520
 3034SOL     OW10000   6.615   5.175   3.180
 3034SOL    HW110001   6.613   5.262   3.230
 3034SOL    HW210002   6.631   5.100   3.245
 3035SOL     OW10003   1.028   2.817   6.772
 3035SOL    HW110004   0.948   2.874   6.754
 3035SOL    HW210005   1.091   2.865   6.832
 3036SOL     OW10006   3.333   2.245   6.332
 3036SOL    HW110007   3.387   2.244   6.417
 3036SOL    HW210008   3.373   2.310   6.268
 3037SOL     OW10009   0.130   5.392   0.311
 3037SOL    HW110010   0.046   5.443   0.330
 3037SOL    HW210011   0.109   5.310   0.258
 3038SOL     OW10012   5.443   4.207   6.641
 3038SOL    HW110013   5.475   4.271   6.710
 3038SOL    HW210014   5.379   4.142   6.682
 3039SOL     OW10015   6.670   3.844   6.779
 3039SOL    HW110016   6.689   3.931   6.732
 3039SOL    HW210017   6.712   3.769   6.728
 3040SOL     OW10018   5.202   3.683   5.896
 3040SOL    HW110019   5.276   3.635   5.943
 3040SOL    HW210020   5.178   3.765   5.947
 3041SOL     OW10021   2.215   4.186   4.893
 3041SOL    HW110022   2.268   4.133   4.959
 3041SOL    HW210023   2.276   4.222   4.823
 3042SOL     OW10024   0.079   5.408   3.262
 3042SOL    HW110025   0.133   5.456   3.331
 3042SOL    HW210026   0.018   5.473   3.216
 3043SOL     OW10027   2.963   4.879   0.662
 3043SOL    HW110028   2.986   4.944   0.590
 3043SOL    HW210029   3.047   4.845   0.704
 3044SOL     OW10030   3.466   3.500   5.236
 3044SOL    HW110031   3.549   3.504   5.291
 3044SOL    HW210032   3.386   3.499   5.295
 3045SOL     OW10033   4.971   1.445   2.081
 3045SOL    HW110034   4.918   1.495   2.012
 3045SOL    HW210035   4.975   1.498   2.165
 3046SOL     OW10036   5.603   5.734   0.944
 3046SOL    HW110037   5.584   5.635   0.937
 3046SOL    HW210038   5.701   5.749   0.949
 3047SOL     OW10039   6.298   0.861   6.021
 3047SOL    HW110040   6.225   0.881   5.956
 3047SOL    HW210041   6.297   0.928   6.096
 3048SOL     OW10042   3.620   4.012   0.859
 3048SOL    HW110043   3.653   4.030   0.766
 3048SOL    HW210044   3.694   3.973   0.913
 3049SOL     OW10045   1.428   0.740   4.071
 3049SOL    HW110046   1.467   0.799   4.142
 3049SOL    HW210047   1.404   0.796   3.991
 3050SOL     OW10048   2.764   2.479   1.366
 3050SOL    HW110049   2.704   2.443   1.437
 3050SOL    HW210050   2.856   2.442   1.378
 3051SOL     OW10051   2.033   5.699   5.486
 3051SOL    HW110052   2.038   5.688   5.387
 3051SOL    HW210053   1.950   5.656   5.521
 3052SOL     OW10054   6.837   6.139   2.697
 3052SOL    HW110055   6.858   6.196   2.777
 3052SOL    HW210056   6.799   6.196   2.625
 3053SOL     OW10057   1.564   4.387   0.126
 3053SOL    HW110058   1.474   4.395   0.169
 3053SOL    HW210059   1.557   4.410   0.029
 3054SOL     OW10060   5.697   1.218   2.769
 3054SOL    HW110061   5.681   1.205   2.671
 3054SOL    HW210062   5.682   1.314   2.793
 3055SOL     OW10063   6.086   5.588   6.169
 3055SOL    HW110064   6.091   5.512   6.105
 3055SOL    HW210065   6.164   5.650   6.154
 3056SOL     OW10066   4.681   1.495   5.909
 3056SOL    HW110067   4.587   1.510   5.939
 3056SOL    HW210068   4.686   1.408   5.860
 3057SOL     OW10069   5.743   4.785   2.946
 3057SOL    HW110070   5.726   4.881   2.965
 3057SOL    HW210071   5.829   4.776   2.895
 3058SOL     OW10072   0.605   4.657   6.767
 3058SOL    HW110073   0.558   4.590   6.825
 3058SOL    HW210074   0.566   4.748   6.783
 3059SOL     OW10075   2.278   2.291   4.287
 3059SOL    HW110076   2.343   2.278   4.362
 3059SOL    HW210077   2.304   2.372   4.235
 3060SOL     OW10078   5.220   5.049   5.041
 3060SOL    HW110079   5.290   5.071   5.109
 3060SOL    HW210080   5.237   5.101   4.957
 3061SOL     OW10081   4.993   5.308   5.351
 3061SOL    HW110082   5.082   5.269   5.328
 3061SOL    HW210083   5.003   5.406   5.366
 3062SOL     OW10084   4.847   4.583   2.017
 3062SOL    HW110085   4.801   4.655   2.069
 3062SOL    HW210086   4.778   4.528   1.969
 3063SOL     OW10087   0.402   4.231   1.672
 3063SOL    HW110088   0.446   4.184   1.596
 3063SOL    HW210089   0.353   4.312   1.638
 3064SOL     OW10090   4.837   1.991   6.808
 3064SOL    HW110091   4.929   2.019   6.836
 3064SOL    HW210092   4.818   2.028   6.718
 3065SOL     OW10093   6.890   1.635   6.426
 3065SOL    HW110094   6.802   1.591   6.440
 3065SOL    HW210095   6.912   1.637   6.329
 3066SOL     OW10096   5.199   5.982   5.924
 3066SOL    HW110097   5.144   5.980   6.006
 3066SOL    HW210098   5.249   6.069   5.919
 3067SOL     OW10099   1.701   2.161   5.939
 3067SOL    HW110100   1.671   2.217   6.015
 3067SOL    HW210101   1.659   2.194   5.854
 3068SOL     OW10102   0.692   0.778   0.946
 3068SOL    HW110103   0.604   0.825   0.948
 3068SOL    HW210104   0.682   0.685   0.979
 3069SOL     OW10105   4.970   0.125   2.804
 3069SOL    HW110106   4.916   0.104   2.721
 3069SOL    HW210107   5.034   0.051   2.821
 3070SOL     OW10108   2.548   0.812   1.121
 3070SOL    HW110109   2.582   0.805   1.215
 3070SOL    HW210110   2.621   0.788   1.058
 3071SOL     OW10111   6.988   3.786   4.144
 3071SOL    HW110112   0.043   3.730   4.126
 3071SOL    HW210113   6.950   3.763   4.233
 3072SOL     OW10114   1.965   6.788   6.069
 3072SOL    HW110115   2.001   6.837   6.148
 3072SOL    HW210116   2.041   6.755   6.013
 3073SOL     OW10117   6.012   5.338   1.037
 3073SOL    HW110118   6.005   5.341   1.137
 3073SOL    HW210119   5.943   5.275   1.001
 3074SOL     OW10120   2.010   3.240   1.153
 3074SOL    HW110121   1.972   3.206   1.239
 3074SOL    HW210122   2.110   3.235   1.157
 3075SOL     OW10123   2.949   5.317   2.506
 3075SOL    HW110124   2.921   5.330   2.601
 3075SOL    HW210125   3.027   5.378   2.487
 3076SOL     OW10126   0.221   0.601   4.945
 3076SOL    HW110127   0.144   0.653   4.908
 3076SOL    HW210128   0.307   0.636   4.906
 3077SOL     OW10129   6.258   3.833   2.276
 3077SOL    HW110130   6.238   3.904   2.209
 3077SOL    HW210131   6.239   3.867   2.368
 3078SOL     OW10132   6.849   2.676   1.869
 3078SOL    HW110133   6.803   2.733   1.936
 3078SOL    HW210134   6.799   2.590   1.858
 3079SOL     OW10135   2.025   3.349   5.616
 3079SOL    HW110136   1.932   3.318   5.635
 3079SOL    HW210137   2.086   3.317   5.689
 3080SOL     OW10138   4.545   5.268   0.809
 3080SOL    HW110139   4.623   5.263   0.872
 3080SOL    HW210140   4.465   5.224   0.851
 3081SOL     OW10141   1.696   4.201   0.357
 3081SOL    HW110142   1.632   4.155   0.418
 3081SOL    HW210143   1.647   4.272   0.306
 3082SOL     OW10144   4.315   5.364   4.962
 3082SOL    HW110145   4.375   5.428   5.010
 3082SOL    HW210146   4.337   5.271   4.990
 3083SOL     OW10147   3.042   5.550   2.372
 3083SOL    HW110148   2.981   5.625   2.348
 3083SOL    HW210149   3.089   5.571   2.458
 3084SOL     OW10150   0.412   3.381   3.885
 3084SOL    HW110151   0.501   3.381   3.840
 3084SOL    HW210152   0.424   3.369   3.983
 3085SOL     OW10153   5.306   4.312   0.597
 3085SOL    HW110154   5.368   4.262   0.658
 3085SOL    HW210155   5.360   4.373   0.539
 3086SOL     OW10156   5.844   0.350   6.594
 3086SOL    HW110157   5.823   0.334   6.498
 3086SOL    HW210158   5.832   0.265   6.645
 3087SOL     OW10159   3.078   0.329   2.302
 3087SOL    HW110160   3.041   0.244   2.340
 3087SOL    HW210161   3.122   0.310   2.214
 3088SOL     OW10162   1.623   2.713   5.317
 3088SOL    HW110163   1.539   2.709   5.372
 3088SOL    HW210164   1.701   2.730   5.377
 3089SOL     OW10165   4.392   6.651   5.006
 3089SOL    HW110166   4.392   6.670   4.908
 3089SOL    HW210167   4.351   6.729   5.054
 3090SOL     OW10168   1.713   1.894   2.585
 3090SOL    HW110169   1.803   1.936   2.592
 3090SOL    HW210170   1.644   1.957   2.623
 3091SOL     OW10171   0.846   2.475   0.849
 3091SOL    HW110172   0.856   2.437   0.941
 3091SOL    HW210173   0.882   2.411   0.782
 3092SOL     OW10174   6.428   0.682   2.392
 3092SOL    HW110175   6.357   0.748   2.367
 3092SOL    HW210176   6.387   0.606   2.442
 3093SOL     OW10177   5.141   4.894   6.903
 3093SOL    HW110178   5.158   4.800   6.933
 3093SOL    HW210179   5.082   4.940   6.970
 3094SOL     OW10180   2.948   1.254   6.184
 3094SOL    HW110181   2.894   1.325   6.140
 3094SOL    HW210182   2.895   1.169   6.189
 3095SOL     OW10183   1.913   3.505   5.095
 3095SOL    HW110184   1.999   3.456   5.080
 3095SOL    HW210185   1.933   3.599   5.123
 3096SOL     OW10186   0.302   3.861   4.127
 3096SOL    HW110187   0.293   3.768   4.162
 3096SOL    HW210188   0.368   3.911   4.183
 3097SOL     OW10189   5.428   2.188   6.094
 3097SOL    HW110190   5.495   2.164   6.165
 3097SOL    HW210191   5.356   2.245   6.134
 3098SOL     OW10192   1.999   2.771   2.145
 3098SOL    HW110193   2.096   2.764   2.168
 3098SOL    HW210194   1.947   2.796   2.227
 3099SOL     OW10195   0.364   6.058   4.160
 3099SOL    HW110196   0.381   6.156   4.166
 3099SOL    HW210197   0.289   6.033   4.222
 3100SOL     OW10198   6.821   5.535   2.154
 3100SOL    HW110199   6.734   5.546   2.106
 3100SOL    HW210200   6.810   5.470   2.229
 3101SOL     OW10201   4.043   6.249   5.662
 3101SOL    HW110202   4.069   6.227   5.756
 3101SOL    HW210203   4.055   6.168   5.604
 3102SOL     OW10204   0.202   4.579   0.965
 3102SOL    HW110205   0.148   4.501   0.933
 3102SOL    HW210206   0.149   4.664   0.953
 3103SOL     OW10207   3.219   0.327   1.547
 3103SOL    HW110208   3.302   0.349   1.599
 3103SOL    HW210209   3.140   0.334   1.607
 3104SOL     OW10210   4.339   0.208   6.340
 3104SOL    HW110211   4.369   0.127   6.290
 3104SOL    HW210212   4.412   0.241   6.399
 3105SOL     OW10213   6.002   3.331   0.107
 3105SOL    HW110214   5.983   3.429   0.098
 3105SOL    HW210215   6.078   3.318   0.171
 3106SOL     OW10216   6.181   6.999   5.211
 3106SOL    HW110217   6.265   7.024   5.162
 3106SOL    HW210218   6.190   7.026   5.307
 3107SOL     OW10219   3.961   1.084   5.827
 3107SOL    HW110220   3.971   0.997   5.779
 3107SOL    HW210221   3.868   1.090   5.864
 3108SOL     OW10222   1.945   4.075   3.433
 3108SOL    HW110223   1.928   4.139   3.358
 3108SOL    HW210224   2.020   4.013   3.408
 3109SOL     OW10225   6.514   6.033   3.905
 3109SOL    HW110226   6.567   5.949   3.895
 3109SOL    HW210227   6.462   6.050   3.821
 3110SOL     OW10228   1.007   4.538   3.680
 3110SOL    HW110229   0.939   4.468   3.658
 3110SOL    HW210230   1.071   4.547   3.603
 3111SOL     OW10231   5.813   4.393   4.347
 3111SOL    HW110232   5.798   4.333   4.269
 3111SOL    HW210233   5.795   4.487   4.321
 3112SOL     OW10234   3.595   1.888   6.764
 3112SOL    HW110235   3.533   1.814   6.792
 3112SOL    HW210236   3.645   1.921   6.844
 3113SOL     OW10237   2.296   5.605   3.722
 3113SOL    HW110238   2.348   5.682   3.687
 3113SOL    HW210239   2.346   5.560   3.796
 3114SOL     OW10240   4.209   0.903   6.897
 3114SOL    HW110241   4.249   0.913   6.988
 3114SOL    HW210242   4.267   0.844   6.841
 3115SOL     OW10243   4.498   4.872   5.331
 3115SOL    HW110244   4.586   4.907   5.364
 3115SOL    HW210245   4.426   4.937   5.354
 3116SOL     OW10246   0.790   1.775   1.267
 3116SOL    HW110247   0.741   1.817   1.190
 3116SOL    HW210248   0.781   1.676   1.262
 3117SOL     OW10249   5.036   1.776   5.752
 3117SOL    HW110250   5.086   1.789   5.667
 3117SOL    HW210251   5.100   1.769   5.829
 3118SOL     OW10252   1.685   0.837   3.357
 3118SOL    HW110253   1.586   0.834   3.371
 3118SOL    HW210254   1.711   0.768   3.289
 3119SOL     OW10255   4.642   4.640   5.657
 3119SOL    HW110256   4.736   4.605   5.660
 3119SOL    HW210257   4.644   4.740   5.651
 3120SOL     OW10258   1.841   6.552   4.655
 3120SOL    HW110259   1.908   6.611   4.610
 3120SOL    HW210260   1.753   6.599   4.658
 3121SOL     OW10261   4.523   1.443   4.702
 3121SOL    HW110262   4.621   1.423   4.703
 3121SOL    HW210263   4.504   1.512   4.632
 3122SOL     OW10264   3.713   5.332   4.813
 3122SOL    HW110265   3.642   5.388   4.856
 3122SOL    HW210266   3.751   5.269   4.880
 3123SOL     OW10267   2.580   1.669   3.725
 3123SOL    HW110268   2.483   1.651   3.707
 3123SOL    HW210269   2.610   1.746   3.670
 3124SOL     OW10270   5.161   0.014   3.760
 3124SOL    HW110271   5.232   6.970   3.754
 3124SOL    HW210272   5.110   0.018   3.674
 3125SOL     OW10273   1.659   2.067   5.546
 3125SOL    HW110274   1.594   2.142   5.533
 3125SOL    HW210275   1.620   2.000   5.608
 3126SOL     OW10276   5.835   4.873   4.437
 3126SOL    HW110277   5.799   4.788   4.478
 3126SOL    HW210278   5.931   4.859   4.413
 3127SOL     OW10279   6.863   1.380   4.774
 3127SOL    HW110280   6.933   1.309   4.777
 3127SOL    HW210281   6.834   1.394   4.680
 3128SOL     OW10282   4.394   0.508   0.292
 3128SOL    HW110283   4.316   0.445   0.292
 3128SOL    HW210284   4.365   0.597   0.326
 3129SOL     OW10285   4.357   3.294   0.695
 3129SOL    HW110286   4.268   3.339   0.703
 3129SOL    HW210287   4.380   3.251   0.782
 3130SOL     OW10288   1.195   4.577   1.891
 3130SOL    HW110289   1.193   4.479   1.871
 3130SOL    HW210290   1.102   4.609   1.909
 3131SOL     OW10291   6.802   4.246   2.731
 3131SOL    HW110292   6.896   4.218   2.709
 3131SOL    HW210293   6.804   4.339   2.768
 3132SOL     OW10294   3.900   4.667   6.976
 3132SOL    HW110295   3.990   4.642   7.012
 3132SOL    HW210296   3.903   4.664   6.876
 3133SOL     OW10297   3.802   0.600   4.011
 3133SOL    HW110298   3.900   0.603   3.996
 3133SOL    HW210299   3.780   0.642   4.099
 3134SOL     OW10300   4.159   5.281   2.887
 3134SOL    HW110301   4.109   5.241   2.810
 3134SOL    HW210302   4.220   5.353   2.854
 3135SOL     OW10303   4.928   6.692   6.297
 3135SOL    HW110304   4.849   6.676   6.356
 3135SOL    HW210305   4.907   6.764   6.231
 3136SOL     OW10306   6.211   1.607   3.157
 3136SOL    HW110307   6.298   1.594   3.205
 3136SOL    HW210308   6.190   1.526   3.103
 3137SOL     OW10309   6.419   6.949   6.868
 3137SOL    HW110310   6.428   6.849   6.867
 3137SOL    HW210311   6.463   6.986   6.950
 3138SOL     OW10312   5.568   5.449   4.185
 3138SOL    HW110313   5.591   5.363   4.140
 3138SOL    HW210314   5.651   5.491   4.221
 3139SOL     OW10315   2.204   5.226   0.940
 3139SOL    HW110316   2.204   5.152   1.006
 3139SOL    HW210317   2.217   5.313   0.987
 3140SOL     OW10318   0.099   6.957   6.305
 3140SOL    HW110319   0.159   6.878   6.318
 3140SOL    HW210320   0.131   0.007   6.362
 3141SOL     OW10321   6.545   2.421   6.373
 3141SOL    HW110322   6.570   2.425   6.469
 3141SOL    HW210323   6.476   2.350   6.359
 3142SOL     OW10324   5.070   0.881   2.703
 3142SOL    HW110325   5.040   0.873   2.607
 3142SOL    HW210326   5.159   0.926   2.706
 3143SOL     OW10327   6.259   1.430   0.468
 3143SOL    HW110328   6.332   1.368   0.498
 3143SOL    HW210329   6.227   1.484   0.545
 3144SOL     OW10330   4.395   3.710   6.229
 3144SOL    HW110331   4.400   3.776   6.155
 3144SOL    HW210332   4.308   3.722   6.278
 3145SOL     OW10333   0.419   6.359   1.468
 3145SOL    HW110334   0.354   6.365   1.392
 3145SOL    HW210335   0.394   6.283   1.528
 3146SOL     OW10336   0.481   0.611   4.752
 3146SOL    HW110337   0.501   0.514   4.745
 3146SOL    HW210338   0.556   0.658   4.798
 3147SOL     OW10339   4.201   4.882   6.700
 3147SOL    HW110340   4.122   4.927   6.740
 3147SOL    HW210341   4.192   4.783   6.710
 3148SOL     OW10342   6.963   5.462   2.790
 3148SOL    HW110343   7.016   5.403   2.731
 3148SOL    HW210344   6.867   5.435   2.788
 3149SOL     OW10345   3.135   1.102   0.509
 3149SOL    HW110346   3.155   1.005   0.495
 3149SOL    HW210347   3.193   1.137   0.583
 3150SOL     OW10348   6.738   5.908   4.680
 3150SOL    HW110349   6.667   5.977   4.694
 3150SOL    HW210350   6.821   5.935   4.728
 3151SOL     OW10351   6.125   1.349   5.983
 3151SOL    HW110352   6.166   1.369   6.072
 3151SOL    HW210353   6.197   1.341   5.915
 3152SOL     OW10354   1.061   2.702   6.255
 3152SOL    HW110355   1.023   2.755   6.331
 3152SOL    HW210356   1.078   2.763   6.177
 3153SOL     OW10357   6.316   4.955   1.240
 3153SOL    HW110358   6.366   4.868   1.247
 3153SOL    HW210359   6.220   4.940   1.261
 3154SOL     OW10360   4.898   1.602   0.787
 3154SOL    HW110361   4.825   1.580   0.851
 3154SOL    HW210362   4.865   1.591   0.693
 3155SOL     OW10363   0.367   5.019   0.942
 3155SOL    HW110364   0.340   5.115   0.946
 3155SOL    HW210365   0.293   4.962   0.977
 3156SOL     OW10366   3.620   4.170   2.045
 3156SOL    HW110367   3.620   4.200   1.950
 3156SOL    HW210368   3.713   4.144   2.072
 3157SOL     OW10369   0.595   1.907   5.044
 3157SOL    HW110370   0.658   1.946   5.112
 3157SOL    HW210371   0.520   1.860   5.091
 3158SOL     OW10372   2.443   1.325   5.597
 3158SOL    HW110373   2.441   1.237   5.644
 3158SOL    HW210374   2.354   1.342   5.554
 3159SOL     OW10375   6.392   6.726   0.185
 3159SOL    HW110376   6.474   6.691   0.141
 3159SOL    HW210377   6.311   6.694   0.137
 3160SOL     OW10378   2.390   0.307   6.066
 3160SOL    HW110379   2.307   0.285   6.117
 3160SOL    HW210380   2.384   0.401   6.031
 3161SOL     OW10381   2.021   2.984   3.152
 3161SOL    HW110382   2.094   2.943   3.208
 3161SOL    HW210383   1.935   2.982   3.203
 3162SOL     OW10384   1.783   5.602   0.820
 3162SOL    HW110385   1.835   5.567   0.742
 3162SOL    HW210386   1.845   5.636   0.890
 3163SOL     OW10387   4.782   3.753   0.577
 3163SOL    HW110388   4.845   3.830   0.584
 3163SOL    HW210389   4.826   3.679   0.526
 3164SOL     OW10390   2.647   5.937   3.321
 3164SOL    HW110391   2.665   6.020   3.373
 3164SOL    HW210392   2.687   5.859   3.369
 3165SOL     OW10393   0.816   6.242   0.825
 3165SOL    HW110394   0.818   6.293   0.911
 3165SOL    HW210395   0.722   6.237   0.792
 3166SOL     OW10396   4.026   1.044   5.449
 3166SOL    HW110397   4.104   1.013   5.504
 3166SOL    HW210398   3.997   1.135   5.480
 3167SOL     OW10399   5.160   3.422   0.742
 3167SOL    HW110400   5.095   3.495   0.764
 3167SOL    HW210401   5.240   3.429   0.802
 3168SOL     OW10402   4.401   1.637   0.611
 3168SOL    HW110403   4.320   1.578   0.602
 3168SOL    HW210404   4.479   1.594   0.567
 3169SOL     OW10405   2.064   4.487   2.208
 3169SOL    HW110406   2.148   4.474   2.259
 3169SOL    HW210407   2.051   4.585   2.189
 3170SOL     OW10408   3.565   5.277   3.210
 3170SOL    HW110409   3.591   5.310   3.301
 3170SOL    HW210410   3.631   5.208   3.180
 3171SOL     OW10411   5.395   2.806   3.135
 3171SOL    HW110412   5.329   2.834   3.205
 3171SOL    HW210413   5.403   2.879   3.067
 3172SOL     OW10414   0.271   4.640   0.609
 3172SOL    HW110415   0.321   4.597   0.534
 3172SOL    HW210416   0.262   4.574   0.685
 3173SOL     OW10417   3.652   1.801   0.651
 3173SOL    HW110418   3.740   1.753   0.655
 3173SOL    HW210419   3.595   1.772   0.728
 3174SOL     OW10420   2.871   3.252   5.982
 3174SOL    HW110421   2.926   3.241   5.899
 3174SOL    HW210422   2.830   3.164   6.007
 3175SOL     OW10423   6.975   0.395   3.950
 3175SOL    HW110424   6.964   0.401   4.049
 3175SOL    HW210425   6.984   0.487   3.912
 3176SOL     OW10426   1.307   4.750   5.007
 3176SOL    HW110427   1.354   4.757   5.095
 3176SOL    HW210428   1.293   4.841   4.969
 3177SOL     OW10429   5.641   3.723   3.323
 3177SOL    HW110430   5.685   3.728   3.413
 3177SOL    HW210431   5.668   3.801   3.268
 3178SOL     OW10432   6.764   1.075   1.096
 3178SOL    HW110433   6.812   1.023   1.026
 3178SOL    HW210434   6.798   1.170   1.097
 3179SOL     OW10435   1.167   1.980   1.695
 3179SOL    HW110436   1.174   1.955   1.791
 3179SOL    HW210437   1.109   1.914   1.647
 3180SOL     OW10438   6.764   5.835   0.073
 3180SOL    HW110439   6.678   5.811   0.028
 3180SOL    HW210440   6.821   5.754   0.082
 3181SOL     OW10441   0.554   1.036   4.798
 3181SOL    HW110442   0.586   1.013   4.707
 3181SOL    HW210443   0.456   1.057   4.795
 3182SOL     OW10444   2.684   0.052   0.346
 3182SOL    HW110445   2.600   0.098   0.376
 3182SOL    HW210446   2.674   0.026   0.250
 3183SOL     OW10447   4.446   4.565   2.132
 3183SOL    HW110448   4.485   4.473   2.124
 3183SOL    HW210449   4.520   4.631   2.143
 3184SOL     OW10450   0.434   2.233   4.663
 3184SOL    HW110451   0.447   2.140   4.695
 3184SOL    HW210452   0.344   2.266   4.692
 3185SOL     OW10453   0.021   5.659   6.085
 3185SOL    HW110454   0.112   5.681   6.120
 3185SOL    HW210455   6.978   5.682   6.153
 3186SOL     OW10456   0.194   1.644   6.386
 3186SOL    HW110457   0.177   1.735   6.349
 3186SOL    HW210458   0.174   1.575   6.316
 3187SOL     OW10459   3.932   6.000   2.819
 3187SOL    HW110460   3.858   5.945   2.780
 3187SOL    HW210461   3.967   5.956   2.902
 3188SOL     OW10462   2.203   4.709   5.374
 3188SOL    HW110463   2.215   4.609   5.375
 3188SOL    HW210464   2.273   4.751   5.432
 3189SOL     OW10465   2.823   1.508   6.904
 3189SOL    HW110466   2.810   1.415   6.870
 3189SOL    HW210467   2.911   1.515   6.951
 3190SOL     OW10468   7.009   5.760   4.411
 3190SOL    HW110469   6.921   5.780   4.368
 3190SOL    HW210470   7.008   5.790   4.506
 3191SOL     OW10471   4.651   5.461   1.890
 3191SOL    HW110472   4.702   5.531   1.839
 3191SOL    HW210473   4.704   5.434   1.970
 3192SOL     OW10474   6.193   2.153   2.490
 3192SOL    HW110475   6.115   2.168   2.550
 3192SOL    HW210476   6.166   2.090   2.416
 3193SOL     OW10477   3.767   0.331   5.336
 3193SOL    HW110478   3.675   0.369   5.321
 3193SOL    HW210479   3.826   0.355   5.260
 3194SOL     OW10480   1.107   1.423   5.441
 3194SOL    HW110481   1.195   1.405   5.485
 3194SOL    HW210482   1.041   1.353   5.469
 3195SOL     OW10483   0.136   1.768   1.751
 3195SOL    HW110484   0.179   1.689   1.706
 3195SOL    HW210485   0.177   1.852   1.716
 3196SOL     OW10486   6.223   0.057   4.570
 3196SOL    HW110487   6.214   0.121   4.646
 3196SOL    HW210488   6.175   6.998   4.592
 3197SOL     OW10489   2.243   0.563   6.346
 3197SOL    HW110490   2.290   0.626   6.286
 3197SOL    HW210491   2.160   0.606   6.383
 3198SOL     OW10492   6.539   2.482   3.979
 3198SOL    HW110493   6.497   2.394   4.002
 3198SOL    HW210494   6.481   2.530   3.913
 3199SOL     OW10495   5.196   4.326   3.181
 3199SOL    HW110496   5.296   4.326   3.184
 3199SOL    HW210497   5.162   4.239   3.216
 3200SOL     OW10498   5.418   3.277   4.032
 3200SOL    HW110499   5.468   3.353   3.992
 3200SOL    HW210500   5.378   3.221   3.958
 3201SOL     OW10501   6.017   4.218   2.788
 3201SOL    HW110502   6.038   4.120   2.789
 3201SOL    HW210503   5.926   4.233   2.825
 3202SOL     OW10504   1.217   5.134   0.702
 3202SOL    HW110505   1.204   5.060   0.768
 3202SOL    HW210506   1.287   5.108   0.636
 3203SOL     OW10507   4.299   5.886   1.130
 3203SOL    HW110508   4.375   5.894   1.065
 3203SOL    HW210509   4.332   5.844   1.214
 3204SOL     OW10510   2.464   1.223   3.373
 3204SOL    HW110511   2.495   1.292   3.438
 3204SOL    HW210512   2.459   1.263   3.282
 3205SOL     OW10513   5.401   2.891   5.561
 3205SOL    HW110514   5.462   2.922   5.488
 3205SOL    HW210515   5.424   2.797   5.585
 3206SOL     OW10516   2.972   2.855   1.643
 3206SOL    HW110517   2.940   2.945   1.670
 3206SOL    HW210518   2.908   2.815   1.577
 3207SOL     OW10519   1.037   6.994   4.999
 3207SOL    HW110520   1.013   6.900   5.023
 3207SOL    HW210521   0.999   7.016   4.909
 3208SOL     OW10522   6.104   6.091   5.670
 3208SOL    HW110523   6.130   5.998   5.643
 3208SOL    HW210524   6.031   6.124   5.610
 3209SOL     OW10525   5.154   5.723   6.146
 3209SOL    HW110526   5.177   5.745   6.241
 3209SOL    HW210527   5.209   5.779   6.084
 3210SOL     OW10528   6.746   4.828   1.355
 3210SOL    HW110529   6.836   4.813   1.395
 3210SOL    HW210530   6.682   4.760   1.390
 3211SOL     OW10531   1.303   6.049   0.077
 3211SOL    HW110532   1.249   6.112   0.021
 3211SOL    HW210533   1.361   5.992   0.019
 3212SOL     OW10534   2.695   6.881   2.633
 3212SOL    HW110535   2.726   6.964   2.681
 3212SOL    HW210536   2.765   6.810   2.644
 3213SOL     OW10537   1.321   0.847   5.917
 3213SOL    HW110538   1.327   0.867   5.819
 3213SOL    HW210539   1.271   0.920   5.963
 3214SOL     OW10540   3.590   1.296   2.885
 3214SOL    HW110541   3.640   1.213   2.910
 3214SOL    HW210542   3.627   1.374   2.936
 3215SOL     OW10543   1.563   2.635   0.718
 3215SOL    HW110544   1.646   2.580   0.722
 3215SOL    HW210545   1.548   2.666   0.625
 3216SOL     OW10546   5.550   3.940   0.635
 3216SOL    HW110547   5.491   3.885   0.577
 3216SOL    HW210548   5.498   3.974   0.713
 3217SOL     OW10549   0.641   4.815   3.011
 3217SOL    HW110550   0.577   4.886   3.041
 3217SOL    HW210551   0.726   4.824   3.063
 3218SOL     OW10552   6.712   1.927   3.013
 3218SOL    HW110553   6.776   1.969   3.077
 3218SOL    HW210554   6.758   1.854   2.962
 3219SOL     OW10555   6.228   0.582   5.533
 3219SOL    HW110556   6.326   0.570   5.545
 3219SOL    HW210557   6.210   0.667   5.484
 3220SOL     OW10558   6.689   4.852   0.009
 3220SOL    HW110559   6.749   4.778   0.040
 3220SOL    HW210560   6.744   4.934   7.019
 3221SOL     OW10561   4.332   0.116   1.842
 3221SOL    HW110562   4.401   0.054   1.881
 3221SOL    HW210563   4.371   0.161   1.761
 3222SOL     OW10564   2.564   1.387   2.475
 3222SOL    HW110565   2.633   1.453   2.445
 3222SOL    HW210566   2.573   1.302   2.422
 3223SOL     OW10567   1.307   6.564   1.195
 3223SOL    HW110568   1.317   6.510   1.111
 3223SOL    HW210569   1.371   6.641   1.192
 3224SOL     OW10570   4.525   2.244   4.704
 3224SOL    HW110571   4.595   2.188   4.748
 3224SOL    HW210572   4.530   2.337   4.739
 3225SOL     OW10573   4.421   0.040   4.188
 3225SOL    HW110574   4.348   0.058   4.253
 3225SOL    HW210575   4.441   0.123   4.137
 3226SOL     OW10576   0.430   0.401   1.822
 3226SOL    HW110577   0.346   0.436   1.781
 3226SOL    HW210578   0.413   0.379   1.918
 3227SOL     OW10579   4.689   2.807   5.491
 3227SOL    HW110580   4.735   2.786   5.577
 3227SOL    HW210581   4.643   2.725   5.457
 3228SOL     OW10582   0.967   4.188   0.570
 3228SOL    HW110583   0.956   4.106   0.627
 3228SOL    HW210584   0.889   4.195   0.508
 3229SOL     OW10585   2.154   1.733   6.774
 3229SOL    HW110586   2.102   1.702   6.853
 3229SOL    HW210587   2.249   1.750   6.801
 3230SOL     OW10588   2.409   5.734   5.845
 3230SOL    HW110589   2.374   5.825   5.868
 3230SOL    HW210590   2.366   5.702   5.760
 3231SOL     OW10591   2.719   1.333   2.058
 3231SOL    HW110592   2.624   1.344   2.087
 3231SOL    HW210593   2.727   1.358   1.962
 3232SOL     OW10594   4.117   6.041   4.236
 3232SOL    HW110595   4.046   6.057   4.304
 3232SOL    HW210596   4.099   5.954   4.189
 3233SOL     OW10597   0.990   2.151   6.990
 3233SOL    HW110598   0.927   2.095   0.018
 3233SOL    HW210599   0.968   2.142   6.893
 3234SOL     OW10600   2.699   3.054   0.550
 3234SOL    HW110601   2.780   3.106   0.578
 3234SOL    HW210602   2.701   3.042   0.450
 3235SOL     OW10603   6.800   6.535   2.187
 3235SOL    HW110604   6.748   6.614   2.154
 3235SOL    HW210605   6.738   6.472   2.235
 3236SOL     OW10606   3.093   4.350   0.492
 3236SOL    HW110607   3.118   4.286   0.420
 3236SOL    HW210608   2.999   4.331   0.522
 3237SOL     OW10609   6.128   1.001   5.507
 3237SOL    HW110610   6.184   1.082   5.525
 3237SOL    HW210611   6.067   1.019   5.430
 3238SOL     OW10612   6.189   5.529   1.116
 3238SOL    HW110613   6.283   5.493   1.118
 3238SOL    HW210614   6.129   5.463   1.071
 3239SOL     OW10615   7.001   0.196   3.740
 3239SOL    HW110616   0.046   0.208   3.671
 3239SOL    HW210617   6.999   0.275   3.801
 3240SOL     OW10618   0.702   1.058   6.123
 3240SOL    HW110619   0.754   1.055   6.209
 3240SOL    HW210620   0.665   0.967   6.104
 3241SOL     OW10621   5.530   1.656   6.660
 3241SOL    HW110622   5.607   1.631   6.602
 3241SOL    HW210623   5.465   1.580   6.665
 3242SOL     OW10624   4.942   4.280   5.458
 3242SOL    HW110625   4.894   4.211   5.512
 3242SOL    HW210626   4.976   4.352   5.518
 3243SOL     OW10627   4.815   5.308   5.697
 3243SOL    HW110628   4.846   5.313   5.792
 3243SOL    HW210629   4.866   5.237   5.649
 3244SOL     OW10630   5.995   6.352   6.620
 3244SOL    HW110631   5.935   6.404   6.680
 3244SOL    HW210632   5.953   6.343   6.530
 3245SOL     OW10633   4.324   1.550   3.766
 3245SOL    HW110634   4.292   1.491   3.692
 3245SOL    HW210635   4.260   1.546   3.843
 3246SOL     OW10636   0.771   0.343   2.040
 3246SOL    HW110637   0.692   0.342   2.102
 3246SOL    HW210638   0.789   0.437   2.011
 3247SOL     OW10639   0.533   4.035   2.799
 3247SOL    HW110640   0.604   4.075   2.742
 3247SOL    HW210641   0.485   4.107   2.850
 3248SOL     OW10642   5.688   2.152   3.393
 3248SOL    HW110643   5.748   2.202   3.456
 3248SOL    HW210644   5.683   2.200   3.306
 3249SOL     OW10645   3.439   3.835   3.660
 3249SOL    HW110646   3.413   3.883   3.576
 3249SOL    HW210647   3.376   3.860   3.733
 3250SOL     OW10648   5.245   6.265   2.185
 3250SOL    HW110649   5.184   6.235   2.259
 3250SOL    HW210650   5.339   6.241   2.208
 3251SOL     OW10651   2.460   1.025   4.407
 3251SOL    HW110652   2.399   1.033   4.486
 3251SOL    HW210653   2.540   1.083   4.421
 3252SOL     OW10654   2.712   1.601   4.210
 3252SOL    HW110655   2.783   1.668   4.190
 3252SOL    HW210656   2.648   1.640   4.277
 3253SOL     OW10657   6.400   3.081   0.953
 3253SOL    HW110658   6.473   3.124   0.900
 3253SOL    HW210659   6.416   2.982   0.957
 3254SOL     OW10660   5.679   0.842   0.524
 3254SOL    HW110661   5.716   0.884   0.441
 3254SOL    HW210662   5.672   0.912   0.596
 3255SOL     OW10663   6.044   4.950   1.240
 3255SOL    HW110664   6.033   4.951   1.141
 3255SOL    HW210665   5.957   4.925   1.283
 3256SOL     OW10666   4.562   2.490   1.131
 3256SOL    HW110667   4.627   2.564   1.149
 3256SOL    HW210668   4.575   2.455   1.039
 3257SOL     OW10669   2.446   2.199   2.578
 3257SOL    HW110670   2.525   2.175   2.634
 3257SOL    HW210671   2.362   2.181   2.629
 3258SOL     OW10672   2.660   5.707   3.784
 3258SOL    HW110673   2.740   5.651   3.808
 3258SOL    HW210674   2.631   5.759   3.864
 3259SOL     OW10675   5.077   4.081   4.458
 3259SOL    HW110676   5.098   4.053   4.552
 3259SOL    HW210677   5.103   4.009   4.394
 3260SOL     OW10678   2.216   4.514   1.692
 3260SOL    HW110679   2.267   4.434   1.725
 3260SOL    HW210680   2.135   4.483   1.643
 3261SOL     OW10681   4.315   0.744   3.047
 3261SOL    HW110682   4.275   0.671   3.102
 3261SOL    HW210683   4.405   0.767   3.084
 3262SOL     OW10684   3.799   1.935   2.704
 3262SOL    HW110685   3.749   1.926   2.618
 3262SOL    HW210686   3.874   1.868   2.706
 3263SOL     OW10687   1.757   1.477   2.778
 3263SOL    HW110688   1.849   1.512   2.765
 3263SOL    HW210689   1.692   1.553   2.784
 3264SOL     OW10690   2.371   5.307   0.154
 3264SOL    HW110691   2.399   5.343   0.066
 3264SOL    HW210692   2.321   5.377   0.205
 3265SOL     OW10693   5.925   5.104   5.945
 3265SOL    HW110694   6.007   5.142   5.903
 3265SOL    HW210695   5.867   5.063   5.875
 3266SOL     OW10696   3.016   5.049   0.459
 3266SOL    HW110697   3.035   4.977   0.393
 3266SOL    HW210698   2.940   5.106   0.427
 3267SOL     OW10699   4.123   0.080   0.813
 3267SOL    HW110700   4.179   0.091   0.895
 3267SOL    HW210701   4.175   0.028   0.745
 3268SOL     OW10702   6.715   4.530   1.716
 3268SOL    HW110703   6.806   4.494   1.737
 3268SOL    HW210704   6.671   4.559   1.801
 3269SOL     OW10705   1.080   4.976   2.452
 3269SOL    HW110706   1.172   4.963   2.416
 3269SOL    HW210707   1.038   5.055   2.408
 3270SOL     OW10708   0.801   2.539   5.449
 3270SOL    HW110709   0.798   2.565   5.353
 3270SOL    HW210710   0.722   2.481   5.470
 3271SOL     OW10711   0.041   3.590   2.419
 3271SOL    HW110712   0.108   3.613   2.349
 3271SOL    HW210713   6.974   3.602   2.382
 3272SOL     OW10714   4.279   6.219   0.317
 3272SOL    HW110715   4.324   6.288   0.374
 3272SOL    HW210716   4.348   6.168   0.266
 3273SOL     OW10717   4.799   3.506   6.331
 3273SOL    HW110718   4.769   3.417   6.297
 3273SOL    HW210719   4.853   3.552   6.261
 3274SOL     OW10720   5.753   0.959   6.983
 3274SOL    HW110721   5.776   0.936   0.052
 3274SOL    HW210722   5.706   1.047   6.980
 3275SOL     OW10723   4.631   0.359   1.175
 3275SOL    HW110724   4.689   0.432   1.209
 3275SOL    HW210725   4.567   0.395   1.108
 3276SOL     OW10726   4.756   0.164   0.233
 3276SOL    HW110727   4.751   0.065   0.229
 3276SOL    HW210728   4.691   0.198   0.302
 3277SOL     OW10729   3.427   1.482   1.828
 3277SOL    HW110730   3.406   1.575   1.798
 3277SOL    HW210731   3.397   1.470   1.922
 3278SOL     OW10732   0.006   0.684   6.839
 3278SOL    HW110733   0.025   0.750   6.766
 3278SOL    HW210734   0.085   0.676   6.898
 3279SOL     OW10735   4.429   6.417   1.005
 3279SOL    HW110736   4.337   6.455   1.012
 3279SOL    HW210737   4.424   6.323   0.971
 3280SOL     OW10738   5.509   3.637   4.410
 3280SOL    HW110739   5.419   3.660   4.447
 3280SOL    HW210740   5.505   3.547   4.366
 3281SOL     OW10741   6.741   4.301   2.000
 3281SOL    HW110742   6.785   4.225   1.951
 3281SOL    HW210743   6.761   4.293   2.098
 3282SOL     OW10744   0.442   3.901   5.045
 3282SOL    HW110745   0.495   3.924   5.126
 3282SOL    HW210746   0.496   3.841   4.986
 3283SOL     OW10747   3.831   0.914   1.399
 3283SOL    HW110748   3.846   0.894   1.302
 3283SOL    HW210749   3.733   0.913   1.419
 3284SOL     OW10750   1.663   5.983   4.807
 3284SOL    HW110751   1.696   5.893   4.779
 3284SOL    HW210752   1.595   6.016   4.741
 3285SOL     OW10753   5.850   0.999   4.392
 3285SOL    HW110754   5.804   1.067   4.334
 3285SOL    HW210755   5.945   1.027   4.407
 3286SOL     OW10756   2.989   1.913   1.601
 3286SOL    HW110757   3.085   1.938   1.606
 3286SOL    HW210758   2.953   1.935   1.510
 3287SOL     OW10759   1.797   0.516   6.147
 3287SOL    HW110760   1.839   0.606   6.131
 3287SOL    HW210761   1.722   0.525   6.212
 3288SOL     OW10762   1.751   6.242   0.996
 3288SOL    HW110763   1.698   6.310   1.046
 3288SOL    HW210764   1.849   6.259   1.010
 3289SOL     OW10765   3.644   1.503   6.535
 3289SOL    HW110766   3.659   1.417   6.585
 3289SOL    HW210767   3.733   1.541   6.509
 3290SOL     OW10768   6.883   5.181   0.596
 3290SOL    HW110769   6.849   5.262   0.549
 3290SOL    HW210770   6.905   5.110   0.529
 3291SOL     OW10771   4.488   0.271   5.494
 3291SOL    HW110772   4.525   0.216   5.569
 3291SOL    HW210773   4.389   0.274   5.500
 3292SOL     OW10774   0.363   1.614   0.986
 3292SOL    HW110775   0.437   1.556   1.021
 3292SOL    HW210776   0.276   1.584   1.025
 3293SOL     OW10777   6.448   5.271   2.886
 3293SOL    HW110778   6.400   5.272   2.974
 3293SOL    HW210779   6.476   5.177   2.865
 3294SOL     OW10780   5.367   2.484   5.445
 3294SOL    HW110781   5.449   2.474   5.387
 3294SOL    HW210782   5.363   2.408   5.510
 3295SOL     OW10783   2.070   2.933   1.043
 3295SOL    HW110784   1.975   2.936   1.013
 3295SOL    HW210785   2.124   2.996   0.988
 3296SOL     OW10786   0.593   0.256   5.617
 3296SOL    HW110787   0.536   0.303   5.550
 3296SOL    HW210788   0.550   0.261   5.707
 3297SOL     OW10789   3.174   1.929   5.363
 3297SOL    HW110790   3.221   1.841   5.357
 3297SOL    HW210791   3.134   1.951   5.274
 3298SOL     OW10792   6.422   4.305   4.564
 3298SOL    HW110793   6.358   4.310   4.641
 3298SOL    HW210794   6.510   4.270   4.596
 3299SOL     OW10795   3.533   4.906   3.794
 3299SOL    HW110796   3.539   4.991   3.741
 3299SOL    HW210797   3.459   4.850   3.760
 3300SOL     OW10798   1.975   0.115   5.294
 3300SOL    HW110799   1.937   0.192   5.243
 3300SOL    HW210800   2.002   0.145   5.385
 3301SOL     OW10801   1.744   3.209   2.492
 3301SOL    HW110802   1.760   3.204   2.590
 3301SOL    HW210803   1.830   3.229   2.445
 3302SOL     OW10804   2.402   4.772   5.536
 3302SOL    HW110805   2.459   4.831   5.479
 3302SOL    HW210806   2.448   4.685   5.551
 3303SOL     OW10807   3.527   3.063   0.631
 3303SOL    HW110808   3.568   3.066   0.540
 3303SOL    HW210809   3.560   2.982   0.681
 3304SOL     OW10810   2.535   4.492   5.807
 3304SOL    HW110811   2.513   4.502   5.710
 3304SOL    HW210812   2.460   4.444   5.853
 3305SOL     OW10813   3.505   0.446   1.395
 3305SOL    HW110814   3.428   0.400   1.351
 3305SOL    HW210815   3.480   0.473   1.488
 3306SOL     OW10816   1.607   0.307   7.007
 3306SOL    HW110817   1.562   0.374   0.042
 3306SOL    HW210818   1.671   0.252   0.035
 3307SOL     OW10819   1.046   6.919   4.555
 3307SOL    HW110820   1.126   6.935   4.613
 3307SOL    HW210821   1.037   6.821   4.536
 3308SOL     OW10822   3.700   4.397   1.003
 3308SOL    HW110823   3.657   4.327   1.060
 3308SOL    HW210824   3.783   4.360   0.962
 3309SOL     OW10825   5.100   4.110   4.122
 3309SOL    HW110826   5.034   4.043   4.155
 3309SOL    HW210827   5.052   4.193   4.095
 3310SOL     OW10828   0.510   5.202   4.771
 3310SOL    HW110829   0.496   5.103   4.768
 3310SOL    HW210830   0.422   5.248   4.767
 3311SOL     OW10831   2.840   3.690   0.558
 3311SOL    HW110832   2.741   3.696   0.557
 3311SOL    HW210833   2.871   3.651   0.645
 3312SOL     OW10834   4.958   2.677   6.446
 3312SOL    HW110835   4.960   2.694   6.348
 3312SOL    HW210836   4.909   2.751   6.492
 3313SOL     OW10837   0.994   0.531   3.010
 3313SOL    HW110838   0.919   0.532   2.944
 3313SOL    HW210839   1.038   0.621   3.011
 3314SOL     OW10840   2.332   6.630   3.182
 3314SOL    HW110841   2.268   6.697   3.218
 3314SOL    HW210842   2.358   6.655   3.088
 3315SOL     OW10843   0.436   5.442   5.332
 3315SOL    HW110844   0.403   5.386   5.255
 3315SOL    HW210845   0.532   5.464   5.317
 3316SOL     OW10846   2.624   1.041   6.421
 3316SOL    HW110847   2.644   1.077   6.512
 3316SOL    HW210848   2.525   1.031   6.410
 3317SOL     OW10849   5.009   2.467   1.991
 3317SOL    HW110850   4.973   2.510   2.073
 3317SOL    HW210851   4.975   2.373   1.984
 3318SOL     OW10852   3.092   2.666   0.276
 3318SOL    HW110853   3.020   2.719   0.231
 3318SOL    HW210854   3.157   2.728   0.319
 3319SOL     OW10855   6.433   6.790   2.735
 3319SOL    HW110856   6.402   6.771   2.828
 3319SOL    HW210857   6.532   6.805   2.735
 3320SOL     OW10858   6.429   0.175   0.722
 3320SOL    HW110859   6.353   0.237   0.703
 3320SOL    HW210860   6.516   0.223   0.711
 3321SOL     OW10861   5.479   1.929   0.175
 3321SOL    HW110862   5.450   1.978   0.258
 3321SOL    HW210863   5.561   1.876   0.194
 3322SOL     OW10864   6.617   3.208   0.817
 3322SOL    HW110865   6.684   3.282   0.823
 3322SOL    HW210866   6.583   3.201   0.723
 3323SOL     OW10867   2.634   1.699   1.924
 3323SOL    HW110868   2.733   1.712   1.924
 3323SOL    HW210869   2.599   1.709   2.017
 3324SOL     OW10870   5.232   5.264   5.819
 3324SOL    HW110871   5.264   5.277   5.725
 3324SOL    HW210872   5.290   5.317   5.881
 3325SOL     OW10873   1.256   3.363   6.594
 3325SOL    HW110874   1.317   3.441   6.582
 3325SOL    HW210875   1.180   3.389   6.654
 3326SOL     OW10876   5.461   1.105   3.097
 3326SOL    HW110877   5.362   1.100   3.086
 3326SOL    HW210878   5.486   1.085   3.191
 3327SOL     OW10879   0.878   6.083   1.341
 3327SOL    HW110880   0.942   6.075   1.264
 3327SOL    HW210881   0.929   6.078   1.427
 3328SOL     OW10882   3.197   1.670   1.037
 3328SOL    HW110883   3.258   1.683   1.115
 3328SOL    HW210884   3.221   1.734   0.965
 3329SOL     OW10885   6.416   5.473   5.557
 3329SOL    HW110886   6.391   5.379   5.533
 3329SOL    HW210887   6.501   5.472   5.610
 3330SOL     OW10888   6.551   2.694   2.289
 3330SOL    HW110889   6.577   2.749   2.369
 3330SOL    HW210890   6.454   2.671   2.295
 3331SOL     OW10891   1.461   2.065   1.268
 3331SOL    HW110892   1.481   2.162   1.281
 3331SOL    HW210893   1.382   2.039   1.324
 3332SOL     OW10894   5.820   4.524   0.290
 3332SOL    HW110895   5.832   4.472   0.375
 3332SOL    HW210896   5.902   4.516   0.234
 3333SOL     OW10897   4.330   5.064   6.010
 3333SOL    HW110898   4.330   4.965   6.025
 3333SOL    HW210899   4.243   5.092   5.969
 3334SOL     OW10900   3.568   3.457   1.535
 3334SOL    HW110901   3.594   3.373   1.583
 3334SOL    HW210902   3.644   3.523   1.541
 3335SOL     OW10903   5.016   4.780   5.778
 3335SOL    HW110904   4.984   4.813   5.866
 3335SOL    HW210905   5.105   4.820   5.757
 3336SOL     OW10906   3.271   5.329   6.209
 3336SOL    HW110907   3.293   5.389   6.286
 3336SOL    HW210908   3.196   5.370   6.157
 3337SOL     OW10909   3.593   2.352   1.431
 3337SOL    HW110910   3.676   2.300   1.410
 3337SOL    HW210911   3.618   2.437   1.477
 3338SOL     OW10912   0.184   4.071   1.448
 3338SOL    HW110913   0.093   4.074   1.405
 3338SOL    HW210914   0.229   4.159   1.437
 3339SOL     OW10915   6.646   6.002   6.732
 3339SOL    HW110916   6.586   5.922   6.731
 3339SOL    HW210917   6.729   5.981   6.783
 3340SOL     OW10918   3.300   6.493   2.322
 3340SOL    HW110919   3.266   6.446   2.241
 3340SOL    HW210920   3.233   6.561   2.352
 3341SOL     OW10921   0.778   0.207   2.778
 3341SOL    HW110922   0.775   0.277   2.849
 3341SOL    HW210923   0.838   0.132   2.807
 3342SOL     OW10924   1.769   6.800   4.352
 3342SOL    HW110925   1.672   6.810   4.372
 3342SOL    HW210926   1.809   6.890   4.334
 3343SOL     OW10927   5.118   2.955   0.931
 3343SOL    HW110928   5.212   2.982   0.910
 3343SOL    HW210929   5.099   2.971   1.028
 3344SOL     OW10930   5.635   3.803   5.313
 3344SOL    HW110931   5.690   3.887   5.310
 3344SOL    HW210932   5.539   3.827   5.324
 3345SOL     OW10933   2.836   3.871   5.846
 3345SOL    HW110934   2.803   3.930   5.772
 3345SOL    HW210935   2.908   3.811   5.811
 3346SOL     OW10936   0.420   0.821   2.103
 3346SOL    HW110937   0.352   0.749   2.089
 3346SOL    HW210938   0.435   0.833   2.201
 3347SOL     OW10939   6.232   3.967   4.612
 3347SOL    HW110940   6.175   3.892   4.581
 3347SOL    HW210941   6.214   4.048   4.557
 3348SOL     OW10942   3.368   3.199   3.882
 3348SOL    HW110943   3.414   3.225   3.797
 3348SOL    HW210944   3.342   3.103   3.878
 3349SOL     OW10945   6.732   3.842   4.310
 3349SOL    HW110946   6.646   3.889   4.330
 3349SOL    HW210947   6.764   3.795   4.392
 3350SOL     OW10948   1.788   1.071   6.983
 3350SOL    HW110949   1.872   1.020   6.999
 3350SOL    HW210950   1.808   1.155   6.933
 3351SOL     OW10951   5.685   1.278   1.071
 3351SOL    HW110952   5.607   1.331   1.103
 3351SOL    HW210953   5.724   1.321   0.990
 3352SOL     OW10954   0.758   4.136   1.151
 3352SOL    HW110955   0.841   4.112   1.200
 3352SOL    HW210956   0.777   4.146   1.053
 3353SOL     OW10957   1.400   6.762   6.275
 3353SOL    HW110958   1.328   6.693   6.289
 3353SOL    HW210959   1.484   6.716   6.245
 3354SOL     OW10960   0.003   2.328   3.649
 3354SOL    HW110961   0.030   2.286   3.736
 3354SOL    HW210962   0.072   2.394   3.621
 3355SOL     OW10963   0.370   1.618   1.599
 3355SOL    HW110964   0.360   1.522   1.627
 3355SOL    HW210965   0.439   1.662   1.656
 3356SOL     OW10966   3.069   3.648   6.812
 3356SOL    HW110967   3.092   3.573   6.750
 3356SOL    HW210968   2.979   3.684   6.789
 3357SOL     OW10969   3.141   5.272   1.859
 3357SOL    HW110970   3.194   5.195   1.823
 3357SOL    HW210971   3.189   5.311   1.938
 3358SOL     OW10972   4.706   6.387   2.652
 3358SOL    HW110973   4.785   6.446   2.667
 3358SOL    HW210974   4.728   6.294   2.682
 3359SOL     OW10975   1.087   0.518   2.597
 3359SOL    HW110976   1.106   0.592   2.532
 3359SOL    HW210977   1.010   0.463   2.564
 3360SOL     OW10978   0.402   1.045   0.317
 3360SOL    HW110979   0.340   1.061   0.394
 3360SOL    HW210980   0.359   1.072   0.232
 3361SOL     OW10981   6.044   5.977   3.229
 3361SOL    HW110982   6.124   5.919   3.211
 3361SOL    HW210983   5.990   5.986   3.146
 3362SOL     OW10984   2.756   1.557   4.780
 3362SOL    HW110985   2.697   1.585   4.704
 3362SOL    HW210986   2.849   1.542   4.746
 3363SOL     OW10987   0.017   1.791   0.184
 3363SOL    HW110988   0.065   1.859   0.128
 3363SOL    HW210989   6.977   1.742   0.127
 3364SOL     OW10990   1.159   5.644   5.992
 3364SOL    HW110991   1.205   5.694   5.919
 3364SOL    HW210992   1.214   5.650   6.076
 3365SOL     OW10993   0.302   2.544   4.601
 3365SOL    HW110994   0.244   2.464   4.618
 3365SOL    HW210995   0.253   2.627   4.626
 3366SOL     OW10996   5.300   0.300   5.571
 3366SOL    HW110997   5.229   0.365   5.547
 3366SOL    HW210998   5.385   0.325   5.525
 3367SOL     OW10999   1.561   2.308   2.580
 3367SOL    HW111000   1.486   2.271   2.635
 3367SOL    HW211001   1.524   2.375   2.515
 3368SOL     OW11002   6.430   5.677   6.395
 3368SOL    HW111003   6.476   5.723   6.319
 3368SOL    HW211004   6.378   5.599   6.361
 3369SOL     OW11005   3.717   0.286   0.323
 3369SOL    HW111006   3.636   0.257   0.273
 3369SOL    HW211007   3.794   0.226   0.301
 3370SOL     OW11008   6.700   6.557   4.946
 3370SOL    HW111009   6.616   6.505   4.962
 3370SOL    HW211010   6.765   6.538   5.019
 3371SOL     OW11011   1.461   4.383   1.742
 3371SOL    HW111012   1.440   4.402   1.646
 3371SOL    HW211013   1.382   4.343   1.787
 3372SOL     OW11014   0.672   0.955   2.645
 3372SOL    HW111015   0.719   0.867   2.658
 3372SOL    HW211016   0.670   0.976   2.547
 3373SOL     OW11017   5.955   1.442   4.976
 3373SOL    HW111018   6.011   1.420   4.896
 3373SOL    HW211019   5.861   1.413   4.961
 3374SOL     OW11020   3.412   6.020   5.588
 3374SOL    HW111021   3.316   6.030   5.614
 3374SOL    HW211022   3.458   5.959   5.653
 3375SOL     OW11023   4.589   4.427   5.087
 3375SOL    HW111024   4.507   4.475   5.057
 3375SOL    HW211025   4.607   4.448   5.184
 3376SOL     OW11026   3.218   3.156   2.531
 3376SOL    HW111027   3.243   3.061   2.512
 3376SOL    HW211028   3.240   3.213   2.452
 3377SOL     OW11029   0.871   6.256   4.804
 3377SOL    HW111030   0.808   6.185   4.772
 3377SOL    HW211031   0.939   6.275   4.733
 3378SOL     OW11032   6.584   1.297   1.501
 3378SOL    HW111033   6.516   1.243   1.452
 3378SOL    HW211034   6.594   1.386   1.457
 3379SOL     OW11035   0.585   4.900   5.650
 3379SOL    HW111036   0.569   4.830   5.580
 3379SOL    HW211037   0.510   4.966   5.648
 3380SOL     OW11038   0.253   4.527   6.837
 3380SOL    HW111039   0.279   4.452   6.776
 3380SOL    HW211040   0.209   4.599   6.784
 3381SOL     OW11041   3.334   2.814   0.394
 3381SOL    HW111042   3.384   2.763   0.464
 3381SOL    HW211043   3.397   2.842   0.321
 3382SOL     OW11044   6.743   1.861   0.592
 3382SOL    HW111045   6.743   1.780   0.651
 3382SOL    HW211046   6.826   1.862   0.537
 3383SOL     OW11047   6.002   4.529   3.020
 3383SOL    HW111048   6.082   4.573   3.060
 3383SOL    HW211049   6.019   4.510   2.923
 3384SOL     OW11050   3.174   3.058   4.794
 3384SOL    HW111051   3.176   3.107   4.881
 3384SOL    HW211052   3.097   3.092   4.739
 3385SOL     OW11053   6.654   3.639   3.358
 3385SOL    HW111054   6.753   3.624   3.352
 3385SOL    HW211055   6.618   3.593   3.439
 3386SOL     OW11056   6.068   4.633   4.552
 3386SOL    HW111057   6.093   4.727   4.529
 3386SOL    HW211058   6.062   4.579   4.468
 3387SOL     OW11059   2.533   2.517   2.672
 3387SOL    HW111060   2.480   2.447   2.624
 3387SOL    HW211061   2.631   2.499   2.659
 3388SOL     OW11062   5.536   2.295   1.233
 3388SOL    HW111063   5.485   2.376   1.261
 3388SOL    HW211064   5.612   2.280   1.296
 3389SOL     OW11065   4.758   4.201   3.976
 3389SOL    HW111066   4.801   4.139   3.910
 3389SOL    HW211067   4.681   4.249   3.932
 3390SOL     OW11068   4.791   2.728   5.768
 3390SOL    HW111069   4.783   2.632   5.797
 3390SOL    HW211070   4.745   2.786   5.834
 3391SOL     OW11071   3.791   1.621   4.818
 3391SOL    HW111072   3.863   1.633   4.886
 3391SOL    HW211073   3.829   1.633   4.726
 3392SOL     OW11074   2.504   0.825   3.847
 3392SOL    HW111075   2.527   0.906   3.900
 3392SOL    HW211076   2.418   0.787   3.880
 3393SOL     OW11077   6.593   6.567   0.072
 3393SOL    HW111078   6.519   6.510   0.036
 3393SOL    HW211079   6.661   6.583   0.001
 3394SOL     OW11080   6.058   2.283   0.907
 3394SOL    HW111081   6.055   2.295   1.006
 3394SOL    HW211082   6.003   2.204   0.881
 3395SOL     OW11083   0.465   3.356   4.168
 3395SOL    HW111084   0.411   3.308   4.238
 3395SOL    HW211085   0.560   3.361   4.197
 3396SOL     OW11086   0.335   3.246   3.188
 3396SOL    HW111087   0.391   3.240   3.271
 3396SOL    HW211088   0.240   3.225   3.211
 3397SOL     OW11089   3.535   6.982   6.127
 3397SOL    HW111090   3.482   0.019   6.070
 3397SOL    HW211091   3.479   6.902   6.151
 3398SOL     OW11092   1.033   0.433   4.103
 3398SOL    HW111093   1.011   0.340   4.132
 3398SOL    HW211094   1.122   0.460   4.140
 3399SOL     OW11095   4.687   5.088   4.393
 3399SOL    HW111096   4.749   5.117   4.466
 3399SOL    HW211097   4.738   5.076   4.308
 3400SOL     OW11098   4.732   2.129   6.577
 3400SOL    HW111099   4.739   2.083   6.488
 3400SOL    HW211100   4.705   2.224   6.563
 3401SOL     OW11101   6.768   3.499   0.377
 3401SOL    HW111102   6.730   3.473   0.289
 3401SOL    HW211103   6.781   3.598   0.380
 3402SOL     OW11104   5.533   5.730   1.444
 3402SOL    HW111105   5.613   5.706   1.389
 3402SOL    HW211106   5.473   5.789   1.390
 3403SOL     OW11107   3.505   0.136   4.565
 3403SOL    HW111108   3.579   0.083   4.524
 3403SOL    HW211109   3.419   0.113   4.521
 3404SOL     OW11110   4.210   1.420   0.732
 3404SOL    HW111111   4.149   1.494   0.763
 3404SOL    HW211112   4.159   1.358   0.673
 3405SOL     OW11113   6.066   4.054   6.491
 3405SOL    HW111114   6.047   3.963   6.455
 3405SOL    HW211115   6.076   4.118   6.415
 3406SOL     OW11116   2.535   4.559   2.044
 3406SOL    HW111117   2.504   4.471   2.008
 3406SOL    HW211118   2.607   4.595   1.984
 3407SOL     OW11119   1.150   5.773   2.017
 3407SOL    HW111120   1.151   5.678   1.986
 3407SOL    HW211121   1.158   5.776   2.116
 3408SOL     OW11122   4.887   3.975   3.059
 3408SOL    HW111123   4.896   3.902   2.991
 3408SOL    HW211124   4.847   3.938   3.143
 3409SOL     OW11125   3.824   6.827   6.047
 3409SOL    HW111126   3.896   6.881   6.003
 3409SOL    HW211127   3.789   6.877   6.127
 3410SOL     OW11128   6.052   5.561   6.982
 3410SOL    HW111129   6.016   5.596   6.896
 3410SOL    HW211130   6.133   5.505   6.964
 3411SOL     OW11131   4.912   2.184   1.983
 3411SOL    HW111132   4.954   2.094   1.976
 3411SOL    HW211133   4.828   2.177   2.037
 3412SOL     OW11134   4.066   3.673   6.871
 3412SOL    HW111135   4.152   3.686   6.821
 3412SOL    HW211136   4.084   3.679   6.969
 3413SOL     OW11137   4.183   1.428   2.589
 3413SOL    HW111138   4.179   1.470   2.498
 3413SOL    HW211139   4.136   1.339   2.586
 3414SOL     OW11140   3.049   1.897   4.780
 3414SOL    HW111141   3.103   1.981   4.780
 3414SOL    HW211142   3.029   1.870   4.874
 3415SOL     OW11143   0.729   4.980   4.115
 3415SOL    HW111144   0.805   4.939   4.065
 3415SOL    HW211145   0.753   5.075   4.137
 3416SOL     OW11146   0.430   4.177   5.555
 3416SOL    HW111147   0.458   4.246   5.489
 3416SOL    HW211148   0.386   4.101   5.508
 3417SOL     OW11149   0.025   6.571   2.542
 3417SOL    HW111150   0.121   6.555   2.567
 3417SOL    HW211151   6.999   6.487   2.556
 3418SOL     OW11152   2.725   1.261   4.844
 3418SOL    HW111153   2.741   1.327   4.771
 3418SOL    HW211154   2.748   1.302   4.932
 3419SOL     OW11155   4.590   4.570   7.020
 3419SOL    HW111156   4.661   4.580   6.949
 3419SOL    HW211157   4.632   4.539   0.079
 3420SOL     OW11158   4.835   1.711   4.010
 3420SOL    HW111159   4.865   1.750   3.924
 3420SOL    HW211160   4.735   1.711   4.014
 3421SOL     OW11161   6.867   6.983   5.608
 3421SOL    HW111162   6.946   0.008   5.644
 3421SOL    HW211163   6.818   0.014   5.542
 3422SOL     OW11164   3.139   6.975   1.033
 3422SOL    HW111165   3.182   6.933   1.113
 3422SOL    HW211166   3.138   0.049   1.044
 3423SOL     OW11167   2.259   0.795   0.360
 3423SOL    HW111168   2.348   0.827   0.391
 3423SOL    HW211169   2.204   0.872   0.327
 3424SOL     OW11170   3.731   1.316   2.324
 3424SOL    HW111171   3.642   1.316   2.370
 3424SOL    HW211172   3.728   1.378   2.245
 3425SOL     OW11173   4.924   4.324   2.282
 3425SOL    HW111174   4.826   4.322   2.300
 3425SOL    HW211175   4.966   4.395   2.338
 3426SOL     OW11176   3.521   3.243   0.178
 3426SOL    HW111177   3.533   3.179   0.102
 3426SOL    HW211178   3.476   3.326   0.145
 3427SOL     OW11179   6.622   0.298   0.035
 3427SOL    HW111180   6.695   0.364   0.053
 3427SOL    HW211181   6.648   0.209   0.073
 3428SOL     OW11182   3.772   5.056   2.057
 3428SOL    HW111183   3.765   4.970   2.107
 3428SOL    HW211184   3.697   5.116   2.083
 3429SOL     OW11185   1.304   2.526   6.868
 3429SOL    HW111186   1.391   2.498   6.828
 3429SOL    HW211187   1.230   2.508   6.803
 3430SOL     OW11188   1.191   6.731   0.115
 3430SOL    HW111189   1.283   6.758   0.142
 3430SOL    HW211190   1.131   6.734   0.195
 3431SOL     OW11191   1.344   5.835   1.334
 3431SOL    HW111192   1.440   5.863   1.329
 3431SOL    HW211193   1.286   5.917   1.338
 3432SOL     OW11194   2.739   2.501   5.162
 3432SOL    HW111195   2.708   2.568   5.229
 3432SOL    HW211196   2.783   2.424   5.208
 3433SOL     OW11197   3.309   0.895   5.963
 3433SOL    HW111198   3.369   0.820   5.990
 3433SOL    HW211199   3.215   0.861   5.956
 3434SOL     OW11200   3.928   2.762   1.026
 3434SOL    HW111201   3.925   2.861   1.036
 3434SOL    HW211202   4.000   2.737   0.962
 3435SOL     OW11203   0.182   2.570   1.593
 3435SOL    HW111204   0.094   2.610   1.620
 3435SOL    HW211205   0.257   2.627   1.628
 3436SOL     OW11206   4.113   6.621   4.836
 3436SOL    HW111207   4.058   6.703   4.820
 3436SOL    HW211208   4.210   6.645   4.834
 3437SOL     OW11209   4.603   0.547   5.539
 3437SOL    HW111210   4.546   0.476   5.497
 3437SOL    HW211211   4.650   0.509   5.618
 3438SOL     OW11212   2.182   2.627   6.677
 3438SOL    HW111213   2.115   2.554   6.693
 3438SOL    HW211214   2.172   2.698   6.746
 3439SOL     OW11215   2.717   0.097   5.271
 3439SOL    HW111216   2.793   0.096   5.206
 3439SOL    HW211217   2.736   0.035   5.346
 3440SOL     OW11218   4.222   3.803   0.938
 3440SOL    HW111219   4.237   3.847   1.026
 3440SOL    HW211220   4.257   3.862   0.865
 3441SOL     OW11221   3.820   6.669   3.661
 3441SOL    HW111222   3.764   6.613   3.600
 3441SOL    HW211223   3.875   6.610   3.720
 3442SOL     OW11224   1.773   5.493   3.532
 3442SOL    HW111225   1.856   5.446   3.503
 3442SOL    HW211226   1.741   5.554   3.459
 3443SOL     OW11227   5.767   1.750   3.161
 3443SOL    HW111228   5.858   1.747   3.203
 3443SOL    HW211229   5.709   1.814   3.211
 3444SOL     OW11230   5.055   5.743   6.730
 3444SOL    HW111231   4.974   5.784   6.772
 3444SOL    HW211232   5.136   5.766   6.784
 3445SOL     OW11233   6.837   4.059   4.211
 3445SOL    HW111234   6.780   3.979   4.227
 3445SOL    HW211235   6.927   4.030   4.180
 3446SOL     OW11236   3.935   0.916   2.707
 3446SOL    HW111237   3.868   0.969   2.655
 3446SOL    HW211238   3.907   0.820   2.708
 3447SOL     OW11239   5.867   5.467   0.140
 3447SOL    HW111240   5.915   5.397   0.192
 3447SOL    HW211241   5.927   5.501   0.067
 3448SOL     OW11242   3.301   0.423   0.875
 3448SOL    HW111243   3.317   0.342   0.818
 3448SOL    HW211244   3.204   0.446   0.872
 3449SOL     OW11245   6.250   6.896   2.140
 3449SOL    HW111246   6.325   6.856   2.088
 3449SOL    HW211247   6.242   6.851   2.229
 3450SOL     OW11248   0.904   2.031   1.231
 3450SOL    HW111249   0.865   1.952   1.278
 3450SOL    HW211250   0.927   2.101   1.299
 3451SOL     OW11251   0.768   5.630   3.397
 3451SOL    HW111252   0.752   5.729   3.390
 3451SOL    HW211253   0.865   5.613   3.410
 3452SOL     OW11254   6.827   1.263   6.681
 3452SOL    HW111255   6.903   1.302   6.630
 3452SOL    HW211256   6.861   1.191   6.741
 3453SOL     OW11257   5.501   5.641   4.977
 3453SOL    HW111258   5.481   5.626   5.074
 3453SOL    HW211259   5.508   5.739   4.960
 3454SOL     OW11260   1.734   1.597   0.010
 3454SOL    HW111261   1.799   1.543   6.982
 3454SOL    HW211262   1.668   1.639   6.974
 3455SOL     OW11263   1.512   3.493   4.765
 3455SOL    HW111264   1.495   3.589   4.741
 3455SOL    HW211265   1.536   3.487   4.862
 3456SOL     OW11266   5.727   6.189   1.967
 3456SOL    HW111267   5.823   6.208   1.987
 3456SOL    HW211268   5.720   6.103   1.916
 3457SOL     OW11269   2.788   5.339   4.270
 3457SOL    HW111270   2.801   5.269   4.340
 3457SOL    HW211271   2.735   5.301   4.194
 3458SOL     OW11272   5.973   7.023   0.333
 3458SOL    HW111273   6.055   0.034   0.288
 3458SOL    HW211274   5.893   0.016   0.277
 3459SOL     OW11275   0.271   3.524   2.966
 3459SOL    HW111276   0.267   3.540   2.867
 3459SOL    HW211277   0.312   3.435   2.983
 3460SOL     OW11278   3.064   3.124   0.206
 3460SOL    HW111279   2.983   3.156   0.254
 3460SOL    HW211280   3.144   3.129   0.266
 3461SOL     OW11281   3.872   5.498   4.100
 3461SOL    HW111282   3.893   5.403   4.122
 3461SOL    HW211283   3.787   5.525   4.146
 3462SOL     OW11284   6.137   2.801   2.630
 3462SOL    HW111285   6.170   2.885   2.587
 3462SOL    HW211286   6.153   2.807   2.729
 3463SOL     OW11287   0.913   3.174   2.253
 3463SOL    HW111288   0.885   3.140   2.163
 3463SOL    HW211289   0.834   3.211   2.300
 3464SOL     OW11290   5.738   2.477   6.644
 3464SOL    HW111291   5.737   2.452   6.741
 3464SOL    HW211292   5.735   2.577   6.635
 3465SOL     OW11293   2.228   3.442   1.562
 3465SOL    HW111294   2.250   3.519   1.623
 3465SOL    HW211295   2.279   3.361   1.591
 3466SOL     OW11296   5.630   4.607   5.797
 3466SOL    HW111297   5.649   4.681   5.862
 3466SOL    HW211298   5.549   4.556   5.827
 3467SOL     OW11299   3.663   1.627   1.081
 3467SOL    HW111300   3.638   1.573   1.000
 3467SOL    HW211301   3.629   1.580   1.163
 3468SOL     OW11302   4.818   1.623   1.947
 3468SOL    HW111303   4.747   1.585   2.006
 3468SOL    HW211304   4.810   1.723   1.946
 3469SOL     OW11305   4.579   0.230   5.924
 3469SOL    HW111306   4.626   0.229   5.836
 3469SOL    HW211307   4.483   0.254   5.910
 3470SOL     OW11308   0.353   2.911   1.124
 3470SOL    HW111309   0.416   2.881   1.196
 3470SOL    HW211310   0.377   3.004   1.095
 3471SOL     OW11311   4.693   4.176   3.394
 3471SOL    HW111312   4.653   4.220   3.314
 3471SOL    HW211313   4.677   4.233   3.475
 3472SOL     OW11314   4.408   1.899   2.905
 3472SOL    HW111315   4.372   1.922   2.814
 3472SOL    HW211316   4.478   1.828   2.897
 3473SOL     OW11317   0.112   3.557   3.818
 3473SOL    HW111318   0.168   3.640   3.815
 3473SOL    HW211319   0.016   3.581   3.810
 3474SOL     OW11320   0.312   4.234   3.973
 3474SOL    HW111321   0.274   4.181   3.898
 3474SOL    HW211322   0.412   4.233   3.967
 3475SOL     OW11323   0.388   5.181   4.257
 3475SOL    HW111324   0.327   5.121   4.204
 3475SOL    HW211325   0.372   5.276   4.231
 3476SOL     OW11326   1.940   1.139   3.702
 3476SOL    HW111327   2.010   1.090   3.650
 3476SOL    HW211328   1.876   1.182   3.638
 3477SOL     OW11329   0.459   3.428   0.697
 3477SOL    HW111330   0.426   3.398   0.608
 3477SOL    HW211331   0.559   3.421   0.699
 3478SOL     OW11332   2.132   6.728   0.455
 3478SOL    HW111333   2.180   6.811   0.426
 3478SOL    HW211334   2.196   6.651   0.455
 3479SOL     OW11335   0.438   2.539   3.632
 3479SOL    HW111336   0.433   2.468   3.702
 3479SOL    HW211337   0.524   2.588   3.640
 3480SOL     OW11338   0.950   6.135   6.802
 3480SOL    HW111339   0.948   6.211   6.738
 3480SOL    HW211340   0.875   6.144   6.868
 3481SOL     OW11341   5.316   0.825   0.393
 3481SOL    HW111342   5.364   0.737   0.400
 3481SOL    HW211343   5.305   0.849   0.297
 3482SOL     OW11344   6.067   2.170   3.535
 3482SOL    HW111345   5.993   2.237   3.542
 3482SOL    HW211346   6.154   2.218   3.530
 3483SOL     OW11347   5.352   2.543   2.957
 3483SOL    HW111348   5.382   2.619   3.015
 3483SOL    HW211349   5.343   2.461   3.013
 3484SOL     OW11350   1.939   3.719   6.719
 3484SOL    HW111351   1.979   3.785   6.782
 3484SOL    HW211352   2.004   3.699   6.646
 3485SOL     OW11353   6.822   2.229   5.702
 3485SOL    HW111354   6.790   2.135   5.712
 3485SOL    HW211355   6.831   2.252   5.605
 3486SOL     OW11356   1.997   0.134   4.027
 3486SOL    HW111357   2.085   0.175   4.003
 3486SOL    HW211358   2.013   0.050   4.079
 3487SOL     OW11359   6.509   1.878   6.979
 3487SOL    HW111360   6.605   1.896   6.960
 3487SOL    HW211361   6.501   1.833   0.043
 3488SOL     OW11362   5.616   0.185   5.155
 3488SOL    HW111363   5.580   0.142   5.237
 3488SOL    HW211364   5.713   0.205   5.167
 3489SOL     OW11365   3.258   6.828   1.251
 3489SOL    HW111366   3.320   6.823   1.329
 3489SOL    HW211367   3.189   6.757   1.258
 3490SOL     OW11368   3.426   5.101   1.442
 3490SOL    HW111369   3.475   5.023   1.402
 3490SOL    HW211370   3.378   5.072   1.524
 3491SOL     OW11371   4.766   4.154   6.628
 3491SOL    HW111372   4.747   4.062   6.592
 3491SOL    HW211373   4.804   4.211   6.555
 3492SOL     OW11374   6.811   3.655   1.714
 3492SOL    HW111375   6.833   3.735   1.658
 3492SOL    HW211376   6.713   3.654   1.734
 3493SOL     OW11377   6.333   4.111   4.001
 3493SOL    HW111378   6.313   4.109   3.903
 3493SOL    HW211379   6.256   4.152   4.050
 3494SOL     OW11380   3.237   1.779   2.120
 3494SOL    HW111381   3.303   1.748   2.189
 3494SOL    HW211382   3.212   1.701   2.062
 3495SOL     OW11383   0.670   3.660   2.097
 3495SOL    HW111384   0.673   3.755   2.128
 3495SOL    HW211385   0.616   3.655   2.012
 3496SOL     OW11386   5.741   4.658   1.038
 3496SOL    HW111387   5.659   4.608   1.066
 3496SOL    HW211388   5.714   4.741   0.989
 3497SOL     OW11389   3.338   1.305   3.879
 3497SOL    HW111390   3.327   1.211   3.912
 3497SOL    HW211391   3.431   1.317   3.843
 3498SOL     OW11392   2.722   1.890   2.404
 3498SOL    HW111393   2.658   1.930   2.338
 3498SOL    HW211394   2.803   1.949   2.411
 3499SOL     OW11395   6.291   5.945   5.312
 3499SOL    HW111396   6.274   5.936   5.410
 3499SOL    HW211397   6.224   6.008   5.272
 3500SOL     OW11398   2.043   2.469   4.250
 3500SOL    HW111399   2.106   2.426   4.315
 3500SOL    HW211400   1.957   2.491   4.297
 3501SOL     OW11401   2.342   6.702   6.285
 3501SOL    HW111402   2.424   6.753   6.312
 3501SOL    HW211403   2.270   6.716   6.354
 3502SOL     OW11404   5.912   3.397   1.984
 3502SOL    HW111405   5.963   3.483   1.993
 3502SOL    HW211406   5.859   3.381   2.067
 3503SOL     OW11407   7.003   6.110   6.109
 3503SOL    HW111408   7.024   6.150   6.020
 3503SOL    HW211409   6.953   6.177   6.164
 3504SOL     OW11410   2.176   0.925   2.269
 3504SOL    HW111411   2.086   0.967   2.284
 3504SOL    HW211412   2.165   0.833   2.233
 3505SOL     OW11413   5.970   5.627   5.396
 3505SOL    HW111414   6.069   5.615   5.397
 3505SOL    HW211415   5.926   5.545   5.434
 3506SOL     OW11416   6.028   4.458   4.959
 3506SOL    HW111417   6.017   4.474   5.057
 3506SOL    HW211418   6.122   4.434   4.939
 3507SOL     OW11419   2.188   6.557   0.819
 3507SOL    HW111420   2.146   6.507   0.743
 3507SOL    HW211421   2.287   6.552   0.811
 3508SOL     OW11422   3.218   2.641   6.276
 3508SOL    HW111423   3.316   2.659   6.275
 3508SOL    HW211424   3.193   2.601   6.364
 3509SOL     OW11425   5.690   6.901   0.260
 3509SOL    HW111426   5.766   6.850   0.221
 3509SOL    HW211427   5.613   6.839   0.276
 3510SOL     OW11428   1.827   0.558   1.247
 3510SOL    HW111429   1.759   0.598   1.185
 3510SOL    HW211430   1.918   0.571   1.209
 3511SOL     OW11431   1.946   4.862   1.645
 3511SOL    HW111432   2.010   4.823   1.711
 3511SOL    HW211433   1.875   4.913   1.693
 3512SOL     OW11434   0.917   3.653   0.565
 3512SOL    HW111435   0.899   3.598   0.647
 3512SOL    HW211436   0.875   3.609   0.485
 3513SOL     OW11437   5.841   2.397   1.508
 3513SOL    HW111438   5.860   2.300   1.498
 3513SOL    HW211439   5.924   2.449   1.489
 3514SOL     OW11440   5.546   0.990   2.309
 3514SOL    HW111441   5.488   1.037   2.377
 3514SOL    HW211442   5.640   1.021   2.319
 3515SOL     OW11443   5.170   6.118   4.137
 3515SOL    HW111444   5.146   6.201   4.087
 3515SOL    HW211445   5.198   6.047   4.072
 3516SOL     OW11446   5.225   6.605   1.003
 3516SOL    HW111447   5.308   6.592   0.948
 3516SOL    HW211448   5.153   6.545   0.969
 3517SOL     OW11449   0.356   1.359   1.718
 3517SOL    HW111450   0.393   1.312   1.637
 3517SOL    HW211451   0.329   1.291   1.786
 3518SOL     OW11452   5.223   2.226   4.906
 3518SOL    HW111453   5.273   2.156   4.959
 3518SOL    HW211454   5.125   2.210   4.915
 3519SOL     OW11455   2.341   1.092   6.391
 3519SOL    HW111456   2.260   1.079   6.448
 3519SOL    HW211457   2.319   1.152   6.314
 3520SOL     OW11458   3.551   6.622   0.085
 3520SOL    HW111459   3.602   6.572   0.156
 3520SOL    HW211460   3.575   6.586   7.021
 3521SOL     OW11461   3.975   2.849   6.396
 3521SOL    HW111462   4.062   2.806   6.374
 3521SOL    HW211463   3.918   2.853   6.313
 3522SOL     OW11464   6.105   5.040   0.015
 3522SOL    HW111465   6.164   4.986   0.075
 3522SOL    HW211466   6.080   4.986   6.960
 3523SOL     OW11467   1.197   4.333   5.669
 3523SOL    HW111468   1.176   4.429   5.651
 3523SOL    HW211469   1.263   4.300   5.602
 3524SOL     OW11470   5.174   1.826   2.594
 3524SOL    HW111471   5.163   1.925   2.603
 3524SOL    HW211472   5.214   1.805   2.504
 3525SOL     OW11473   6.157   3.488   4.212
 3525SOL    HW111474   6.098   3.569   4.218
 3525SOL    HW211475   6.222   3.489   4.289
 3526SOL     OW11476   2.112   6.367   3.304
 3526SOL    HW111477   2.052   6.428   3.253
 3526SOL    HW211478   2.204   6.405   3.308
 3527SOL     OW11479   6.120   3.035   6.298
 3527SOL    HW111480   6.045   2.983   6.258
 3527SOL    HW211481   6.158   2.985   6.376
 3528SOL     OW11482   2.193   6.435   4.788
 3528SOL    HW111483   2.163   6.396   4.700
 3528SOL    HW211484   2.291   6.421   4.799
 3529SOL     OW11485   3.991   6.689   0.211
 3529SOL    HW111486   4.056   6.614   0.202
 3529SOL    HW211487   3.980   6.713   0.308
 3530SOL     OW11488   0.074   5.073   1.333
 3530SOL    HW111489   0.047   5.105   1.424
 3530SOL    HW211490   0.139   5.138   1.294
 3531SOL     OW11491   5.908   2.838   1.529
 3531SOL    HW111492   5.947   2.869   1.443
 3531SOL    HW211493   5.969   2.769   1.570
 3532SOL     OW11494   2.415   1.133   1.794
 3532SOL    HW111495   2.436   1.110   1.699
 3532SOL    HW211496   2.488   1.097   1.854
 3533SOL     OW11497   0.660   1.911   2.363
 3533SOL    HW111498   0.599   1.864   2.427
 3533SOL    HW211499   0.753   1.876   2.373
 3534SOL     OW11500   0.868   2.064   1.714
 3534SOL    HW111501   0.832   1.986   1.663
 3534SOL    HW211502   0.918   2.124   1.651
 3535SOL     OW11503   2.459   5.360   5.807
 3535SOL    HW111504   2.479   5.283   5.746
 3535SOL    HW211505   2.374   5.404   5.779
 3536SOL     OW11506   3.064   2.189   3.548
 3536SOL    HW111507   3.132   2.133   3.503
 3536SOL    HW211508   3.001   2.226   3.479
 3537SOL     OW11509   1.715   5.543   1.997
 3537SOL    HW111510   1.711   5.443   2.006
 3537SOL    HW211511   1.736   5.584   2.086
 3538SOL     OW11512   3.017   5.384   5.784
 3538SOL    HW111513   3.115   5.404   5.789
 3538SOL    HW211514   3.002   5.304   5.726
 3539SOL     OW11515   3.625   3.613   4.502
 3539SOL    HW111516   3.694   3.595   4.432
 3539SOL    HW211517   3.670   3.630   4.590
 3540SOL     OW11518   2.480   2.229   4.503
 3540SOL    HW111519   2.576   2.239   4.529
 3540SOL    HW211520   2.441   2.151   4.552
 3541SOL     OW11521   3.023   2.812   5.299
 3541SOL    HW111522   3.018   2.714   5.316
 3541SOL    HW211523   2.946   2.857   5.344
 3542SOL     OW11524   1.437   5.042   3.127
 3542SOL    HW111525   1.440   5.131   3.081
 3542SOL    HW211526   1.382   5.050   3.210
 3543SOL     OW11527   6.255   2.859   3.724
 3543SOL    HW111528   6.314   2.837   3.646
 3543SOL    HW211529   6.160   2.850   3.697
 3544SOL     OW11530   2.423   4.133   6.853
 3544SOL    HW111531   2.382   4.152   6.764
 3544SOL    HW211532   2.497   4.067   6.842
 3545SOL     OW11533   4.224   6.295   6.282
 3545SOL    HW111534   4.157   6.257   6.217
 3545SOL    HW211535   4.181   6.369   6.334
 3546SOL     OW11536   0.760   5.086   3.185
 3546SOL    HW111537   0.788   5.008   3.241
 3546SOL    HW211538   0.665   5.075   3.157
 3547SOL     OW11539   4.637   5.104   3.681
 3547SOL    HW111540   4.735   5.122   3.688
 3547SOL    HW211541   4.616   5.015   3.720
 3548SOL     OW11542   5.009   2.151   5.567
 3548SOL    HW111543   5.021   2.060   5.527
 3548SOL    HW211544   5.007   2.143   5.667
 3549SOL     OW11545   6.609   4.863   4.281
 3549SOL    HW111546   6.591   4.846   4.377
 3549SOL    HW211547   6.705   4.845   4.261
 3550SOL     OW11548   5.014   2.119   2.875
 3550SOL    HW111549   5.090   2.090   2.933
 3550SOL    HW211550   5.025   2.215   2.851
 3551SOL     OW11551   3.896   6.481   2.916
 3551SOL    HW111552   3.910   6.409   2.848
 3551SOL    HW211553   3.855   6.442   2.998
 3552SOL     OW11554   4.962   6.194   2.211
 3552SOL    HW111555   4.867   6.165   2.202
 3552SOL    HW211556   4.975   6.280   2.161
 3553SOL     OW11557   5.801   3.219   2.393
 3553SOL    HW111558   5.802   3.126   2.356
 3553SOL    HW211559   5.802   3.284   2.317
 3554SOL     OW11560   3.922   3.389   0.322
 3554SOL    HW111561   3.870   3.334   0.256
 3554SOL    HW211562   3.864   3.462   0.358
 3555SOL     OW11563   0.624   3.181   2.882
 3555SOL    HW111564   0.641   3.214   2.789
 3555SOL    HW211565   0.669   3.242   2.948
 3556SOL     OW11566   3.489   0.432   5.265
 3556SOL    HW111567   3.497   0.381   5.179
 3556SOL    HW211568   3.392   0.435   5.291
 3557SOL     OW11569   0.877   0.478   4.409
 3557SOL    HW111570   0.909   0.387   4.437
 3557SOL    HW211571   0.791   0.468   4.358
 3558SOL     OW11572   0.151   5.647   1.603
 3558SOL    HW111573   0.172   5.591   1.523
 3558SOL    HW211574   0.196   5.736   1.594
 3559SOL     OW11575   0.426   0.235   4.545
 3559SOL    HW111576   0.371   0.233   4.461
 3559SOL    HW211577   0.368   0.260   4.622
 3560SOL     OW11578   1.157   5.855   1.147
 3560SOL    HW111579   1.216   5.841   1.227
 3560SOL    HW211580   1.149   5.770   1.096
 3561SOL     OW11581   5.137   5.046   5.952
 3561SOL    HW111582   5.179   5.117   5.896
 3561SOL    HW211583   5.197   5.023   6.029
 3562SOL     OW11584   4.931   0.939   4.436
 3562SOL    HW111585   5.016   0.943   4.383
 3562SOL    HW211586   4.905   1.030   4.466
 3563SOL     OW11587   5.613   0.955   1.601
 3563SOL    HW111588   5.647   0.929   1.511
 3563SOL    HW211589   5.687   0.995   1.655
 3564SOL     OW11590   1.240   4.537   4.238
 3564SOL    HW111591   1.234   4.454   4.293
 3564SOL    HW211592   1.158   4.547   4.183
 3565SOL     OW11593   3.409   6.202   5.164
 3565SOL    HW111594   3.434   6.111   5.196
 3565SOL    HW211595   3.481   6.238   5.105
 3566SOL     OW11596   0.087   3.578   5.767
 3566SOL    HW111597   0.078   3.677   5.773
 3566SOL    HW211598   0.022   3.535   5.831
 3567SOL     OW11599   1.434   2.423   0.567
 3567SOL    HW111600   1.432   2.498   0.633
 3567SOL    HW211601   1.516   2.432   0.509
 3568SOL     OW11602   5.388   5.147   2.270
 3568SOL    HW111603   5.447   5.090   2.213
 3568SOL    HW211604   5.305   5.097   2.294
 3569SOL     OW11605   2.852   3.266   5.206
 3569SOL    HW111606   2.944   3.263   5.244
 3569SOL    HW211607   2.857   3.267   5.106
 3570SOL     OW11608   5.900   0.981   5.344
 3570SOL    HW111609   5.858   0.895   5.373
 3570SOL    HW211610   5.900   0.987   5.244
 3571SOL     OW11611   1.611   0.856   4.794
 3571SOL    HW111612   1.568   0.885   4.708
 3571SOL    HW211613   1.540   0.840   4.863
 3572SOL     OW11614   5.157   4.057   3.007
 3572SOL    HW111615   5.066   4.020   3.027
 3572SOL    HW211616   5.192   4.104   3.088
 3573SOL     OW11617   6.939   4.552   2.229
 3573SOL    HW111618   6.937   4.586   2.323
 3573SOL    HW211619   6.875   4.604   2.173
 3574SOL     OW11620   2.032   3.052   6.655
 3574SOL    HW111621   2.020   2.971   6.598
 3574SOL    HW211622   2.001   3.133   6.604
 3575SOL     OW11623   5.256   5.532   0.862
 3575SOL    HW111624   5.275   5.611   0.803
 3575SOL    HW211625   5.243   5.564   0.956
 3576SOL     OW11626   0.391   2.533   0.208
 3576SOL    HW111627   0.338   2.454   0.237
 3576SOL    HW211628   0.330   2.612   0.198
 3577SOL     OW11629   2.143   3.055   5.517
 3577SOL    HW111630   2.197   3.138   5.535
 3577SOL    HW211631   2.195   2.995   5.456
 3578SOL     OW11632   3.383   3.282   0.908
 3578SOL    HW111633   3.475   3.253   0.933
 3578SOL    HW211634   3.386   3.328   0.819
 3579SOL     OW11635   0.440   3.487   2.364
 3579SOL    HW111636   0.502   3.409   2.372
 3579SOL    HW211637   0.492   3.572   2.370
 3580SOL     OW11638   0.393   3.205   1.354
 3580SOL    HW111639   0.370   3.203   1.256
 3580SOL    HW211640   0.435   3.118   1.380
 3581SOL     OW11641   0.605   6.934   3.426
 3581SOL    HW111642   0.672   6.882   3.373
 3581SOL    HW211643   0.653   7.006   3.477
 3582SOL     OW11644   3.230   4.591   6.045
 3582SOL    HW111645   3.171   4.514   6.022
 3582SOL    HW211646   3.191   4.642   6.122
 3583SOL     OW11647   0.327   4.280   0.881
 3583SOL    HW111648   0.228   4.294   0.879
 3583SOL    HW211649   0.349   4.206   0.944
 3584SOL     OW11650   6.109   4.588   5.607
 3584SOL    HW111651   6.048   4.667   5.612
 3584SOL    HW211652   6.184   4.599   5.673
 3585SOL     OW11653   2.620   1.895   4.600
 3585SOL    HW111654   2.712   1.854   4.603
 3585SOL    HW211655   2.603   1.944   4.685
 3586SOL     OW11656   6.532   3.278   3.895
 3586SOL    HW111657   6.523   3.374   3.925
 3586SOL    HW211658   6.444   3.232   3.906
 3587SOL     OW11659   3.885   5.975   6.734
 3587SOL    HW111660   3.792   6.003   6.759
 3587SOL    HW211661   3.894   5.974   6.634
 3588SOL     OW11662   6.629   4.340   3.874
 3588SOL    HW111663   6.589   4.273   3.937
 3588SOL    HW211664   6.581   4.337   3.786
 3589SOL     OW11665   0.286   6.970   5.622
 3589SOL    HW111666   0.339   6.936   5.700
 3589SOL    HW211667   0.344   6.971   5.540
 3590SOL     OW11668   0.201   4.081   0.600
 3590SOL    HW111669   0.202   4.043   0.693
 3590SOL    HW211670   0.295   4.094   0.568
 3591SOL     OW11671   5.452   2.947   6.733
 3591SOL    HW111672   5.413   3.027   6.779
 3591SOL    HW211673   5.433   2.865   6.786
 3592SOL     OW11674   1.407   0.271   1.777
 3592SOL    HW111675   1.462   0.187   1.775
 3592SOL    HW211676   1.390   0.302   1.684
 3593SOL     OW11677   0.180   4.430   5.393
 3593SOL    HW111678   0.209   4.338   5.366
 3593SOL    HW211679   0.238   4.462   5.468
 3594SOL     OW11680   4.256   5.680   5.133
 3594SOL    HW111681   4.287   5.763   5.178
 3594SOL    HW211682   4.215   5.703   5.045
 3595SOL     OW11683   6.066   5.942   6.961
 3595SOL    HW111684   6.162   5.922   6.942
 3595SOL    HW211685   6.018   5.857   6.984
 3596SOL     OW11686   4.474   2.108   3.206
 3596SOL    HW111687   4.523   2.100   3.293
 3596SOL    HW211688   4.485   2.024   3.153
 3597SOL     OW11689   2.031   3.099   5.203
 3597SOL    HW111690   2.054   3.177   5.261
 3597SOL    HW211691   2.109   3.035   5.202
 3598SOL     OW11692   1.709   5.914   5.472
 3598SOL    HW111693   1.726   5.871   5.561
 3598SOL    HW211694   1.739   6.010   5.475
 3599SOL     OW11695   4.643   1.911   6.154
 3599SOL    HW111696   4.657   1.827   6.207
 3599SOL    HW211697   4.620   1.887   6.060
 3600SOL     OW11698   2.357   3.494   0.548
 3600SOL    HW111699   2.364   3.592   0.570
 3600SOL    HW211700   2.264   3.473   0.518
 3601SOL     OW11701   5.108   1.234   5.527
 3601SOL    HW111702   5.185   1.207   5.586
 3601SOL    HW211703   5.144   1.272   5.442
 3602SOL     OW11704   2.091   2.884   1.591
 3602SOL    HW111705   2.095   2.784   1.592
 3602SOL    HW211706   2.049   2.915   1.505
 3603SOL     OW11707   3.169   0.793   6.381
 3603SOL    HW111708   3.122   0.705   6.374
 3603SOL    HW211709   3.150   0.848   6.300
 3604SOL     OW11710   6.886   0.559   3.569
 3604SOL    HW111711   6.849   0.644   3.605
 3604SOL    HW211712   6.861   0.483   3.629
 3605SOL     OW11713   0.988   5.241   3.302
 3605SOL    HW111714   0.987   5.232   3.402
 3605SOL    HW211715   0.906   5.199   3.264
 3606SOL     OW11716   1.580   6.324   1.896
 3606SOL    HW111717   1.653   6.256   1.897
 3606SOL    HW211718   1.566   6.359   1.988
 3607SOL     OW11719   5.124   2.641   2.606
 3607SOL    HW111720   5.097   2.727   2.650
 3607SOL    HW211721   5.224   2.631   2.614
 3608SOL     OW11722   4.606   1.933   3.786
 3608SOL    HW111723   4.541   1.963   3.717
 3608SOL    HW211724   4.572   1.960   3.877
 3609SOL     OW11725   2.543   6.297   4.559
 3609SOL    HW111726   2.532   6.350   4.643
 3609SOL    HW211727   2.640   6.292   4.535
 3610SOL     OW11728   1.975   0.389   5.248
 3610SOL    HW111729   1.926   0.454   5.189
 3610SOL    HW211730   1.986   0.430   5.339
 3611SOL     OW11731   4.758   4.592   4.515
 3611SOL    HW111732   4.801   4.563   4.429
 3611SOL    HW211733   4.745   4.513   4.574
 3612SOL     OW11734   6.329   1.232   6.498
 3612SOL    HW111735   6.259   1.202   6.562
 3612SOL    HW211736   6.327   1.176   6.416
 3613SOL     OW11737   3.787   5.313   1.333
 3613SOL    HW111738   3.784   5.401   1.286
 3613SOL    HW211739   3.870   5.308   1.388
 3614SOL     OW11740   3.619   3.912   6.909
 3614SOL    HW111741   3.657   3.916   7.001
 3614SOL    HW211742   3.684   3.952   6.844
 3615SOL     OW11743   5.585   2.775   5.852
 3615SOL    HW111744   5.583   2.700   5.786
 3615SOL    HW211745   5.554   2.859   5.808
 3616SOL     OW11746   2.203   2.024   6.500
 3616SOL    HW111747   2.250   2.054   6.583
 3616SOL    HW211748   2.134   1.955   6.524
 3617SOL     OW11749   4.377   7.017   5.623
 3617SOL    HW111750   4.469   7.005   5.660
 3617SOL    HW211751   4.368   6.965   5.539
 3618SOL     OW11752   1.807   3.953   4.747
 3618SOL    HW111753   1.833   3.864   4.708
 3618SOL    HW211754   1.889   4.002   4.776
 3619SOL     OW11755   5.996   2.920   0.705
 3619SOL    HW111756   5.996   2.821   0.692
 3619SOL    HW211757   5.952   2.964   0.626
 3620SOL     OW11758   5.795   6.492   4.386
 3620SOL    HW111759   5.862   6.468   4.456
 3620SOL    HW211760   5.810   6.587   4.356
 3621SOL     OW11761   3.575   3.250   4.059
 3621SOL    HW111762   3.492   3.207   4.024
 3621SOL    HW211763   3.559   3.348   4.073
 3622SOL     OW11764   0.473   0.377   1.133
 3622SOL    HW111765   0.542   0.316   1.095
 3622SOL    HW211766   0.485   0.385   1.231
 3623SOL     OW11767   0.905   5.541   6.082
 3623SOL    HW111768   0.966   5.596   6.025
 3623SOL    HW211769   0.825   5.512   6.029
 3624SOL     OW11770   2.995   0.372   1.702
 3624SOL    HW111771   2.963   0.466   1.697
 3624SOL    HW211772   2.957   0.320   1.625
 3625SOL     OW11773   6.533   2.792   6.590
 3625SOL    HW111774   6.512   2.890   6.591
 3625SOL    HW211775   6.557   2.764   6.497
 3626SOL     OW11776   0.250   3.526   4.504
 3626SOL    HW111777   0.178   3.494   4.565
 3626SOL    HW211778   0.211   3.552   4.416
 3627SOL     OW11779   4.805   2.949   1.307
 3627SOL    HW111780   4.815   3.044   1.277
 3627SOL    HW211781   4.761   2.947   1.396
 3628SOL     OW11782   1.337   1.732   1.589
 3628SOL    HW111783   1.286   1.780   1.661
 3628SOL    HW211784   1.275   1.711   1.513
 3629SOL     OW11785   0.842   1.307   3.983
 3629SOL    HW111786   0.893   1.373   3.928
 3629SOL    HW211787   0.885   1.298   4.073
 3630SOL     OW11788   6.885   2.602   3.271
 3630SOL    HW111789   6.946   2.670   3.314
 3630SOL    HW211790   6.790   2.629   3.286
 3631SOL     OW11791   1.802   6.705   2.930
 3631SOL    HW111792   1.816   6.677   2.835
 3631SOL    HW211793   1.772   6.626   2.984
 3632SOL     OW11794   4.033   4.084   0.477
 3632SOL    HW111795   4.092   4.005   0.461
 3632SOL    HW211796   4.076   4.166   0.439
 3633SOL     OW11797   3.579   2.835   5.931
 3633SOL    HW111798   3.527   2.872   5.855
 3633SOL    HW211799   3.650   2.773   5.897
 3634SOL     OW11800   2.687   5.858   6.206
 3634SOL    HW111801   2.591   5.863   6.232
 3634SOL    HW211802   2.694   5.827   6.111
 3635SOL     OW11803   2.479   1.035   1.532
 3635SOL    HW111804   2.488   0.936   1.545
 3635SOL    HW211805   2.560   1.070   1.485
 3636SOL     OW11806   0.401   5.434   0.435
 3636SOL    HW111807   0.310   5.424   0.393
 3636SOL    HW211808   0.467   5.380   0.383
 3637SOL     OW11809   0.585   2.796   6.589
 3637SOL    HW111810   0.661   2.739   6.621
 3637SOL    HW211811   0.517   2.804   6.662
 3638SOL     OW11812   6.038   4.516   2.718
 3638SOL    HW111813   6.100   4.548   2.646
 3638SOL    HW211814   6.043   4.416   2.723
 3639SOL     OW11815   4.007   3.806   4.949
 3639SOL    HW111816   4.013   3.906   4.944
 3639SOL    HW211817   3.993   3.769   4.857
 3640SOL     OW11818   5.639   2.671   0.610
 3640SOL    HW111819   5.690   2.601   0.560
 3640SOL    HW211820   5.678   2.683   0.702
 3641SOL     OW11821   6.462   4.143   1.444
 3641SOL    HW111822   6.540   4.178   1.495
 3641SOL    HW211823   6.488   4.058   1.397
 3642SOL     OW11824   5.702   2.238   6.541
 3642SOL    HW111825   5.712   2.336   6.559
 3642SOL    HW211826   5.612   2.208   6.571
 3643SOL     OW11827   4.664   6.100   6.042
 3643SOL    HW111828   4.717   6.153   6.108
 3643SOL    HW211829   4.674   6.142   5.951
 3644SOL     OW11830   3.026   0.926   1.862
 3644SOL    HW111831   2.969   0.999   1.900
 3644SOL    HW211832   3.046   0.859   1.934
 3645SOL     OW11833   1.457   3.996   4.680
 3645SOL    HW111834   1.391   4.070   4.666
 3645SOL    HW211835   1.509   4.013   4.764
 3646SOL     OW11836   2.729   4.716   4.800
 3646SOL    HW111837   2.778   4.702   4.886
 3646SOL    HW211838   2.683   4.632   4.773
 3647SOL     OW11839   1.820   6.476   0.291
 3647SOL    HW111840   1.801   6.567   0.328
 3647SOL    HW211841   1.844   6.484   0.194
 3648SOL     OW11842   5.282   5.472   3.525
 3648SOL    HW111843   5.188   5.446   3.549
 3648SOL    HW211844   5.288   5.491   3.428
 3649SOL     OW11845   5.192   3.676   0.268
 3649SOL    HW111846   5.194   3.773   0.245
 3649SOL    HW211847   5.163   3.622   0.189
 3650SOL     OW11848   4.974   4.499   1.018
 3650SOL    HW111849   4.915   4.578   1.002
 3650SOL    HW211850   5.040   4.491   0.943
 3651SOL     OW11851   1.318   2.414   6.106
 3651SOL    HW111852   1.417   2.398   6.107
 3651SOL    HW211853   1.289   2.445   6.197
 3652SOL     OW11854   5.307   1.193   2.263
 3652SOL    HW111855   5.301   1.162   2.168
 3652SOL    HW211856   5.312   1.293   2.266
 3653SOL     OW11857   1.057   0.942   2.308
 3653SOL    HW111858   1.089   1.035   2.328
 3653SOL    HW211859   1.094   0.912   2.220
 3654SOL     OW11860   5.141   0.300   0.843
 3654SOL    HW111861   5.091   0.244   0.910
 3654SOL    HW211862   5.238   0.278   0.848
 3655SOL     OW11863   1.837   1.480   3.933
 3655SOL    HW111864   1.774   1.483   3.855
 3655SOL    HW211865   1.823   1.561   3.990
 3656SOL     OW11866   0.388   5.454   1.925
 3656SOL    HW111867   0.368   5.357   1.910
 3656SOL    HW211868   0.305   5.508   1.909
 3657SOL     OW11869   4.813   6.131   5.019
 3657SOL    HW111870   4.734   6.160   5.073
 3657SOL    HW211871   4.833   6.200   4.949
 3658SOL     OW11872   0.837   5.672   6.357
 3658SOL    HW111873   0.887   5.618   6.289
 3658SOL    HW211874   0.899   5.697   6.431
 3659SOL     OW11875   6.594   1.724   6.165
 3659SOL    HW111876   6.666   1.780   6.124
 3659SOL    HW211877   6.539   1.683   6.093
 3660SOL     OW11878   5.470   5.620   5.920
 3660SOL    HW111879   5.529   5.683   5.869
 3660SOL    HW211880   5.389   5.598   5.864
 3661SOL     OW11881   6.917   1.651   5.251
 3661SOL    HW111882   6.972   1.653   5.334
 3661SOL    HW211883   6.916   1.557   5.214
 3662SOL     OW11884   3.947   0.837   6.075
 3662SOL    HW111885   3.919   0.852   6.170
 3662SOL    HW211886   3.867   0.831   6.016
 3663SOL     OW11887   2.383   3.229   6.865
 3663SOL    HW111888   2.378   3.144   6.813
 3663SOL    HW211889   2.356   3.212   6.960
 3664SOL     OW11890   4.248   2.003   2.210
 3664SOL    HW111891   4.283   1.994   2.303
 3664SOL    HW211892   4.149   1.987   2.210
 3665SOL     OW11893   0.097   6.145   5.570
 3665SOL    HW111894   0.058   6.056   5.595
 3665SOL    HW211895   0.041   6.187   5.499
 3666SOL     OW11896   1.728   2.312   4.143
 3666SOL    HW111897   1.647   2.291   4.089
 3666SOL    HW211898   1.701   2.354   4.230
 3667SOL     OW11899   2.038   1.361   2.288
 3667SOL    HW111900   2.050   1.376   2.190
 3667SOL    HW211901   2.112   1.301   2.321
 3668SOL     OW11902   0.918   0.165   1.908
 3668SOL    HW111903   1.015   0.189   1.898
 3668SOL    HW211904   0.879   0.217   1.984
 3669SOL     OW11905   6.596   1.943   4.012
 3669SOL    HW111906   6.648   1.866   3.976
 3669SOL    HW211907   6.649   2.027   4.002
 3670SOL     OW11908   3.186   5.262   1.204
 3670SOL    HW111909   3.278   5.282   1.172
 3670SOL    HW211910   3.120   5.321   1.157
 3671SOL     OW11911   0.097   0.247   3.292
 3671SOL    HW111912   0.145   0.330   3.261
 3671SOL    HW211913   0.007   0.272   3.327
 3672SOL     OW11914   4.562   1.452   2.819
 3672SOL    HW111915   4.632   1.382   2.835
 3672SOL    HW211916   4.475   1.421   2.858
 3673SOL     OW11917   5.110   5.944   0.621
 3673SOL    HW111918   5.048   5.997   0.563
 3673SOL    HW211919   5.124   5.992   0.708
 3674SOL     OW11920   1.607   5.664   5.424
 3674SOL    HW111921   1.643   5.758   5.427
 3674SOL    HW211922   1.664   5.605   5.480
 3675SOL     OW11923   6.726   1.842   4.369
 3675SOL    HW111924   6.632   1.827   4.341
 3675SOL    HW211925   6.735   1.931   4.414
 3676SOL     OW11926   4.781   2.035   3.021
 3676SOL    HW111927   4.758   1.965   2.954
 3676SOL    HW211928   4.872   2.072   3.001
 3677SOL     OW11929   2.265   0.705   3.946
 3677SOL    HW111930   2.211   0.694   3.862
 3677SOL    HW211931   2.212   0.759   4.012
 3678SOL     OW11932   1.475   0.499   3.803
 3678SOL    HW111933   1.387   0.455   3.824
 3678SOL    HW211934   1.539   0.484   3.878
 3679SOL     OW11935   5.011   0.894   2.446
 3679SOL    HW111936   4.923   0.940   2.446
 3679SOL    HW211937   5.033   0.862   2.354
 3680SOL     OW11938   4.629   1.399   3.436
 3680SOL    HW111939   4.554   1.392   3.501
 3680SOL    HW211940   4.610   1.470   3.369
 3681SOL     OW11941   1.338   0.228   4.890
 3681SOL    HW111942   1.308   0.177   4.971
 3681SOL    HW211943   1.291   0.192   4.809
 3682SOL     OW11944   5.436   2.135   1.049
 3682SOL    HW111945   5.435   2.175   0.957
 3682SOL    HW211946   5.458   2.206   1.116
 3683SOL     OW11947   0.122   0.794   5.443
 3683SOL    HW111948   0.046   0.781   5.506
 3683SOL    HW211949   0.095   0.765   5.351
 3684SOL     OW11950   1.662   0.051   5.393
 3684SOL    HW111951   1.600   6.999   5.405
 3684SOL    HW211952   1.698   0.079   5.481
 3685SOL     OW11953   2.067   5.899   5.808
 3685SOL    HW111954   2.139   5.867   5.747
 3685SOL    HW211955   2.105   5.921   5.897
 3686SOL     OW11956   6.869   3.774   3.548
 3686SOL    HW111957   6.934   3.792   3.474
 3686SOL    HW211958   6.860   3.675   3.561
 3687SOL     OW11959   4.673   6.088   3.422
 3687SOL    HW111960   4.713   6.127   3.340
 3687SOL    HW211961   4.619   6.157   3.471
 3688SOL     OW11962   5.793   2.914   0.133
 3688SOL    HW111963   5.737   2.860   0.195
 3688SOL    HW211964   5.773   2.888   0.038
 3689SOL     OW11965   1.638   0.514   5.236
 3689SOL    HW111966   1.556   0.533   5.291
 3689SOL    HW211967   1.639   0.418   5.210
 3690SOL     OW11968   5.319   5.052   1.021
 3690SOL    HW111969   5.335   4.990   1.098
 3690SOL    HW211970   5.296   5.143   1.056
 3691SOL     OW11971   2.638   1.934   0.130
 3691SOL    HW111972   2.542   1.941   0.104
 3691SOL    HW211973   2.694   1.991   0.069
 3692SOL     OW11974   0.830   3.456   6.140
 3692SOL    HW111975   0.854   3.414   6.228
 3692SOL    HW211976   0.896   3.528   6.118
 3693SOL     OW11977   1.027   1.713   2.675
 3693SOL    HW111978   1.055   1.664   2.592
 3693SOL    HW211979   1.051   1.810   2.666
 3694SOL     OW11980   0.335   0.360   2.076
 3694SOL    HW111981   0.249   0.330   2.035
 3694SOL    HW211982   0.328   0.353   2.175
 3695SOL     OW11983   6.519   2.754   2.873
 3695SOL    HW111984   6.456   2.702   2.815
 3695SOL    HW211985   6.505   2.728   2.969
 3696SOL     OW11986   5.108   0.813   5.051
 3696SOL    HW111987   5.162   0.796   5.133
 3696SOL    HW211988   5.024   0.758   5.054
 3697SOL     OW11989   6.425   6.639   3.658
 3697SOL    HW111990   6.399   6.564   3.718
 3697SOL    HW211991   6.507   6.614   3.606
 3698SOL     OW11992   2.052   0.539   2.898
 3698SOL    HW111993   2.050   0.441   2.918
 3698SOL    HW211994   2.055   0.590   2.983
 3699SOL     OW11995   2.363   2.098   4.082
 3699SOL    HW111996   2.328   2.176   4.133
 3699SOL    HW211997   2.399   2.129   3.994
 3700SOL     OW11998   1.431   5.232   5.029
 3700SOL    HW111999   1.527   5.203   5.031
 3700SOL    HW212000   1.373   5.155   5.002
 3701SOL     OW12001   1.020   6.883   3.070
 3701SOL    HW112002   1.037   6.977   3.100
 3701SOL    HW212003   1.095   6.853   3.011
 3702SOL     OW12004   5.075   4.284   3.651
 3702SOL    HW112005   5.023   4.361   3.686
 3702SOL    HW212006   5.132   4.246   3.724
 3703SOL     OW12007   1.473   1.912   5.699
 3703SOL    HW112008   1.426   1.865   5.625
 3703SOL    HW212009   1.449   2.009   5.698
 3704SOL     OW12010   6.800   2.325   1.142
 3704SOL    HW112011   6.814   2.242   1.089
 3704SOL    HW212012   6.746   2.390   1.088
 3705SOL     OW12013   4.835   4.584   3.890
 3705SOL    HW112014   4.874   4.637   3.966
 3705SOL    HW212015   4.907   4.562   3.824
 3706SOL     OW12016   1.186   3.717   0.316
 3706SOL    HW112017   1.127   3.636   0.308
 3706SOL    HW212018   1.130   3.799   0.310
 3707SOL     OW12019   2.043   4.775   3.892
 3707SOL    HW112020   2.076   4.682   3.908
 3707SOL    HW212021   2.113   4.841   3.920
 3708SOL     OW12022   3.859   6.801   1.011
 3708SOL    HW112023   3.837   6.729   0.946
 3708SOL    HW212024   3.795   6.877   1.000
 3709SOL     OW12025   2.202   0.709   2.710
 3709SOL    HW112026   2.137   0.785   2.701
 3709SOL    HW212027   2.158   0.633   2.757
 3710SOL     OW12028   0.265   5.450   5.552
 3710SOL    HW112029   0.313   5.447   5.464
 3710SOL    HW212030   0.169   5.472   5.536
 3711SOL     OW12031   1.720   6.329   4.521
 3711SOL    HW112032   1.723   6.339   4.421
 3711SOL    HW212033   1.772   6.404   4.563
 3712SOL     OW12034   2.037   5.410   5.246
 3712SOL    HW112035   2.076   5.502   5.255
 3712SOL    HW212036   1.968   5.410   5.173
 3713SOL     OW12037   6.640   6.480   5.360
 3713SOL    HW112038   6.700   6.556   5.387
 3713SOL    HW212039   6.691   6.415   5.304
 3714SOL     OW12040   1.032   4.766   0.445
 3714SOL    HW112041   1.118   4.754   0.395
 3714SOL    HW212042   1.049   4.753   0.543
 3715SOL     OW12043   6.514   5.910   3.184
 3715SOL    HW112044   6.563   5.907   3.271
 3715SOL    HW212045   6.508   5.818   3.145
 3716SOL     OW12046   5.738   5.643   3.962
 3716SOL    HW112047   5.758   5.631   4.059
 3716SOL    HW212048   5.719   5.739   3.943
 3717SOL     OW12049   4.145   1.509   1.246
 3717SOL    HW112050   4.073   1.556   1.196
 3717SOL    HW212051   4.133   1.410   1.237
 3718SOL     OW12052   0.269   6.742   6.244
 3718SOL    HW112053   0.215   6.658   6.238
 3718SOL    HW212054   0.319   6.755   6.158
 3719SOL     OW12055   4.456   3.869   6.592
 3719SOL    HW112056   4.516   3.804   6.546
 3719SOL    HW212057   4.442   3.949   6.534
 3720SOL     OW12058   6.813   3.170   1.393
 3720SOL    HW112059   6.750   3.116   1.449
 3720SOL    HW212060   6.891   3.198   1.448
 3721SOL     OW12061   6.676   4.512   6.518
 3721SOL    HW112062   6.623   4.567   6.583
 3721SOL    HW212063   6.625   4.430   6.494
 3722SOL     OW12064   4.000   7.009   2.565
 3722SOL    HW112065   3.989   0.050   2.640
 3722SOL    HW212066   4.013   6.918   2.604
 3723SOL     OW12067   4.392   5.227   6.711
 3723SOL    HW112068   4.372   5.151   6.772
 3723SOL    HW212069   4.465   5.283   6.751
 3724SOL     OW12070   1.370   4.635   4.787
 3724SOL    HW112071   1.449   4.687   4.755
 3724SOL    HW212072   1.336   4.675   4.872
 3725SOL     OW12073   0.242   6.830   6.922
 3725SOL    HW112074   0.281   6.739   6.911
 3725SOL    HW212075   0.161   6.825   6.981
 3726SOL     OW12076   5.732   3.682   3.895
 3726SOL    HW112077   5.778   3.609   3.846
 3726SOL    HW212078   5.654   3.644   3.945
 3727SOL     OW12079   7.017   2.895   4.360
 3727SOL    HW112080   7.005   2.839   4.277
 3727SOL    HW212081   0.078   2.944   4.355
 3728SOL     OW12082   3.416   3.532   0.068
 3728SOL    HW112083   3.316   3.532   0.075
 3728SOL    HW212084   3.453   3.604   0.126
 3729SOL     OW12085   0.730   6.957   5.274
 3729SOL    HW112086   0.746   0.028   5.295
 3729SOL    HW212087   0.801   6.902   5.318
 3730SOL     OW12088   4.161   6.148   5.894
 3730SOL    HW112089   4.196   6.055   5.905
 3730SOL    HW212090   4.106   6.173   5.973
 3731SOL     OW12091   0.398   2.260   6.215
 3731SOL    HW112092   0.371   2.353   6.237
 3731SOL    HW212093   0.424   2.212   6.298
 3732SOL     OW12094   2.920   1.987   6.826
 3732SOL    HW112095   2.873   2.045   6.892
 3732SOL    HW212096   2.864   1.906   6.807
 3733SOL     OW12097   1.754   2.195   3.565
 3733SOL    HW112098   1.729   2.167   3.657
 3733SOL    HW212099   1.853   2.192   3.555
 3734SOL     OW12100   3.978   0.413   1.531
 3734SOL    HW112101   3.950   0.484   1.594
 3734SOL    HW212102   3.902   0.388   1.472
 3735SOL     OW12103   4.484   0.132   2.336
 3735SOL    HW112104   4.548   0.209   2.332
 3735SOL    HW212105   4.503   0.077   2.417
 3736SOL     OW12106   6.716   1.108   1.646
 3736SOL    HW112107   6.681   1.015   1.635
 3736SOL    HW212108   6.666   1.170   1.585
 3737SOL     OW12109   0.692   2.381   3.305
 3737SOL    HW112110   0.727   2.341   3.390
 3737SOL    HW212111   0.637   2.313   3.256
 3738SOL     OW12112   6.552   6.416   0.536
 3738SOL    HW112113   6.498   6.338   0.505
 3738SOL    HW212114   6.612   6.447   0.461
 3739SOL     OW12115   2.846   5.025   1.063
 3739SOL    HW112116   2.891   5.034   1.152
 3739SOL    HW212117   2.748   5.036   1.074
 3740SOL     OW12118   5.503   5.152   0.072
 3740SOL    HW112119   5.572   5.083   0.050
 3740SOL    HW212120   5.548   5.237   0.098
 3741SOL     OW12121   5.594   2.291   0.546
 3741SOL    HW112122   5.639   2.377   0.521
 3741SOL    HW212123   5.644   2.214   0.506
 3742SOL     OW12124   3.973   5.774   0.228
 3742SOL    HW112125   4.015   5.684   0.244
 3742SOL    HW212126   3.873   5.764   0.228
 3743SOL     OW12127   4.004   3.452   1.155
 3743SOL    HW112128   3.974   3.447   1.250
 3743SOL    HW212129   4.096   3.414   1.148
 3744SOL     OW12130   0.610   6.487   2.164
 3744SOL    HW112131   0.566   6.455   2.080
 3744SOL    HW212132   0.596   6.585   2.173
 3745SOL     OW12133   4.887   3.697   2.375
 3745SOL    HW112134   4.874   3.601   2.350
 3745SOL    HW212135   4.903   3.751   2.293
 3746SOL     OW12136   6.659   0.504   3.740
 3746SOL    HW112137   6.599   0.581   3.715
 3746SOL    HW212138   6.694   0.517   3.833
 3747SOL     OW12139   4.507   6.524   6.393
 3747SOL    HW112140   4.514   6.514   6.294
 3747SOL    HW212141   4.410   6.520   6.420
 3748SOL     OW12142   5.579   1.006   2.872
 3748SOL    HW112143   5.659   1.064   2.854
 3748SOL    HW212144   5.524   1.047   2.945
 3749SOL     OW12145   0.407   5.268   2.907
 3749SOL    HW112146   0.322   5.318   2.920
 3749SOL    HW212147   0.482   5.333   2.891
 3750SOL     OW12148   5.810   3.872   0.168
 3750SOL    HW112149   5.772   3.922   0.245
 3750SOL    HW212150   5.737   3.833   0.114
 3751SOL     OW12151   2.053   2.961   1.315
 3751SOL    HW112152   2.127   2.992   1.375
 3751SOL    HW212153   2.091   2.915   1.235
 3752SOL     OW12154   0.764   0.479   6.391
 3752SOL    HW112155   0.781   0.487   6.292
 3752SOL    HW212156   0.850   0.461   6.438
 3753SOL     OW12157   7.010   6.180   4.513
 3753SOL    HW112158   6.995   6.151   4.608
 3753SOL    HW212159   0.082   6.186   4.495
 3754SOL     OW12160   5.741   6.172   0.977
 3754SOL    HW112161   5.769   6.168   0.881
 3754SOL    HW212162   5.797   6.239   1.026
 3755SOL     OW12163   5.266   4.235   3.816
 3755SOL    HW112164   5.352   4.285   3.826
 3755SOL    HW212165   5.250   4.181   3.899
 3756SOL     OW12166   1.883   2.009   6.045
 3756SOL    HW112167   1.831   2.080   5.997
 3756SOL    HW212168   1.952   2.052   6.104
 3757SOL     OW12169   3.129   5.800   6.210
 3757SOL    HW112170   3.068   5.721   6.208
 3757SOL    HW212171   3.132   5.842   6.119
 3758SOL     OW12172   2.304   1.350   4.240
 3758SOL    HW112173   2.221   1.357   4.184
 3758SOL    HW212174   2.385   1.355   4.181
 3759SOL     OW12175   5.121   4.481   5.993
 3759SOL    HW112176   5.101   4.384   5.981
 3759SOL    HW212177   5.036   4.534   5.984
 3760SOL     OW12178   1.608   2.916   4.543
 3760SOL    HW112179   1.518   2.958   4.551
 3760SOL    HW212180   1.647   2.936   4.453
 3761SOL     OW12181   0.457   6.400   4.676
 3761SOL    HW112182   0.537   6.432   4.726
 3761SOL    HW212183   0.487   6.353   4.593
 3762SOL     OW12184   0.649   4.108   0.082
 3762SOL    HW112185   0.603   4.020   0.097
 3762SOL    HW212186   0.644   4.132   7.011
 3763SOL     OW12187   6.394   3.184   6.328
 3763SOL    HW112188   6.447   3.236   6.261
 3763SOL    HW212189   6.303   3.164   6.291
 3764SOL     OW12190   2.714   0.298   3.933
 3764SOL    HW112191   2.799   0.352   3.937
 3764SOL    HW212192   2.681   0.295   3.839
 3765SOL     OW12193   4.767   0.990   3.426
 3765SOL    HW112194   4.784   1.086   3.404
 3765SOL    HW212195   4.668   0.976   3.436
 3766SOL     OW12196   0.117   1.298   3.832
 3766SOL    HW112197   0.039   1.356   3.857
 3766SOL    HW212198   0.195   1.356   3.807
 3767SOL     OW12199   1.244   4.939   6.577
 3767SOL    HW112200   1.198   4.964   6.662
 3767SOL    HW212201   1.293   4.853   6.590
 3768SOL     OW12202   4.448   6.580   6.682
 3768SOL    HW112203   4.521   6.564   6.615
 3768SOL    HW212204   4.401   6.665   6.659
 3769SOL     OW12205   5.281   6.148   4.987
 3769SOL    HW112206   5.198   6.176   5.036
 3769SOL    HW212207   5.357   6.140   5.051
 3770SOL     OW12208   2.082   1.241   6.233
 3770SOL    HW112209   1.985   1.265   6.226
 3770SOL    HW212210   2.109   1.239   6.330
 3771SOL     OW12211   5.103   2.300   0.268
 3771SOL    HW112212   5.017   2.262   0.234
 3771SOL    HW212213   5.157   2.334   0.192
 3772SOL     OW12214   5.905   0.639   1.547
 3772SOL    HW112215   5.866   0.687   1.469
 3772SOL    HW212216   5.883   0.688   1.631
 3773SOL     OW12217   5.854   2.981   5.494
 3773SOL    HW112218   5.941   3.008   5.536
 3773SOL    HW212219   5.779   3.017   5.549
 3774SOL     OW12220   0.866   0.810   6.850
 3774SOL    HW112221   0.846   0.734   6.788
 3774SOL    HW212222   0.956   0.794   6.893
 3775SOL     OW12223   5.158   3.616   3.728
 3775SOL    HW112224   5.109   3.594   3.644
 3775SOL    HW212225   5.231   3.681   3.708
 3776SOL     OW12226   2.142   2.627   1.568
 3776SOL    HW112227   2.171   2.600   1.660
 3776SOL    HW212228   2.216   2.611   1.503
 3777SOL     OW12229   2.812   5.269   4.746
 3777SOL    HW112230   2.911   5.283   4.751
 3777SOL    HW212231   2.776   5.318   4.666
 3778SOL     OW12232   2.678   5.789   2.077
 3778SOL    HW112233   2.735   5.785   1.995
 3778SOL    HW212234   2.633   5.879   2.081
 3779SOL     OW12235   2.464   4.641   6.940
 3779SOL    HW112236   2.543   4.669   6.993
 3779SOL    HW212237   2.493   4.604   6.852
 3780SOL     OW12238   3.140   5.876   5.569
 3780SOL    HW112239   3.212   5.834   5.624
 3780SOL    HW212240   3.176   5.899   5.479
 3781SOL     OW12241   3.209   6.639   4.316
 3781SOL    HW112242   3.203   6.590   4.403
 3781SOL    HW212243   3.254   6.581   4.248
 3782SOL     OW12244   2.117   1.694   4.189
 3782SOL    HW112245   2.196   1.755   4.192
 3782SOL    HW212246   2.104   1.653   4.279
 3783SOL     OW12247   5.411   6.594   4.876
 3783SOL    HW112248   5.427   6.609   4.779
 3783SOL    HW212249   5.319   6.623   4.900
 3784SOL     OW12250   5.490   1.073   3.347
 3784SOL    HW112251   5.457   1.001   3.408
 3784SOL    HW212252   5.486   1.161   3.394
 3785SOL     OW12253   2.448   2.237   0.814
 3785SOL    HW112254   2.461   2.224   0.912
 3785SOL    HW212255   2.535   2.264   0.772
 3786SOL     OW12256   2.945   5.152   3.424
 3786SOL    HW112257   3.003   5.227   3.393
 3786SOL    HW212258   2.962   5.072   3.366
 3787SOL     OW12259   4.869   1.298   4.198
 3787SOL    HW112260   4.877   1.324   4.102
 3787SOL    HW212261   4.913   1.367   4.255
 3788SOL     OW12262   6.377   3.336   3.014
 3788SOL    HW112263   6.419   3.283   2.940
 3788SOL    HW212264   6.445   3.355   3.084
 3789SOL     OW12265   1.431   4.734   4.147
 3789SOL    HW112266   1.376   4.797   4.093
 3789SOL    HW212267   1.370   4.674   4.200
 3790SOL     OW12268   1.992   3.442   4.527
 3790SOL    HW112269   1.899   3.438   4.563
 3790SOL    HW212270   2.057   3.424   4.600
 3791SOL     OW12271   5.571   0.062   1.465
 3791SOL    HW112272   5.531   0.019   1.546
 3791SOL    HW212273   5.517   0.038   1.385
 3792SOL     OW12274   6.352   6.586   4.871
 3792SOL    HW112275   6.376   6.664   4.929
 3792SOL    HW212276   6.384   6.502   4.913
 3793SOL     OW12277   2.100   1.647   2.219
 3793SOL    HW112278   2.020   1.590   2.205
 3793SOL    HW212279   2.137   1.632   2.311
 3794SOL     OW12280   4.201   6.258   1.826
 3794SOL    HW112281   4.276   6.321   1.805
 3794SOL    HW212282   4.117   6.309   1.840
 3795SOL     OW12283   4.950   0.708   6.910
 3795SOL    HW112284   4.863   0.701   6.959
 3795SOL    HW212285   5.023   0.671   6.967
 3796SOL     OW12286   1.585   2.047   1.848
 3796SOL    HW112287   1.566   1.986   1.771
 3796SOL    HW212288   1.499   2.072   1.892
 3797SOL     OW12289   1.048   5.226   2.198
 3797SOL    HW112290   0.971   5.277   2.159
 3797SOL    HW212291   1.028   5.128   2.194
 3798SOL     OW12292   2.331   4.838   2.936
 3798SOL    HW112293   2.296   4.767   2.997
 3798SOL    HW212294   2.400   4.892   2.983
 3799SOL     OW12295   1.874   1.467   5.205
 3799SOL    HW112296   1.881   1.521   5.289
 3799SOL    HW212297   1.902   1.524   5.127
 3800SOL     OW12298   5.371   2.431   4.806
 3800SOL    HW112299   5.295   2.378   4.844
 3800SOL    HW212300   5.337   2.519   4.774
 3801SOL     OW12301   0.008   6.258   5.858
 3801SOL    HW112302   0.031   6.202   5.779
 3801SOL    HW212303   7.017   6.352   5.828
 3802SOL     OW12304   1.068   1.777   4.968
 3802SOL    HW112305   1.161   1.742   4.956
 3802SOL    HW212306   1.063   1.832   5.051
 3803SOL     OW12307   4.148   0.212   1.459
 3803SOL    HW112308   4.098   0.294   1.484
 3803SOL    HW212309   4.083   0.137   1.443
 3804SOL     OW12310   4.590   2.297   4.442
 3804SOL    HW112311   4.629   2.390   4.439
 3804SOL    HW212312   4.548   2.282   4.532
 3805SOL     OW12313   3.060   4.278   1.690
 3805SOL    HW112314   3.075   4.359   1.747
 3805SOL    HW212315   2.962   4.266   1.674
 3806SOL     OW12316   2.828   2.840   0.351
 3806SOL    HW112317   2.785   2.927   0.324
 3806SOL    HW212318   2.915   2.859   0.396
 3807SOL     OW12319   0.844   6.587   4.117
 3807SOL    HW112320   0.937   6.612   4.093
 3807SOL    HW212321   0.817   6.506   4.065
 3808SOL     OW12322   3.485   6.956   1.751
 3808SOL    HW112323   3.541   6.967   1.833
 3808SOL    HW212324   3.392   6.929   1.778
 3809SOL     OW12325   5.843   1.849   6.908
 3809SOL    HW112326   5.886   1.836   6.997
 3809SOL    HW212327   5.749   1.814   6.911
 3810SOL     OW12328   3.381   3.159   5.254
 3810SOL    HW112329   3.305   3.098   5.233
 3810SOL    HW212330   3.388   3.230   5.183
 3811SOL     OW12331   0.546   4.744   4.496
 3811SOL    HW112332   0.589   4.817   4.549
 3811SOL    HW212333   0.459   4.777   4.458
 3812SOL     OW12334   6.383   1.699   5.714
 3812SOL    HW112335   6.391   1.793   5.682
 3812SOL    HW212336   6.361   1.699   5.812
 3813SOL     OW12337   3.297   5.570   0.489
 3813SOL    HW112338   3.269   5.652   0.438
 3813SOL    HW212339   3.216   5.519   0.517
 3814SOL     OW12340   6.642   6.123   2.014
 3814SOL    HW112341   6.543   6.140   2.007
 3814SOL    HW212342   6.680   6.112   1.922
 3815SOL     OW12343   5.394   1.957   1.424
 3815SOL    HW112344   5.329   2.029   1.448
 3815SOL    HW212345   5.345   1.877   1.389
 3816SOL     OW12346   0.132   6.634   1.914
 3816SOL    HW112347   0.185   6.553   1.888
 3816SOL    HW212348   0.098   6.679   1.832
 3817SOL     OW12349   4.897   2.272   4.316
 3817SOL    HW112350   4.847   2.224   4.387
 3817SOL    HW212351   4.841   2.277   4.233
 3818SOL     OW12352   4.572   6.037   2.495
 3818SOL    HW112353   4.611   6.090   2.419
 3818SOL    HW212354   4.599   5.942   2.486
 3819SOL     OW12355   5.705   5.192   0.991
 3819SOL    HW112356   5.685   5.095   1.005
 3819SOL    HW212357   5.727   5.208   0.894
 3820SOL     OW12358   4.727   6.027   4.252
 3820SOL    HW112359   4.738   6.126   4.267
 3820SOL    HW212360   4.812   5.981   4.275
 3821SOL     OW12361   1.699   3.446   2.046
 3821SOL    HW112362   1.759   3.371   2.071
 3821SOL    HW212363   1.725   3.482   1.956
 3822SOL     OW12364   2.766   5.185   1.609
 3822SOL    HW112365   2.702   5.262   1.617
 3822SOL    HW212366   2.766   5.151   1.514
 3823SOL     OW12367   3.777   2.703   5.799
 3823SOL    HW112368   3.860   2.737   5.756
 3823SOL    HW212369   3.794   2.612   5.838
 3824SOL     OW12370   6.287   1.869   6.132
 3824SOL    HW112371   6.231   1.886   6.213
 3824SOL    HW212372   6.306   1.956   6.086
 3825SOL     OW12373   0.631   6.986   5.777
 3825SOL    HW112374   0.629   0.037   5.840
 3825SOL    HW212375   0.695   7.005   5.703
 3826SOL     OW12376   6.658   3.694   1.257
 3826SOL    HW112377   6.690   3.617   1.312
 3826SOL    HW212378   6.736   3.734   1.208
 3827SOL     OW12379   3.451   3.805   0.828
 3827SOL    HW112380   3.375   3.780   0.889
 3827SOL    HW212381   3.477   3.900   0.845
 3828SOL     OW12382   4.395   2.588   1.781
 3828SOL    HW112383   4.328   2.605   1.708
 3828SOL    HW212384   4.472   2.651   1.771
 3829SOL     OW12385   2.379   5.077   3.773
 3829SOL    HW112386   2.428   5.161   3.750
 3829SOL    HW212387   2.436   5.021   3.835
 3830SOL     OW12388   2.694   0.407   5.183
 3830SOL    HW112389   2.719   0.311   5.195
 3830SOL    HW212390   2.738   0.462   5.255
 3831SOL     OW12391   4.310   1.911   2.459
 3831SOL    HW112392   4.319   1.942   2.553
 3831SOL    HW212393   4.329   1.813   2.454
 3832SOL     OW12394   6.604   0.603   1.571
 3832SOL    HW112395   6.680   0.616   1.509
 3832SOL    HW212396   6.577   0.506   1.572
 3833SOL     OW12397   0.791   4.932   1.041
 3833SOL    HW112398   0.696   4.920   1.069
 3833SOL    HW212399   0.849   4.939   1.122
 3834SOL     OW12400   2.660   1.784   0.596
 3834SOL    HW112401   2.719   1.838   0.656
 3834SOL    HW212402   2.569   1.826   0.593
 3835SOL     OW12403   3.996   5.771   6.199
 3835SOL    HW112404   4.023   5.698   6.135
 3835SOL    HW212405   3.932   5.734   6.266
 3836SOL     OW12406   1.768   4.110   6.148
 3836SOL    HW112407   1.753   4.071   6.057
 3836SOL    HW212408   1.762   4.037   6.216
 3837SOL     OW12409   4.563   3.867   0.380
 3837SOL    HW112410   4.506   3.786   0.366
 3837SOL    HW212411   4.600   3.866   0.473
 3838SOL     OW12412   5.876   2.507   4.243
 3838SOL    HW112413   5.950   2.486   4.307
 3838SOL    HW212414   5.830   2.423   4.216
 3839SOL     OW12415   5.398   6.577   5.541
 3839SOL    HW112416   5.416   6.602   5.446
 3839SOL    HW212417   5.369   6.481   5.545
 3840SOL     OW12418   1.926   1.127   3.965
 3840SOL    HW112419   1.931   1.126   3.866
 3840SOL    HW212420   1.830   1.123   3.993
 3841SOL     OW12421   0.939   4.212   5.142
 3841SOL    HW112422   1.013   4.211   5.209
 3841SOL    HW212423   0.975   4.243   5.053
 3842SOL     OW12424   1.103   4.962   0.200
 3842SOL    HW112425   1.074   4.879   0.248
 3842SOL    HW212426   1.048   5.039   0.232
 3843SOL     OW12427   6.219   3.001   0.458
 3843SOL    HW112428   6.213   3.034   0.552
 3843SOL    HW212429   6.312   2.969   0.439
 3844SOL     OW12430   2.327   4.863   5.785
 3844SOL    HW112431   2.338   4.809   5.701
 3844SOL    HW212432   2.262   4.937   5.768
 3845SOL     OW12433   3.451   3.871   3.229
 3845SOL    HW112434   3.397   3.829   3.155
 3845SOL    HW212435   3.527   3.810   3.252
 3846SOL     OW12436   0.276   4.545   4.431
 3846SOL    HW112437   0.265   4.520   4.335
 3846SOL    HW212438   0.271   4.645   4.440
 3847SOL     OW12439   0.066   0.441   6.407
 3847SOL    HW112440   0.108   0.530   6.389
 3847SOL    HW212441   6.998   0.456   6.441
 3848SOL     OW12442   2.663   4.893   1.431
 3848SOL    HW112443   2.731   4.885   1.503
 3848SOL    HW212444   2.648   4.990   1.410
 3849SOL     OW12445   0.914   2.115   5.644
 3849SOL    HW112446   0.843   2.185   5.646
 3849SOL    HW212447   0.911   2.062   5.729
 3850SOL     OW12448   3.337   4.067   1.702
 3850SOL    HW112449   3.431   4.039   1.722
 3850SOL    HW212450   3.337   4.132   1.626
 3851SOL     OW12451   2.114   3.302   3.210
 3851SOL    HW112452   2.192   3.301   3.148
 3851SOL    HW212453   2.039   3.249   3.170
 3852SOL     OW12454   4.107   0.525   4.480
 3852SOL    HW112455   4.151   0.489   4.397
 3852SOL    HW212456   4.038   0.459   4.512
 3853SOL     OW12457   1.172   3.600   2.382
 3853SOL    HW112458   1.225   3.683   2.397
 3853SOL    HW212459   1.173   3.576   2.285
 3854SOL     OW12460   0.669   3.570   4.549
 3854SOL    HW112461   0.618   3.632   4.489
 3854SOL    HW212462   0.606   3.502   4.587
 3855SOL     OW12463   6.195   3.789   5.554
 3855SOL    HW112464   6.196   3.886   5.528
 3855SOL    HW212465   6.102   3.761   5.576
 3856SOL     OW12466   6.974   6.542   5.769
 3856SOL    HW112467   6.956   6.481   5.692
 3856SOL    HW212468   6.917   6.624   5.761
 3857SOL     OW12469   1.060   6.568   4.760
 3857SOL    HW112470   1.006   6.570   4.844
 3857SOL    HW212471   1.158   6.571   4.783
 3858SOL     OW12472   2.012   6.006   6.563
 3858SOL    HW112473   2.103   6.004   6.522
 3858SOL    HW212474   2.012   6.067   6.642
 3859SOL     OW12475   0.124   3.113   2.568
 3859SOL    HW112476   0.150   3.073   2.656
 3859SOL    HW212477   0.201   3.166   2.532
 3860SOL     OW12478   2.301   6.771   5.627
 3860SOL    HW112479   2.301   6.765   5.727
 3860SOL    HW212480   2.395   6.782   5.594
 3861SOL     OW12481   4.590   4.460   1.335
 3861SOL    HW112482   4.638   4.403   1.268
 3861SOL    HW212483   4.626   4.442   1.426
 3862SOL     OW12484   1.106   5.852   5.591
 3862SOL    HW112485   1.185   5.861   5.530
 3862SOL    HW212486   1.058   5.940   5.596
 3863SOL     OW12487   3.059   3.914   1.564
 3863SOL    HW112488   3.076   3.945   1.657
 3863SOL    HW212489   3.012   3.826   1.566
 3864SOL     OW12490   3.177   1.951   0.200
 3864SOL    HW112491   3.116   2.018   0.157
 3864SOL    HW212492   3.246   2.000   0.254
 3865SOL     OW12493   5.000   0.344   2.426
 3865SOL    HW112494   5.095   0.364   2.449
 3865SOL    HW212495   4.945   0.337   2.509
 3866SOL     OW12496   3.601   6.904   0.112
 3866SOL    HW112497   3.558   6.946   0.032
 3866SOL    HW212498   3.581   6.806   0.112
 3867SOL     OW12499   2.115   3.593   3.399
 3867SOL    HW112500   2.122   3.497   3.425
 3867SOL    HW212501   2.156   3.650   3.470
 3868SOL     OW12502   2.109   6.441   2.860
 3868SOL    HW112503   2.063   6.436   2.949
 3868SOL    HW212504   2.173   6.365   2.852
 3869SOL     OW12505   0.746   3.278   3.244
 3869SOL    HW112506   0.814   3.254   3.313
 3869SOL    HW212507   0.792   3.301   3.158
 3870SOL     OW12508   2.683   4.951   0.464
 3870SOL    HW112509   2.593   4.911   0.449
 3870SOL    HW212510   2.744   4.882   0.503
 3871SOL     OW12511   2.304   0.334   3.350
 3871SOL    HW112512   2.206   0.335   3.368
 3871SOL    HW212513   2.347   0.261   3.403
 3872SOL     OW12514   4.029   4.460   0.625
 3872SOL    HW112515   4.066   4.552   0.610
 3872SOL    HW212516   4.094   4.392   0.592
 3873SOL     OW12517   5.893   4.466   2.010
 3873SOL    HW112518   5.982   4.470   2.056
 3873SOL    HW212519   5.823   4.501   2.071
 3874SOL     OW12520   4.600   0.530   6.905
 3874SOL    HW112521   4.653   0.611   6.933
 3874SOL    HW212522   4.570   0.481   6.987
 3875SOL     OW12523   1.375   5.044   1.143
 3875SOL    HW112524   1.430   5.127   1.134
 3875SOL    HW212525   1.278   5.067   1.139
 3876SOL     OW12526   4.967   3.596   3.939
 3876SOL    HW112527   5.030   3.604   3.862
 3876SOL    HW212528   4.917   3.682   3.951
 3877SOL     OW12529   6.138   0.784   2.563
 3877SOL    HW112530   6.151   0.822   2.471
 3877SOL    HW212531   6.042   0.790   2.589
 3878SOL     OW12532   3.552   6.396   5.935
 3878SOL    HW112533   3.547   6.457   5.856
 3878SOL    HW212534   3.471   6.336   5.936
 3879SOL     OW12535   3.972   5.879   2.067
 3879SOL    HW112536   4.044   5.946   2.050
 3879SOL    HW212537   3.929   5.898   2.155
 3880SOL     OW12538   5.349   3.106   3.491
 3880SOL    HW112539   5.447   3.105   3.511
 3880SOL    HW212540   5.304   3.172   3.552
 3881SOL     OW12541   1.544   3.442   0.867
 3881SOL    HW112542   1.478   3.445   0.792
 3881SOL    HW212543   1.593   3.355   0.864
 3882SOL     OW12544   0.233   0.555   5.622
 3882SOL    HW112545   0.183   0.495   5.686
 3882SOL    HW212546   0.184   0.559   5.535
 3883SOL     OW12547   3.738   0.596   5.716
 3883SOL    HW112548   3.816   0.608   5.655
 3883SOL    HW212549   3.669   0.665   5.696
 3884SOL     OW12550   1.762   5.323   6.072
 3884SOL    HW112551   1.771   5.229   6.105
 3884SOL    HW212552   1.673   5.335   6.028
 3885SOL     OW12553   6.479   1.235   4.560
 3885SOL    HW112554   6.499   1.316   4.615
 3885SOL    HW212555   6.380   1.219   4.560
 3886SOL     OW12556   6.274   6.533   5.690
 3886SOL    HW112557   6.263   6.508   5.787
 3886SOL    HW212558   6.233   6.622   5.674
 3887SOL     OW12559   4.098   2.504   5.745
 3887SOL    HW112560   4.108   2.595   5.706
 3887SOL    HW212561   4.024   2.455   5.698
 3888SOL     OW12562   6.868   2.038   0.784
 3888SOL    HW112563   6.811   1.986   0.721
 3888SOL    HW212564   6.915   2.111   0.735
 3889SOL     OW12565   0.973   6.421   6.333
 3889SOL    HW112566   0.999   6.325   6.338
 3889SOL    HW212567   0.924   6.438   6.247
 3890SOL     OW12568   5.195   4.074   3.293
 3890SOL    HW112569   5.116   4.074   3.353
 3890SOL    HW212570   5.260   4.004   3.323
 3891SOL     OW12571   5.361   4.572   5.542
 3891SOL    HW112572   5.453   4.597   5.572
 3891SOL    HW212573   5.361   4.478   5.508
 3892SOL     OW12574   4.954   6.862   2.946
 3892SOL    HW112575   4.872   6.859   2.890
 3892SOL    HW212576   5.015   6.787   2.921
 3893SOL     OW12577   2.944   5.925   3.890
 3893SOL    HW112578   2.893   5.946   3.973
 3893SOL    HW212579   3.010   5.853   3.909
 3894SOL     OW12580   5.402   3.786   6.740
 3894SOL    HW112581   5.456   3.816   6.662
 3894SOL    HW212582   5.451   3.807   6.825
 3895SOL     OW12583   2.853   2.205   5.558
 3895SOL    HW112584   2.872   2.108   5.565
 3895SOL    HW212585   2.893   2.253   5.636
 3896SOL     OW12586   6.123   2.942   5.748
 3896SOL    HW112587   6.105   2.847   5.723
 3896SOL    HW212588   6.047   2.977   5.803
 3897SOL     OW12589   3.829   6.472   1.988
 3897SOL    HW112590   3.803   6.429   1.902
 3897SOL    HW212591   3.891   6.548   1.970
 3898SOL     OW12592   3.884   4.053   4.785
 3898SOL    HW112593   3.954   4.070   4.715
 3898SOL    HW212594   3.801   4.019   4.742
 3899SOL     OW12595   4.698   1.839   5.092
 3899SOL    HW112596   4.698   1.897   5.173
 3899SOL    HW212597   4.702   1.743   5.120
 3900SOL     OW12598   6.539   2.760   3.746
 3900SOL    HW112599   6.533   2.796   3.839
 3900SOL    HW212600   6.571   2.831   3.684
 3901SOL     OW12601   2.045   6.150   5.254
 3901SOL    HW112602   2.050   6.121   5.158
 3901SOL    HW212603   2.137   6.162   5.290
 3902SOL     OW12604   4.340   5.027   1.691
 3902SOL    HW112605   4.379   4.973   1.617
 3902SOL    HW212606   4.286   4.967   1.751
 3903SOL     OW12607   4.463   2.609   6.310
 3903SOL    HW112608   4.464   2.559   6.397
 3903SOL    HW212609   4.524   2.564   6.245
 3904SOL     OW12610   1.457   6.227   1.463
 3904SOL    HW112611   1.501   6.272   1.385
 3904SOL    HW212612   1.437   6.296   1.534
 3905SOL     OW12613   6.698   0.152   5.477
 3905SOL    HW112614   6.683   0.112   5.387
 3905SOL    HW212615   6.611   0.164   5.524
 3906SOL     OW12616   0.622   5.604   4.134
 3906SOL    HW112617   0.630   5.510   4.169
 3906SOL    HW212618   0.693   5.661   4.174
 3907SOL     OW12619   0.400   1.253   4.526
 3907SOL    HW112620   0.395   1.352   4.538
 3907SOL    HW212621   0.313   1.220   4.489
 3908SOL     OW12622   1.255   0.460   4.576
 3908SOL    HW112623   1.190   0.496   4.509
 3908SOL    HW212624   1.308   0.386   4.534
 3909SOL     OW12625   5.908   2.072   6.487
 3909SOL    HW112626   5.859   1.992   6.521
 3909SOL    HW212627   5.845   2.149   6.477
 3910SOL     OW12628   3.598   2.520   0.262
 3910SOL    HW112629   3.605   2.469   0.176
 3910SOL    HW212630   3.505   2.512   0.298
 3911SOL     OW12631   0.148   1.349   1.150
 3911SOL    HW112632   0.059   1.329   1.109
 3911SOL    HW212633   0.134   1.392   1.239
 3912SOL     OW12634   3.721   1.946   0.411
 3912SOL    HW112635   3.662   2.026   0.401
 3912SOL    HW212636   3.692   1.894   0.491
 3913SOL     OW12637   4.890   5.170   1.386
 3913SOL    HW112638   4.821   5.145   1.454
 3913SOL    HW212639   4.884   5.109   1.308
 3914SOL     OW12640   6.761   1.250   0.193
 3914SOL    HW112641   6.717   1.209   0.113
 3914SOL    HW212642   6.788   1.178   0.256
 3915SOL     OW12643   4.760   5.694   6.472
 3915SOL    HW112644   4.747   5.699   6.373
 3915SOL    HW212645   4.839   5.750   6.498
 3916SOL     OW12646   2.749   1.817   2.717
 3916SOL    HW112647   2.715   1.793   2.626
 3916SOL    HW212648   2.840   1.778   2.731
 3917SOL     OW12649   3.382   4.444   1.355
 3917SOL    HW112650   3.345   4.534   1.378
 3917SOL    HW212651   3.384   4.386   1.436
 3918SOL     OW12652   5.250   0.921   0.654
 3918SOL    HW112653   5.214   1.013   0.635
 3918SOL    HW212654   5.289   0.883   0.570
 3919SOL     OW12655   3.794   7.016   2.345
 3919SOL    HW112656   3.702   0.024   2.364
 3919SOL    HW212657   3.848   7.020   2.429
 3920SOL     OW12658   2.880   1.609   5.545
 3920SOL    HW112659   2.902   1.682   5.610
 3920SOL    HW212660   2.781   1.605   5.533
 3921SOL     OW12661   6.945   3.080   6.159
 3921SOL    HW112662   0.004   3.070   6.211
 3921SOL    HW212663   6.962   3.057   6.063
 3922SOL     OW12664   4.909   4.636   2.839
 3922SOL    HW112665   4.951   4.662   2.752
 3922SOL    HW212666   4.924   4.539   2.856
 3923SOL     OW12667   5.319   1.239   1.475
 3923SOL    HW112668   5.245   1.235   1.409
 3923SOL    HW212669   5.343   1.146   1.504
 3924SOL     OW12670   5.421   5.282   4.506
 3924SOL    HW112671   5.409   5.326   4.417
 3924SOL    HW212672   5.358   5.323   4.572
 3925SOL     OW12673   5.270   3.743   0.822
 3925SOL    HW112674   5.321   3.829   0.834
 3925SOL    HW212675   5.262   3.723   0.724
 3926SOL     OW12676   0.385   6.330   6.116
 3926SOL    HW112677   0.416   6.258   6.178
 3926SOL    HW212678   0.382   6.294   6.022
 3927SOL     OW12679   5.550   1.951   5.993
 3927SOL    HW112680   5.568   1.892   6.072
 3927SOL    HW212681   5.501   2.033   6.022
 3928SOL     OW12682   2.968   6.042   2.080
 3928SOL    HW112683   3.057   6.061   2.122
 3928SOL    HW212684   2.983   5.992   1.994
 3929SOL     OW12685   0.249   2.523   4.930
 3929SOL    HW112686   0.300   2.504   5.014
 3929SOL    HW212687   0.235   2.438   4.880
 3930SOL     OW12688   1.822   4.718   3.768
 3930SOL    HW112689   1.911   4.742   3.806
 3930SOL    HW212690   1.763   4.683   3.841
 3931SOL     OW12691   2.370   2.056   1.668
 3931SOL    HW112692   2.414   1.988   1.727
 3931SOL    HW212693   2.407   2.147   1.689
 3932SOL     OW12694   2.583   4.923   3.952
 3932SOL    HW112695   2.602   4.844   3.893
 3932SOL    HW212696   2.657   4.935   4.017
 3933SOL     OW12697   2.182   5.816   1.565
 3933SOL    HW112698   2.151   5.770   1.481
 3933SOL    HW212699   2.126   5.787   1.642
 3934SOL     OW12700   0.211   0.857   1.725
 3934SOL    HW112701   0.289   0.890   1.778
 3934SOL    HW212702   0.219   0.889   1.631
 3935SOL     OW12703   6.846   3.648   6.215
 3935SOL    HW112704   6.851   3.589   6.296
 3935SOL    HW212705   6.751   3.651   6.182
 3936SOL     OW12706   0.015   4.878   5.501
 3936SOL    HW112707   0.012   4.958   5.440
 3936SOL    HW212708   7.011   4.905   5.593
 3937SOL     OW12709   0.107   6.799   1.682
 3937SOL    HW112710   0.170   6.870   1.712
 3937SOL    HW212711   0.085   6.813   1.586
 3938SOL     OW12712   1.098   3.416   2.544
 3938SOL    HW112713   1.134   3.488   2.484
 3938SOL    HW212714   1.148   3.331   2.527
 3939SOL     OW12715   1.365   1.072   2.294
 3939SOL    HW112716   1.343   0.978   2.268
 3939SOL    HW212717   1.356   1.083   2.393
 3940SOL     OW12718   3.405   5.538   1.269
 3940SOL    HW112719   3.311   5.543   1.305
 3940SOL    HW212720   3.466   5.503   1.340
 3941SOL     OW12721   5.349   5.838   3.150
 3941SOL    HW112722   5.311   5.886   3.071
 3941SOL    HW212723   5.396   5.904   3.209
 3942SOL     OW12724   6.484   6.120   5.706
 3942SOL    HW112725   6.539   6.059   5.649
 3942SOL    HW212726   6.464   6.204   5.656
 3943SOL     OW12727   1.641   2.427   0.375
 3943SOL    HW112728   1.559   2.375   0.348
 3943SOL    HW212729   1.714   2.411   0.308
 3944SOL     OW12730   5.423   2.718   6.866
 3944SOL    HW112731   5.417   2.660   6.785
 3944SOL    HW212732   5.423   2.662   6.949
 3945SOL     OW12733   5.986   0.423   3.403
 3945SOL    HW112734   6.019   0.370   3.482
 3945SOL    HW212735   5.998   0.369   3.320
 3946SOL     OW12736   1.197   3.068   0.173
 3946SOL    HW112737   1.234   3.054   0.081
 3946SOL    HW212738   1.115   3.126   0.167
 3947SOL     OW12739   6.052   4.950   2.136
 3947SOL    HW112740   5.999   4.952   2.052
 3947SOL    HW212741   5.992   4.929   2.214
 3948SOL     OW12742   1.317   2.624   5.919
 3948SOL    HW112743   1.305   2.543   5.977
 3948SOL    HW212744   1.259   2.698   5.954
 3949SOL     OW12745   6.155   6.875   1.310
 3949SOL    HW112746   6.251   6.894   1.331
 3949SOL    HW212747   6.104   6.961   1.307
 3950SOL     OW12748   3.080   4.669   1.717
 3950SOL    HW112749   3.016   4.622   1.778
 3950SOL    HW212750   3.107   4.756   1.758
 3951SOL     OW12751   1.373   2.306   4.832
 3951SOL    HW112752   1.405   2.320   4.738
 3951SOL    HW212753   1.292   2.361   4.849
 3952SOL     OW12754   5.986   3.552   6.584
 3952SOL    HW112755   5.963   3.606   6.665
 3952SOL    HW212756   6.016   3.461   6.613
 3953SOL     OW12757   3.034   4.036   6.177
 3953SOL    HW112758   3.007   3.955   6.230
 3953SOL    HW212759   3.131   4.028   6.152
 3954SOL     OW12760   0.063   3.072   5.332
 3954SOL    HW112761   0.111   3.141   5.387
 3954SOL    HW212762   0.089   3.082   5.236
 3955SOL     OW12763   0.098   4.141   0.172
 3955SOL    HW112764   0.132   4.073   0.238
 3955SOL    HW212765   0.046   4.211   0.221
 3956SOL     OW12766   0.621   3.156   5.570
 3956SOL    HW112767   0.635   3.255   5.581
 3956SOL    HW212768   0.661   3.108   5.648
 3957SOL     OW12769   0.779   1.532   3.344
 3957SOL    HW112770   0.844   1.587   3.291
 3957SOL    HW212771   0.829   1.470   3.404
 3958SOL     OW12772   5.869   5.874   6.453
 3958SOL    HW112773   5.807   5.877   6.375
 3958SOL    HW212774   5.924   5.791   6.449
 3959SOL     OW12775   2.388   5.099   0.771
 3959SOL    HW112776   2.399   5.007   0.808
 3959SOL    HW212777   2.335   5.155   0.835
 3960SOL     OW12778   4.849   3.466   0.492
 3960SOL    HW112779   4.836   3.462   0.393
 3960SOL    HW212780   4.821   3.380   0.533
 3961SOL     OW12781   5.428   0.732   2.323
 3961SOL    HW112782   5.483   0.811   2.297
 3961SOL    HW212783   5.478   0.648   2.302
 3962SOL     OW12784   0.617   6.786   5.546
 3962SOL    HW112785   0.598   6.864   5.485
 3962SOL    HW212786   0.677   6.815   5.620
 3963SOL     OW12787   4.614   5.588   2.944
 3963SOL    HW112788   4.679   5.529   2.896
 3963SOL    HW212789   4.614   5.566   3.041
 3964SOL     OW12790   5.702   6.769   5.765
 3964SOL    HW112791   5.703   6.749   5.667
 3964SOL    HW212792   5.655   6.856   5.781
 3965SOL     OW12793   4.075   3.213   0.524
 3965SOL    HW112794   4.024   3.280   0.470
 3965SOL    HW212795   4.109   3.256   0.608
 3966SOL     OW12796   6.519   4.366   5.232
 3966SOL    HW112797   6.489   4.291   5.291
 3966SOL    HW212798   6.442   4.428   5.217
 3967SOL     OW12799   1.257   5.602   6.723
 3967SOL    HW112800   1.247   5.688   6.773
 3967SOL    HW212801   1.353   5.574   6.723
 3968SOL     OW12802   5.511   0.628   1.511
 3968SOL    HW112803   5.448   0.551   1.508
 3968SOL    HW212804   5.599   0.598   1.548
 3969SOL     OW12805   0.366   5.827   1.894
 3969SOL    HW112806   0.461   5.815   1.924
 3969SOL    HW212807   0.363   5.845   1.796
 3970SOL     OW12808   4.576   4.477   3.806
 3970SOL    HW112809   4.506   4.514   3.866
 3970SOL    HW212810   4.665   4.513   3.832
 3971SOL     OW12811   1.810   5.829   3.721
 3971SOL    HW112812   1.891   5.778   3.751
 3971SOL    HW212813   1.788   5.803   3.627
 3972SOL     OW12814   1.380   0.039   0.535
 3972SOL    HW112815   1.344   0.061   0.626
 3972SOL    HW212816   1.477   0.064   0.531
 3973SOL     OW12817   3.663   3.120   3.090
 3973SOL    HW112818   3.629   3.158   3.005
 3973SOL    HW212819   3.661   3.190   3.162
 3974SOL     OW12820   6.103   1.155   6.636
 3974SOL    HW112821   6.113   1.063   6.597
 3974SOL    HW212822   6.070   1.148   6.730
 3975SOL     OW12823   6.568   7.000   5.681
 3975SOL    HW112824   6.517   0.059   5.664
 3975SOL    HW212825   6.663   7.012   5.652
 3976SOL     OW12826   0.926   3.266   6.690
 3976SOL    HW112827   0.841   3.250   6.740
 3976SOL    HW212828   1.004   3.247   6.750
 3977SOL     OW12829   4.294   6.737   6.302
 3977SOL    HW112830   4.247   6.825   6.312
 3977SOL    HW212831   4.274   6.679   6.382
 3978SOL     OW12832   5.769   3.265   6.609
 3978SOL    HW112833   5.698   3.327   6.642
 3978SOL    HW212834   5.804   3.296   6.521
 3979SOL     OW12835   1.408   0.077   3.064
 3979SOL    HW112836   1.341   0.013   3.025
 3979SOL    HW212837   1.399   0.076   3.164
 3980SOL     OW12838   4.964   3.452   4.917
 3980SOL    HW112839   5.042   3.510   4.895
 3980SOL    HW212840   4.895   3.506   4.967
 3981SOL     OW12841   6.230   1.480   5.620
 3981SOL    HW112842   6.211   1.523   5.531
 3981SOL    HW212843   6.309   1.524   5.662
 3982SOL     OW12844   4.029   1.672   3.721
 3982SOL    HW112845   4.064   1.762   3.697
 3982SOL    HW212846   4.056   1.650   3.815
 3983SOL     OW12847   3.715   6.398   3.804
 3983SOL    HW112848   3.676   6.486   3.779
 3983SOL    HW212849   3.731   6.343   3.722
 3984SOL     OW12850   1.230   6.595   1.583
 3984SOL    HW112851   1.328   6.614   1.586
 3984SOL    HW212852   1.213   6.515   1.526
 3985SOL     OW12853   1.536   3.836   2.035
 3985SOL    HW112854   1.496   3.798   2.118
 3985SOL    HW212855   1.633   3.813   2.031
 3986SOL     OW12856   1.156   3.064   2.300
 3986SOL    HW112857   1.165   2.992   2.231
 3986SOL    HW212858   1.066   3.107   2.291
 3987SOL     OW12859   2.803   4.863   6.743
 3987SOL    HW112860   2.836   4.861   6.648
 3987SOL    HW212861   2.806   4.958   6.776
 3988SOL     OW12862   4.326   2.287   0.098
 3988SOL    HW112863   4.274   2.217   0.149
 3988SOL    HW212864   4.292   2.378   0.123
 3989SOL     OW12865   4.398   1.130   6.493
 3989SOL    HW112866   4.341   1.150   6.413
 3989SOL    HW212867   4.420   1.032   6.495
 3990SOL     OW12868   1.160   3.066   3.718
 3990SOL    HW112869   1.201   3.089   3.807
 3990SOL    HW212870   1.071   3.024   3.732
 3991SOL     OW12871   6.930   1.759   4.526
 3991SOL    HW112872   6.868   1.779   4.602
 3991SOL    HW212873   6.878   1.755   4.440
 3992SOL     OW12874   5.154   3.942   6.025
 3992SOL    HW112875   5.158   3.974   6.120
 3992SOL    HW212876   5.247   3.935   5.989
 3993SOL     OW12877   1.946   1.424   3.312
 3993SOL    HW112878   2.026   1.477   3.340
 3993SOL    HW212879   1.925   1.444   3.216
 3994SOL     OW12880   2.584   1.905   3.938
 3994SOL    HW112881   2.680   1.931   3.925
 3994SOL    HW212882   2.531   1.928   3.856
 3995SOL     OW12883   1.537   3.900   2.304
 3995SOL    HW112884   1.561   3.803   2.311
 3995SOL    HW212885   1.557   3.946   2.390
 3996SOL     OW12886   5.429   7.016   3.034
 3996SOL    HW112887   5.344   0.030   3.068
 3996SOL    HW212888   5.492   6.999   3.110
 3997SOL     OW12889   5.593   3.706   2.795
 3997SOL    HW112890   5.628   3.799   2.779
 3997SOL    HW212891   5.649   3.641   2.742
 3998SOL     OW12892   6.487   2.418   3.203
 3998SOL    HW112893   6.495   2.338   3.263
 3998SOL    HW212894   6.463   2.388   3.110
 3999SOL     OW12895   5.383   2.516   1.306
 3999SOL    HW112896   5.348   2.497   1.398
 3999SOL    HW212897   5.342   2.600   1.271
 4000SOL     OW12898   3.414   5.824   2.471
 4000SOL    HW112899   3.479   5.844   2.398
 4000SOL    HW212900   3.330   5.877   2.457
 4001SOL     OW12901   1.891   4.444   4.591
 4001SOL    HW112902   1.828   4.414   4.663
 4001SOL    HW212903   1.973   4.483   4.633
 4002SOL     OW12904   3.845   3.580   3.732
 4002SOL    HW112905   3.762   3.631   3.757
 4002SOL    HW212906   3.835   3.485   3.759
 4003SOL     OW12907   2.986   1.054   5.088
 4003SOL    HW112908   2.930   1.085   5.165
 4003SOL    HW212909   3.000   0.955   5.095
 4004SOL     OW12910   0.766   3.900   3.421
 4004SOL    HW112911   0.803   3.835   3.487
 4004SOL    HW212912   0.801   3.879   3.330
 4005SOL     OW12913   5.337   3.267   1.046
 4005SOL    HW112914   5.368   3.353   1.005
 4005SOL    HW212915   5.240   3.276   1.071
 4006SOL     OW12916   5.090   5.064   3.582
 4006SOL    HW112917   5.105   4.994   3.652
 4006SOL    HW212918   5.058   5.148   3.625
 4007SOL     OW12919   6.630   1.386   3.003
 4007SOL    HW112920   6.717   1.407   2.957
 4007SOL    HW212921   6.563   1.357   2.934
 4008SOL     OW12922   3.149   0.195   1.114
 4008SOL    HW112923   3.074   0.232   1.060
 4008SOL    HW212924   3.196   0.270   1.162
 4009SOL     OW12925   4.158   2.033   0.743
 4009SOL    HW112926   4.116   2.006   0.830
 4009SOL    HW212927   4.210   2.117   0.756
 4010SOL     OW12928   2.491   5.269   1.592
 4010SOL    HW112929   2.473   5.235   1.684
 4010SOL    HW212930   2.474   5.368   1.589
 4011SOL     OW12931   5.798   5.936   6.698
 4011SOL    HW112932   5.823   5.924   6.602
 4011SOL    HW212933   5.881   5.936   6.754
 4012SOL     OW12934   4.204   0.158   2.405
 4012SOL    HW112935   4.130   0.091   2.416
 4012SOL    HW212936   4.288   0.111   2.381
 4013SOL     OW12937   0.265   1.169   6.366
 4013SOL    HW112938   0.344   1.173   6.306
 4013SOL    HW212939   0.292   1.197   6.459
 4014SOL     OW12940   3.087   4.855   2.444
 4014SOL    HW112941   3.184   4.879   2.442
 4014SOL    HW212942   3.032   4.938   2.453
 4015SOL     OW12943   3.854   4.963   5.799
 4015SOL    HW112944   3.809   4.933   5.884
 4015SOL    HW212945   3.803   4.928   5.721
 4016SOL     OW12946   4.285   5.924   5.916
 4016SOL    HW112947   4.327   5.855   5.976
 4016SOL    HW212948   4.350   5.948   5.843
 4017SOL     OW12949   0.636   4.526   6.022
 4017SOL    HW112950   0.667   4.589   5.951
 4017SOL    HW212951   0.686   4.545   6.107
 4018SOL     OW12952   4.608   6.467   1.845
 4018SOL    HW112953   4.547   6.442   1.770
 4018SOL    HW212954   4.674   6.394   1.860
 4019SOL     OW12955   5.293   3.245   3.269
 4019SOL    HW112956   5.348   3.250   3.186
 4019SOL    HW212957   5.315   3.161   3.318
 4020SOL     OW12958   6.407   4.618   4.032
 4020SOL    HW112959   6.355   4.545   3.989
 4020SOL    HW212960   6.499   4.585   4.056
 4021SOL     OW12961   3.676   3.486   5.949
 4021SOL    HW112962   3.758   3.477   5.892
 4021SOL    HW212963   3.603   3.528   5.895
 4022SOL     OW12964   2.756   0.382   0.781
 4022SOL    HW112965   2.755   0.345   0.687
 4022SOL    HW212966   2.706   0.320   0.841
 4023SOL     OW12967   0.590   2.364   5.469
 4023SOL    HW112968   0.628   2.300   5.403
 4023SOL    HW212969   0.490   2.357   5.469
 4024SOL     OW12970   0.613   4.771   4.225
 4024SOL    HW112971   0.648   4.854   4.181
 4024SOL    HW212972   0.592   4.792   4.321
 4025SOL     OW12973   0.650   6.159   4.237
 4025SOL    HW112974   0.587   6.232   4.209
 4025SOL    HW212975   0.744   6.189   4.223
 4026SOL     OW12976   6.531   6.264   3.517
 4026SOL    HW112977   6.474   6.229   3.591
 4026SOL    HW212978   6.616   6.302   3.556
 4027SOL     OW12979   2.476   3.640   5.622
 4027SOL    HW112980   2.455   3.637   5.720
 4027SOL    HW212981   2.511   3.551   5.593
 4028SOL     OW12982   4.704   1.617   2.563
 4028SOL    HW112983   4.736   1.706   2.595
 4028SOL    HW212984   4.677   1.561   2.641
 4029SOL     OW12985   2.105   5.497   6.264
 4029SOL    HW112986   2.012   5.527   6.243
 4029SOL    HW212987   2.128   5.418   6.207
 4030SOL     OW12988   0.406   1.025   3.000
 4030SOL    HW112989   0.358   0.970   2.932
 4030SOL    HW212990   0.483   1.072   2.956
 4031SOL     OW12991   5.378   7.015   1.269
 4031SOL    HW112992   5.368   6.916   1.261
 4031SOL    HW212993   5.294   0.029   1.304
 4032SOL     OW12994   6.336   0.239   1.324
 4032SOL    HW112995   6.361   0.287   1.240
 4032SOL    HW212996   6.381   0.283   1.403
 4033SOL     OW12997   2.801   2.319   2.808
 4033SOL    HW112998   2.759   2.260   2.739
 4033SOL    HW212999   2.896   2.291   2.822
 4034SOL     OW13000   0.078   3.377   5.007
 4034SOL    HW113001   0.163   3.418   4.974
 4034SOL    HW213002   0.056   3.415   5.097
 4035SOL     OW13003   6.133   1.760   1.320
 4035SOL    HW113004   6.154   1.857   1.329
 4035SOL    HW213005   6.047   1.740   1.368
 4036SOL     OW13006   2.614   5.258   3.766
 4036SOL    HW113007   2.600   5.349   3.728
 4036SOL    HW213008   2.622   5.264   3.866
 4037SOL     OW13009   2.011   0.915   5.876
 4037SOL    HW113010   1.973   0.858   5.803
 4037SOL    HW213011   2.106   0.888   5.894
 4038SOL     OW13012   3.706   4.521   5.980
 4038SOL    HW113013   3.636   4.466   5.935
 4038SOL    HW213014   3.664   4.577   6.052
 4039SOL     OW13015   6.235   4.557   1.597
 4039SOL    HW113016   6.242   4.464   1.560
 4039SOL    HW213017   6.229   4.622   1.522
 4040SOL     OW13018   3.556   5.299   5.479
 4040SOL    HW113019   3.520   5.255   5.397
 4040SOL    HW213020   3.653   5.318   5.468
 4041SOL     OW13021   2.009   6.196   1.055
 4041SOL    HW113022   2.086   6.253   1.086
 4041SOL    HW213023   2.034   6.099   1.065
 4042SOL     OW13024   6.417   0.435   3.883
 4042SOL    HW113025   6.356   0.514   3.869
 4042SOL    HW213026   6.512   0.465   3.875
 4043SOL     OW13027   5.543   3.399   6.700
 4043SOL    HW113028   5.531   3.406   6.799
 4043SOL    HW213029   5.478   3.458   6.654
 4044SOL     OW13030   4.167   5.280   3.392
 4044SOL    HW113031   4.180   5.220   3.313
 4044SOL    HW213032   4.069   5.298   3.405
 4045SOL     OW13033   5.068   0.194   5.971
 4045SOL    HW113034   4.972   0.188   5.997
 4045SOL    HW213035   5.091   0.116   5.912
 4046SOL     OW13036   0.065   1.685   3.119
 4046SOL    HW113037   0.027   1.599   3.155
 4046SOL    HW213038   0.148   1.665   3.067
 4047SOL     OW13039   2.723   3.049   6.559
 4047SOL    HW113040   2.704   3.131   6.505
 4047SOL    HW213041   2.659   2.977   6.533
 4048SOL     OW13042   5.115   1.218   2.024
 4048SOL    HW113043   5.055   1.182   1.952
 4048SOL    HW213044   5.080   1.306   2.054
 4049SOL     OW13045   4.147   5.523   6.342
 4049SOL    HW113046   4.170   5.536   6.246
 4049SOL    HW213047   4.207   5.580   6.399
 4050SOL     OW13048   0.259   5.468   2.753
 4050SOL    HW113049   0.283   5.560   2.723
 4050SOL    HW213050   0.181   5.434   2.699
 4051SOL     OW13051   5.147   1.410   6.152
 4051SOL    HW113052   5.145   1.497   6.104
 4051SOL    HW213053   5.081   1.411   6.227
 4052SOL     OW13054   6.053   1.876   3.502
 4052SOL    HW113055   6.149   1.881   3.475
 4052SOL    HW213056   6.018   1.968   3.517
 4053SOL     OW13057   1.231   5.408   4.970
 4053SOL    HW113058   1.306   5.341   4.973
 4053SOL    HW213059   1.226   5.449   4.879
 4054SOL     OW13060   4.716   4.146   1.116
 4054SOL    HW113061   4.759   4.224   1.160
 4054SOL    HW213062   4.760   4.062   1.146
 4055SOL     OW13063   1.383   3.838   1.802
 4055SOL    HW113064   1.431   3.817   1.887
 4055SOL    HW213065   1.436   3.905   1.750
 4056SOL     OW13066   4.769   3.373   0.997
 4056SOL    HW113067   4.842   3.304   0.991
 4056SOL    HW213068   4.791   3.450   0.936
 4057SOL     OW13069   6.607   3.728   6.145
 4057SOL    HW113070   6.583   3.710   6.050
 4057SOL    HW213071   6.526   3.762   6.194
 4058SOL     OW13072   2.689   5.851   5.572
 4058SOL    HW113073   2.762   5.897   5.520
 4058SOL    HW213074   2.725   5.768   5.613
 4059SOL     OW13075   0.903   1.778   4.186
 4059SOL    HW113076   0.915   1.692   4.236
 4059SOL    HW213077   0.981   1.793   4.125
 4060SOL     OW13078   6.550   5.606   5.227
 4060SOL    HW113079   6.564   5.705   5.228
 4060SOL    HW213080   6.590   5.566   5.310
 4061SOL     OW13081   2.468   5.304   2.226
 4061SOL    HW113082   2.369   5.299   2.231
 4061SOL    HW213083   2.501   5.240   2.157
 4062SOL     OW13084   2.244   1.712   1.747
 4062SOL    HW113085   2.320   1.768   1.715
 4062SOL    HW213086   2.260   1.685   1.842
 4063SOL     OW13087   5.460   1.022   1.149
 4063SOL    HW113088   5.376   0.968   1.145
 4063SOL    HW213089   5.440   1.112   1.189
 4064SOL     OW13090   2.129   1.912   4.592
 4064SOL    HW113091   2.063   1.939   4.662
 4064SOL    HW213092   2.104   1.954   4.505
 4065SOL     OW13093   1.871   6.765   0.343
 4065SOL    HW113094   1.958   6.721   0.366
 4065SOL    HW213095   1.840   6.821   0.421
 4066SOL     OW13096   0.036   4.505   3.361
 4066SOL    HW113097   0.131   4.534   3.374
 4066SOL    HW213098   0.031   4.405   3.368
 4067SOL     OW13099   5.838   4.502   2.293
 4067SOL    HW113100   5.931   4.468   2.307
 4067SOL    HW213101   5.836   4.601   2.310
 4068SOL     OW13102   1.796   2.315   5.319
 4068SOL    HW113103   1.858   2.266   5.256
 4068SOL    HW213104   1.833   2.312   5.411
 4069SOL     OW13105   4.189   0.144   6.708
 4069SOL    HW113106   4.125   0.103   6.642
 4069SOL    HW213107   4.201   0.081   6.785
 4070SOL     OW13108   1.528   3.059   3.350
 4070SOL    HW113109   1.555   3.132   3.413
 4070SOL    HW213110   1.450   3.010   3.387
 4071SOL     OW13111   0.673   0.297   4.045
 4071SOL    HW113112   0.669   0.203   4.079
 4071SOL    HW213113   0.768   0.325   4.036
 4072SOL     OW13114   1.343   5.641   4.182
 4072SOL    HW113115   1.263   5.629   4.240
 4072SOL    HW213116   1.407   5.704   4.226
 4073SOL     OW13117   2.783   5.529   0.656
 4073SOL    HW113118   2.754   5.433   0.655
 4073SOL    HW213119   2.875   5.536   0.618
 4074SOL     OW13120   1.246   5.378   2.348
 4074SOL    HW113121   1.166   5.325   2.319
 4074SOL    HW213122   1.223   5.432   2.429
 4075SOL     OW13123   4.815   0.506   0.560
 4075SOL    HW113124   4.739   0.508   0.626
 4075SOL    HW213125   4.878   0.432   0.585
 4076SOL     OW13126   3.092   3.244   5.324
 4076SOL    HW113127   3.077   3.182   5.400
 4076SOL    HW213128   3.189   3.270   5.320
 4077SOL     OW13129   4.152   2.249   1.617
 4077SOL    HW113130   4.245   2.278   1.639
 4077SOL    HW213131   4.123   2.179   1.682
 4078SOL     OW13132   2.885   4.932   3.021
 4078SOL    HW113133   2.885   4.875   2.939
 4078SOL    HW213134   2.925   5.021   2.999
 4079SOL     OW13135   1.255   2.548   4.028
 4079SOL    HW113136   1.218   2.641   4.035
 4079SOL    HW213137   1.278   2.528   3.933
 4080SOL     OW13138   5.178   1.807   5.040
 4080SOL    HW113139   5.117   1.764   5.106
 4080SOL    HW213140   5.272   1.803   5.075
 4081SOL     OW13141   1.491   3.141   4.088
 4081SOL    HW113142   1.557   3.102   4.023
 4081SOL    HW213143   1.529   3.224   4.129
 4082SOL     OW13144   1.782   2.925   0.933
 4082SOL    HW113145   1.747   2.975   1.012
 4082SOL    HW213146   1.755   2.829   0.939
 4083SOL     OW13147   5.621   2.844   3.702
 4083SOL    HW113148   5.554   2.778   3.734
 4083SOL    HW213149   5.626   2.920   3.766
 4084SOL     OW13150   6.183   1.953   4.293
 4084SOL    HW113151   6.222   1.926   4.381
 4084SOL    HW213152   6.085   1.966   4.302
 4085SOL     OW13153   3.871   5.835   0.754
 4085SOL    HW113154   3.968   5.859   0.768
 4085SOL    HW213155   3.861   5.787   0.667
 4086SOL     OW13156   1.757   5.573   1.654
 4086SOL    HW113157   1.711   5.639   1.594
 4086SOL    HW213158   1.718   5.580   1.746
 4087SOL     OW13159   2.287   1.861   3.074
 4087SOL    HW113160   2.336   1.815   3.000
 4087SOL    HW213161   2.353   1.913   3.129
 4088SOL     OW13162   6.171   2.331   1.685
 4088SOL    HW113163   6.250   2.353   1.627
 4088SOL    HW213164   6.150   2.234   1.678
 4089SOL     OW13165   0.764   0.414   3.285
 4089SOL    HW113166   0.764   0.393   3.188
 4089SOL    HW213167   0.723   0.503   3.301
 4090SOL     OW13168   2.687   4.160   6.569
 4090SOL    HW113169   2.762   4.156   6.635
 4090SOL    HW213170   2.720   4.199   6.483
 4091SOL     OW13171   5.261   6.811   0.317
 4091SOL    HW113172   5.337   6.758   0.279
 4091SOL    HW213173   5.297   6.878   0.383
 4092SOL     OW13174   0.152   3.005   5.028
 4092SOL    HW113175   0.153   2.910   4.996
 4092SOL    HW213176   0.058   3.039   5.029
 4093SOL     OW13177   5.417   0.904   3.555
 4093SOL    HW113178   5.395   0.978   3.618
 4093SOL    HW213179   5.494   0.851   3.591
 4094SOL     OW13180   2.112   4.405   5.063
 4094SOL    HW113181   2.144   4.333   5.001
 4094SOL    HW213182   2.066   4.364   5.141
 4095SOL     OW13183   1.230   3.309   5.848
 4095SOL    HW113184   1.324   3.339   5.830
 4095SOL    HW213185   1.229   3.210   5.863
 4096SOL     OW13186   4.792   5.069   0.268
 4096SOL    HW113187   4.852   5.026   0.335
 4096SOL    HW213188   4.699   5.034   0.278
 4097SOL     OW13189   3.257   3.750   5.942
 4097SOL    HW113190   3.173   3.766   5.891
 4097SOL    HW213191   3.247   3.667   5.997
 4098SOL     OW13192   0.355   2.841   2.655
 4098SOL    HW113193   0.299   2.904   2.710
 4098SOL    HW213194   0.451   2.854   2.678
 4099SOL     OW13195   2.815   5.992   1.569
 4099SOL    HW113196   2.871   5.929   1.622
 4099SOL    HW213197   2.873   6.044   1.506
 4100SOL     OW13198   4.914   5.916   3.639
 4100SOL    HW113199   4.871   5.839   3.592
 4100SOL    HW213200   4.850   5.956   3.704
 4101SOL     OW13201   5.655   1.596   0.116
 4101SOL    HW113202   5.713   1.606   0.196
 4101SOL    HW213203   5.710   1.568   0.038
 4102SOL     OW13204   6.146   0.446   0.950
 4102SOL    HW113205   6.140   0.352   0.983
 4102SOL    HW213206   6.054   0.485   0.944
 4103SOL     OW13207   0.676   0.945   2.113
 4103SOL    HW113208   0.601   0.880   2.110
 4103SOL    HW213209   0.757   0.905   2.070
 4104SOL     OW13210   1.642   4.158   2.514
 4104SOL    HW113211   1.682   4.204   2.435
 4104SOL    HW213212   1.675   4.201   2.598
 4105SOL     OW13213   4.252   5.796   0.327
 4105SOL    HW113214   4.184   5.830   0.263
 4105SOL    HW213215   4.218   5.807   0.421
 4106SOL     OW13216   6.995   3.621   4.718
 4106SOL    HW113217   6.936   3.618   4.799
 4106SOL    HW213218   0.005   3.530   4.699
 4107SOL     OW13219   6.937   6.027   0.988
 4107SOL    HW113220   0.005   5.993   0.990
 4107SOL    HW213221   6.927   6.096   0.918
 4108SOL     OW13222   0.453   4.553   6.376
 4108SOL    HW113223   0.416   4.487   6.442
 4108SOL    HW213224   0.488   4.505   6.296
 4109SOL     OW13225   3.655   6.450   4.107
 4109SOL    HW113226   3.624   6.541   4.079
 4109SOL    HW213227   3.677   6.397   4.025
 4110SOL     OW13228   4.128   3.801   6.048
 4110SOL    HW113229   4.109   3.752   6.133
 4110SOL    HW213230   4.089   3.750   5.971
 4111SOL     OW13231   3.813   2.939   6.867
 4111SOL    HW113232   3.888   2.900   6.920
 4111SOL    HW213233   3.839   2.942   6.770
 4112SOL     OW13234   4.515   1.273   5.002
 4112SOL    HW113235   4.507   1.203   4.931
 4112SOL    HW213236   4.454   1.349   4.982
 4113SOL     OW13237   3.330   5.662   5.678
 4113SOL    HW113238   3.279   5.622   5.754
 4113SOL    HW213239   3.402   5.599   5.649
 4114SOL     OW13240   3.491   1.098   4.267
 4114SOL    HW113241   3.507   1.010   4.223
 4114SOL    HW213242   3.392   1.116   4.270
 4115SOL     OW13243   4.879   6.010   1.840
 4115SOL    HW113244   4.887   6.021   1.740
 4115SOL    HW213245   4.916   5.922   1.867
 4116SOL     OW13246   4.191   2.020   1.787
 4116SOL    HW113247   4.142   2.078   1.852
 4116SOL    HW213248   4.148   1.929   1.786
 4117SOL     OW13249   0.982   5.282   0.953
 4117SOL    HW113250   0.995   5.375   0.988
 4117SOL    HW213251   0.923   5.284   0.872
 4118SOL     OW13252   0.824   6.827   0.948
 4118SOL    HW113253   0.882   6.748   0.928
 4118SOL    HW213254   0.808   6.879   0.864
 4119SOL     OW13255   3.446   1.575   4.348
 4119SOL    HW113256   3.446   1.493   4.292
 4119SOL    HW213257   3.414   1.653   4.294
 4120SOL     OW13258   3.999   6.381   2.178
 4120SOL    HW113259   3.914   6.420   2.143
 4120SOL    HW213260   4.029   6.432   2.258
 4121SOL     OW13261   6.375   2.278   4.577
 4121SOL    HW113262   6.404   2.243   4.487
 4121SOL    HW213263   6.412   2.370   4.590
 4122SOL     OW13264   0.442   6.594   5.003
 4122SOL    HW113265   0.415   6.662   4.934
 4122SOL    HW213266   0.493   6.639   5.076
 4123SOL     OW13267   5.717   4.181   6.130
 4123SOL    HW113268   5.798   4.123   6.140
 4123SOL    HW213269   5.636   4.129   6.155
 4124SOL     OW13270   5.531   6.677   3.813
 4124SOL    HW113271   5.578   6.653   3.898
 4124SOL    HW213272   5.570   6.626   3.737
 4125SOL     OW13273   4.770   0.955   1.748
 4125SOL    HW113274   4.709   0.883   1.713
 4125SOL    HW213275   4.860   0.944   1.706
 4126SOL     OW13276   1.398   4.263   4.572
 4126SOL    HW113277   1.483   4.308   4.543
 4126SOL    HW213278   1.344   4.238   4.492
 4127SOL     OW13279   5.383   3.505   4.811
 4127SOL    HW113280   5.445   3.528   4.887
 4127SOL    HW213281   5.366   3.406   4.811
 4128SOL     OW13282   1.815   3.816   2.526
 4128SOL    HW113283   1.728   3.853   2.559
 4128SOL    HW213284   1.804   3.719   2.506
 4129SOL     OW13285   5.564   1.887   6.443
 4129SOL    HW113286   5.477   1.922   6.478
 4129SOL    HW213287   5.625   1.867   6.520
 4130SOL     OW13288   6.828   3.735   5.794
 4130SOL    HW113289   6.777   3.665   5.845
 4130SOL    HW213290   6.771   3.769   5.719
 4131SOL     OW13291   0.138   5.944   3.807
 4131SOL    HW113292   0.140   5.900   3.897
 4131SOL    HW213293   0.080   6.025   3.810
 4132SOL     OW13294   5.594   3.274   3.307
 4132SOL    HW113295   5.552   3.233   3.226
 4132SOL    HW213296   5.650   3.205   3.353
 4133SOL     OW13297   3.106   0.632   0.624
 4133SOL    HW113298   3.103   0.535   0.599
 4133SOL    HW213299   3.022   0.657   0.671
 4134SOL     OW13300   2.241   2.098   0.439
 4134SOL    HW113301   2.233   2.137   0.531
 4134SOL    HW213302   2.174   2.024   0.428
 4135SOL     OW13303   1.952   0.267   2.450
 4135SOL    HW113304   1.904   0.179   2.459
 4135SOL    HW213305   2.017   0.261   2.374
 4136SOL     OW13306   0.524   2.395   3.889
 4136SOL    HW113307   0.624   2.400   3.883
 4136SOL    HW213308   0.496   2.403   3.985
 4137SOL     OW13309   3.374   4.062   0.193
 4137SOL    HW113310   3.306   4.124   0.230
 4137SOL    HW213311   3.330   3.976   0.168
 4138SOL     OW13312   4.864   4.814   4.686
 4138SOL    HW113313   4.817   4.742   4.635
 4138SOL    HW213314   4.879   4.784   4.780
 4139SOL     OW13315   1.881   2.257   6.233
 4139SOL    HW113316   1.909   2.259   6.329
 4139SOL    HW213317   1.855   2.350   6.204
 4140SOL     OW13318   3.701   1.317   5.291
 4140SOL    HW113319   3.712   1.410   5.255
 4140SOL    HW213320   3.775   1.298   5.356
 4141SOL     OW13321   5.098   5.241   1.579
 4141SOL    HW113322   5.195   5.240   1.552
 4141SOL    HW213323   5.041   5.241   1.497
 4142SOL     OW13324   6.588   5.119   0.940
 4142SOL    HW113325   6.564   5.071   1.025
 4142SOL    HW213326   6.520   5.190   0.922
 4143SOL     OW13327   6.803   2.790   0.276
 4143SOL    HW113328   6.813   2.878   0.322
 4143SOL    HW213329   6.776   2.804   0.181
 4144SOL     OW13330   5.793   1.434   1.527
 4144SOL    HW113331   5.840   1.455   1.612
 4144SOL    HW213332   5.860   1.407   1.457
 4145SOL     OW13333   0.037   6.506   1.475
 4145SOL    HW113334   6.973   6.499   1.432
 4145SOL    HW213335   0.105   6.530   1.406
 4146SOL     OW13336   5.798   0.278   6.302
 4146SOL    HW113337   5.857   0.197   6.295
 4146SOL    HW213338   5.703   0.251   6.284
 4147SOL     OW13339   3.046   1.938   6.391
 4147SOL    HW113340   3.124   1.885   6.422
 4147SOL    HW213341   3.025   2.009   6.458
 4148SOL     OW13342   0.580   0.782   4.048
 4148SOL    HW113343   0.489   0.818   4.025
 4148SOL    HW213344   0.588   0.688   4.015
 4149SOL     OW13345   6.196   2.594   0.530
 4149SOL    HW113346   6.131   2.669   0.518
 4149SOL    HW213347   6.274   2.607   0.469
 4150SOL     OW13348   5.855   0.524   6.221
 4150SOL    HW113349   5.763   0.548   6.191
 4150SOL    HW213350   5.857   0.427   6.247
 4151SOL     OW13351   5.977   6.353   0.059
 4151SOL    HW113352   5.970   6.263   0.102
 4151SOL    HW213353   5.932   6.351   6.996
 4152SOL     OW13354   3.738   4.855   2.229
 4152SOL    HW113355   3.679   4.850   2.310
 4152SOL    HW213356   3.697   4.801   2.155
 4153SOL     OW13357   5.325   5.306   6.498
 4153SOL    HW113358   5.418   5.299   6.534
 4153SOL    HW213359   5.323   5.274   6.403
 4154SOL     OW13360   6.643   3.721   4.953
 4154SOL    HW113361   6.720   3.662   4.978
 4154SOL    HW213362   6.566   3.664   4.924
 4155SOL     OW13363   0.874   3.365   2.730
 4155SOL    HW113364   0.941   3.403   2.666
 4155SOL    HW213365   0.790   3.341   2.681
 4156SOL     OW13366   5.897   6.976   5.187
 4156SOL    HW113367   5.868   6.978   5.283
 4156SOL    HW213368   5.997   6.980   5.182
 4157SOL     OW13369   3.886   0.196   4.272
 4157SOL    HW113370   3.813   0.237   4.216
 4157SOL    HW213371   3.887   0.241   4.362
 4158SOL     OW13372   0.694   5.467   3.172
 4158SOL    HW113373   0.711   5.371   3.192
 4158SOL    HW213374   0.692   5.519   3.258
 4159SOL     OW13375   1.853   2.819   3.763
 4159SOL    HW113376   1.921   2.792   3.831
 4159SOL    HW213377   1.783   2.748   3.755
 4160SOL     OW13378   6.528   0.456   1.166
 4160SOL    HW113379   6.597   0.459   1.094
 4160SOL    HW213380   6.457   0.524   1.149
 4161SOL     OW13381   1.650   0.731   6.581
 4161SOL    HW113382   1.702   0.816   6.589
 4161SOL    HW213383   1.672   0.671   6.658
 4162SOL     OW13384   5.999   0.140   4.799
 4162SOL    HW113385   5.956   0.062   4.843
 4162SOL    HW213386   5.932   0.187   4.742
 4163SOL     OW13387   5.719   1.262   3.393
 4163SOL    HW113388   5.677   1.266   3.303
 4163SOL    HW213389   5.755   1.352   3.417
 4164SOL     OW13390   1.614   0.600   6.346
 4164SOL    HW113391   1.625   0.643   6.436
 4164SOL    HW213392   1.523   0.621   6.311
 4165SOL     OW13393   4.209   6.562   1.080
 4165SOL    HW113394   4.243   6.648   1.041
 4165SOL    HW213395   4.120   6.578   1.123
 4166SOL     OW13396   4.047   2.810   0.613
 4166SOL    HW113397   4.106   2.832   0.691
 4166SOL    HW213398   4.051   2.712   0.596
 4167SOL     OW13399   2.371   2.364   1.435
 4167SOL    HW113400   2.416   2.451   1.456
 4167SOL    HW213401   2.439   2.293   1.423
 4168SOL     OW13402   0.277   5.235   1.563
 4168SOL    HW113403   0.295   5.333   1.552
 4168SOL    HW213404   0.311   5.186   1.482
 4169SOL     OW13405   5.009   3.667   4.314
 4169SOL    HW113406   5.041   3.679   4.408
 4169SOL    HW213407   4.965   3.578   4.306
 4170SOL     OW13408   3.846   2.489   5.600
 4170SOL    HW113409   3.768   2.461   5.545
 4170SOL    HW213410   3.862   2.587   5.590
 4171SOL     OW13411   5.658   3.519   1.255
 4171SOL    HW113412   5.637   3.434   1.206
 4171SOL    HW213413   5.753   3.516   1.287
 4172SOL     OW13414   6.991   1.867   0.449
 4172SOL    HW113415   6.989   1.870   0.349
 4172SOL    HW213416   0.061   1.864   0.480
 4173SOL     OW13417   6.008   3.010   5.231
 4173SOL    HW113418   6.037   3.103   5.208
 4173SOL    HW213419   5.937   3.013   5.301
 4174SOL     OW13420   4.904   0.202   3.817
 4174SOL    HW113421   4.883   0.224   3.912
 4174SOL    HW213422   4.956   0.117   3.813
 4175SOL     OW13423   3.394   0.176   3.655
 4175SOL    HW113424   3.330   0.104   3.626
 4175SOL    HW213425   3.421   0.231   3.576
 4176SOL     OW13426   4.644   0.338   2.286
 4176SOL    HW113427   4.626   0.370   2.193
 4176SOL    HW213428   4.593   0.394   2.351
 4177SOL     OW13429   0.143   5.848   4.060
 4177SOL    HW113430   0.218   5.783   4.077
 4177SOL    HW213431   0.130   5.905   4.141
 4178SOL     OW13432   3.179   1.426   6.239
 4178SOL    HW113433   3.107   1.357   6.234
 4178SOL    HW213434   3.157   1.493   6.310
 4179SOL     OW13435   5.775   3.429   5.053
 4179SOL    HW113436   5.844   3.389   4.991
 4179SOL    HW213437   5.822   3.477   5.127
 4180SOL     OW13438   5.496   4.269   1.627
 4180SOL    HW113439   5.419   4.307   1.575
 4180SOL    HW213440   5.460   4.212   1.701
 4181SOL     OW13441   1.064   1.752   6.326
 4181SOL    HW113442   0.996   1.826   6.321
 4181SOL    HW213443   1.018   1.665   6.312
 4182SOL     OW13444   0.295   0.375   2.337
 4182SOL    HW113445   0.336   0.312   2.403
 4182SOL    HW213446   0.290   0.466   2.378
 4183SOL     OW13447   2.949   1.692   2.144
 4183SOL    HW113448   2.968   1.699   2.242
 4183SOL    HW213449   3.021   1.637   2.100
 4184SOL     OW13450   3.954   5.348   0.564
 4184SOL    HW113451   3.996   5.320   0.651
 4184SOL    HW213452   3.857   5.324   0.565
 4185SOL     OW13453   0.204   6.777   3.271
 4185SOL    HW113454   0.219   6.795   3.369
 4185SOL    HW213455   0.108   6.756   3.255
 4186SOL     OW13456   2.252   3.999   0.307
 4186SOL    HW113457   2.320   4.024   0.239
 4186SOL    HW213458   2.297   3.959   0.386
 4187SOL     OW13459   3.752   3.391   6.475
 4187SOL    HW113460   3.827   3.413   6.412
 4187SOL    HW213461   3.694   3.472   6.486
 4188SOL     OW13462   4.858   0.063   4.402
 4188SOL    HW113463   4.941   0.111   4.373
 4188SOL    HW213464   4.881   7.022   4.473
 4189SOL     OW13465   2.693   1.484   3.956
 4189SOL    HW113466   2.679   1.542   3.876
 4189SOL    HW213467   2.685   1.539   4.039
 4190SOL     OW13468   2.923   0.260   6.843
 4190SOL    HW113469   2.988   0.200   6.891
 4190SOL    HW213470   2.844   0.206   6.813
 4191SOL     OW13471   6.351   2.794   3.361
 4191SOL    HW113472   6.312   2.884   3.340
 4191SOL    HW213473   6.383   2.751   3.277
 4192SOL     OW13474   5.966   1.290   3.167
 4192SOL    HW113475   5.981   1.309   3.264
 4192SOL    HW213476   5.868   1.287   3.148
 4193SOL     OW13477   2.223   6.711   2.301
 4193SOL    HW113478   2.161   6.787   2.322
 4193SOL    HW213479   2.246   6.662   2.385
 4194SOL     OW13480   6.790   1.854   4.736
 4194SOL    HW113481   6.715   1.800   4.775
 4194SOL    HW213482   6.784   1.948   4.770
 4195SOL     OW13483   4.809   0.562   1.223
 4195SOL    HW113484   4.876   0.633   1.204
 4195SOL    HW213485   4.821   0.530   1.317
 4196SOL     OW13486   5.381   2.790   4.026
 4196SOL    HW113487   5.335   2.784   3.937
 4196SOL    HW213488   5.341   2.723   4.089
 4197SOL     OW13489   5.560   4.420   4.637
 4197SOL    HW113490   5.479   4.362   4.647
 4197SOL    HW213491   5.628   4.394   4.704
 4198SOL     OW13492   6.008   3.654   6.870
 4198SOL    HW113493   5.960   3.658   6.958
 4198SOL    HW213494   6.089   3.713   6.873
 4199SOL     OW13495   3.003   3.579   5.267
 4199SOL    HW113496   2.978   3.669   5.230
 4199SOL    HW213497   3.023   3.517   5.192
 4200SOL     OW13498   1.964   6.921   6.305
 4200SOL    HW113499   2.048   6.970   6.329
 4200SOL    HW213500   1.935   6.865   6.383
 4201SOL     OW13501   6.398   6.846   3.491
 4201SOL    HW113502   6.408   6.774   3.560
 4201SOL    HW213503   6.412   6.935   3.533
 4202SOL     OW13504   5.279   4.846   5.743
 4202SOL    HW113505   5.335   4.929   5.749
 4202SOL    HW213506   5.287   4.808   5.651
 4203SOL     OW13507   5.239   5.134   3.151
 4203SOL    HW113508   5.308   5.062   3.160
 4203SOL    HW213509   5.266   5.213   3.207
 4204SOL     OW13510   3.526   3.285   1.283
 4204SOL    HW113511   3.550   3.328   1.370
 4204SOL    HW213512   3.490   3.193   1.300
 4205SOL     OW13513   3.107   5.168   4.768
 4205SOL    HW113514   3.133   5.141   4.675
 4205SOL    HW213515   3.140   5.100   4.833
 4206SOL     OW13516   5.280   0.168   5.259
 4206SOL    HW113517   5.300   0.092   5.321
 4206SOL    HW213518   5.295   0.139   5.165
 4207SOL     OW13519   1.248   0.790   1.762
 4207SOL    HW113520   1.165   0.845   1.768
 4207SOL    HW213521   1.279   0.784   1.667
 4208SOL     OW13522   1.382   2.645   0.911
 4208SOL    HW113523   1.332   2.565   0.877
 4208SOL    HW213524   1.459   2.665   0.849
 4209SOL     OW13525   2.077   6.914   4.769
 4209SOL    HW113526   2.159   6.971   4.758
 4209SOL    HW213527   2.075   6.875   4.861
 4210SOL     OW13528   3.639   3.224   1.009
 4210SOL    HW113529   3.684   3.139   0.982
 4210SOL    HW213530   3.594   3.211   1.098
 4211SOL     OW13531   5.032   4.388   4.607
 4211SOL    HW113532   5.006   4.361   4.514
 4211SOL    HW213533   4.951   4.387   4.665
 4212SOL     OW13534   6.133   0.669   2.940
 4212SOL    HW113535   6.062   0.649   3.007
 4212SOL    HW213536   6.153   0.767   2.940
 4213SOL     OW13537   1.850   0.616   2.141
 4213SOL    HW113538   1.830   0.643   2.236
 4213SOL    HW213539   1.793   0.669   2.079
 4214SOL     OW13540   1.033   3.428   5.427
 4214SOL    HW113541   0.958   3.362   5.432
 4214SOL    HW213542   1.081   3.418   5.340
 4215SOL     OW13543   0.893   5.458   4.750
 4215SOL    HW113544   0.823   5.458   4.821
 4215SOL    HW213545   0.849   5.461   4.660
 4216SOL     OW13546   1.382   2.362   4.508
 4216SOL    HW113547   1.412   2.456   4.489
 4216SOL    HW213548   1.438   2.298   4.455
 4217SOL     OW13549   0.365   0.366   2.773
 4217SOL    HW113550   0.373   0.449   2.718
 4217SOL    HW213551   0.376   0.388   2.870
 4218SOL     OW13552   4.834   0.423   1.800
 4218SOL    HW113553   4.738   0.423   1.770
 4218SOL    HW213554   4.875   0.512   1.783
 4219SOL     OW13555   4.110   5.057   5.033
 4219SOL    HW113556   4.079   5.079   4.941
 4219SOL    HW213557   4.209   5.043   5.033
 4220SOL     OW13558   6.709   3.282   3.650
 4220SOL    HW113559   6.632   3.250   3.707
 4220SOL    HW213560   6.795   3.259   3.695
 4221SOL     OW13561   5.060   5.263   6.813
 4221SOL    HW113562   5.141   5.287   6.867
 4221SOL    HW213563   5.089   5.207   6.734
 4222SOL     OW13564   5.485   2.381   1.778
 4222SOL    HW113565   5.516   2.338   1.863
 4222SOL    HW213566   5.411   2.446   1.799
 4223SOL     OW13567   3.152   4.072   2.780
 4223SOL    HW113568   3.214   4.099   2.706
 4223SOL    HW213569   3.113   3.982   2.760
 4224SOL     OW13570   4.459   2.482   4.845
 4224SOL    HW113571   4.520   2.561   4.853
 4224SOL    HW213572   4.371   2.503   4.887
 4225SOL     OW13573   6.361   0.410   4.688
 4225SOL    HW113574   6.418   0.398   4.607
 4225SOL    HW213575   6.403   0.364   4.766
 4226SOL     OW13576   0.850   1.634   3.656
 4226SOL    HW113577   0.753   1.612   3.641
 4226SOL    HW213578   0.900   1.550   3.675
 4227SOL     OW13579   3.643   4.485   0.066
 4227SOL    HW113580   3.701   4.429   0.007
 4227SOL    HW213581   3.587   4.425   0.124
 4228SOL     OW13582   6.198   5.585   3.256
 4228SOL    HW113583   6.161   5.654   3.195
 4228SOL    HW213584   6.258   5.629   3.324
 4229SOL     OW13585   4.746   4.852   6.031
 4229SOL    HW113586   4.681   4.867   6.104
 4229SOL    HW213587   4.802   4.934   6.018
 4230SOL     OW13588   3.471   0.854   5.368
 4230SOL    HW113589   3.490   0.881   5.274
 4230SOL    HW213590   3.381   0.888   5.396
 4231SOL     OW13591   4.706   6.774   5.173
 4231SOL    HW113592   4.769   6.796   5.099
 4231SOL    HW213593   4.638   6.847   5.182
 4232SOL     OW13594   1.838   5.090   3.076
 4232SOL    HW113595   1.755   5.039   3.102
 4232SOL    HW213596   1.866   5.148   3.152
 4233SOL     OW13597   6.484   0.250   6.452
 4233SOL    HW113598   6.492   0.224   6.548
 4233SOL    HW213599   6.574   0.277   6.417
 4234SOL     OW13600   3.268   5.036   6.181
 4234SOL    HW113601   3.181   5.011   6.138
 4234SOL    HW213602   3.277   5.136   6.181
 4235SOL     OW13603   6.186   4.046   5.459
 4235SOL    HW113604   6.179   4.093   5.547
 4235SOL    HW213605   6.158   4.108   5.385
 4236SOL     OW13606   0.586   2.733   4.380
 4236SOL    HW113607   0.643   2.651   4.387
 4236SOL    HW213608   0.613   2.799   4.449
 4237SOL     OW13609   5.196   3.700   5.093
 4237SOL    HW113610   5.274   3.711   5.155
 4237SOL    HW213611   5.118   3.664   5.144
 4238SOL     OW13612   4.336   5.275   4.198
 4238SOL    HW113613   4.398   5.347   4.229
 4238SOL    HW213614   4.378   5.225   4.122
 4239SOL     OW13615   4.251   6.737   6.033
 4239SOL    HW113616   4.301   6.687   5.961
 4239SOL    HW213617   4.297   6.725   6.120
 4240SOL     OW13618   2.807   4.660   6.923
 4240SOL    HW113619   2.862   4.599   6.865
 4240SOL    HW213620   2.781   4.742   6.872
 4241SOL     OW13621   4.624   0.562   0.743
 4241SOL    HW113622   4.540   0.615   0.730
 4241SOL    HW213623   4.691   0.618   0.792
 4242SOL     OW13624   2.071   6.890   2.402
 4242SOL    HW113625   1.994   6.954   2.401
 4242SOL    HW213626   2.125   6.905   2.485
 4243SOL     OW13627   0.946   3.704   2.516
 4243SOL    HW113628   0.873   3.645   2.479
 4243SOL    HW213629   1.034   3.676   2.477
 4244SOL     OW13630   4.793   6.531   0.921
 4244SOL    HW113631   4.842   6.619   0.914
 4244SOL    HW213632   4.752   6.508   0.833
 4245SOL     OW13633   6.700   2.944   0.818
 4245SOL    HW113634   6.667   2.875   0.882
 4245SOL    HW213635   6.669   3.034   0.847
 4246SOL     OW13636   5.139   2.169   3.306
 4246SOL    HW113637   5.089   2.248   3.271
 4246SOL    HW213638   5.081   2.118   3.369
 4247SOL     OW13639   1.852   4.786   4.911
 4247SOL    HW113640   1.932   4.727   4.918
 4247SOL    HW213641   1.815   4.804   5.002
 4248SOL     OW13642   1.796   0.897   2.829
 4248SOL    HW113643   1.748   0.815   2.798
 4248SOL    HW213644   1.731   0.973   2.836
 4249SOL     OW13645   0.080   0.655   5.182
 4249SOL    HW113646   0.040   0.731   5.131
 4249SOL    HW213647   0.124   0.591   5.119
 4250SOL     OW13648   6.796   6.049   4.005
 4250SOL    HW113649   6.699   6.075   4.005
 4250SOL    HW213650   6.826   6.033   4.099
 4251SOL     OW13651   6.091   2.048   6.274
 4251SOL    HW113652   6.090   2.134   6.225
 4251SOL    HW213653   6.036   2.056   6.358
 4252SOL     OW13654   6.475   6.081   6.387
 4252SOL    HW113655   6.420   6.024   6.325
 4252SOL    HW213656   6.422   6.099   6.470
 4253SOL     OW13657   4.348   5.426   2.399
 4253SOL    HW113658   4.391   5.480   2.470
 4253SOL    HW213659   4.351   5.475   2.312
 4254SOL     OW13660   1.939   2.974   6.924
 4254SOL    HW113661   1.949   2.990   6.826
 4254SOL    HW213662   1.944   3.061   6.973
 4255SOL     OW13663   0.480   3.769   2.704
 4255SOL    HW113664   0.516   3.858   2.732
 4255SOL    HW213665   0.481   3.706   2.782
 4256SOL     OW13666   0.690   5.129   2.211
 4256SOL    HW113667   0.705   5.215   2.160
 4256SOL    HW213668   0.772   5.072   2.204
 4257SOL     OW13669   6.363   0.544   5.038
 4257SOL    HW113670   6.388   0.502   5.126
 4257SOL    HW213671   6.443   0.545   4.978
 4258SOL     OW13672   4.044   6.018   0.129
 4258SOL    HW113673   4.018   5.926   0.159
 4258SOL    HW213674   4.010   6.085   0.195
 4259SOL     OW13675   0.958   6.804   2.141
 4259SOL    HW113676   0.952   6.708   2.114
 4259SOL    HW213677   0.971   6.810   2.240
 4260SOL     OW13678   5.256   0.095   5.002
 4260SOL    HW113679   5.199   0.137   4.930
 4260SOL    HW213680   5.327   0.039   4.959
 4261SOL     OW13681   2.000   0.038   3.415
 4261SOL    HW113682   2.043   0.080   3.495
 4261SOL    HW213683   1.968   0.110   3.353
 4262SOL     OW13684   1.766   4.315   6.697
 4262SOL    HW113685   1.753   4.216   6.703
 4262SOL    HW213686   1.849   4.341   6.745
 4263SOL     OW13687   2.810   2.030   3.885
 4263SOL    HW113688   2.732   2.083   3.852
 4263SOL    HW213689   2.894   2.082   3.870
 4264SOL     OW13690   5.124   1.497   3.893
 4264SOL    HW113691   5.028   1.472   3.885
 4264SOL    HW213692   5.157   1.532   3.806
 4265SOL     OW13693   3.030   0.869   1.138
 4265SOL    HW113694   3.115   0.865   1.086
 4265SOL    HW213695   2.977   0.786   1.120
 4266SOL     OW13696   1.629   6.625   0.603
 4266SOL    HW113697   1.607   6.532   0.576
 4266SOL    HW213698   1.578   6.690   0.546
 4267SOL     OW13699   1.748   4.316   4.784
 4267SOL    HW113700   1.795   4.261   4.852
 4267SOL    HW213701   1.709   4.256   4.714
 4268SOL     OW13702   1.588   4.907   5.917
 4268SOL    HW113703   1.629   4.878   6.004
 4268SOL    HW213704   1.624   4.849   5.843
 4269SOL     OW13705   2.894   2.070   4.335
 4269SOL    HW113706   2.854   2.142   4.392
 4269SOL    HW213707   2.828   2.041   4.266
 4270SOL     OW13708   3.586   2.319   0.717
 4270SOL    HW113709   3.579   2.377   0.799
 4270SOL    HW213710   3.678   2.327   0.679
 4271SOL     OW13711   6.816   0.364   0.976
 4271SOL    HW113712   6.790   0.460   0.984
 4271SOL    HW213713   6.906   0.350   1.017
 4272SOL     OW13714   6.316   2.125   6.055
 4272SOL    HW113715   6.253   2.166   5.990
 4272SOL    HW213716   6.409   2.130   6.019
 4273SOL     OW13717   4.002   5.327   5.231
 4273SOL    HW113718   4.030   5.259   5.164
 4273SOL    HW213719   4.073   5.336   5.301
 4274SOL     OW13720   6.825   0.654   1.836
 4274SOL    HW113721   6.885   0.728   1.868
 4274SOL    HW213722   6.746   0.693   1.788
 4275SOL     OW13723   0.939   2.623   3.325
 4275SOL    HW113724   1.036   2.623   3.300
 4275SOL    HW213725   0.901   2.531   3.312
 4276SOL     OW13726   2.577   5.864   4.005
 4276SOL    HW113727   2.649   5.916   4.052
 4276SOL    HW213728   2.497   5.856   4.065
 4277SOL     OW13729   6.238   5.630   3.693
 4277SOL    HW113730   6.301   5.612   3.618
 4277SOL    HW213731   6.243   5.555   3.759
 4278SOL     OW13732   1.352   6.707   1.967
 4278SOL    HW113733   1.301   6.638   2.018
 4278SOL    HW213734   1.303   6.794   1.970
 4279SOL     OW13735   2.169   2.368   3.475
 4279SOL    HW113736   2.090   2.423   3.504
 4279SOL    HW213737   2.208   2.408   3.392
 4280SOL     OW13738   0.216   0.324   6.156
 4280SOL    HW113739   0.205   0.369   6.067
 4280SOL    HW213740   0.133   0.337   6.211
 4281SOL     OW13741   4.418   5.615   3.750
 4281SOL    HW113742   4.442   5.518   3.742
 4281SOL    HW213743   4.399   5.652   3.659
 4282SOL     OW13744   3.583   4.125   1.127
 4282SOL    HW113745   3.584   4.070   1.210
 4282SOL    HW213746   3.589   4.064   1.047
 4283SOL     OW13747   4.837   1.425   3.959
 4283SOL    HW113748   4.746   1.403   3.921
 4283SOL    HW213749   4.836   1.519   3.993
 4284SOL     OW13750   4.864   6.050   6.720
 4284SOL    HW113751   4.765   6.060   6.708
 4284SOL    HW213752   4.892   6.095   6.805
 4285SOL     OW13753   2.919   0.336   5.803
 4285SOL    HW113754   2.981   0.414   5.807
 4285SOL    HW213755   2.937   0.284   5.719
 4286SOL     OW13756   6.011   0.955   6.247
 4286SOL    HW113757   5.925   0.909   6.268
 4286SOL    HW213758   6.009   0.986   6.152
 4287SOL     OW13759   4.948   0.389   6.856
 4287SOL    HW113760   4.988   0.300   6.833
 4287SOL    HW213761   5.020   0.450   6.888
 4288SOL     OW13762   0.053   6.552   2.191
 4288SOL    HW113763   0.080   6.583   2.100
 4288SOL    HW213764   6.979   6.553   2.198
 4289SOL     OW13765   0.468   3.376   4.600
 4289SOL    HW113766   0.390   3.434   4.576
 4289SOL    HW213767   0.466   3.292   4.545
 4290SOL     OW13768   0.138   1.246   3.285
 4290SOL    HW113769   0.232   1.279   3.301
 4290SOL    HW213770   0.081   1.323   3.255
 4291SOL     OW13771   5.066   3.052   6.162
 4291SOL    HW113772   5.049   2.974   6.223
 4291SOL    HW213773   5.051   3.023   6.068
 4292SOL     OW13774   5.842   1.560   1.003
 4292SOL    HW113775   5.809   1.501   0.930
 4292SOL    HW213776   5.765   1.607   1.046
 4293SOL     OW13777   4.125   4.055   0.022
 4293SOL    HW113778   4.192   3.987   0.051
 4293SOL    HW213779   4.133   4.069   6.949
 4294SOL     OW13780   2.706   2.115   6.588
 4294SOL    HW113781   2.784   2.055   6.570
 4294SOL    HW213782   2.638   2.103   6.515
 4295SOL     OW13783   4.454   6.292   3.266
 4295SOL    HW113784   4.481   6.205   3.225
 4295SOL    HW213785   4.528   6.327   3.323
 4296SOL     OW13786   2.566   6.411   1.816
 4296SOL    HW113787   2.550   6.450   1.725
 4296SOL    HW213788   2.544   6.479   1.886
 4297SOL     OW13789   5.715   4.923   0.952
 4297SOL    HW113790   5.688   4.964   0.865
 4297SOL    HW213791   5.810   4.949   0.973
 4298SOL     OW13792   3.343   6.454   0.774
 4298SOL    HW113793   3.260   6.490   0.816
 4298SOL    HW213794   3.407   6.427   0.846
 4299SOL     OW13795   1.363   2.560   0.246
 4299SOL    HW113796   1.296   2.487   0.234
 4299SOL    HW213797   1.364   2.618   0.164
 4300SOL     OW13798   3.233   0.738   0.963
 4300SOL    HW113799   3.174   0.664   0.933
 4300SOL    HW213800   3.279   0.778   0.884
 4301SOL     OW13801   2.995   6.864   1.784
 4301SOL    HW113802   3.051   6.782   1.787
 4301SOL    HW213803   2.998   6.911   1.872
 4302SOL     OW13804   1.545   5.645   6.172
 4302SOL    HW113805   1.628   5.598   6.203
 4302SOL    HW213806   1.567   5.740   6.149
 4303SOL     OW13807   6.086   4.223   3.644
 4303SOL    HW113808   6.071   4.304   3.587
 4303SOL    HW213809   6.037   4.234   3.730
 4304SOL     OW13810   3.296   3.836   1.467
 4304SOL    HW113811   3.361   3.824   1.542
 4304SOL    HW213812   3.211   3.875   1.502
 4305SOL     OW13813   1.389   0.569   5.351
 4305SOL    HW113814   1.326   0.492   5.356
 4305SOL    HW213815   1.392   0.616   5.439
 4306SOL     OW13816   5.545   3.576   5.021
 4306SOL    HW113817   5.636   3.534   5.033
 4306SOL    HW213818   5.485   3.545   5.095
 4307SOL     OW13819   6.534   1.893   5.349
 4307SOL    HW113820   6.492   1.822   5.293
 4307SOL    HW213821   6.633   1.879   5.352
 4308SOL     OW13822   5.155   4.655   0.768
 4308SOL    HW113823   5.133   4.728   0.832
 4308SOL    HW213824   5.182   4.695   0.680
 4309SOL     OW13825   1.447   3.605   0.401
 4309SOL    HW113826   1.426   3.555   0.485
 4309SOL    HW213827   1.365   3.612   0.345
 4310SOL     OW13828   0.452   1.816   2.521
 4310SOL    HW113829   0.362   1.792   2.485
 4310SOL    HW213830   0.442   1.854   2.613
 4311SOL     OW13831   0.492   6.204   2.586
 4311SOL    HW113832   0.465   6.292   2.624
 4311SOL    HW213833   0.556   6.219   2.510
 4312SOL     OW13834   0.443   4.730   2.459
 4312SOL    HW113835   0.516   4.788   2.423
 4312SOL    HW213836   0.359   4.745   2.408
 4313SOL     OW13837   5.978   1.854   0.411
 4313SOL    HW113838   5.964   1.937   0.356
 4313SOL    HW213839   6.031   1.877   0.493
 4314SOL     OW13840   6.492   2.591   5.001
 4314SOL    HW113841   6.485   2.495   5.029
 4314SOL    HW213842   6.406   2.620   4.960
 4315SOL     OW13843   2.617   1.355   3.566
 4315SOL    HW113844   2.626   1.272   3.623
 4315SOL    HW213845   2.630   1.436   3.623
 4316SOL     OW13846   5.170   6.856   2.027
 4316SOL    HW113847   5.203   6.922   1.960
 4316SOL    HW213848   5.092   6.895   2.077
 4317SOL     OW13849   4.566   0.906   6.303
 4317SOL    HW113850   4.665   0.921   6.308
 4317SOL    HW213851   4.533   0.934   6.213
 4318SOL     OW13852   0.657   1.796   4.292
 4318SOL    HW113853   0.635   1.698   4.294
 4318SOL    HW213854   0.752   1.808   4.264
 4319SOL     OW13855   1.069   4.672   2.215
 4319SOL    HW113856   0.996   4.673   2.283
 4319SOL    HW213857   1.032   4.695   2.125
 4320SOL     OW13858   3.853   5.485   6.908
 4320SOL    HW113859   3.941   5.525   6.883
 4320SOL    HW213860   3.866   5.421   6.983
 4321SOL     OW13861   6.215   0.190   2.380
 4321SOL    HW113862   6.281   0.116   2.395
 4321SOL    HW213863   6.153   0.164   2.306
 4322SOL     OW13864   1.094   3.245   5.094
 4322SOL    HW113865   1.165   3.229   5.025
 4322SOL    HW213866   1.097   3.341   5.123
 4323SOL     OW13867   4.134   5.138   6.523
 4323SOL    HW113868   4.049   5.111   6.477
 4323SOL    HW213869   4.152   5.074   6.598
 4324SOL     OW13870   0.027   3.899   5.838
 4324SOL    HW113871   0.068   3.908   5.747
 4324SOL    HW213872   6.960   3.862   5.828
 4325SOL     OW13873   3.196   0.570   2.322
 4325SOL    HW113874   3.279   0.556   2.268
 4325SOL    HW213875   3.145   0.485   2.328
 4326SOL     OW13876   4.765   2.074   2.709
 4326SOL    HW113877   4.782   1.995   2.650
 4326SOL    HW213878   4.852   2.104   2.749
 4327SOL     OW13879   3.620   5.677   3.854
 4327SOL    HW113880   3.612   5.683   3.954
 4327SOL    HW213881   3.702   5.625   3.830
 4328SOL     OW13882   5.611   5.941   5.102
 4328SOL    HW113883   5.574   6.031   5.125
 4328SOL    HW213884   5.679   5.951   5.029
 4329SOL     OW13885   6.107   2.263   5.910
 4329SOL    HW113886   6.090   2.362   5.918
 4329SOL    HW213887   6.021   2.214   5.926
 4330SOL     OW13888   2.975   4.860   4.997
 4330SOL    HW113889   2.923   4.777   5.018
 4330SOL    HW213890   2.911   4.934   4.974
 4331SOL     OW13891   6.354   0.853   1.566
 4331SOL    HW113892   6.438   0.851   1.619
 4331SOL    HW213893   6.346   0.769   1.512
 4332SOL     OW13894   0.211   4.824   2.347
 4332SOL    HW113895   0.187   4.790   2.256
 4332SOL    HW213896   0.128   4.856   2.394
 4333SOL     OW13897   3.800   2.027   5.410
 4333SOL    HW113898   3.891   2.005   5.445
 4333SOL    HW213899   3.736   1.954   5.434
 4334SOL     OW13900   0.807   2.384   3.801
 4334SOL    HW113901   0.873   2.317   3.835
 4334SOL    HW213902   0.818   2.470   3.851
 4335SOL     OW13903   3.056   3.389   0.805
 4335SOL    HW113904   3.072   3.380   0.903
 4335SOL    HW213905   2.961   3.368   0.785
 4336SOL     OW13906   2.673   5.755   5.933
 4336SOL    HW113907   2.721   5.676   5.894
 4336SOL    HW213908   2.594   5.777   5.876
 4337SOL     OW13909   1.447   5.522   3.285
 4337SOL    HW113910   1.448   5.554   3.379
 4337SOL    HW213911   1.386   5.579   3.230
 4338SOL     OW13912   4.529   0.979   5.987
 4338SOL    HW113913   4.461   1.002   5.917
 4338SOL    HW213914   4.612   1.033   5.972
 4339SOL     OW13915   4.213   2.999   6.027
 4339SOL    HW113916   4.199   2.979   5.930
 4339SOL    HW213917   4.181   3.092   6.047
 4340SOL     OW13918   6.973   3.174   0.685
 4340SOL    HW113919   0.027   3.114   0.693
 4340SOL    HW213920   6.893   3.126   0.721
 4341SOL     OW13921   0.286   6.029   2.614
 4341SOL    HW113922   0.364   6.092   2.607
 4341SOL    HW213923   0.290   5.963   2.539
 4342SOL     OW13924   5.179   3.917   2.769
 4342SOL    HW113925   5.173   3.966   2.856
 4342SOL    HW213926   5.119   3.960   2.702
 4343SOL     OW13927   3.998   0.515   6.026
 4343SOL    HW113928   4.066   0.575   5.984
 4343SOL    HW213929   4.040   0.427   6.046
 4344SOL     OW13930   0.173   2.643   3.847
 4344SOL    HW113931   0.235   2.623   3.771
 4344SOL    HW213932   0.079   2.631   3.817
 4345SOL     OW13933   2.896   3.687   2.502
 4345SOL    HW113934   2.936   3.744   2.431
 4345SOL    HW213935   2.797   3.702   2.505
 4346SOL     OW13936   1.832   3.811   1.985
 4346SOL    HW113937   1.826   3.798   1.886
 4346SOL    HW213938   1.891   3.740   2.025
 4347SOL     OW13939   6.237   5.067   1.512
 4347SOL    HW113940   6.283   4.986   1.476
 4347SOL    HW213941   6.221   5.132   1.437
 4348SOL     OW13942   5.721   6.198   4.371
 4348SOL    HW113943   5.752   6.292   4.356
 4348SOL    HW213944   5.713   6.180   4.469
 4349SOL     OW13945   0.247   3.586   4.169
 4349SOL    HW113946   0.186   3.520   4.125
 4349SOL    HW213947   0.319   3.538   4.218
 4350SOL     OW13948   4.729   1.114   4.815
 4350SOL    HW113949   4.810   1.158   4.776
 4350SOL    HW213950   4.741   1.015   4.814
 4351SOL     OW13951   0.962   6.587   0.908
 4351SOL    HW113952   0.929   6.581   0.814
 4351SOL    HW213953   0.933   6.505   0.958
 4352SOL     OW13954   3.977   3.718   1.092
 4352SOL    HW113955   4.054   3.782   1.095
 4352SOL    HW213956   4.010   3.626   1.114
 4353SOL     OW13957   3.177   2.802   0.718
 4353SOL    HW113958   3.108   2.826   0.650
 4353SOL    HW213959   3.133   2.755   0.795
 4354SOL     OW13960   5.746   6.769   4.215
 4354SOL    HW113961   5.762   6.859   4.176
 4354SOL    HW213962   5.648   6.754   4.226
 4355SOL     OW13963   1.354   6.415   3.375
 4355SOL    HW113964   1.295   6.343   3.412
 4355SOL    HW213965   1.397   6.465   3.450
 4356SOL     OW13966   5.083   2.242   6.587
 4356SOL    HW113967   5.019   2.274   6.658
 4356SOL    HW213968   5.063   2.147   6.565
 4357SOL     OW13969   6.812   0.911   2.122
 4357SOL    HW113970   6.775   0.837   2.179
 4357SOL    HW213971   6.813   0.882   2.026
 4358SOL     OW13972   1.221   0.263   6.949
 4358SOL    HW113973   1.138   0.228   6.993
 4358SOL    HW213974   1.269   0.188   6.903
 4359SOL     OW13975   1.946   1.360   7.023
 4359SOL    HW113976   1.982   1.281   0.047
 4359SOL    HW213977   2.023   1.416   6.990
 4360SOL     OW13978   1.338   2.951   3.530
 4360SOL    HW113979   1.284   2.996   3.602
 4360SOL    HW213980   1.308   2.857   3.520
 4361SOL     OW13981   0.406   1.269   1.388
 4361SOL    HW113982   0.343   1.274   1.310
 4361SOL    HW213983   0.465   1.350   1.388
 4362SOL     OW13984   1.011   5.844   4.080
 4362SOL    HW113985   1.020   5.777   4.154
 4362SOL    HW213986   0.941   5.813   4.016
 4363SOL     OW13987   4.999   1.079   2.240
 4363SOL    HW113988   5.054   1.039   2.313
 4363SOL    HW213989   5.057   1.093   2.159
 4364SOL     OW13990   3.532   3.988   2.955
 4364SOL    HW113991   3.475   3.907   2.970
 4364SOL    HW213992   3.599   3.995   3.029
 4365SOL     OW13993   3.320   2.199   1.737
 4365SOL    HW113994   3.259   2.195   1.816
 4365SOL    HW213995   3.414   2.213   1.768
 4366SOL     OW13996   4.433   6.331   4.715
 4366SOL    HW113997   4.501   6.280   4.663
 4366SOL    HW213998   4.453   6.429   4.711
 4367SOL     OW13999   3.002   5.509   4.219
 4367SOL    HW114000   3.042   5.490   4.130
 4367SOL    HW214001   2.919   5.453   4.231
 4368SOL     OW14002   4.534   4.471   2.513
 4368SOL    HW114003   4.576   4.436   2.429
 4368SOL    HW214004   4.578   4.431   2.593
 4369SOL     OW14005   4.188   5.107   3.132
 4369SOL    HW114006   4.127   5.151   3.066
 4369SOL    HW214007   4.216   5.017   3.097
 4370SOL     OW14008   3.958   4.855   1.417
 4370SOL    HW114009   3.960   4.757   1.437
 4370SOL    HW214010   3.880   4.876   1.358
 4371SOL     OW14011   2.896   0.766   1.508
 4371SOL    HW114012   2.886   0.724   1.598
 4371SOL    HW214013   2.984   0.739   1.469
 4372SOL     OW14014   2.174   3.421   4.742
 4372SOL    HW114015   2.165   3.440   4.840
 4372SOL    HW214016   2.204   3.326   4.729
 4373SOL     OW14017   4.693   1.060   5.701
 4373SOL    HW114018   4.765   1.090   5.639
 4373SOL    HW214019   4.716   1.087   5.794
 4374SOL     OW14020   2.423   1.265   1.115
 4374SOL    HW114021   2.332   1.232   1.091
 4374SOL    HW214022   2.485   1.252   1.039
 4375SOL     OW14023   3.934   0.806   3.424
 4375SOL    HW114024   3.897   0.872   3.489
 4375SOL    HW214025   4.024   0.836   3.394
 4376SOL     OW14026   6.468   6.727   1.273
 4376SOL    HW114027   6.460   6.817   1.317
 4376SOL    HW214028   6.437   6.734   1.178
 4377SOL     OW14029   5.948   6.344   6.341
 4377SOL    HW114030   5.894   6.269   6.379
 4377SOL    HW214031   5.910   6.371   6.252
 4378SOL     OW14032   1.894   5.463   2.281
 4378SOL    HW114033   1.824   5.531   2.302
 4378SOL    HW214034   1.878   5.381   2.336
 4379SOL     OW14035   1.341   1.062   1.671
 4379SOL    HW114036   1.324   0.968   1.701
 4379SOL    HW214037   1.430   1.066   1.624
 4380SOL     OW14038   1.607   6.181   5.276
 4380SOL    HW114039   1.644   6.215   5.190
 4380SOL    HW214040   1.526   6.126   5.258
 4381SOL     OW14041   3.416   6.752   5.040
 4381SOL    HW114042   3.476   6.797   4.975
 4381SOL    HW214043   3.460   6.669   5.075
 4382SOL     OW14044   5.278   3.874   4.397
 4382SOL    HW114045   5.336   3.953   4.417
 4382SOL    HW214046   5.280   3.810   4.474
 4383SOL     OW14047   1.105   2.795   5.981
 4383SOL    HW114048   1.127   2.854   5.903
 4383SOL    HW214049   1.012   2.761   5.972
 4384SOL     OW14050   3.420   6.374   1.017
 4384SOL    HW114051   3.441   6.322   1.100
 4384SOL    HW214052   3.400   6.469   1.041
 4385SOL     OW14053   0.294   2.246   2.239
 4385SOL    HW114054   0.357   2.207   2.306
 4385SOL    HW214055   0.200   2.228   2.268
 4386SOL     OW14056   0.708   3.177   6.807
 4386SOL    HW114057   0.695   3.245   6.879
 4386SOL    HW214058   0.645   3.100   6.822
 4387SOL     OW14059   6.880   3.399   1.819
 4387SOL    HW114060   6.860   3.473   1.756
 4387SOL    HW214061   6.927   3.435   1.899
 4388SOL     OW14062   3.568   1.005   6.251
 4388SOL    HW114063   3.556   0.998   6.152
 4388SOL    HW214064   3.556   1.100   6.280
 4389SOL     OW14065   5.593   2.441   2.541
 4389SOL    HW114066   5.682   2.403   2.569
 4389SOL    HW214067   5.602   2.539   2.525
 4390SOL     OW14068   4.739   2.864   2.247
 4390SOL    HW114069   4.789   2.930   2.303
 4390SOL    HW214070   4.710   2.908   2.162
 4391SOL     OW14071   0.979   5.223   0.233
 4391SOL    HW114072   0.952   5.296   0.296
 4391SOL    HW214073   0.975   5.257   0.139
 4392SOL     OW14074   5.043   3.228   4.502
 4392SOL    HW114075   5.135   3.257   4.476
 4392SOL    HW214076   4.999   3.301   4.554
 4393SOL     OW14077   4.979   6.947   3.192
 4393SOL    HW114078   5.048   6.885   3.229
 4393SOL    HW214079   4.962   6.925   3.096
 4394SOL     OW14080   5.144   0.111   2.234
 4394SOL    HW114081   5.132   0.174   2.157
 4394SOL    HW214082   5.064   0.115   2.293
 4395SOL     OW14083   4.902   1.476   1.458
 4395SOL    HW114084   4.988   1.426   1.447
 4395SOL    HW214085   4.899   1.517   1.549
 4396SOL     OW14086   0.640   1.143   4.446
 4396SOL    HW114087   0.665   1.146   4.349
 4396SOL    HW214088   0.544   1.168   4.456
 4397SOL     OW14089   0.144   0.444   4.547
 4397SOL    HW114090   0.173   0.359   4.589
 4397SOL    HW214091   0.187   0.454   4.457
 4398SOL     OW14092   0.091   5.014   4.322
 4398SOL    HW114093   0.066   5.067   4.241
 4398SOL    HW214094   0.032   5.041   4.398
 4399SOL     OW14095   1.947   1.720   0.687
 4399SOL    HW114096   1.957   1.624   0.713
 4399SOL    HW214097   2.030   1.770   0.712
 4400SOL     OW14098   3.440   6.494   4.497
 4400SOL    HW114099   3.437   6.407   4.448
 4400SOL    HW214100   3.380   6.491   4.576
 4401SOL     OW14101   5.707   5.878   4.403
 4401SOL    HW114102   5.698   5.929   4.318
 4401SOL    HW214103   5.722   5.782   4.383
 4402SOL     OW14104   0.657   6.013   2.723
 4402SOL    HW114105   0.627   6.095   2.674
 4402SOL    HW214106   0.601   6.000   2.804
 4403SOL     OW14107   0.142   0.269   2.979
 4403SOL    HW114108   0.201   0.333   3.027
 4403SOL    HW214109   0.166   0.268   2.882
 4404SOL     OW14110   0.527   3.654   2.948
 4404SOL    HW114111   0.615   3.647   2.995
 4404SOL    HW214112   0.456   3.610   3.003
 4405SOL     OW14113   3.282   4.582   5.761
 4405SOL    HW114114   3.254   4.602   5.855
 4405SOL    HW214115   3.265   4.662   5.703
 4406SOL     OW14116   5.767   3.859   1.401
 4406SOL    HW114117   5.718   3.842   1.487
 4406SOL    HW214118   5.705   3.845   1.324
 4407SOL     OW14119   6.856   0.465   0.035
 4407SOL    HW114120   6.884   0.549   0.081
 4407SOL    HW214121   6.893   0.465   6.967
 4408SOL     OW14122   4.731   0.150   6.957
 4408SOL    HW114123   4.828   0.129   6.954
 4408SOL    HW214124   4.707   0.182   0.024
 4409SOL     OW14125   3.464   0.192   2.181
 4409SOL    HW114126   3.474   0.262   2.253
 4409SOL    HW214127   3.376   0.206   2.135
 4410SOL     OW14128   1.997   5.408   1.245
 4410SOL    HW114129   1.960   5.318   1.222
 4410SOL    HW214130   2.046   5.403   1.332
 4411SOL     OW14131   3.501   3.506   2.520
 4411SOL    HW114132   3.416   3.520   2.471
 4411SOL    HW214133   3.557   3.437   2.472
 4412SOL     OW14134   4.038   1.221   6.546
 4412SOL    HW114135   4.022   1.244   6.450
 4412SOL    HW214136   4.057   1.124   6.555
 4413SOL     OW14137   4.368   5.888   4.495
 4413SOL    HW114138   4.347   5.970   4.442
 4413SOL    HW214139   4.467   5.878   4.503
 4414SOL     OW14140   4.154   4.892   1.823
 4414SOL    HW114141   4.216   4.842   1.883
 4414SOL    HW214142   4.101   4.827   1.768
 4415SOL     OW14143   4.889   3.058   6.443
 4415SOL    HW114144   4.841   2.980   6.484
 4415SOL    HW214145   4.901   3.129   6.512
 4416SOL     OW14146   2.900   0.665   4.569
 4416SOL    HW114147   2.963   0.647   4.494
 4416SOL    HW214148   2.806   0.667   4.534
 4417SOL     OW14149   6.943   5.405   1.886
 4417SOL    HW114150   6.909   5.458   1.964
 4417SOL    HW214151   6.913   5.310   1.894
 4418SOL     OW14152   4.294   6.868   3.689
 4418SOL    HW114153   4.226   6.804   3.654
 4418SOL    HW214154   4.327   6.836   3.778
 4419SOL     OW14155   0.412   5.084   0.043
 4419SOL    HW114156   0.314   5.084   0.023
 4419SOL    HW214157   0.425   5.098   0.141
 4420SOL     OW14158   5.092   1.474   7.019
 4420SOL    HW114159   5.098   1.574   0.003
 4420SOL    HW214160   5.184   1.436   7.012
 4421SOL     OW14161   1.294   1.783   3.080
 4421SOL    HW114162   1.212   1.838   3.096
 4421SOL    HW214163   1.354   1.789   3.160
 4422SOL     OW14164   2.694   4.060   6.192
 4422SOL    HW114165   2.699   3.960   6.195
 4422SOL    HW214166   2.644   4.088   6.110
 4423SOL     OW14167   1.369   2.307   6.472
 4423SOL    HW114168   1.377   2.244   6.394
 4423SOL    HW214169   1.456   2.353   6.487
 4424SOL     OW14170   6.044   6.668   2.800
 4424SOL    HW114171   6.017   6.757   2.837
 4424SOL    HW214172   6.065   6.606   2.875
 4425SOL     OW14173   3.701   4.735   6.367
 4425SOL    HW114174   3.633   4.797   6.328
 4425SOL    HW214175   3.772   4.717   6.299
 4426SOL     OW14176   0.473   0.680   5.447
 4426SOL    HW114177   0.528   0.764   5.452
 4426SOL    HW214178   0.418   0.672   5.530
 4427SOL     OW14179   1.156   0.403   3.218
 4427SOL    HW114180   1.073   0.416   3.163
 4427SOL    HW214181   1.145   0.450   3.306
 4428SOL     OW14182   1.916   5.560   4.005
 4428SOL    HW114183   1.872   5.508   3.933
 4428SOL    HW214184   1.853   5.631   4.038
 4429SOL     OW14185   3.680   0.009   3.426
 4429SOL    HW114186   3.705   7.004   3.517
 4429SOL    HW214187   3.608   6.976   3.389
 4430SOL     OW14188   2.893   0.980   2.444
 4430SOL    HW114189   2.904   0.890   2.401
 4430SOL    HW214190   2.839   1.038   2.384
 4431SOL     OW14191   2.995   1.659   3.600
 4431SOL    HW114192   2.977   1.586   3.534
 4431SOL    HW214193   3.056   1.625   3.672
 4432SOL     OW14194   2.936   3.510   2.713
 4432SOL    HW114195   3.016   3.452   2.699
 4432SOL    HW214196   2.919   3.565   2.631
 4433SOL     OW14197   6.255   6.711   2.370
 4433SOL    HW114198   6.269   6.624   2.321
 4433SOL    HW214199   6.331   6.727   2.432
 4434SOL     OW14200   5.731   2.074   3.727
 4434SOL    HW114201   5.751   1.994   3.670
 4434SOL    HW214202   5.813   2.100   3.778
 4435SOL     OW14203   3.617   2.923   2.078
 4435SOL    HW114204   3.704   2.964   2.050
 4435SOL    HW214205   3.555   2.994   2.111
 4436SOL     OW14206   4.361   1.763   6.945
 4436SOL    HW114207   4.455   1.795   6.927
 4436SOL    HW214208   4.298   1.811   6.884
 4437SOL     OW14209   3.640   0.675   4.558
 4437SOL    HW114210   3.699   0.613   4.506
 4437SOL    HW214211   3.695   0.730   4.620
 4438SOL     OW14212   4.218   2.925   6.711
 4438SOL    HW114213   4.153   2.906   6.784
 4438SOL    HW214214   4.171   2.969   6.634
 4439SOL     OW14215   1.615   5.396   2.535
 4439SOL    HW114216   1.542   5.454   2.570
 4439SOL    HW214217   1.578   5.332   2.469
 4440SOL     OW14218   1.010   6.366   6.640
 4440SOL    HW114219   1.073   6.442   6.629
 4440SOL    HW214220   1.017   6.305   6.561
 4441SOL     OW14221   5.210   2.451   2.345
 4441SOL    HW114222   5.243   2.518   2.278
 4441SOL    HW214223   5.156   2.498   2.415
 4442SOL     OW14224   4.139   5.767   3.948
 4442SOL    HW114225   4.157   5.675   3.982
 4442SOL    HW214226   4.112   5.763   3.852
 4443SOL     OW14227   2.753   2.038   6.216
 4443SOL    HW114228   2.696   2.023   6.135
 4443SOL    HW214229   2.803   1.955   6.237
 4444SOL     OW14230   4.899   6.878   0.415
 4444SOL    HW114231   4.860   6.899   0.505
 4444SOL    HW214232   4.998   6.890   0.417
 4445SOL     OW14233   1.256   0.694   6.126
 4445SOL    HW114234   1.283   0.757   6.054
 4445SOL    HW214235   1.301   0.720   6.212
 4446SOL     OW14236   6.048   0.279   3.143
 4446SOL    HW114237   6.043   0.186   3.105
 4446SOL    HW214238   6.142   0.300   3.167
 4447SOL     OW14239   5.378   2.329   5.871
 4447SOL    HW114240   5.398   2.290   5.961
 4447SOL    HW214241   5.415   2.422   5.866
 4448SOL     OW14242   2.339   3.607   6.663
 4448SOL    HW114243   2.288   3.524   6.687
 4448SOL    HW214244   2.401   3.586   6.587
 4449SOL     OW14245   2.566   1.071   5.056
 4449SOL    HW114246   2.592   1.137   5.127
 4449SOL    HW214247   2.586   0.979   5.089
 4450SOL     OW14248   3.651   2.866   3.237
 4450SOL    HW114249   3.696   2.951   3.211
 4450SOL    HW214250   3.574   2.849   3.176
 4451SOL     OW14251   6.785   4.946   2.125
 4451SOL    HW114252   6.690   4.935   2.154
 4451SOL    HW214253   6.815   4.863   2.078
 4452SOL     OW14254   6.225   6.271   6.314
 4452SOL    HW114255   6.138   6.314   6.333
 4452SOL    HW214256   6.240   6.194   6.376
 4453SOL     OW14257   5.149   2.120   1.240
 4453SOL    HW114258   5.090   2.193   1.206
 4453SOL    HW214259   5.133   2.037   1.187
 4454SOL     OW14260   5.323   2.779   1.234
 4454SOL    HW114261   5.404   2.820   1.191
 4454SOL    HW214262   5.242   2.833   1.212
 4455SOL     OW14263   3.756   1.059   2.514
 4455SOL    HW114264   3.671   1.021   2.479
 4455SOL    HW214265   3.761   1.157   2.492
 4456SOL     OW14266   1.323   5.053   3.385
 4456SOL    HW114267   1.230   5.069   3.419
 4456SOL    HW214268   1.389   5.087   3.452
 4457SOL     OW14269   5.103   2.069   6.850
 4457SOL    HW114270   5.150   2.155   6.830
 4457SOL    HW214271   5.121   2.042   6.944
 4458SOL     OW14272   2.844   2.292   6.100
 4458SOL    HW114273   2.808   2.202   6.123
 4458SOL    HW214274   2.943   2.294   6.114
 4459SOL     OW14275   4.709   6.371   4.894
 4459SOL    HW114276   4.665   6.445   4.945
 4459SOL    HW214277   4.655   6.349   4.813
 4460SOL     OW14278   2.795   2.712   6.394
 4460SOL    HW114279   2.750   2.746   6.477
 4460SOL    HW214280   2.792   2.613   6.393
 4461SOL     OW14281   1.906   6.707   2.266
 4461SOL    HW114282   1.966   6.755   2.330
 4461SOL    HW214283   1.961   6.664   2.194
 4462SOL     OW14284   6.365   5.706   0.597
 4462SOL    HW114285   6.434   5.776   0.578
 4462SOL    HW214286   6.346   5.654   0.514
 4463SOL     OW14287   1.392   3.279   6.355
 4463SOL    HW114288   1.426   3.373   6.348
 4463SOL    HW214289   1.343   3.267   6.441
 4464SOL     OW14290   5.746   3.215   6.082
 4464SOL    HW114291   5.647   3.229   6.078
 4464SOL    HW214292   5.766   3.130   6.130
 4465SOL     OW14293   1.513   6.052   1.706
 4465SOL    HW114294   1.444   6.093   1.646
 4465SOL    HW214295   1.476   6.044   1.798
 4466SOL     OW14296   1.058   1.417   2.797
 4466SOL    HW114297   1.061   1.504   2.748
 4466SOL    HW214298   1.062   1.434   2.896
 4467SOL     OW14299   1.486   6.743   3.066
 4467SOL    HW114300   1.407   6.683   3.074
 4467SOL    HW214301   1.476   6.820   3.129
 4468SOL     OW14302   1.245   2.768   0.626
 4468SOL    HW114303   1.340   2.759   0.594
 4468SOL    HW214304   1.191   2.690   0.593
 4469SOL     OW14305   3.880   0.114   1.162
 4469SOL    HW114306   3.794   0.087   1.118
 4469SOL    HW214307   3.917   0.195   1.117
 4470SOL     OW14308   4.785   3.745   1.714
 4470SOL    HW114309   4.834   3.659   1.702
 4470SOL    HW214310   4.694   3.737   1.674
 4471SOL     OW14311   6.849   2.691   1.455
 4471SOL    HW114312   6.855   2.774   1.400
 4471SOL    HW214313   6.927   2.687   1.518
 4472SOL     OW14314   1.968   3.946   2.342
 4472SOL    HW114315   1.982   3.884   2.264
 4472SOL    HW214316   1.912   3.901   2.411
 4473SOL     OW14317   6.459   6.768   4.454
 4473SOL    HW114318   6.557   6.750   4.456
 4473SOL    HW214319   6.442   6.863   4.480
 4474SOL     OW14320   4.178   0.145   2.722
 4474SOL    HW114321   4.210   0.181   2.634
 4474SOL    HW214322   4.182   0.217   2.791
 4475SOL     OW14323   1.748   4.536   0.525
 4475SOL    HW114324   1.650   4.539   0.501
 4475SOL    HW214325   1.778   4.627   0.553
 4476SOL     OW14326   4.756   6.704   1.797
 4476SOL    HW114327   4.846   6.659   1.792
 4476SOL    HW214328   4.684   6.634   1.798
 4477SOL     OW14329   1.586   1.128   0.135
 4477SOL    HW114330   1.662   1.089   0.082
 4477SOL    HW214331   1.561   1.217   0.097
 4478SOL     OW14332   2.242   6.621   2.553
 4478SOL    HW114333   2.187   6.667   2.622
 4478SOL    HW214334   2.319   6.574   2.596
 4479SOL     OW14335   1.001   0.246   5.925
 4479SOL    HW114336   1.099   0.266   5.933
 4479SOL    HW214337   0.963   0.227   6.015
 4480SOL     OW14338   1.056   4.912   4.849
 4480SOL    HW114339   1.037   4.895   4.946
 4480SOL    HW214340   1.116   4.991   4.840
 4481SOL     OW14341   0.930   6.098   3.810
 4481SOL    HW114342   0.978   6.132   3.891
 4481SOL    HW214343   0.933   5.998   3.809
 4482SOL     OW14344   0.102   4.588   3.782
 4482SOL    HW114345   0.134   4.654   3.713
 4482SOL    HW214346   0.176   4.570   3.847
 4483SOL     OW14347   5.441   3.084   1.681
 4483SOL    HW114348   5.374   3.060   1.751
 4483SOL    HW214349   5.528   3.041   1.702
 4484SOL     OW14350   3.408   2.415   5.448
 4484SOL    HW114351   3.475   2.351   5.486
 4484SOL    HW214352   3.317   2.373   5.451
 4485SOL     OW14353   5.004   1.750   6.636
 4485SOL    HW114354   4.908   1.728   6.622
 4485SOL    HW214355   5.038   1.700   6.716
 4486SOL     OW14356   6.475   3.528   4.856
 4486SOL    HW114357   6.454   3.471   4.935
 4486SOL    HW214358   6.390   3.561   4.815
 4487SOL     OW14359   3.066   3.358   6.215
 4487SOL    HW114360   3.044   3.307   6.298
 4487SOL    HW214361   2.996   3.343   6.146
 4488SOL     OW14362   6.401   1.662   5.253
 4488SOL    HW114363   6.340   1.650   5.331
 4488SOL    HW214364   6.349   1.648   5.168
 4489SOL     OW14365   5.798   5.904   4.665
 4489SOL    HW114366   5.747   5.893   4.580
 4489SOL    HW214367   5.799   5.817   4.715
 4490SOL     OW14368   6.518   1.974   2.852
 4490SOL    HW114369   6.574   1.968   2.935
 4490SOL    HW214370   6.536   1.895   2.794
 4491SOL     OW14371   1.022   3.851   2.754
 4491SOL    HW114372   0.933   3.852   2.800
 4491SOL    HW214373   1.012   3.812   2.663
 4492SOL     OW14374   4.555   2.523   0.285
 4492SOL    HW114375   4.528   2.542   0.191
 4492SOL    HW214376   4.478   2.540   0.346
 4493SOL     OW14377   5.475   5.215   5.007
 4493SOL    HW114378   5.497   5.143   5.072
 4493SOL    HW214379   5.533   5.206   4.926
 4494SOL     OW14380   0.333   4.240   5.242
 4494SOL    HW114381   0.351   4.279   5.151
 4494SOL    HW214382   0.254   4.179   5.236
 4495SOL     OW14383   4.914   6.853   1.594
 4495SOL    HW114384   4.851   6.809   1.657
 4495SOL    HW214385   4.886   6.947   1.578
 4496SOL     OW14386   5.302   3.661   5.554
 4496SOL    HW114387   5.373   3.608   5.601
 4496SOL    HW214388   5.279   3.741   5.609
 4497SOL     OW14389   6.036   5.258   0.244
 4497SOL    HW114390   5.979   5.226   0.168
 4497SOL    HW214391   6.063   5.180   0.300
 4498SOL     OW14392   0.336   3.612   6.703
 4498SOL    HW114393   0.393   3.554   6.646
 4498SOL    HW214394   0.256   3.560   6.734
 4499SOL     OW14395   7.009   3.510   5.532
 4499SOL    HW114396   6.984   3.414   5.547
 4499SOL    HW214397   0.041   3.542   5.606
 4500SOL     OW14398   2.971   3.811   4.344
 4500SOL    HW114399   2.938   3.720   4.321
 4500SOL    HW214400   3.031   3.807   4.424
 4501SOL     OW14401   0.443   4.790   5.287
 4501SOL    HW114402   0.365   4.731   5.310
 4501SOL    HW214403   0.435   4.876   5.338
 4502SOL     OW14404   1.602   2.593   0.084
 4502SOL    HW114405   1.582   2.607   0.182
 4502SOL    HW214406   1.665   2.517   0.074
 4503SOL     OW14407   1.675   1.339   4.116
 4503SOL    HW114408   1.734   1.391   4.055
 4503SOL    HW214409   1.611   1.283   4.063
 4504SOL     OW14410   5.592   2.704   5.327
 4504SOL    HW114411   5.597   2.804   5.323
 4504SOL    HW214412   5.520   2.672   5.266
 4505SOL     OW14413   1.830   6.471   5.211
 4505SOL    HW114414   1.803   6.443   5.119
 4505SOL    HW214415   1.797   6.405   5.278
 4506SOL     OW14416   4.200   1.076   5.192
 4506SOL    HW114417   4.150   0.990   5.196
 4506SOL    HW214418   4.284   1.069   5.245
 4507SOL     OW14419   5.119   4.106   0.814
 4507SOL    HW114420   5.092   4.087   0.908
 4507SOL    HW214421   5.091   4.199   0.790
 4508SOL     OW14422   1.343   3.751   0.007
 4508SOL    HW114423   1.310   3.662   0.037
 4508SOL    HW214424   1.425   3.739   6.976
 4509SOL     OW14425   3.145   1.962   4.355
 4509SOL    HW114426   3.049   1.987   4.342
 4509SOL    HW214427   3.164   1.876   4.308
 4510SOL     OW14428   5.277   6.947   5.409
 4510SOL    HW114429   5.367   6.912   5.382
 4510SOL    HW214430   5.207   6.879   5.386
 4511SOL     OW14431   6.503   2.409   0.532
 4511SOL    HW114432   6.486   2.331   0.593
 4511SOL    HW214433   6.503   2.493   0.586
 4512SOL     OW14434   2.252   6.075   6.461
 4512SOL    HW114435   2.259   6.027   6.374
 4512SOL    HW214436   2.340   6.115   6.484
 4513SOL     OW14437   5.207   0.031   1.825
 4513SOL    HW114438   5.141   0.098   1.856
 4513SOL    HW214439   5.181   7.023   1.734
 4514SOL     OW14440   3.013   1.168   4.819
 4514SOL    HW114441   2.928   1.117   4.811
 4514SOL    HW214442   3.034   1.184   4.916
 4515SOL     OW14443   0.122   4.904   0.598
 4515SOL    HW114444   0.067   4.902   0.682
 4515SOL    HW214445   0.168   4.816   0.587
 4516SOL     OW14446   1.400   1.410   5.257
 4516SOL    HW114447   1.476   1.360   5.215
 4516SOL    HW214448   1.332   1.346   5.292
 4517SOL     OW14449   3.778   6.826   6.504
 4517SOL    HW114450   3.711   6.838   6.576
 4517SOL    HW214451   3.752   6.748   6.447
 4518SOL     OW14452   1.201   2.097   3.753
 4518SOL    HW114453   1.277   2.044   3.715
 4518SOL    HW214454   1.136   2.119   3.680
 4519SOL     OW14455   0.370   2.936   3.654
 4519SOL    HW114456   0.318   3.002   3.708
 4519SOL    HW214457   0.434   2.887   3.713
 4520SOL     OW14458   6.757   4.797   2.765
 4520SOL    HW114459   6.825   4.864   2.795
 4520SOL    HW214460   6.698   4.838   2.696
 4521SOL     OW14461   4.926   2.576   6.989
 4521SOL    HW114462   4.986   2.627   6.927
 4521SOL    HW214463   4.982   2.524   0.027
 4522SOL     OW14464   6.676   6.843   3.676
 4522SOL    HW114465   6.732   6.876   3.752
 4522SOL    HW214466   6.581   6.834   3.706
 4523SOL     OW14467   3.257   4.401   0.174
 4523SOL    HW114468   3.340   4.348   0.161
 4523SOL    HW214469   3.192   4.349   0.230
 4524SOL     OW14470   5.200   1.211   5.224
 4524SOL    HW114471   5.165   1.182   5.135
 4524SOL    HW214472   5.220   1.130   5.280
 4525SOL     OW14473   6.195   1.322   4.850
 4525SOL    HW114474   6.137   1.373   4.787
 4525SOL    HW214475   6.162   1.228   4.857
 4526SOL     OW14476   4.576   6.638   0.420
 4526SOL    HW114477   4.592   6.726   0.374
 4526SOL    HW214478   4.566   6.653   0.518
 4527SOL     OW14479   4.929   0.975   2.923
 4527SOL    HW114480   4.834   1.005   2.917
 4527SOL    HW214481   4.958   0.936   2.836
 4528SOL     OW14482   5.644   0.112   0.383
 4528SOL    HW114483   5.684   0.190   0.335
 4528SOL    HW214484   5.643   0.032   0.323
 4529SOL     OW14485   3.070   0.272   3.236
 4529SOL    HW114486   3.005   0.348   3.248
 4529SOL    HW214487   3.149   0.287   3.295
 4530SOL     OW14488   0.281   3.276   5.413
 4530SOL    HW114489   0.273   3.182   5.444
 4530SOL    HW214490   0.335   3.329   5.479
 4531SOL     OW14491   0.842   3.139   3.917
 4531SOL    HW114492   0.821   3.118   4.013
 4531SOL    HW214493   0.831   3.057   3.861
 4532SOL     OW14494   6.141   1.160   0.866
 4532SOL    HW114495   6.142   1.136   0.963
 4532SOL    HW214496   6.163   1.080   0.811
 4533SOL     OW14497   1.636   6.307   2.761
 4533SOL    HW114498   1.618   6.349   2.672
 4533SOL    HW214499   1.565   6.239   2.781
 4534SOL     OW14500   6.798   4.057   5.056
 4534SOL    HW114501   6.720   4.112   5.027
 4534SOL    HW214502   6.835   4.007   4.977
 4535SOL     OW14503   4.893   3.193   2.164
 4535SOL    HW114504   4.969   3.134   2.189
 4535SOL    HW214505   4.822   3.139   2.118
 4536SOL     OW14506   5.731   1.210   4.745
 4536SOL    HW114507   5.645   1.258   4.725
 4536SOL    HW214508   5.747   1.140   4.676
 4537SOL     OW14509   4.041   2.776   6.990
 4537SOL    HW114510   3.959   2.733   0.002
 4537SOL    HW214511   4.098   2.706   6.947
 4538SOL     OW14512   3.158   1.595   3.172
 4538SOL    HW114513   3.192   1.603   3.078
 4538SOL    HW214514   3.226   1.550   3.229
 4539SOL     OW14515   2.080   1.746   3.202
 4539SOL    HW114516   2.153   1.805   3.168
 4539SOL    HW214517   2.120   1.672   3.256
 4540SOL     OW14518   3.314   2.981   4.485
 4540SOL    HW114519   3.245   2.916   4.518
 4540SOL    HW214520   3.354   3.029   4.563
 4541SOL     OW14521   5.020   1.983   0.726
 4541SOL    HW114522   5.043   2.026   0.639
 4541SOL    HW214523   5.101   1.979   0.784
 4542SOL     OW14524   5.976   6.251   2.045
 4542SOL    HW114525   6.045   6.285   1.982
 4542SOL    HW214526   5.995   6.287   2.137
 4543SOL     OW14527   5.318   1.575   0.913
 4543SOL    HW114528   5.299   1.476   0.908
 4543SOL    HW214529   5.276   1.612   0.995
 4544SOL     OW14530   3.384   5.727   0.021
 4544SOL    HW114531   3.330   5.722   6.963
 4544SOL    HW214532   3.453   5.655   0.021
 4545SOL     OW14533   4.114   2.127   5.244
 4545SOL    HW114534   4.134   2.214   5.290
 4545SOL    HW214535   4.147   2.051   5.301
 4546SOL     OW14536   0.418   6.806   6.649
 4546SOL    HW114537   0.403   6.722   6.597
 4546SOL    HW214538   0.354   6.810   6.725
 4547SOL     OW14539   5.641   2.779   1.413
 4547SOL    HW114540   5.611   2.713   1.481
 4547SOL    HW214541   5.733   2.812   1.436
 4548SOL     OW14542   0.686   4.116   3.663
 4548SOL    HW114543   0.590   4.142   3.651
 4548SOL    HW214544   0.706   4.037   3.606
 4549SOL     OW14545   6.771   3.616   3.013
 4549SOL    HW114546   6.696   3.554   2.990
 4549SOL    HW214547   6.845   3.605   2.947
 4550SOL     OW14548   0.986   6.121   3.169
 4550SOL    HW114549   0.896   6.155   3.140
 4550SOL    HW214550   0.984   6.101   3.267
 4551SOL     OW14551   0.618   3.086   5.233
 4551SOL    HW114552   0.608   2.987   5.239
 4551SOL    HW214553   0.701   3.109   5.184
 4552SOL     OW14554   0.841   3.171   5.077
 4552SOL    HW114555   0.787   3.236   5.024
 4552SOL    HW214556   0.938   3.194   5.070
 4553SOL     OW14557   4.709   5.321   0.546
 4553SOL    HW114558   4.785   5.382   0.525
 4553SOL    HW214559   4.738   5.226   0.531
 4554SOL     OW14560   4.014   0.018   2.876
 4554SOL    HW114561   4.085   0.046   2.811
 4554SOL    HW214562   4.011   6.943   2.881
 4555SOL     OW14563   4.847   2.325   6.807
 4555SOL    HW114564   4.782   2.256   6.840
 4555SOL    HW214565   4.806   2.375   6.730
 4556SOL     OW14566   4.459   0.230   3.798
 4556SOL    HW114567   4.530   0.289   3.760
 4556SOL    HW214568   4.369   0.268   3.776
 4557SOL     OW14569   5.717   6.643   6.073
 4557SOL    HW114570   5.618   6.634   6.059
 4557SOL    HW214571   5.736   6.662   6.169
 4558SOL     OW14572   6.415   3.537   6.616
 4558SOL    HW114573   6.390   3.577   6.528
 4558SOL    HW214574   6.360   3.455   6.633
 4559SOL     OW14575   1.812   6.493   1.521
 4559SOL    HW114576   1.898   6.543   1.530
 4559SOL    HW214577   1.736   6.559   1.513
 4560SOL     OW14578   5.252   3.248   2.894
 4560SOL    HW114579   5.169   3.249   2.951
 4560SOL    HW214580   5.245   3.319   2.824
 4561SOL     OW14581   3.352   0.591   6.571
 4561SOL    HW114582   3.272   0.573   6.629
 4561SOL    HW214583   3.428   0.533   6.600
 4562SOL     OW14584   2.992   5.650   6.816
 4562SOL    HW114585   2.999   5.649   6.716
 4562SOL    HW214586   2.927   5.721   6.844
 4563SOL     OW14587   5.436   1.459   0.445
 4563SOL    HW114588   5.534   1.480   0.439
 4563SOL    HW214589   5.386   1.517   0.380
 4564SOL     OW14590   1.136   5.776   0.338
 4564SOL    HW114591   1.065   5.781   0.409
 4564SOL    HW214592   1.186   5.863   0.337
 4565SOL     OW14593   0.968   1.055   5.232
 4565SOL    HW114594   0.993   0.982   5.168
 4565SOL    HW214595   0.868   1.062   5.236
 4566SOL     OW14596   0.377   0.932   6.656
 4566SOL    HW114597   0.394   1.029   6.671
 4566SOL    HW214598   0.403   0.881   6.738
 4567SOL     OW14599   6.477   1.587   0.668
 4567SOL    HW114600   6.518   1.548   0.585
 4567SOL    HW214601   6.547   1.635   0.721
 4568SOL     OW14602   3.289   4.340   5.611
 4568SOL    HW114603   3.276   4.434   5.643
 4568SOL    HW214604   3.202   4.305   5.575
 4569SOL     OW14605   1.284   1.871   4.444
 4569SOL    HW114606   1.252   1.912   4.359
 4569SOL    HW214607   1.269   1.935   4.520
 4570SOL     OW14608   0.005   5.764   3.623
 4570SOL    HW114609   0.058   5.762   3.537
 4570SOL    HW214610   0.062   5.801   3.696
 4571SOL     OW14611   3.313   3.361   4.672
 4571SOL    HW114612   3.291   3.268   4.646
 4571SOL    HW214613   3.390   3.394   4.618
 4572SOL     OW14614   1.158   6.822   1.120
 4572SOL    HW114615   1.103   6.739   1.108
 4572SOL    HW214616   1.140   6.860   1.211
 4573SOL     OW14617   5.914   5.647   1.000
 4573SOL    HW114618   5.943   5.737   0.969
 4573SOL    HW214619   5.961   5.625   1.086
 4574SOL     OW14620   7.014   4.169   1.771
 4574SOL    HW114621   6.940   4.117   1.814
 4574SOL    HW214622   0.065   4.108   1.751
 4575SOL     OW14623   6.476   1.528   1.277
 4575SOL    HW114624   6.448   1.586   1.201
 4575SOL    HW214625   6.433   1.561   1.361
 4576SOL     OW14626   3.239   5.777   6.804
 4576SOL    HW114627   3.170   5.704   6.809
 4576SOL    HW214628   3.205   5.852   6.748
 4577SOL     OW14629   0.888   3.695   3.541
 4577SOL    HW114630   0.951   3.704   3.465
 4577SOL    HW214631   0.915   3.617   3.598
 4578SOL     OW14632   0.129   3.534   3.547
 4578SOL    HW114633   0.158   3.441   3.526
 4578SOL    HW214634   0.114   3.543   3.646
 4579SOL     OW14635   5.187   1.961   3.134
 4579SOL    HW114636   5.139   2.035   3.180
 4579SOL    HW214637   5.285   1.980   3.132
 4580SOL     OW14638   5.683   5.671   0.630
 4580SOL    HW114639   5.597   5.691   0.583
 4580SOL    HW214640   5.669   5.597   0.696
 4581SOL     OW14641   3.410   5.379   3.498
 4581SOL    HW114642   3.417   5.280   3.512
 4581SOL    HW214643   3.321   5.411   3.529
 4582SOL     OW14644   5.332   6.458   2.956
 4582SOL    HW114645   5.347   6.408   3.041
 4582SOL    HW214646   5.234   6.469   2.941
 4583SOL     OW14647   2.953   1.949   5.528
 4583SOL    HW114648   2.875   1.906   5.484
 4583SOL    HW214649   3.036   1.927   5.477
 4584SOL     OW14650   0.480   5.278   5.935
 4584SOL    HW114651   0.576   5.305   5.936
 4584SOL    HW214652   0.472   5.182   5.960
 4585SOL     OW14653   3.311   5.919   3.192
 4585SOL    HW114654   3.325   5.907   3.290
 4585SOL    HW214655   3.225   5.967   3.176
 4586SOL     OW14656   3.547   5.745   2.099
 4586SOL    HW114657   3.520   5.746   2.002
 4586SOL    HW214658   3.552   5.838   2.134
 4587SOL     OW14659   3.050   2.940   1.117
 4587SOL    HW114660   3.024   2.978   1.206
 4587SOL    HW214661   3.146   2.912   1.119
 4588SOL     OW14662   3.974   3.685   5.396
 4588SOL    HW114663   4.038   3.611   5.418
 4588SOL    HW214664   3.978   3.754   5.469
 4589SOL     OW14665   6.197   2.264   3.264
 4589SOL    HW114666   6.108   2.308   3.249
 4589SOL    HW214667   6.231   2.288   3.355
 4590SOL     OW14668   4.718   5.174   2.394
 4590SOL    HW114669   4.628   5.201   2.429
 4590SOL    HW214670   4.723   5.074   2.392
 4591SOL     OW14671   5.965   5.546   5.828
 4591SOL    HW114672   6.057   5.567   5.862
 4591SOL    HW214673   5.931   5.622   5.773
 4592SOL     OW14674   3.946   2.582   0.228
 4592SOL    HW114675   3.920   2.488   0.205
 4592SOL    HW214676   3.873   2.644   0.200
 4593SOL     OW14677   3.983   6.370   2.663
 4593SOL    HW114678   3.891   6.405   2.646
 4593SOL    HW214679   3.981   6.271   2.668
 4594SOL     OW14680   2.741   1.399   1.767
 4594SOL    HW114681   2.659   1.442   1.730
 4594SOL    HW214682   2.797   1.468   1.813
 4595SOL     OW14683   3.992   3.188   6.436
 4595SOL    HW114684   4.069   3.126   6.421
 4595SOL    HW214685   3.937   3.192   6.352
 4596SOL     OW14686   5.927   6.609   2.272
 4596SOL    HW114687   5.911   6.704   2.298
 4596SOL    HW214688   5.992   6.567   2.336
 4597SOL     OW14689   5.482   4.015   6.199
 4597SOL    HW114690   5.399   4.068   6.181
 4597SOL    HW214691   5.511   4.027   6.294
 4598SOL     OW14692   2.051   5.270   6.615
 4598SOL    HW114693   2.107   5.280   6.697
 4598SOL    HW214694   2.000   5.184   6.620
 4599SOL     OW14695   1.527   4.646   1.389
 4599SOL    HW114696   1.618   4.630   1.428
 4599SOL    HW214697   1.499   4.740   1.406
 4600SOL     OW14698   3.111   5.923   0.423
 4600SOL    HW114699   3.023   5.929   0.377
 4600SOL    HW214700   3.177   5.876   0.364
 4601SOL     OW14701   2.010   0.997   4.812
 4601SOL    HW114702   2.050   0.925   4.869
 4601SOL    HW214703   2.077   1.070   4.797
 4602SOL     OW14704   2.251   0.159   1.840
 4602SOL    HW114705   2.316   0.083   1.850
 4602SOL    HW214706   2.301   0.243   1.818
 4603SOL     OW14707   3.263   6.770   1.842
 4603SOL    HW114708   3.203   6.723   1.906
 4603SOL    HW214709   3.332   6.707   1.808
 4604SOL     OW14710   3.426   7.004   2.413
 4604SOL    HW114711   3.495   0.023   2.469
 4604SOL    HW214712   3.424   0.021   2.322
 4605SOL     OW14713   5.301   0.789   4.855
 4605SOL    HW114714   5.311   0.874   4.805
 4605SOL    HW214715   5.215   0.790   4.906
 4606SOL     OW14716   6.477   6.400   5.056
 4606SOL    HW114717   6.467   6.300   5.050
 4606SOL    HW214718   6.456   6.430   5.148
 4607SOL     OW14719   3.002   1.385   1.564
 4607SOL    HW114720   2.988   1.296   1.521
 4607SOL    HW214721   3.099   1.396   1.586
 4608SOL     OW14722   1.688   4.844   5.162
 4608SOL    HW114723   1.743   4.784   5.221
 4608SOL    HW214724   1.591   4.826   5.178
 4609SOL     OW14725   5.131   6.873   0.090
 4609SOL    HW114726   5.073   6.791   0.086
 4609SOL    HW214727   5.189   6.868   0.171
 4610SOL     OW14728   0.344   2.792   6.488
 4610SOL    HW114729   0.442   2.791   6.511
 4610SOL    HW214730   0.301   2.709   6.523
 4611SOL     OW14731   0.508   3.907   0.199
 4611SOL    HW114732   0.433   3.864   0.150
 4611SOL    HW214733   0.584   3.842   0.206
 4612SOL     OW14734   1.927   6.086   6.311
 4612SOL    HW114735   1.860   6.155   6.284
 4612SOL    HW214736   1.919   6.068   6.409
 4613SOL     OW14737   3.430   5.470   2.822
 4613SOL    HW114738   3.345   5.465   2.875
 4613SOL    HW214739   3.466   5.563   2.826
 4614SOL     OW14740   1.820   5.454   0.096
 4614SOL    HW114741   1.833   5.551   0.114
 4614SOL    HW214742   1.892   5.422   0.034
 4615SOL     OW14743   1.438   1.820   0.089
 4615SOL    HW114744   1.374   1.826   0.012
 4615SOL    HW214745   1.507   1.892   0.081
 4616SOL     OW14746   6.085   0.608   6.698
 4616SOL    HW114747   5.993   0.604   6.658
 4616SOL    HW214748   6.129   0.518   6.691
 4617SOL     OW14749   0.910   2.891   1.830
 4617SOL    HW114750   0.991   2.947   1.811
 4617SOL    HW214751   0.938   2.808   1.878
 4618SOL     OW14752   0.860   2.672   5.983
 4618SOL    HW114753   0.815   2.652   5.896
 4618SOL    HW214754   0.900   2.588   6.020
 4619SOL     OW14755   4.696   0.781   4.070
 4619SOL    HW114756   4.755   0.858   4.094
 4619SOL    HW214757   4.741   0.725   4.000
 4620SOL     OW14758   2.966   4.502   6.776
 4620SOL    HW114759   3.047   4.491   6.834
 4620SOL    HW214760   2.979   4.582   6.717
 4621SOL     OW14761   0.332   0.912   5.106
 4621SOL    HW114762   0.293   0.820   5.119
 4621SOL    HW214763   0.428   0.903   5.080
 4622SOL     OW14764   2.094   3.355   0.249
 4622SOL    HW114765   2.098   3.335   0.347
 4622SOL    HW214766   2.074   3.453   0.236
 4623SOL     OW14767   6.925   5.042   1.107
 4623SOL    HW114768   6.838   5.083   1.137
 4623SOL    HW214769   6.992   5.049   1.180
 4624SOL     OW14770   4.580   0.658   4.287
 4624SOL    HW114771   4.623   0.665   4.378
 4624SOL    HW214772   4.640   0.700   4.219
 4625SOL     OW14773   0.935   3.977   6.809
 4625SOL    HW114774   1.023   3.954   6.852
 4625SOL    HW214775   0.946   3.978   6.710
 4626SOL     OW14776   6.491   4.735   1.749
 4626SOL    HW114777   6.405   4.785   1.746
 4626SOL    HW214778   6.474   4.643   1.785
 4627SOL     OW14779   3.610   5.995   5.419
 4627SOL    HW114780   3.692   6.043   5.450
 4627SOL    HW214781   3.533   6.022   5.477
 4628SOL     OW14782   6.132   4.675   2.006
 4628SOL    HW114783   6.085   4.706   1.924
 4628SOL    HW214784   6.115   4.738   2.081
 4629SOL     OW14785   2.235   4.794   5.121
 4629SOL    HW114786   2.234   4.763   5.216
 4629SOL    HW214787   2.326   4.830   5.099
 4630SOL     OW14788   1.722   5.635   3.287
 4630SOL    HW114789   1.628   5.609   3.266
 4630SOL    HW214790   1.778   5.632   3.204
 4631SOL     OW14791   3.019   6.497   3.232
 4631SOL    HW114792   3.100   6.439   3.221
 4631SOL    HW214793   2.958   6.484   3.154
 4632SOL     OW14794   4.818   5.555   4.617
 4632SOL    HW114795   4.753   5.480   4.603
 4632SOL    HW214796   4.901   5.538   4.564
 4633SOL     OW14797   6.577   1.768   4.915
 4633SOL    HW114798   6.479   1.788   4.909
 4633SOL    HW214799   6.594   1.705   4.990
 4634SOL     OW14800   2.432   4.880   0.935
 4634SOL    HW114801   2.512   4.822   0.918
 4634SOL    HW214802   2.400   4.865   1.028
 4635SOL     OW14803   4.873   3.188   2.517
 4635SOL    HW114804   4.830   3.098   2.525
 4635SOL    HW214805   4.966   3.177   2.484
 4636SOL     OW14806   2.784   6.050   0.464
 4636SOL    HW114807   2.824   6.081   0.551
 4636SOL    HW214808   2.747   5.958   0.477
 4637SOL     OW14809   1.095   0.637   5.897
 4637SOL    HW114810   1.145   0.606   5.815
 4637SOL    HW214811   1.161   0.661   5.968
 4638SOL     OW14812   4.449   3.375   5.986
 4638SOL    HW114813   4.517   3.445   5.964
 4638SOL    HW214814   4.428   3.378   6.083
 4639SOL     OW14815   0.852   3.997   5.818
 4639SOL    HW114816   0.907   4.007   5.900
 4639SOL    HW214817   0.778   4.065   5.818
 4640SOL     OW14818   5.021   4.402   2.858
 4640SOL    HW114819   4.990   4.344   2.934
 4640SOL    HW214820   5.121   4.403   2.856
 4641SOL     OW14821   2.803   4.746   4.507
 4641SOL    HW114822   2.708   4.718   4.490
 4641SOL    HW214823   2.824   4.737   4.604
 4642SOL     OW14824   6.375   5.731   4.555
 4642SOL    HW114825   6.408   5.727   4.460
 4642SOL    HW214826   6.449   5.704   4.616
 4643SOL     OW14827   3.881   2.375   1.688
 4643SOL    HW114828   3.955   2.398   1.751
 4643SOL    HW214829   3.799   2.351   1.742
 4644SOL     OW14830   1.199   6.415   4.496
 4644SOL    HW114831   1.270   6.390   4.429
 4644SOL    HW214832   1.187   6.514   4.497
 4645SOL     OW14833   2.215   6.479   4.461
 4645SOL    HW114834   2.127   6.527   4.457
 4645SOL    HW214835   2.201   6.381   4.447
 4646SOL     OW14836   3.205   0.709   1.995
 4646SOL    HW114837   3.158   0.765   2.063
 4646SOL    HW214838   3.278   0.657   2.039
 4647SOL     OW14839   6.635   0.561   4.016
 4647SOL    HW114840   6.717   0.573   4.072
 4647SOL    HW214841   6.553   0.577   4.072
 4648SOL     OW14842   2.812   5.654   2.283
 4648SOL    HW114843   2.762   5.696   2.207
 4648SOL    HW214844   2.808   5.555   2.275
 4649SOL     OW14845   5.149   0.865   5.661
 4649SOL    HW114846   5.171   0.959   5.632
 4649SOL    HW214847   5.106   0.867   5.751
 4650SOL     OW14848   5.069   5.809   2.655
 4650SOL    HW114849   5.139   5.765   2.599
 4650SOL    HW214850   5.085   5.788   2.752
 4651SOL     OW14851   0.261   1.936   1.548
 4651SOL    HW114852   0.245   2.029   1.516
 4651SOL    HW214853   0.316   1.887   1.480
 4652SOL     OW14854   6.944   0.515   4.674
 4652SOL    HW114855   6.901   0.428   4.698
 4652SOL    HW214856   7.023   0.497   4.614
 4653SOL     OW14857   6.843   6.613   6.943
 4653SOL    HW114858   6.811   6.703   6.915
 4653SOL    HW214859   6.882   6.565   6.865
 4654SOL     OW14860   0.554   0.171   0.528
 4654SOL    HW114861   0.467   0.185   0.574
 4654SOL    HW214862   0.581   0.255   0.481
 4655SOL     OW14863   0.005   4.370   2.911
 4655SOL    HW114864   0.098   4.397   2.887
 4655SOL    HW214865   6.984   4.448   2.953
 4656SOL     OW14866   1.155   0.756   3.274
 4656SOL    HW114867   1.059   0.773   3.299
 4656SOL    HW214868   1.186   0.672   3.319
 4657SOL     OW14869   5.185   6.847   1.542
 4657SOL    HW114870   5.090   6.851   1.572
 4657SOL    HW214871   5.201   6.915   1.471
 4658SOL     OW14872   4.425   0.277   2.758
 4658SOL    HW114873   4.470   0.239   2.838
 4658SOL    HW214874   4.352   0.340   2.787
 4659SOL     OW14875   2.092   2.545   5.027
 4659SOL    HW114876   2.047   2.487   4.959
 4659SOL    HW214877   2.041   2.631   5.035
 4660SOL     OW14878   0.348   1.595   5.807
 4660SOL    HW114879   0.405   1.514   5.794
 4660SOL    HW214880   0.335   1.611   5.905
 4661SOL     OW14881   3.551   4.131   4.885
 4661SOL    HW114882   3.599   4.065   4.827
 4661SOL    HW214883   3.457   4.142   4.852
 4662SOL     OW14884   5.400   0.649   5.507
 4662SOL    HW114885   5.436   0.670   5.598
 4662SOL    HW214886   5.302   0.633   5.513
 4663SOL     OW14887   0.005   2.515   2.287
 4663SOL    HW114888   0.104   2.531   2.289
 4663SOL    HW214889   6.983   2.599   2.311
 4664SOL     OW14890   3.068   2.540   6.934
 4664SOL    HW114891   3.117   2.615   6.889
 4664SOL    HW214892   3.133   2.466   6.954
 4665SOL     OW14893   5.087   0.175   6.708
 4665SOL    HW114894   5.065   0.096   6.765
 4665SOL    HW214895   5.183   0.200   6.722
 4666SOL     OW14896   2.244   1.820   0.129
 4666SOL    HW114897   2.293   1.788   0.209
 4666SOL    HW214898   2.205   1.910   0.147
 4667SOL     OW14899   0.085   4.984   0.018
 4667SOL    HW114900   0.138   4.980   6.959
 4667SOL    HW214901   0.066   4.892   0.051
 4668SOL     OW14902   6.650   1.635   5.152
 4668SOL    HW114903   6.587   1.612   5.226
 4668SOL    HW214904   6.743   1.644   5.187
 4669SOL     OW14905   1.485   6.818   0.478
 4669SOL    HW114906   1.547   6.896   0.480
 4669SOL    HW214907   1.399   6.843   0.523
 4670SOL     OW14908   2.126   1.969   5.030
 4670SOL    HW114909   2.219   1.984   4.997
 4670SOL    HW214910   2.061   2.011   4.965
 4671SOL     OW14911   5.790   3.187   1.536
 4671SOL    HW114912   5.777   3.250   1.613
 4671SOL    HW214913   5.751   3.098   1.559
 4672SOL     OW14914   2.034   3.988   6.478
 4672SOL    HW114915   2.121   3.956   6.515
 4672SOL    HW214916   2.043   4.084   6.450
 4673SOL     OW14917   3.048   0.812   2.245
 4673SOL    HW114918   3.081   0.728   2.287
 4673SOL    HW214919   3.120   0.882   2.250
 4674SOL     OW14920   4.689   5.919   5.194
 4674SOL    HW114921   4.741   5.979   5.255
 4674SOL    HW214922   4.734   5.915   5.105
 4675SOL     OW14923   1.250   4.211   0.127
 4675SOL    HW114924   1.266   4.115   0.152
 4675SOL    HW214925   1.188   4.253   0.194
 4676SOL     OW14926   1.399   5.830   3.531
 4676SOL    HW114927   1.489   5.862   3.500
 4676SOL    HW214928   1.398   5.730   3.532
 4677SOL     OW14929   1.813   2.429   0.089
 4677SOL    HW114930   1.877   2.497   0.053
 4677SOL    HW214931   1.862   2.369   0.153
 4678SOL     OW14932   1.685   4.313   3.125
 4678SOL    HW114933   1.598   4.352   3.155
 4678SOL    HW214934   1.673   4.267   3.037
 4679SOL     OW14935   5.350   6.740   1.267
 4679SOL    HW114936   5.339   6.694   1.356
 4679SOL    HW214937   5.333   6.675   1.194
 4680SOL     OW14938   2.812   1.551   1.441
 4680SOL    HW114939   2.884   1.502   1.490
 4680SOL    HW214940   2.726   1.543   1.491
 4681SOL     OW14941   5.464   3.993   1.170
 4681SOL    HW114942   5.526   3.935   1.118
 4681SOL    HW214943   5.399   3.936   1.220
 4682SOL     OW14944   4.978   3.621   6.142
 4682SOL    HW114945   5.075   3.616   6.164
 4682SOL    HW214946   4.958   3.564   6.063
 4683SOL     OW14947   6.110   4.208   4.135
 4683SOL    HW114948   6.101   4.289   4.193
 4683SOL    HW214949   6.039   4.209   4.064
 4684SOL     OW14950   4.690   6.658   0.064
 4684SOL    HW114951   4.612   6.662   0.001
 4684SOL    HW214952   4.676   6.723   0.139
 4685SOL     OW14953   2.403   3.387   5.793
 4685SOL    HW114954   2.497   3.364   5.818
 4685SOL    HW214955   2.371   3.463   5.850
 4686SOL     OW14956   3.409   5.935   0.662
 4686SOL    HW114957   3.432   5.838   0.669
 4686SOL    HW214958   3.315   5.950   0.696
 4687SOL     OW14959   3.101   1.021   2.638
 4687SOL    HW114960   3.003   1.027   2.618
 4687SOL    HW214961   3.119   0.940   2.695
 4688SOL     OW14962   5.163   2.559   5.874
 4688SOL    HW114963   5.144   2.470   5.918
 4688SOL    HW214964   5.113   2.564   5.788
 4689SOL     OW14965   5.521   0.651   0.380
 4689SOL    HW114966   5.586   0.710   0.427
 4689SOL    HW214967   5.521   0.560   0.423
 4690SOL     OW14968   2.083   1.412   0.496
 4690SOL    HW114969   2.130   1.431   0.581
 4690SOL    HW214970   1.984   1.419   0.509
 4691SOL     OW14971   5.652   4.395   0.623
 4691SOL    HW114972   5.623   4.389   0.719
 4691SOL    HW214973   5.734   4.339   0.609
 4692SOL     OW14974   6.564   4.844   3.090
 4692SOL    HW114975   6.586   4.863   3.186
 4692SOL    HW214976   6.561   4.745   3.076
 4693SOL     OW14977   1.961   0.816   3.555
 4693SOL    HW114978   1.868   0.779   3.566
 4693SOL    HW214979   2.002   0.778   3.472
 4694SOL     OW14980   2.700   0.957   0.613
 4694SOL    HW114981   2.784   0.905   0.595
 4694SOL    HW214982   2.720   1.031   0.678
 4695SOL     OW14983   1.237   5.608   0.671
 4695SOL    HW114984   1.321   5.609   0.618
 4695SOL    HW214985   1.258   5.594   0.768
 4696SOL     OW14986   1.273   5.258   6.157
 4696SOL    HW114987   1.204   5.252   6.085
 4696SOL    HW214988   1.235   5.302   6.238
 4697SOL     OW14989   1.951   4.303   0.910
 4697SOL    HW114990   2.029   4.364   0.900
 4697SOL    HW214991   1.982   4.213   0.939
 4698SOL     OW14992   4.771   0.250   3.602
 4698SOL    HW114993   4.817   0.234   3.689
 4698SOL    HW214994   4.743   0.346   3.596
 4699SOL     OW14995   0.754   0.598   2.257
 4699SOL    HW114996   0.687   0.525   2.270
 4699SOL    HW214997   0.784   0.600   2.162
 4700SOL     OW14998   6.579   2.228   2.920
 4700SOL    HW114999   6.603   2.132   2.903
 4700SOL    HW215000   6.486   2.234   2.956
 4701SOL     OW15001   3.497   2.037   1.985
 4701SOL    HW115002   3.564   2.108   2.005
 4701SOL    HW215003   3.406   2.067   2.014
 4702SOL     OW15004   4.716   4.939   6.644
 4702SOL    HW115005   4.676   4.925   6.734
 4702SOL    HW215006   4.741   5.035   6.634
 4703SOL     OW15007   1.232   4.524   2.618
 4703SOL    HW115008   1.206   4.428   2.618
 4703SOL    HW215009   1.296   4.542   2.543
 4704SOL     OW15010   7.024   5.916   5.725
 4704SOL    HW115011   0.053   5.835   5.705
 4704SOL    HW215012   7.001   5.918   5.822
 4705SOL     OW15013   3.343   2.598   1.455
 4705SOL    HW115014   3.373   2.516   1.504
 4705SOL    HW215015   3.356   2.678   1.514
 4706SOL     OW15016   1.166   0.285   0.655
 4706SOL    HW115017   1.078   0.289   0.609
 4706SOL    HW215018   1.187   0.191   0.681
 4707SOL     OW15019   1.176   6.431   1.390
 4707SOL    HW115020   1.077   6.445   1.381
 4707SOL    HW215021   1.223   6.483   1.318
 4708SOL     OW15022   1.185   2.473   4.285
 4708SOL    HW115023   1.222   2.537   4.352
 4708SOL    HW215024   1.214   2.501   4.193
 4709SOL     OW15025   5.215   4.045   5.094
 4709SOL    HW115026   5.124   4.031   5.053
 4709SOL    HW215027   5.280   3.981   5.054
 4710SOL     OW15028   5.376   6.455   4.246
 4710SOL    HW115029   5.380   6.362   4.283
 4710SOL    HW215030   5.380   6.521   4.321
 4711SOL     OW15031   6.066   3.344   3.223
 4711SOL    HW115032   6.113   3.264   3.187
 4711SOL    HW215033   6.123   3.389   3.291
 4712SOL     OW15034   4.681   4.202   5.346
 4712SOL    HW115035   4.738   4.280   5.373
 4712SOL    HW215036   4.735   4.118   5.351
 4713SOL     OW15037   5.362   3.997   0.918
 4713SOL    HW115038   5.399   4.024   1.007
 4713SOL    HW215039   5.270   4.035   0.908
 4714SOL     OW15040   6.396   1.495   6.601
 4714SOL    HW115041   6.384   1.401   6.568
 4714SOL    HW215042   6.449   1.547   6.534
 4715SOL     OW15043   6.378   1.704   2.489
 4715SOL    HW115044   6.460   1.669   2.533
 4715SOL    HW215045   6.363   1.799   2.517
 4716SOL     OW15046   3.996   5.373   5.627
 4716SOL    HW115047   4.063   5.430   5.673
 4716SOL    HW215048   3.914   5.364   5.684
 4717SOL     OW15049   2.822   5.196   5.489
 4717SOL    HW115050   2.858   5.286   5.464
 4717SOL    HW215051   2.815   5.139   5.407
 4718SOL     OW15052   5.398   3.503   0.915
 4718SOL    HW115053   5.493   3.516   0.887
 4718SOL    HW215054   5.349   3.591   0.911
 4719SOL     OW15055   6.450   3.162   3.640
 4719SOL    HW115056   6.382   3.151   3.713
 4719SOL    HW215057   6.418   3.231   3.575
 4720SOL     OW15058   3.043   4.790   0.036
 4720SOL    HW115059   2.949   4.823   0.050
 4720SOL    HW215060   3.042   4.692   0.017
 4721SOL     OW15061   6.173   3.571   2.235
 4721SOL    HW115062   6.152   3.544   2.141
 4721SOL    HW215063   6.211   3.663   2.235
 4722SOL     OW15064   1.149   4.376   6.480
 4722SOL    HW115065   1.186   4.293   6.437
 4722SOL    HW215066   1.172   4.455   6.424
 4723SOL     OW15067   3.916   4.223   6.059
 4723SOL    HW115068   3.832   4.178   6.028
 4723SOL    HW215069   3.995   4.166   6.035
 4724SOL     OW15070   0.446   6.318   4.217
 4724SOL    HW115071   0.445   6.391   4.148
 4724SOL    HW215072   0.356   6.311   4.260
 4725SOL     OW15073   5.585   5.079   0.740
 4725SOL    HW115074   5.548   5.171   0.755
 4725SOL    HW215075   5.517   5.012   0.769
 4726SOL     OW15076   1.862   3.007   5.982
 4726SOL    HW115077   1.837   2.918   5.946
 4726SOL    HW215078   1.861   3.004   6.082
 4727SOL     OW15079   0.543   5.945   1.177
 4727SOL    HW115080   0.595   5.864   1.204
 4727SOL    HW215081   0.525   5.941   1.078
 4728SOL     OW15082   6.192   0.970   3.320
 4728SOL    HW115083   6.190   1.067   3.346
 4728SOL    HW215084   6.113   0.923   3.360
 4729SOL     OW15085   6.002   0.614   0.246
 4729SOL    HW115086   5.985   0.518   0.268
 4729SOL    HW215087   6.039   0.621   0.153
 4730SOL     OW15088   3.310   6.420   4.790
 4730SOL    HW115089   3.251   6.343   4.814
 4730SOL    HW215090   3.400   6.408   4.833
 4731SOL     OW15091   3.179   0.175   0.702
 4731SOL    HW115092   3.230   0.160   0.786
 4731SOL    HW215093   3.174   0.089   0.650
 4732SOL     OW15094   0.468   4.048   4.234
 4732SOL    HW115095   0.451   4.132   4.183
 4732SOL    HW215096   0.427   4.056   4.325
 4733SOL     OW15097   1.994   3.607   3.121
 4733SOL    HW115098   1.991   3.607   3.221
 4733SOL    HW215099   1.957   3.521   3.086
 4734SOL     OW15100   5.382   3.565   6.066
 4734SOL    HW115101   5.454   3.633   6.060
 4734SOL    HW215102   5.353   3.554   6.161
 4735SOL     OW15103   6.899   6.486   5.161
 4735SOL    HW115104   6.918   6.560   5.225
 4735SOL    HW215105   6.974   6.479   5.095
 4736SOL     OW15106   6.543   1.870   3.581
 4736SOL    HW115107   6.607   1.802   3.548
 4736SOL    HW215108   6.593   1.945   3.625
 4737SOL     OW15109   1.849   5.110   1.138
 4737SOL    HW115110   1.816   5.136   1.229
 4737SOL    HW215111   1.822   5.179   1.071
 4738SOL     OW15112   2.233   0.224   3.888
 4738SOL    HW115113   2.170   0.279   3.834
 4738SOL    HW215114   2.322   0.271   3.894
 4739SOL     OW15115   6.126   3.360   4.693
 4739SOL    HW115116   6.030   3.360   4.720
 4739SOL    HW215117   6.167   3.449   4.714
 4740SOL     OW15118   0.547   1.136   1.929
 4740SOL    HW115119   0.596   1.221   1.907
 4740SOL    HW215120   0.603   1.082   1.992
 4741SOL     OW15121   4.161   5.010   1.239
 4741SOL    HW115122   4.151   4.916   1.271
 4741SOL    HW215123   4.087   5.031   1.175
 4742SOL     OW15124   2.873   6.071   1.081
 4742SOL    HW115125   2.783   6.097   1.046
 4742SOL    HW215126   2.944   6.104   1.019
 4743SOL     OW15127   2.386   1.880   6.353
 4743SOL    HW115128   2.321   1.951   6.381
 4743SOL    HW215129   2.429   1.841   6.435
 4744SOL     OW15130   2.204   3.668   5.571
 4744SOL    HW115131   2.150   3.658   5.487
 4744SOL    HW215132   2.299   3.647   5.551
 4745SOL     OW15133   3.190   5.221   5.236
 4745SOL    HW115134   3.171   5.297   5.298
 4745SOL    HW215135   3.285   5.191   5.248
 4746SOL     OW15136   6.005   6.137   0.233
 4746SOL    HW115137   5.967   6.150   0.324
 4746SOL    HW215138   6.102   6.115   0.240
 4747SOL     OW15139   7.020   2.378   0.232
 4747SOL    HW115140   0.086   2.341   0.223
 4747SOL    HW215141   6.954   2.303   0.243
 4748SOL     OW15142   1.101   0.463   1.539
 4748SOL    HW115143   1.066   0.370   1.548
 4748SOL    HW215144   1.135   0.477   1.446
 4749SOL     OW15145   1.874   6.522   6.753
 4749SOL    HW115146   1.821   6.466   6.689
 4749SOL    HW215147   1.968   6.528   6.721
 4750SOL     OW15148   6.846   1.299   4.246
 4750SOL    HW115149   6.845   1.271   4.150
 4750SOL    HW215150   6.838   1.218   4.305
 4751SOL     OW15151   1.586   4.703   6.488
 4751SOL    HW115152   1.562   4.678   6.394
 4751SOL    HW215153   1.513   4.676   6.550
 4752SOL     OW15154   2.831   6.463   1.634
 4752SOL    HW115155   2.813   6.390   1.700
 4752SOL    HW215156   2.745   6.490   1.591
 4753SOL     OW15157   5.546   6.858   5.322
 4753SOL    HW115158   5.532   6.818   5.231
 4753SOL    HW215159   5.560   6.957   5.314
 4754SOL     OW15160   0.435   6.968   6.299
 4754SOL    HW115161   0.406   7.011   6.213
 4754SOL    HW215162   0.400   6.874   6.302
 4755SOL     OW15163   2.376   1.545   5.955
 4755SOL    HW115164   2.278   1.549   5.974
 4755SOL    HW215165   2.423   1.614   6.010
 4756SOL     OW15166   4.510   2.777   1.504
 4756SOL    HW115167   4.583   2.719   1.467
 4756SOL    HW215168   4.532   2.802   1.598
 4757SOL     OW15169   2.466   2.283   2.082
 4757SOL    HW115170   2.534   2.334   2.029
 4757SOL    HW215171   2.510   2.246   2.164
 4758SOL     OW15172   4.934   5.059   5.629
 4758SOL    HW115173   4.926   4.974   5.681
 4758SOL    HW215174   5.030   5.082   5.617
 4759SOL     OW15175   5.572   5.936   5.867
 4759SOL    HW115176   5.533   5.999   5.935
 4759SOL    HW215177   5.499   5.900   5.810
 4760SOL     OW15178   1.804   1.107   1.186
 4760SOL    HW115179   1.862   1.049   1.243
 4760SOL    HW215180   1.718   1.059   1.167
 4761SOL     OW15181   6.780   0.305   6.739
 4761SOL    HW115182   6.815   0.240   6.673
 4761SOL    HW215183   6.856   0.350   6.786
 4762SOL     OW15184   2.921   5.064   2.435
 4762SOL    HW115185   2.829   5.062   2.395
 4762SOL    HW215186   2.944   5.158   2.462
 4763SOL     OW15187   5.738   6.247   3.052
 4763SOL    HW115188   5.793   6.244   3.135
 4763SOL    HW215189   5.709   6.155   3.027
 4764SOL     OW15190   4.656   3.783   5.344
 4764SOL    HW115191   4.675   3.704   5.285
 4764SOL    HW215192   4.669   3.867   5.292
 4765SOL     OW15193   4.842   6.080   5.355
 4765SOL    HW115194   4.790   6.155   5.315
 4765SOL    HW215195   4.814   6.067   5.450
 4766SOL     OW15196   2.877   0.445   3.246
 4766SOL    HW115197   2.793   0.433   3.300
 4766SOL    HW215198   2.852   0.463   3.151
 4767SOL     OW15199   3.919   6.840   0.692
 4767SOL    HW115200   3.974   6.871   0.769
 4767SOL    HW215201   3.861   6.764   0.720
 4768SOL     OW15202   5.653   0.985   4.597
 4768SOL    HW115203   5.585   1.039   4.548
 4768SOL    HW215204   5.736   0.977   4.541
 4769SOL     OW15205   3.900   5.967   1.692
 4769SOL    HW115206   3.883   5.877   1.732
 4769SOL    HW215207   3.930   5.957   1.598
 4770SOL     OW15208   2.444   0.434   3.118
 4770SOL    HW115209   2.404   0.403   3.204
 4770SOL    HW215210   2.471   0.355   3.063
 4771SOL     OW15211   3.501   4.672   6.107
 4771SOL    HW115212   3.483   4.743   6.175
 4771SOL    HW215213   3.415   4.634   6.074
 4772SOL     OW15214   2.659   0.433   1.617
 4772SOL    HW115215   2.687   0.442   1.713
 4772SOL    HW215216   2.578   0.376   1.611
 4773SOL     OW15217   0.401   6.085   3.891
 4773SOL    HW115218   0.320   6.039   3.855
 4773SOL    HW215219   0.398   6.082   3.991
 4774SOL     OW15220   0.908   3.484   2.002
 4774SOL    HW115221   0.828   3.537   2.030
 4774SOL    HW215222   0.987   3.511   2.057
 4775SOL     OW15223   4.527   0.459   3.078
 4775SOL    HW115224   4.521   0.360   3.082
 4775SOL    HW215225   4.542   0.496   3.169
 4776SOL     OW15226   2.917   6.267   2.364
 4776SOL    HW115227   2.844   6.245   2.299
 4776SOL    HW215228   2.923   6.194   2.433
 4777SOL     OW15229   2.184   4.470   0.909
 4777SOL    HW115230   2.187   4.434   1.002
 4777SOL    HW215231   2.157   4.566   0.911
 4778SOL     OW15232   4.769   3.456   1.833
 4778SOL    HW115233   4.683   3.424   1.793
 4778SOL    HW215234   4.836   3.383   1.830
 4779SOL     OW15235   6.453   0.612   3.175
 4779SOL    HW115236   6.550   0.597   3.197
 4779SOL    HW215237   6.422   0.696   3.220
 4780SOL     OW15238   0.845   6.731   5.727
 4780SOL    HW115239   0.798   6.676   5.797
 4780SOL    HW215240   0.880   6.815   5.768
 4781SOL     OW15241   2.216   5.473   1.074
 4781SOL    HW115242   2.298   5.502   1.124
 4781SOL    HW215243   2.141   5.460   1.139
 4782SOL     OW15244   5.773   0.124   6.726
 4782SOL    HW115245   5.804   0.052   6.664
 4782SOL    HW215246   5.680   0.151   6.701
 4783SOL     OW15247   5.061   3.786   0.985
 4783SOL    HW115248   5.136   3.761   0.924
 4783SOL    HW215249   5.070   3.882   1.011
 4784SOL     OW15250   5.739   4.996   5.471
 4784SOL    HW115251   5.669   4.930   5.443
 4784SOL    HW215252   5.759   5.057   5.395
 4785SOL     OW15253   6.736   6.669   0.709
 4785SOL    HW115254   6.682   6.690   0.628
 4785SOL    HW215255   6.676   6.632   0.780
 4786SOL     OW15256   2.068   3.048   2.058
 4786SOL    HW115257   2.129   3.073   1.982
 4786SOL    HW215258   2.063   2.948   2.064
 4787SOL     OW15259   3.100   2.207   3.818
 4787SOL    HW115260   3.086   2.191   3.720
 4787SOL    HW215261   3.135   2.299   3.832
 4788SOL     OW15262   1.737   5.206   5.424
 4788SOL    HW115263   1.805   5.234   5.492
 4788SOL    HW215264   1.651   5.187   5.470
 4789SOL     OW15265   5.536   0.662   6.861
 4789SOL    HW115266   5.568   0.757   6.860
 4789SOL    HW215267   5.466   0.651   6.932
 4790SOL     OW15268   5.452   2.168   6.607
 4790SOL    HW115269   5.467   2.208   6.697
 4790SOL    HW215270   5.415   2.075   6.617
 4791SOL     OW15271   5.571   6.829   1.983
 4791SOL    HW115272   5.633   6.906   1.998
 4791SOL    HW215273   5.524   6.807   2.069
 4792SOL     OW15274   2.375   2.715   2.819
 4792SOL    HW115275   2.303   2.647   2.808
 4792SOL    HW215276   2.457   2.686   2.769
 4793SOL     OW15277   1.317   6.914   6.066
 4793SOL    HW115278   1.304   7.013   6.066
 4793SOL    HW215279   1.315   6.880   6.160
 4794SOL     OW15280   2.398   6.404   3.338
 4794SOL    HW115281   2.395   6.496   3.297
 4794SOL    HW215282   2.492   6.381   3.362
 4795SOL     OW15283   6.426   3.087   4.494
 4795SOL    HW115284   6.346   3.095   4.554
 4795SOL    HW215285   6.476   3.003   4.516
 4796SOL     OW15286   5.599   3.358   0.302
 4796SOL    HW115287   5.580   3.263   0.280
 4796SOL    HW215288   5.515   3.402   0.335
 4797SOL     OW15289   0.719   4.672   5.804
 4797SOL    HW115290   0.775   4.604   5.757
 4797SOL    HW215291   0.653   4.711   5.739
 4798SOL     OW15292   0.120   4.303   4.170
 4798SOL    HW115293   0.170   4.305   4.084
 4798SOL    HW215294   0.047   4.371   4.167
 4799SOL     OW15295   5.031   1.446   4.984
 4799SOL    HW115296   5.097   1.387   4.939
 4799SOL    HW215297   4.941   1.402   4.985
 4800SOL     OW15298   2.468   2.887   5.602
 4800SOL    HW115299   2.525   2.805   5.602
 4800SOL    HW215300   2.415   2.891   5.517
 4801SOL     OW15301   1.614   1.672   0.472
 4801SOL    HW115302   1.606   1.618   0.556
 4801SOL    HW215303   1.560   1.629   0.400
 4802SOL     OW15304   2.747   6.499   2.083
 4802SOL    HW115305   2.682   6.447   2.138
 4802SOL    HW215306   2.807   6.435   2.033
 4803SOL     OW15307   0.817   6.971   0.728
 4803SOL    HW115308   0.833   0.038   0.764
 4803SOL    HW215309   0.890   6.947   0.664
 4804SOL     OW15310   4.288   5.206   6.262
 4804SOL    HW115311   4.291   5.173   6.167
 4804SOL    HW215312   4.197   5.240   6.283
 4805SOL     OW15313   6.691   0.940   0.323
 4805SOL    HW115314   6.634   0.869   0.280
 4805SOL    HW215315   6.636   0.993   0.387
 4806SOL     OW15316   0.263   4.047   3.265
 4806SOL    HW115317   0.283   3.981   3.337
 4806SOL    HW215318   0.292   4.138   3.293
 4807SOL     OW15319   0.612   5.800   1.672
 4807SOL    HW115320   0.581   5.727   1.732
 4807SOL    HW215321   0.626   5.764   1.579
 4808SOL     OW15322   5.441   3.352   1.716
 4808SOL    HW115323   5.386   3.381   1.638
 4808SOL    HW215324   5.446   3.253   1.719
 4809SOL     OW15325   3.027   5.228   0.092
 4809SOL    HW115326   3.043   5.160   0.020
 4809SOL    HW215327   3.096   5.300   0.086
 4810SOL     OW15328   0.535   5.631   1.441
 4810SOL    HW115329   0.530   5.531   1.441
 4810SOL    HW215330   0.461   5.669   1.386
 4811SOL     OW15331   3.534   5.183   2.196
 4811SOL    HW115332   3.595   5.233   2.257
 4811SOL    HW215333   3.492   5.247   2.132
 4812SOL     OW15334   6.977   5.432   4.019
 4812SOL    HW115335   6.897   5.481   4.052
 4812SOL    HW215336   6.956   5.334   4.011
 4813SOL     OW15337   5.071   1.611   2.302
 4813SOL    HW115338   4.994   1.674   2.295
 4813SOL    HW215339   5.050   1.541   2.371
 4814SOL     OW15340   6.839   3.783   1.068
 4814SOL    HW115341   6.814   3.724   0.991
 4814SOL    HW215342   6.870   3.871   1.033
 4815SOL     OW15343   4.715   5.484   1.580
 4815SOL    HW115344   4.742   5.390   1.601
 4815SOL    HW215345   4.722   5.540   1.662
 4816SOL     OW15346   5.516   5.319   2.459
 4816SOL    HW115347   5.467   5.236   2.431
 4816SOL    HW215348   5.577   5.348   2.386
 4817SOL     OW15349   1.289   2.521   5.662
 4817SOL    HW115350   1.260   2.428   5.687
 4817SOL    HW215351   1.309   2.573   5.745
 4818SOL     OW15352   6.823   0.102   4.014
 4818SOL    HW115353   6.871   0.166   3.955
 4818SOL    HW215354   6.763   0.153   4.076
 4819SOL     OW15355   1.365   3.381   6.850
 4819SOL    HW115356   1.458   3.361   6.881
 4819SOL    HW215357   1.369   3.445   6.773
 4820SOL     OW15358   6.833   3.453   2.351
 4820SOL    HW115359   6.744   3.415   2.328
 4820SOL    HW215360   6.897   3.437   2.276
 4821SOL     OW15361   0.030   6.126   2.192
 4821SOL    HW115362   7.005   6.186   2.130
 4821SOL    HW215363   0.117   6.100   2.149
 4822SOL     OW15364   1.106   3.957   4.389
 4822SOL    HW115365   1.016   4.000   4.375
 4822SOL    HW215366   1.094   3.866   4.427
 4823SOL     OW15367   1.486   2.824   1.891
 4823SOL    HW115368   1.447   2.762   1.823
 4823SOL    HW215369   1.502   2.775   1.976
 4824SOL     OW15370   5.532   0.117   5.391
 4824SOL    HW115371   5.567   0.116   5.485
 4824SOL    HW215372   5.447   0.169   5.387
 4825SOL     OW15373   1.407   0.653   4.712
 4825SOL    HW115374   1.355   0.599   4.646
 4825SOL    HW215375   1.491   0.686   4.669
 4826SOL     OW15376   4.439   0.088   1.412
 4826SOL    HW115377   4.453   0.148   1.491
 4826SOL    HW215378   4.342   0.062   1.407
 4827SOL     OW15379   0.127   1.973   0.884
 4827SOL    HW115380   0.029   1.954   0.871
 4827SOL    HW215381   0.138   2.045   0.952
 4828SOL     OW15382   4.534   0.438   2.544
 4828SOL    HW115383   4.606   0.498   2.579
 4828SOL    HW215384   4.501   0.378   2.617
 4829SOL     OW15385   4.062   0.184   5.492
 4829SOL    HW115386   4.080   0.181   5.590
 4829SOL    HW215387   3.967   0.159   5.475
 4830SOL     OW15388   3.206   5.693   3.633
 4830SOL    HW115389   3.208   5.642   3.547
 4830SOL    HW215390   3.112   5.718   3.654
 4831SOL     OW15391   3.499   5.311   6.042
 4831SOL    HW115392   3.424   5.305   6.108
 4831SOL    HW215393   3.496   5.233   5.981
 4832SOL     OW15394   3.013   3.466   4.521
 4832SOL    HW115395   3.104   3.471   4.481
 4832SOL    HW215396   2.946   3.500   4.456
 4833SOL     OW15397   6.148   2.843   4.784
 4833SOL    HW115398   6.140   2.813   4.879
 4833SOL    HW215399   6.164   2.941   4.781
 4834SOL     OW15400   2.116   5.458   1.845
 4834SOL    HW115401   2.101   5.360   1.857
 4834SOL    HW215402   2.160   5.496   1.926
 4835SOL     OW15403   6.827   3.091   5.423
 4835SOL    HW115404   6.776   3.007   5.444
 4835SOL    HW215405   6.922   3.068   5.404
 4836SOL     OW15406   5.081   1.108   5.002
 4836SOL    HW115407   5.096   1.011   4.982
 4836SOL    HW215408   5.051   1.154   4.918
 4837SOL     OW15409   6.991   3.446   4.305
 4837SOL    HW115410   6.974   3.382   4.380
 4837SOL    HW215411   7.024   3.396   4.225
 4838SOL     OW15412   1.255   4.561   6.277
 4838SOL    HW115413   1.215   4.651   6.292
 4838SOL    HW215414   1.355   4.568   6.277
 4839SOL     OW15415   2.218   2.208   0.681
 4839SOL    HW115416   2.177   2.282   0.629
 4839SOL    HW215417   2.277   2.246   0.752
 4840SOL     OW15418   5.660   3.327   5.367
 4840SOL    HW115419   5.574   3.373   5.342
 4840SOL    HW215420   5.730   3.396   5.383
 4841SOL     OW15421   3.079   5.361   3.306
 4841SOL    HW115422   3.136   5.361   3.224
 4841SOL    HW215423   3.075   5.453   3.344
 4842SOL     OW15424   2.686   5.127   3.286
 4842SOL    HW115425   2.608   5.075   3.318
 4842SOL    HW215426   2.762   5.116   3.350
 4843SOL     OW15427   0.268   2.508   2.313
 4843SOL    HW115428   0.352   2.559   2.334
 4843SOL    HW215429   0.291   2.420   2.272
 4844SOL     OW15430   1.405   5.472   5.193
 4844SOL    HW115431   1.496   5.431   5.191
 4844SOL    HW215432   1.349   5.432   5.121
 4845SOL     OW15433   4.765   4.228   5.038
 4845SOL    HW115434   4.698   4.296   5.065
 4845SOL    HW215435   4.853   4.272   5.018
 4846SOL     OW15436   6.860   3.540   4.943
 4846SOL    HW115437   6.788   3.471   4.940
 4846SOL    HW215438   6.945   3.498   4.978
 4847SOL     OW15439   2.552   6.386   5.947
 4847SOL    HW115440   2.531   6.385   5.849
 4847SOL    HW215441   2.571   6.293   5.978
 4848SOL     OW15442   2.636   0.666   4.157
 4848SOL    HW115443   2.582   0.750   4.156
 4848SOL    HW215444   2.710   0.673   4.089
 4849SOL     OW15445   1.868   6.680   1.267
 4849SOL    HW115446   1.862   6.774   1.301
 4849SOL    HW215447   1.925   6.625   1.328
 4850SOL     OW15448   4.661   0.877   0.551
 4850SOL    HW115449   4.700   0.829   0.473
 4850SOL    HW215450   4.676   0.824   0.634
 4851SOL     OW15451   3.615   5.916   0.039
 4851SOL    HW115452   3.688   5.873   7.012
 4851SOL    HW215453   3.531   5.863   0.028
 4852SOL     OW15454   4.451   5.111   5.065
 4852SOL    HW115455   4.447   5.026   5.013
 4852SOL    HW215456   4.546   5.134   5.084
 4853SOL     OW15457   3.971   1.148   3.182
 4853SOL    HW115458   3.967   1.070   3.120
 4853SOL    HW215459   3.954   1.232   3.130
 4854SOL     OW15460   6.113   6.181   1.426
 4854SOL    HW115461   6.131   6.152   1.519
 4854SOL    HW215462   6.107   6.281   1.423
 4855SOL     OW15463   6.197   5.120   4.476
 4855SOL    HW115464   6.259   5.096   4.551
 4855SOL    HW215465   6.220   5.211   4.442
 4856SOL     OW15466   0.098   3.690   3.103
 4856SOL    HW115467   0.088   3.768   3.042
 4856SOL    HW215468   0.146   3.616   3.056
 4857SOL     OW15469   2.687   2.306   4.149
 4857SOL    HW115470   2.782   2.291   4.125
 4857SOL    HW215471   2.682   2.354   4.237
 4858SOL     OW15472   0.257   6.194   4.554
 4858SOL    HW115473   0.325   6.268   4.558
 4858SOL    HW215474   0.295   6.111   4.594
 4859SOL     OW15475   0.616   5.813   2.159
 4859SOL    HW115476   0.628   5.725   2.112
 4859SOL    HW215477   0.619   5.887   2.091
 4860SOL     OW15478   5.290   5.748   0.719
 4860SOL    HW115479   5.223   5.814   0.685
 4860SOL    HW215480   5.356   5.796   0.777
 4861SOL     OW15481   0.566   4.754   6.502
 4861SOL    HW115482   0.581   4.716   6.594
 4861SOL    HW215483   0.531   4.683   6.442
 4862SOL     OW15484   2.630   4.528   5.290
 4862SOL    HW115485   2.722   4.556   5.260
 4862SOL    HW215486   2.625   4.428   5.289
 4863SOL     OW15487   4.587   2.532   3.111
 4863SOL    HW115488   4.629   2.445   3.136
 4863SOL    HW215489   4.502   2.515   3.062
 4864SOL     OW15490   2.837   1.142   1.708
 4864SOL    HW115491   2.892   1.111   1.630
 4864SOL    HW215492   2.801   1.233   1.688
 4865SOL     OW15493   3.891   5.831   5.195
 4865SOL    HW115494   3.864   5.750   5.143
 4865SOL    HW215495   3.899   5.807   5.292
 4866SOL     OW15496   5.836   4.583   1.308
 4866SOL    HW115497   5.841   4.628   1.219
 4866SOL    HW215498   5.928   4.559   1.339
 4867SOL     OW15499   4.937   5.635   2.359
 4867SOL    HW115500   5.014   5.676   2.309
 4867SOL    HW215501   4.973   5.574   2.429
 4868SOL     OW15502   6.955   5.730   1.222
 4868SOL    HW115503   6.997   5.800   1.280
 4868SOL    HW215504   7.017   5.708   1.146
 4869SOL     OW15505   0.200   1.403   6.994
 4869SOL    HW115506   0.116   1.443   6.957
 4869SOL    HW215507   0.277   1.427   6.935
 4870SOL     OW15508   5.253   6.520   2.125
 4870SOL    HW115509   5.331   6.571   2.160
 4870SOL    HW215510   5.244   6.434   2.175
 4871SOL     OW15511   1.375   2.718   3.764
 4871SOL    HW115512   1.442   2.653   3.800
 4871SOL    HW215513   1.349   2.690   3.671
 4872SOL     OW15514   1.381   0.102   2.250
 4872SOL    HW115515   1.409   0.194   2.277
 4872SOL    HW215516   1.283   0.101   2.234
 4873SOL     OW15517   0.028   5.627   5.301
 4873SOL    HW115518   0.093   5.664   5.234
 4873SOL    HW215519   0.013   5.694   5.373
 4874SOL     OW15520   5.177   3.693   3.098
 4874SOL    HW115521   5.087   3.735   3.109
 4874SOL    HW215522   5.198   3.685   3.001
 4875SOL     OW15523   5.391   1.869   1.072
 4875SOL    HW115524   5.410   1.954   1.121
 4875SOL    HW215525   5.472   1.809   1.077
 4876SOL     OW15526   0.147   1.543   0.256
 4876SOL    HW115527   0.073   1.505   0.201
 4876SOL    HW215528   0.161   1.639   0.233
 4877SOL     OW15529   6.288   0.630   1.403
 4877SOL    HW115530   6.368   0.584   1.365
 4877SOL    HW215531   6.223   0.562   1.435
 4878SOL     OW15532   6.546   1.645   1.741
 4878SOL    HW115533   6.605   1.566   1.723
 4878SOL    HW215534   6.552   1.669   1.838
 4879SOL     OW15535   4.591   5.259   3.442
 4879SOL    HW115536   4.504   5.230   3.400
 4879SOL    HW215537   4.622   5.187   3.504
 4880SOL     OW15538   5.753   1.610   6.486
 4880SOL    HW115539   5.787   1.608   6.392
 4880SOL    HW215540   5.753   1.518   6.524
 4881SOL     OW15541   3.647   6.343   6.256
 4881SOL    HW115542   3.634   6.409   6.182
 4881SOL    HW215543   3.652   6.251   6.218
 4882SOL     OW15544   6.022   0.743   5.562
 4882SOL    HW115545   6.052   0.707   5.651
 4882SOL    HW215546   6.070   0.829   5.544
 4883SOL     OW15547   6.834   4.693   2.022
 4883SOL    HW115548   6.855   4.738   1.935
 4883SOL    HW215549   6.737   4.670   2.025
 4884SOL     OW15550   3.512   6.359   2.043
 4884SOL    HW115551   3.452   6.425   1.999
 4884SOL    HW215552   3.594   6.405   2.078
 4885SOL     OW15553   1.877   6.954   1.380
 4885SOL    HW115554   1.824   0.005   1.416
 4885SOL    HW215555   1.952   6.990   1.325
 4886SOL     OW15556   6.586   0.733   0.094
 4886SOL    HW115557   6.493   0.697   0.100
 4886SOL    HW215558   6.651   0.663   0.121
 4887SOL     OW15559   0.377   2.183   3.782
 4887SOL    HW115560   0.427   2.131   3.712
 4887SOL    HW215561   0.426   2.267   3.802
 4888SOL     OW15562   2.513   5.680   2.597
 4888SOL    HW115563   2.463   5.632   2.525
 4888SOL    HW215564   2.519   5.621   2.678
 4889SOL     OW15565   1.287   1.779   0.320
 4889SOL    HW115566   1.351   1.746   0.250
 4889SOL    HW215567   1.290   1.879   0.324
 4890SOL     OW15568   1.264   0.992   4.652
 4890SOL    HW115569   1.222   0.985   4.742
 4890SOL    HW215570   1.241   1.081   4.611
 4891SOL     OW15571   0.830   4.795   0.276
 4891SOL    HW115572   0.753   4.763   0.330
 4891SOL    HW215573   0.915   4.779   0.325
 4892SOL     OW15574   0.324   5.710   1.270
 4892SOL    HW115575   0.285   5.799   1.296
 4892SOL    HW215576   0.370   5.719   1.182
 4893SOL     OW15577   0.713   3.369   6.516
 4893SOL    HW115578   0.763   3.309   6.579
 4893SOL    HW215579   0.757   3.366   6.426
 4894SOL     OW15580   2.191   1.160   3.405
 4894SOL    HW115581   2.159   1.176   3.312
 4894SOL    HW215582   2.291   1.156   3.406
 4895SOL     OW15583   1.201   2.791   0.210
 4895SOL    HW115584   1.123   2.779   0.270
 4895SOL    HW215585   1.222   2.889   0.202
 4896SOL     OW15586   3.717   5.033   4.990
 4896SOL    HW115587   3.617   5.039   4.992
 4896SOL    HW215588   3.749   4.982   5.070
 4897SOL     OW15589   3.833   5.787   6.948
 4897SOL    HW115590   3.856   5.845   6.870
 4897SOL    HW215591   3.909   5.726   6.967
 4898SOL     OW15592   5.177   1.594   5.444
 4898SOL    HW115593   5.172   1.692   5.466
 4898SOL    HW215594   5.234   1.547   5.511
 4899SOL     OW15595   5.929   4.538   3.741
 4899SOL    HW115596   5.997   4.546   3.667
 4899SOL    HW215597   5.853   4.482   3.710
 4900SOL     OW15598   0.956   6.831   5.422
 4900SOL    HW115599   0.915   6.750   5.464
 4900SOL    HW215600   0.976   6.898   5.493
 4901SOL     OW15601   0.669   6.633   3.828
 4901SOL    HW115602   0.677   6.732   3.812
 4901SOL    HW215603   0.663   6.616   3.926
 4902SOL     OW15604   2.272   4.914   1.480
 4902SOL    HW115605   2.258   4.815   1.494
 4902SOL    HW215606   2.295   4.957   1.567
 4903SOL     OW15607   4.560   0.222   6.493
 4903SOL    HW115608   4.544   0.260   6.583
 4903SOL    HW215609   4.649   0.254   6.459
 4904SOL     OW15610   2.803   6.015   4.397
 4904SOL    HW115611   2.706   5.991   4.403
 4904SOL    HW215612   2.832   6.057   4.483
 4905SOL     OW15613   4.884   3.087   1.728
 4905SOL    HW115614   4.788   3.072   1.750
 4905SOL    HW215615   4.919   3.164   1.783
 4906SOL     OW15616   4.834   0.438   0.109
 4906SOL    HW115617   4.815   0.352   0.154
 4906SOL    HW215618   4.932   0.457   0.112
 4907SOL     OW15619   3.578   0.666   3.623
 4907SOL    HW115620   3.572   0.748   3.680
 4907SOL    HW215621   3.666   0.622   3.636
 4908SOL     OW15622   3.496   6.374   6.726
 4908SOL    HW115623   3.552   6.423   6.658
 4908SOL    HW215624   3.513   6.414   6.816
 4909SOL     OW15625   6.381   6.512   5.310
 4909SOL    HW115626   6.477   6.501   5.336
 4909SOL    HW215627   6.331   6.428   5.329
 4910SOL     OW15628   5.551   0.463   5.132
 4910SOL    HW115629   5.516   0.496   5.044
 4910SOL    HW215630   5.565   0.364   5.126
 4911SOL     OW15631   6.514   2.575   6.056
 4911SOL    HW115632   6.589   2.525   6.100
 4911SOL    HW215633   6.541   2.670   6.044
 4912SOL     OW15634   3.692   2.029   2.418
 4912SOL    HW115635   3.685   1.945   2.364
 4912SOL    HW215636   3.739   2.099   2.365
 4913SOL     OW15637   3.640   4.162   3.398
 4913SOL    HW115638   3.546   4.152   3.365
 4913SOL    HW215639   3.641   4.152   3.498
 4914SOL     OW15640   2.698   6.643   3.402
 4914SOL    HW115641   2.675   6.546   3.409
 4914SOL    HW215642   2.741   6.661   3.314
 4915SOL     OW15643   3.829   6.085   4.125
 4915SOL    HW115644   3.878   6.120   4.205
 4915SOL    HW215645   3.895   6.054   4.057
 4916SOL     OW15646   2.064   1.492   2.860
 4916SOL    HW115647   2.039   1.580   2.818
 4916SOL    HW215648   2.163   1.481   2.857
 4917SOL     OW15649   2.110   4.746   0.958
 4917SOL    HW115650   2.016   4.740   0.992
 4917SOL    HW215651   2.161   4.813   1.012
 4918SOL     OW15652   2.232   0.193   2.202
 4918SOL    HW115653   2.281   0.107   2.193
 4918SOL    HW215654   2.278   0.264   2.148
 4919SOL     OW15655   2.330   2.712   1.962
 4919SOL    HW115656   2.317   2.798   1.912
 4919SOL    HW215657   2.273   2.641   1.921
 4920SOL     OW15658   4.184   0.814   0.581
 4920SOL    HW115659   4.120   0.775   0.515
 4920SOL    HW215660   4.135   0.872   0.645
 4921SOL     OW15661   1.707   4.371   1.624
 4921SOL    HW115662   1.719   4.470   1.625
 4921SOL    HW215663   1.618   4.347   1.662
 4922SOL     OW15664   1.518   2.953   5.219
 4922SOL    HW115665   1.565   2.868   5.242
 4922SOL    HW215666   1.585   3.026   5.210
 4923SOL     OW15667   5.017   0.925   1.639
 4923SOL    HW115668   5.107   0.967   1.646
 4923SOL    HW215669   5.018   0.854   1.568
 4924SOL     OW15670   0.634   4.032   4.781
 4924SOL    HW115671   0.732   4.044   4.794
 4924SOL    HW215672   0.612   4.046   4.684
 4925SOL     OW15673   5.211   6.358   0.149
 4925SOL    HW115674   5.121   6.347   0.192
 4925SOL    HW215675   5.207   6.430   0.080
 4926SOL     OW15676   4.827   2.687   1.784
 4926SOL    HW115677   4.864   2.613   1.840
 4926SOL    HW215678   4.902   2.741   1.746
 4927SOL     OW15679   3.224   3.016   3.233
 4927SOL    HW115680   3.143   3.072   3.247
 4927SOL    HW215681   3.248   2.971   3.319
 4928SOL     OW15682   0.417   5.946   6.999
 4928SOL    HW115683   0.338   6.007   6.995
 4928SOL    HW215684   0.415   5.882   6.922
 4929SOL     OW15685   1.014   5.089   4.259
 4929SOL    HW115686   1.004   4.990   4.257
 4929SOL    HW215687   1.061   5.120   4.176
 4930SOL     OW15688   0.414   2.001   0.834
 4930SOL    HW115689   0.322   1.975   0.862
 4930SOL    HW215690   0.414   2.098   0.809
 4931SOL     OW15691   0.276   1.153   0.081
 4931SOL    HW115692   0.238   1.067   0.046
 4931SOL    HW215693   0.225   1.230   0.041
 4932SOL     OW15694   2.622   2.314   1.047
 4932SOL    HW115695   2.687   2.386   1.070
 4932SOL    HW215696   2.535   2.332   1.093
 4933SOL     OW15697   2.688   1.213   3.810
 4933SOL    HW115698   2.612   1.180   3.866
 4933SOL    HW215699   2.723   1.298   3.849
 4934SOL     OW15700   0.815   6.027   4.450
 4934SOL    HW115701   0.771   6.047   4.363
 4934SOL    HW215702   0.879   6.100   4.473
 4935SOL     OW15703   1.264   1.022   6.932
 4935SOL    HW115704   1.359   1.039   6.960
 4935SOL    HW215705   1.257   1.028   6.832
 4936SOL     OW15706   3.865   5.541   1.161
 4936SOL    HW115707   3.963   5.539   1.180
 4936SOL    HW215708   3.844   5.617   1.098
 4937SOL     OW15709   0.596   2.628   5.839
 4937SOL    HW115710   0.555   2.693   5.775
 4937SOL    HW215711   0.553   2.636   5.928
 4938SOL     OW15712   3.454   4.493   1.690
 4938SOL    HW115713   3.474   4.553   1.767
 4938SOL    HW215714   3.497   4.529   1.607
 4939SOL     OW15715   1.751   1.975   1.274
 4939SOL    HW115716   1.823   2.042   1.255
 4939SOL    HW215717   1.668   2.002   1.225
 4940SOL     OW15718   0.261   2.931   4.177
 4940SOL    HW115719   0.267   2.862   4.106
 4940SOL    HW215720   0.347   2.934   4.229
 4941SOL     OW15721   3.901   2.357   5.301
 4941SOL    HW115722   3.835   2.429   5.323
 4941SOL    HW215723   3.990   2.381   5.341
 4942SOL     OW15724   5.837   2.352   3.541
 4942SOL    HW115725   5.801   2.399   3.621
 4942SOL    HW215726   5.857   2.419   3.469
 4943SOL     OW15727   5.751   2.999   6.527
 4943SOL    HW115728   5.760   3.080   6.585
 4943SOL    HW215729   5.655   2.976   6.516
 4944SOL     OW15730   1.581   5.498   1.434
 4944SOL    HW115731   1.606   5.554   1.355
 4944SOL    HW215732   1.664   5.460   1.475
 4945SOL     OW15733   2.102   1.214   5.341
 4945SOL    HW115734   2.071   1.242   5.250
 4945SOL    HW215735   2.176   1.275   5.371
 4946SOL     OW15736   1.787   5.289   0.313
 4946SOL    HW115737   1.808   5.340   0.229
 4946SOL    HW215738   1.873   5.258   0.354
 4947SOL     OW15739   1.700   0.633   1.493
 4947SOL    HW115740   1.751   0.617   1.408
 4947SOL    HW215741   1.752   0.694   1.553
 4948SOL     OW15742   1.733   2.447   1.762
 4948SOL    HW115743   1.787   2.495   1.831
 4948SOL    HW215744   1.773   2.462   1.672
 4949SOL     OW15745   6.811   3.483   6.445
 4949SOL    HW115746   6.770   3.449   6.529
 4949SOL    HW215747   6.797   3.417   6.372
 4950SOL     OW15748   2.209   4.431   5.367
 4950SOL    HW115749   2.268   4.387   5.299
 4950SOL    HW215750   2.115   4.400   5.353
 4951SOL     OW15751   5.475   5.601   3.655
 4951SOL    HW115752   5.437   5.609   3.747
 4951SOL    HW215753   5.419   5.540   3.600
 4952SOL     OW15754   0.681   6.490   5.565
 4952SOL    HW115755   0.656   6.586   5.574
 4952SOL    HW215756   0.759   6.481   5.503
 4953SOL     OW15757   1.555   2.260   5.029
 4953SOL    HW115758   1.486   2.286   4.961
 4953SOL    HW215759   1.606   2.341   5.057
 4954SOL     OW15760   3.019   4.040   4.892
 4954SOL    HW115761   3.008   3.941   4.906
 4954SOL    HW215762   2.934   4.087   4.915
 4955SOL     OW15763   3.037   5.969   0.022
 4955SOL    HW115764   3.048   5.925   6.959
 4955SOL    HW215765   3.126   5.996   0.057
 4956SOL     OW15766   2.336   0.255   4.938
 4956SOL    HW115767   2.370   0.311   5.014
 4956SOL    HW215768   2.405   0.251   4.866
 4957SOL     OW15769   6.455   4.156   0.156
 4957SOL    HW115770   6.524   4.143   0.085
 4957SOL    HW215771   6.388   4.224   0.125
 4958SOL     OW15772   2.648   6.692   0.223
 4958SOL    HW115773   2.556   6.685   0.185
 4958SOL    HW215774   2.645   6.747   0.306
 4959SOL     OW15775   0.505   3.270   1.941
 4959SOL    HW115776   0.546   3.310   2.023
 4959SOL    HW215777   0.568   3.278   1.865
 4960SOL     OW15778   4.063   5.488   4.575
 4960SOL    HW115779   4.069   5.493   4.674
 4960SOL    HW215780   4.140   5.539   4.535
 4961SOL     OW15781   3.459   0.923   0.499
 4961SOL    HW115782   3.516   0.861   0.553
 4961SOL    HW215783   3.485   1.017   0.517
 4962SOL     OW15784   1.013   4.247   1.386
 4962SOL    HW115785   1.002   4.345   1.400
 4962SOL    HW215786   0.987   4.198   1.469
 4963SOL     OW15787   0.991   3.992   6.547
 4963SOL    HW115788   1.065   4.019   6.485
 4963SOL    HW215789   0.905   3.986   6.496
 4964SOL     OW15790   2.766   6.821   4.774
 4964SOL    HW115791   2.800   6.886   4.706
 4964SOL    HW215792   2.831   6.815   4.849
 4965SOL     OW15793   1.264   6.731   2.719
 4965SOL    HW115794   1.227   6.679   2.796
 4965SOL    HW215795   1.362   6.711   2.709
 4966SOL     OW15796   3.559   6.128   4.138
 4966SOL    HW115797   3.658   6.116   4.129
 4966SOL    HW215798   3.515   6.039   4.151
 4967SOL     OW15799   4.090   4.775   5.686
 4967SOL    HW115800   4.162   4.844   5.678
 4967SOL    HW215801   4.029   4.780   5.606
 4968SOL     OW15802   0.204   1.715   4.009
 4968SOL    HW115803   0.154   1.638   4.049
 4968SOL    HW215804   0.288   1.731   4.061
 4969SOL     OW15805   0.452   6.060   2.944
 4969SOL    HW115806   0.384   5.998   2.905
 4969SOL    HW215807   0.406   6.138   2.986
 4970SOL     OW15808   1.570   1.155   1.548
 4970SOL    HW115809   1.560   1.243   1.502
 4970SOL    HW215810   1.666   1.128   1.546
 4971SOL     OW15811   6.336   6.207   2.614
 4971SOL    HW115812   6.373   6.281   2.558
 4971SOL    HW215813   6.379   6.209   2.704
 4972SOL     OW15814   1.731   3.955   1.180
 4972SOL    HW115815   1.682   3.982   1.263
 4972SOL    HW215816   1.709   4.018   1.106
 4973SOL     OW15817   6.956   0.921   0.932
 4973SOL    HW115818   6.978   0.894   1.025
 4973SOL    HW215819   6.907   0.847   0.886
 4974SOL     OW15820   3.721   5.020   5.536
 4974SOL    HW115821   3.722   5.118   5.518
 4974SOL    HW215822   3.804   4.978   5.500
 4975SOL     OW15823   6.196   3.277   0.289
 4975SOL    HW115824   6.203   3.179   0.307
 4975SOL    HW215825   6.188   3.325   0.376
 4976SOL     OW15826   1.571   6.564   4.042
 4976SOL    HW115827   1.531   6.633   3.981
 4976SOL    HW215828   1.519   6.479   4.034
 4977SOL     OW15829   2.539   5.299   6.568
 4977SOL    HW115830   2.627   5.326   6.529
 4977SOL    HW215831   2.496   5.230   6.510
 4978SOL     OW15832   5.276   4.305   5.114
 4978SOL    HW115833   5.325   4.335   5.032
 4978SOL    HW215834   5.252   4.208   5.105
 4979SOL     OW15835   1.704   6.649   6.398
 4979SOL    HW115836   1.674   6.682   6.309
 4979SOL    HW215837   1.624   6.619   6.451
 4980SOL     OW15838   6.323   4.309   2.739
 4980SOL    HW115839   6.225   4.308   2.717
 4980SOL    HW215840   6.350   4.218   2.771
 4981SOL     OW15841   3.557   4.957   1.820
 4981SOL    HW115842   3.464   4.948   1.782
 4981SOL    HW215843   3.577   4.879   1.878
 4982SOL     OW15844   4.371   1.352   6.746
 4982SOL    HW115845   4.368   1.288   6.669
 4982SOL    HW215846   4.279   1.374   6.775
 4983SOL     OW15847   6.982   5.589   3.107
 4983SOL    HW115848   6.997   5.621   3.014
 4983SOL    HW215849   6.942   5.662   3.162
 4984SOL     OW15850   5.019   4.729   2.597
 4984SOL    HW115851   5.109   4.738   2.639
 4984SOL    HW215852   4.980   4.819   2.581
 4985SOL     OW15853   5.713   5.043   3.003
 4985SOL    HW115854   5.802   5.052   3.047
 4985SOL    HW215855   5.696   5.122   2.945
 4986SOL     OW15856   0.921   4.973   2.186
 4986SOL    HW115857   0.986   4.987   2.111
 4986SOL    HW215858   0.938   4.884   2.229
 4987SOL     OW15859   0.987   0.292   2.283
 4987SOL    HW115860   0.899   0.330   2.256
 4987SOL    HW215861   1.060   0.353   2.252
 4988SOL     OW15862   5.730   6.910   3.065
 4988SOL    HW115863   5.703   6.876   3.155
 4988SOL    HW215864   5.719   7.010   3.062
 4989SOL     OW15865   4.457   1.229   2.246
 4989SOL    HW115866   4.499   1.174   2.174
 4989SOL    HW215867   4.494   1.202   2.335
 4990SOL     OW15868   4.682   1.520   5.427
 4990SOL    HW115869   4.703   1.557   5.337
 4990SOL    HW215870   4.750   1.552   5.493
 4991SOL     OW15871   0.668   5.887   4.970
 4991SOL    HW115872   0.637   5.804   5.016
 4991SOL    HW215873   0.648   5.966   5.028
 4992SOL     OW15874   7.011   1.704   3.698
 4992SOL    HW115875   7.005   1.740   3.604
 4992SOL    HW215876   6.984   1.775   3.762
 4993SOL     OW15877   4.486   6.113   4.878
 4993SOL    HW115878   4.491   6.198   4.825
 4993SOL    HW215879   4.390   6.088   4.892
 4994SOL     OW15880   2.933   4.971   5.614
 4994SOL    HW115881   2.902   5.056   5.571
 4994SOL    HW215882   2.900   4.967   5.708
 4995SOL     OW15883   0.301   0.795   4.682
 4995SOL    HW115884   0.317   0.847   4.599
 4995SOL    HW215885   0.362   0.716   4.686
 4996SOL     OW15886   6.796   1.434   4.528
 4996SOL    HW115887   6.733   1.510   4.515
 4996SOL    HW215888   6.771   1.359   4.467
 4997SOL     OW15889   3.124   2.138   1.317
 4997SOL    HW115890   3.113   2.039   1.325
 4997SOL    HW215891   3.208   2.167   1.364
 4998SOL     OW15892   1.159   3.205   4.256
 4998SOL    HW115893   1.093   3.279   4.270
 4998SOL    HW215894   1.251   3.237   4.275
 4999SOL     OW15895   0.904   3.973   4.835
 4999SOL    HW115896   0.991   4.013   4.808
 4999SOL    HW215897   0.880   3.900   4.771
 5000SOL     OW15898   2.910   5.788   3.647
 5000SOL    HW115899   2.904   5.851   3.724
 5000SOL    HW215900   2.826   5.793   3.593
 5001SOL     OW15901   1.232   5.430   2.838
 5001SOL    HW115902   1.272   5.352   2.886
 5001SOL    HW215903   1.160   5.471   2.893
 5002SOL     OW15904   0.789   3.886   2.876
 5002SOL    HW115905   0.779   3.827   2.956
 5002SOL    HW215906   0.699   3.916   2.845
 5003SOL     OW15907   4.287   5.891   3.385
 5003SOL    HW115908   4.202   5.884   3.334
 5003SOL    HW215909   4.293   5.982   3.427
 5004SOL     OW15910   3.162   5.953   6.447
 5004SOL    HW115911   3.245   6.007   6.428
 5004SOL    HW215912   3.139   5.897   6.368
 5005SOL     OW15913   2.791   3.014   6.099
 5005SOL    HW115914   2.702   2.984   6.132
 5005SOL    HW215915   2.857   3.011   6.174
 5006SOL     OW15916   5.517   1.567   1.772
 5006SOL    HW115917   5.522   1.563   1.672
 5006SOL    HW215918   5.423   1.584   1.800
 5007SOL     OW15919   6.129   0.466   1.551
 5007SOL    HW115920   6.047   0.522   1.565
 5007SOL    HW215921   6.174   0.451   1.639
 5008SOL     OW15922   6.363   0.060   1.859
 5008SOL    HW115923   6.277   0.009   1.861
 5008SOL    HW215924   6.430   0.009   1.806
 5009SOL     OW15925   1.070   2.586   0.578
 5009SOL    HW115926   1.095   2.511   0.518
 5009SOL    HW215927   1.010   2.552   0.651
 5010SOL     OW15928   3.538   2.841   0.220
 5010SOL    HW115929   3.566   2.752   0.256
 5010SOL    HW215930   3.619   2.890   0.188
 5011SOL     OW15931   2.099   3.908   6.882
 5011SOL    HW115932   2.162   3.915   6.806
 5011SOL    HW215933   2.083   3.998   6.921
 5012SOL     OW15934   5.865   1.839   5.599
 5012SOL    HW115935   5.782   1.857   5.651
 5012SOL    HW215936   5.918   1.767   5.644
 5013SOL     OW15937   6.439   0.119   5.289
 5013SOL    HW115938   6.492   0.051   5.238
 5013SOL    HW215939   6.405   0.078   5.374
 5014SOL     OW15940   6.680   3.424   1.062
 5014SOL    HW115941   6.730   3.338   1.075
 5014SOL    HW215942   6.699   3.485   1.139
 5015SOL     OW15943   5.900   0.486   4.246
 5015SOL    HW115944   5.888   0.586   4.250
 5015SOL    HW215945   5.893   0.448   4.338
 5016SOL     OW15946   1.075   3.505   4.874
 5016SOL    HW115947   1.015   3.436   4.833
 5016SOL    HW215948   1.077   3.491   4.973
 5017SOL     OW15949   0.605   2.215   1.115
 5017SOL    HW115950   0.607   2.156   1.035
 5017SOL    HW215951   0.567   2.304   1.090
 5018SOL     OW15952   0.546   5.034   1.777
 5018SOL    HW115953   0.482   5.102   1.813
 5018SOL    HW215954   0.529   4.946   1.820
 5019SOL     OW15955   1.683   5.646   5.174
 5019SOL    HW115956   1.632   5.633   5.258
 5019SOL    HW215957   1.722   5.559   5.144
 5020SOL     OW15958   0.245   6.856   4.731
 5020SOL    HW115959   0.231   6.763   4.698
 5020SOL    HW215960   0.260   6.918   4.654
 5021SOL     OW15961   2.028   0.869   0.978
 5021SOL    HW115962   1.980   0.875   0.890
 5021SOL    HW215963   2.112   0.922   0.974
 5022SOL     OW15964   0.522   2.921   1.349
 5022SOL    HW115965   0.532   2.916   1.448
 5022SOL    HW215966   0.608   2.896   1.305
 5023SOL     OW15967   0.739   4.029   1.786
 5023SOL    HW115968   0.657   4.072   1.825
 5023SOL    HW215969   0.818   4.048   1.845
 5024SOL     OW15970   5.397   3.621   1.344
 5024SOL    HW115971   5.331   3.610   1.269
 5024SOL    HW215972   5.480   3.571   1.323
 5025SOL     OW15973   4.104   1.911   4.001
 5025SOL    HW115974   4.161   1.975   4.052
 5025SOL    HW215975   4.013   1.951   3.987
 5026SOL     OW15976   5.986   5.805   5.195
 5026SOL    HW115977   6.062   5.809   5.131
 5026SOL    HW215978   5.994   5.722   5.251
 5027SOL     OW15979   4.683   0.689   0.355
 5027SOL    HW115980   4.588   0.685   0.384
 5027SOL    HW215981   4.730   0.604   0.382
 5028SOL     OW15982   7.008   2.416   2.666
 5028SOL    HW115983   0.075   2.452   2.660
 5028SOL    HW215984   6.945   2.489   2.693
 5029SOL     OW15985   6.536   2.360   2.010
 5029SOL    HW115986   6.442   2.378   2.041
 5029SOL    HW215987   6.597   2.354   2.090
 5030SOL     OW15988   6.958   5.321   6.441
 5030SOL    HW115989   6.993   5.257   6.509
 5030SOL    HW215990   6.948   5.412   6.481
 5031SOL     OW15991   7.014   1.123   5.132
 5031SOL    HW115992   6.933   1.081   5.173
 5031SOL    HW215993   0.055   1.141   5.204
 5032SOL     OW15994   3.428   2.674   5.589
 5032SOL    HW115995   3.432   2.589   5.536
 5032SOL    HW215996   3.510   2.728   5.570
 5033SOL     OW15997   2.136   1.417   0.757
 5033SOL    HW115998   2.175   1.472   0.831
 5033SOL    HW215999   2.065   1.357   0.794
 5034SOL     OW16000   4.302   6.308   4.254
 5034SOL    HW116001   4.318   6.229   4.195
 5034SOL    HW216002   4.206   6.307   4.284
 5035SOL     OW16003   0.244   4.753   4.673
 5035SOL    HW116004   0.182   4.737   4.750
 5035SOL    HW216005   0.290   4.668   4.648
 5036SOL     OW16006   6.622   3.690   5.317
 5036SOL    HW116007   6.688   3.728   5.253
 5036SOL    HW216008   6.531   3.725   5.295
 5037SOL     OW16009   3.951   4.585   1.413
 5037SOL    HW116010   4.020   4.532   1.462
 5037SOL    HW216011   3.879   4.524   1.380
 5038SOL     OW16012   3.365   3.579   4.424
 5038SOL    HW116013   3.456   3.591   4.464
 5038SOL    HW216014   3.362   3.492   4.375
 5039SOL     OW16015   1.955   3.381   6.223
 5039SOL    HW116016   2.050   3.408   6.241
 5039SOL    HW216017   1.943   3.366   6.125
 5040SOL     OW16018   1.353   5.087   5.302
 5040SOL    HW116019   1.390   5.135   5.381
 5040SOL    HW216020   1.341   5.152   5.227
 5041SOL     OW16021   0.666   3.317   1.707
 5041SOL    HW116022   0.755   3.331   1.663
 5041SOL    HW216023   0.601   3.383   1.671
 5042SOL     OW16024   0.138   4.195   6.267
 5042SOL    HW116025   0.113   4.289   6.293
 5042SOL    HW216026   0.080   4.166   6.191
 5043SOL     OW16027   3.861   0.818   0.668
 5043SOL    HW116028   3.914   0.902   0.671
 5043SOL    HW216029   3.827   0.797   0.760
 5044SOL     OW16030   6.951   5.750   0.444
 5044SOL    HW116031   6.885   5.703   0.503
 5044SOL    HW216032   6.935   5.849   0.449
 5045SOL     OW16033   6.142   4.266   6.319
 5045SOL    HW116034   6.128   4.348   6.264
 5045SOL    HW216035   6.210   4.285   6.390
 5046SOL     OW16036   3.455   3.833   4.287
 5046SOL    HW116037   3.368   3.880   4.299
 5046SOL    HW216038   3.468   3.767   4.362
 5047SOL     OW16039   1.880   3.337   3.037
 5047SOL    HW116040   1.815   3.302   2.970
 5047SOL    HW216041   1.966   3.360   2.991
 5048SOL     OW16042   1.856   1.081   5.166
 5048SOL    HW116043   1.834   0.983   5.172
 5048SOL    HW216044   1.785   1.133   5.213
 5049SOL     OW16045   6.217   0.565   5.983
 5049SOL    HW116046   6.181   0.643   6.035
 5049SOL    HW216047   6.288   0.519   6.036
 5050SOL     OW16048   1.780   1.302   6.798
 5050SOL    HW116049   1.820   1.272   6.712
 5050SOL    HW216050   1.852   1.333   6.860
 5051SOL     OW16051   3.627   4.640   1.472
 5051SOL    HW116052   3.689   4.647   1.551
 5051SOL    HW216053   3.620   4.728   1.427
 5052SOL     OW16054   3.391   2.042   5.602
 5052SOL    HW116055   3.336   2.099   5.541
 5052SOL    HW216056   3.383   1.946   5.574
 5053SOL     OW16057   0.767   5.031   2.770
 5053SOL    HW116058   0.707   4.951   2.775
 5053SOL    HW216059   0.859   5.002   2.743
 5054SOL     OW16060   3.644   4.537   5.425
 5054SOL    HW116061   3.730   4.502   5.387
 5054SOL    HW216062   3.578   4.463   5.435
 5055SOL     OW16063   0.251   3.418   5.993
 5055SOL    HW116064   0.282   3.507   5.959
 5055SOL    HW216065   0.234   3.357   5.916
 5056SOL     OW16066   5.367   3.868   4.968
 5056SOL    HW116067   5.310   3.788   4.986
 5056SOL    HW216068   5.454   3.838   4.929
 5057SOL     OW16069   1.122   0.066   2.213
 5057SOL    HW116070   1.081   7.009   2.252
 5057SOL    HW216071   1.064   0.144   2.233
 5058SOL     OW16072   3.357   5.058   6.588
 5058SOL    HW116073   3.371   5.027   6.682
 5058SOL    HW216074   3.444   5.056   6.539
 5059SOL     OW16075   6.674   0.047   2.914
 5059SOL    HW116076   6.665   6.976   2.888
 5059SOL    HW216077   6.768   0.078   2.895
 5060SOL     OW16078   6.587   2.059   6.209
 5060SOL    HW116079   6.515   2.110   6.256
 5060SOL    HW216080   6.574   1.961   6.223
 5061SOL     OW16081   4.654   2.954   0.128
 5061SOL    HW116082   4.581   3.009   0.088
 5061SOL    HW216083   4.629   2.929   0.222
 5062SOL     OW16084   0.673   0.108   1.749
 5062SOL    HW116085   0.600   0.167   1.784
 5062SOL    HW216086   0.760   0.135   1.791
 5063SOL     OW16087   0.561   6.695   1.842
 5063SOL    HW116088   0.531   6.768   1.904
 5063SOL    HW216089   0.630   6.731   1.779
 5064SOL     OW16090   4.789   3.213   0.600
 5064SOL    HW116091   4.786   3.116   0.574
 5064SOL    HW216092   4.730   3.228   0.680
 5065SOL     OW16093   2.962   0.239   5.553
 5065SOL    HW116094   2.966   0.149   5.595
 5065SOL    HW216095   3.029   0.245   5.479
 5066SOL     OW16096   5.708   4.110   1.716
 5066SOL    HW116097   5.785   4.146   1.768
 5066SOL    HW216098   5.647   4.186   1.690
 5067SOL     OW16099   5.330   1.274   6.980
 5067SOL    HW116100   5.373   1.212   6.914
 5067SOL    HW216101   5.368   1.257   0.045
 5068SOL     OW16102   2.917   4.541   0.820
 5068SOL    HW116103   2.844   4.603   0.792
 5068SOL    HW216104   2.986   4.592   0.871
 5069SOL     OW16105   0.997   4.506   2.995
 5069SOL    HW116106   1.050   4.433   2.952
 5069SOL    HW216107   0.904   4.507   2.957
 5070SOL     OW16108   5.198   3.558   4.081
 5070SOL    HW116109   5.244   3.470   4.072
 5070SOL    HW216110   5.102   3.549   4.055
 5071SOL     OW16111   4.243   1.961   5.063
 5071SOL    HW116112   4.286   1.872   5.075
 5071SOL    HW216113   4.165   1.970   5.125
 5072SOL     OW16114   0.118   4.867   0.984
 5072SOL    HW116115   0.076   4.949   1.023
 5072SOL    HW216116   0.064   4.835   0.906
 5073SOL     OW16117   6.668   0.175   2.222
 5073SOL    HW116118   6.753   0.147   2.178
 5073SOL    HW216119   6.605   0.098   2.226
 5074SOL     OW16120   3.231   4.244   6.875
 5074SOL    HW116121   3.203   4.157   6.835
 5074SOL    HW216122   3.331   4.244   6.888
 5075SOL     OW16123   0.223   6.722   5.483
 5075SOL    HW116124   0.231   6.814   5.523
 5075SOL    HW216125   0.242   6.726   5.385
 5076SOL     OW16126   3.136   0.389   0.529
 5076SOL    HW116127   3.150   0.346   0.440
 5076SOL    HW216128   3.160   0.325   0.601
 5077SOL     OW16129   1.244   2.367   3.794
 5077SOL    HW116130   1.245   2.268   3.776
 5077SOL    HW216131   1.212   2.415   3.712
 5078SOL     OW16132   1.588   1.935   3.981
 5078SOL    HW116133   1.569   2.033   3.974
 5078SOL    HW216134   1.641   1.917   4.064
 5079SOL     OW16135   3.016   4.962   5.996
 5079SOL    HW116136   3.109   4.938   5.968
 5079SOL    HW216137   2.962   4.984   5.914
 5080SOL     OW16138   5.982   6.711   5.367
 5080SOL    HW116139   5.973   6.648   5.444
 5080SOL    HW216140   5.916   6.786   5.378
 5081SOL     OW16141   3.284   3.549   3.498
 5081SOL    HW116142   3.265   3.574   3.404
 5081SOL    HW216143   3.378   3.517   3.506
 5082SOL     OW16144   5.332   5.851   5.727
 5082SOL    HW116145   5.316   5.753   5.718
 5082SOL    HW216146   5.271   5.888   5.797
 5083SOL     OW16147   1.616   6.612   1.990
 5083SOL    HW116148   1.532   6.645   1.947
 5083SOL    HW216149   1.689   6.606   1.922
 5084SOL     OW16150   1.058   5.273   3.576
 5084SOL    HW116151   0.977   5.214   3.578
 5084SOL    HW216152   1.096   5.280   3.669
 5085SOL     OW16153   5.556   1.149   6.615
 5085SOL    HW116154   5.611   1.094   6.553
 5085SOL    HW216155   5.464   1.160   6.578
 5086SOL     OW16156   6.661   4.944   3.336
 5086SOL    HW116157   6.756   4.973   3.325
 5086SOL    HW216158   6.657   4.860   3.390
 5087SOL     OW16159   6.595   5.662   4.706
 5087SOL    HW116160   6.597   5.633   4.802
 5087SOL    HW216161   6.630   5.755   4.699
 5088SOL     OW16162   6.554   0.741   5.911
 5088SOL    HW116163   6.624   0.772   5.976
 5088SOL    HW216164   6.463   0.763   5.946
 5089SOL     OW16165   6.247   3.049   2.503
 5089SOL    HW116166   6.300   3.019   2.582
 5089SOL    HW216167   6.273   3.142   2.478
 5090SOL     OW16168   2.187   5.006   1.083
 5090SOL    HW116169   2.094   5.012   1.119
 5090SOL    HW216170   2.249   4.976   1.155
 5091SOL     OW16171   1.161   6.135   2.742
 5091SOL    HW116172   1.107   6.143   2.658
 5091SOL    HW216173   1.101   6.117   2.820
 5092SOL     OW16174   3.533   2.039   0.910
 5092SOL    HW116175   3.632   2.053   0.905
 5092SOL    HW216176   3.487   2.113   0.860
 5093SOL     OW16177   1.191   1.887   1.964
 5093SOL    HW116178   1.262   1.816   1.964
 5093SOL    HW216179   1.145   1.887   2.053
 5094SOL     OW16180   1.352   6.269   5.382
 5094SOL    HW116181   1.336   6.353   5.330
 5094SOL    HW216182   1.276   6.206   5.369
 5095SOL     OW16183   2.066   0.366   4.566
 5095SOL    HW116184   2.011   0.450   4.571
 5095SOL    HW216185   2.032   0.309   4.492
 5096SOL     OW16186   4.918   3.548   0.785
 5096SOL    HW116187   4.936   3.642   0.815
 5096SOL    HW216188   4.922   3.543   0.685
 5097SOL     OW16189   1.777   0.088   5.637
 5097SOL    HW116190   1.868   0.089   5.597
 5097SOL    HW216191   1.762   0.171   5.690
 5098SOL     OW16192   0.681   1.295   2.413
 5098SOL    HW116193   0.594   1.320   2.370
 5098SOL    HW216194   0.703   1.200   2.392
 5099SOL     OW16195   0.971   0.118   5.221
 5099SOL    HW116196   0.991   0.125   5.319
 5099SOL    HW216197   1.029   0.047   5.181
 5100SOL     OW16198   5.806   6.497   6.782
 5100SOL    HW116199   5.707   6.507   6.768
 5100SOL    HW216200   5.846   6.586   6.802
 5101SOL     OW16201   4.277   6.529   0.002
 5101SOL    HW116202   4.319   6.616   7.003
 5101SOL    HW216203   4.339   6.454   7.007
 5102SOL     OW16204   5.160   0.542   5.613
 5102SOL    HW116205   5.138   0.520   5.708
 5102SOL    HW216206   5.094   0.608   5.578
 5103SOL     OW16207   0.388   1.133   3.820
 5103SOL    HW116208   0.353   1.095   3.905
 5103SOL    HW216209   0.342   1.220   3.800
 5104SOL     OW16210   1.945   0.952   1.779
 5104SOL    HW116211   1.894   1.036   1.759
 5104SOL    HW216212   1.934   0.928   1.875
 5105SOL     OW16213   3.825   4.218   6.548
 5105SOL    HW116214   3.923   4.199   6.547
 5105SOL    HW216215   3.799   4.266   6.464
 5106SOL     OW16216   3.155   0.178   2.728
 5106SOL    HW116217   3.162   0.086   2.766
 5106SOL    HW216218   3.099   0.235   2.788
 5107SOL     OW16219   2.825   7.000   6.445
 5107SOL    HW116220   2.914   6.959   6.465
 5107SOL    HW216221   2.838   0.067   6.410
 5108SOL     OW16222   3.025   3.645   3.931
 5108SOL    HW116223   2.980   3.729   3.902
 5108SOL    HW216224   3.091   3.665   4.003
 5109SOL     OW16225   0.477   0.914   1.044
 5109SOL    HW116226   0.445   0.991   0.989
 5109SOL    HW216227   0.547   0.946   1.108
 5110SOL     OW16228   1.634   6.428   5.413
 5110SOL    HW116229   1.565   6.469   5.473
 5110SOL    HW216230   1.592   6.353   5.360
 5111SOL     OW16231   1.462   1.438   6.388
 5111SOL    HW116232   1.526   1.485   6.327
 5111SOL    HW216233   1.386   1.401   6.335
 5112SOL     OW16234   0.566   6.316   3.878
 5112SOL    HW116235   0.503   6.390   3.901
 5112SOL    HW216236   0.516   6.230   3.872
 5113SOL     OW16237   1.116   0.800   6.970
 5113SOL    HW116238   1.170   0.884   6.962
 5113SOL    HW216239   1.177   0.721   6.972
 5114SOL     OW16240   3.556   4.999   0.080
 5114SOL    HW116241   3.600   4.909   0.083
 5114SOL    HW216242   3.495   5.009   0.159
 5115SOL     OW16243   1.453   3.846   5.942
 5115SOL    HW116244   1.457   3.804   6.033
 5115SOL    HW216245   1.414   3.781   5.878
 5116SOL     OW16246   5.929   4.780   0.349
 5116SOL    HW116247   5.835   4.814   0.348
 5116SOL    HW216248   5.929   4.682   0.332
 5117SOL     OW16249   2.587   4.570   4.409
 5117SOL    HW116250   2.663   4.508   4.427
 5117SOL    HW216251   2.502   4.529   4.442
 5118SOL     OW16252   4.536   5.730   0.239
 5118SOL    HW116253   4.437   5.742   0.239
 5118SOL    HW216254   4.560   5.648   0.186
 5119SOL     OW16255   5.811   1.020   2.410
 5119SOL    HW116256   5.873   1.033   2.333
 5119SOL    HW216257   5.848   0.949   2.470
 5120SOL     OW16258   5.283   1.307   2.687
 5120SOL    HW116259   5.185   1.324   2.696
 5120SOL    HW216260   5.303   1.213   2.714
 5121SOL     OW16261   0.396   3.402   5.648
 5121SOL    HW116262   0.496   3.401   5.656
 5121SOL    HW216263   0.365   3.495   5.628
 5122SOL     OW16264   2.225   0.071   3.149
 5122SOL    HW116265   2.294   0.129   3.193
 5122SOL    HW216266   2.191   0.004   3.214
 5123SOL     OW16267   4.674   4.406   2.715
 5123SOL    HW116268   4.682   4.311   2.746
 5123SOL    HW216269   4.665   4.466   2.794
 5124SOL     OW16270   3.301   6.451   0.036
 5124SOL    HW116271   3.363   6.529   0.040
 5124SOL    HW216272   3.327   6.384   0.107
 5125SOL     OW16273   0.080   3.370   4.061
 5125SOL    HW116274   0.113   3.412   3.977
 5125SOL    HW216275   0.064   3.272   4.046
 5126SOL     OW16276   6.155   4.853   5.934
 5126SOL    HW116277   6.064   4.813   5.937
 5126SOL    HW216278   6.224   4.781   5.922
 5127SOL     OW16279   5.302   3.130   6.904
 5127SOL    HW116280   5.210   3.093   6.916
 5127SOL    HW216281   5.301   3.228   6.924
 5128SOL     OW16282   0.515   0.817   6.478
 5128SOL    HW116283   0.456   0.777   6.408
 5128SOL    HW216284   0.459   0.860   6.548
 5129SOL     OW16285   4.693   1.392   2.185
 5129SOL    HW116286   4.750   1.362   2.109
 5129SOL    HW216287   4.601   1.355   2.174
 5130SOL     OW16288   1.077   4.832   4.261
 5130SOL    HW116289   1.056   4.750   4.207
 5130SOL    HW216290   1.125   4.805   4.344
 5131SOL     OW16291   3.178   4.924   3.334
 5131SOL    HW116292   3.225   4.963   3.254
 5131SOL    HW216293   3.085   4.899   3.309
 5132SOL     OW16294   3.407   1.708   6.894
 5132SOL    HW116295   3.403   1.644   6.817
 5132SOL    HW216296   3.318   1.711   6.940
 5133SOL     OW16297   4.119   4.896   6.247
 5133SOL    HW116298   4.055   4.951   6.300
 5133SOL    HW216299   4.199   4.875   6.303
 5134SOL     OW16300   6.795   6.817   1.263
 5134SOL    HW116301   6.720   6.753   1.275
 5134SOL    HW216302   6.778   6.900   1.316
 5135SOL     OW16303   6.390   3.053   2.187
 5135SOL    HW116304   6.328   3.123   2.224
 5135SOL    HW216305   6.342   2.966   2.183
 5136SOL     OW16306   0.587   0.818   5.983
 5136SOL    HW116307   0.663   0.765   5.944
 5136SOL    HW216308   0.509   0.758   5.999
 5137SOL     OW16309   5.402   1.779   5.265
 5137SOL    HW116310   5.327   1.830   5.306
 5137SOL    HW216311   5.369   1.690   5.233
 5138SOL     OW16312   3.375   3.330   4.301
 5138SOL    HW116313   3.346   3.248   4.252
 5138SOL    HW216314   3.455   3.310   4.358
 5139SOL     OW16315   1.566   0.347   4.757
 5139SOL    HW116316   1.619   0.422   4.797
 5139SOL    HW216317   1.486   0.330   4.814
 5140SOL     OW16318   4.268   2.430   6.135
 5140SOL    HW116319   4.182   2.464   6.097
 5140SOL    HW216320   4.262   2.429   6.235
 5141SOL     OW16321   6.652   2.784   2.036
 5141SOL    HW116322   6.730   2.836   2.070
 5141SOL    HW216323   6.593   2.758   2.112
 5142SOL     OW16324   6.769   0.089   3.170
 5142SOL    HW116325   6.728   0.069   3.081
 5142SOL    HW216326   6.742   0.180   3.199
 5143SOL     OW16327   0.598   5.109   4.443
 5143SOL    HW116328   0.504   5.097   4.412
 5143SOL    HW216329   0.624   5.033   4.503
 5144SOL     OW16330   1.825   3.651   6.259
 5144SOL    HW116331   1.834   3.700   6.172
 5144SOL    HW216332   1.871   3.562   6.253
 5145SOL     OW16333   2.562   6.193   6.731
 5145SOL    HW116334   2.527   6.276   6.688
 5145SOL    HW216335   2.586   6.213   6.826
 5146SOL     OW16336   5.414   4.900   6.155
 5146SOL    HW116337   5.454   4.990   6.169
 5146SOL    HW216338   5.370   4.869   6.239
 5147SOL     OW16339   4.679   2.792   3.394
 5147SOL    HW116340   4.592   2.834   3.370
 5147SOL    HW216341   4.669   2.693   3.397
 5148SOL     OW16342   0.633   6.783   1.369
 5148SOL    HW116343   0.654   6.876   1.398
 5148SOL    HW216344   0.608   6.728   1.449
 5149SOL     OW16345   5.463   4.354   3.182
 5149SOL    HW116346   5.487   4.451   3.179
 5149SOL    HW216347   5.498   4.309   3.100
 5150SOL     OW16348   0.811   5.715   3.928
 5150SOL    HW116349   0.726   5.761   3.905
 5150SOL    HW216350   0.811   5.623   3.890
 5151SOL     OW16351   6.067   4.721   1.404
 5151SOL    HW116352   6.103   4.762   1.319
 5151SOL    HW216353   6.022   4.792   1.458
 5152SOL     OW16354   1.231   1.071   6.263
 5152SOL    HW116355   1.313   1.014   6.255
 5152SOL    HW216356   1.206   1.106   6.172
 5153SOL     OW16357   1.342   1.937   0.798
 5153SOL    HW116358   1.334   1.862   0.733
 5153SOL    HW216359   1.256   1.988   0.802
 5154SOL     OW16360   0.257   2.495   6.729
 5154SOL    HW116361   0.341   2.507   6.781
 5154SOL    HW216362   0.187   2.557   6.763
 5155SOL     OW16363   1.820   1.410   0.567
 5155SOL    HW116364   1.781   1.480   0.628
 5155SOL    HW216365   1.778   1.418   0.477
 5156SOL     OW16366   5.452   5.103   5.692
 5156SOL    HW116367   5.385   5.116   5.619
 5156SOL    HW216368   5.457   5.185   5.749
 5157SOL     OW16369   4.421   0.431   1.965
 5157SOL    HW116370   4.342   0.421   2.024
 5157SOL    HW216371   4.391   0.451   1.871
 5158SOL     OW16372   3.209   1.664   2.567
 5158SOL    HW116373   3.287   1.706   2.614
 5158SOL    HW216374   3.221   1.565   2.564
 5159SOL     OW16375   5.912   3.322   5.728
 5159SOL    HW116376   5.855   3.245   5.700
 5159SOL    HW216377   6.009   3.298   5.715
 5160SOL     OW16378   6.463   6.173   3.233
 5160SOL    HW116379   6.471   6.077   3.208
 5160SOL    HW216380   6.467   6.182   3.333
 5161SOL     OW16381   0.939   3.076   0.365
 5161SOL    HW116382   0.902   3.099   0.456
 5161SOL    HW216383   1.036   3.053   0.374
 5162SOL     OW16384   6.851   6.317   2.922
 5162SOL    HW116385   6.775   6.323   2.987
 5162SOL    HW216386   6.876   6.409   2.892
 5163SOL     OW16387   3.084   6.676   2.348
 5163SOL    HW116388   3.096   6.760   2.401
 5163SOL    HW216389   2.989   6.670   2.316
 5164SOL     OW16390   3.266   3.734   1.002
 5164SOL    HW116391   3.172   3.702   1.013
 5164SOL    HW216392   3.327   3.678   1.058
 5165SOL     OW16393   1.205   4.605   6.997
 5165SOL    HW116394   1.165   4.538   6.935
 5165SOL    HW216395   1.298   4.628   6.968
 5166SOL     OW16396   1.386   5.486   1.630
 5166SOL    HW116397   1.322   5.551   1.588
 5166SOL    HW216398   1.471   5.485   1.579
 5167SOL     OW16399   4.778   2.449   5.053
 5167SOL    HW116400   4.862   2.492   5.086
 5167SOL    HW216401   4.746   2.498   4.971
 5168SOL     OW16402   4.361   2.278   2.335
 5168SOL    HW116403   4.440   2.334   2.361
 5168SOL    HW216404   4.374   2.185   2.367
 5169SOL     OW16405   3.972   0.019   3.334
 5169SOL    HW116406   4.003   6.959   3.293
 5169SOL    HW216407   3.879   0.008   3.369
 5170SOL     OW16408   1.035   2.874   6.475
 5170SOL    HW116409   0.990   2.954   6.435
 5170SOL    HW216410   1.005   2.863   6.571
 5171SOL     OW16411   2.023   5.981   5.020
 5171SOL    HW116412   1.966   5.944   5.093
 5171SOL    HW216413   1.974   6.052   4.971
 5172SOL     OW16414   0.157   5.534   3.519
 5172SOL    HW116415   0.218   5.474   3.570
 5172SOL    HW216416   0.067   5.535   3.561
 5173SOL     OW16417   5.004   3.968   5.772
 5173SOL    HW116418   4.975   3.968   5.868
 5173SOL    HW216419   4.925   3.956   5.713
 5174SOL     OW16420   2.809   6.312   3.146
 5174SOL    HW116421   2.750   6.245   3.103
 5174SOL    HW216422   2.786   6.319   3.243
 5175SOL     OW16423   2.813   4.356   0.005
 5175SOL    HW116424   2.793   4.439   0.057
 5175SOL    HW216425   2.803   4.374   6.933
 5176SOL     OW16426   5.440   5.454   0.558
 5176SOL    HW116427   5.439   5.439   0.656
 5176SOL    HW216428   5.472   5.372   0.511
 5177SOL     OW16429   5.128   1.022   0.115
 5177SOL    HW116430   5.062   0.968   0.168
 5177SOL    HW216431   5.220   1.005   0.148
 5178SOL     OW16432   1.119   3.740   1.906
 5178SOL    HW116433   1.197   3.720   1.846
 5178SOL    HW216434   1.034   3.719   1.857
 5179SOL     OW16435   6.405   4.547   2.870
 5179SOL    HW116436   6.370   4.464   2.827
 5179SOL    HW216437   6.356   4.563   2.956
 5180SOL     OW16438   2.429   6.968   1.836
 5180SOL    HW116439   2.399   6.875   1.811
 5180SOL    HW216440   2.505   6.995   1.776
 5181SOL     OW16441   0.607   0.157   5.958
 5181SOL    HW116442   0.705   0.152   5.978
 5181SOL    HW216443   0.555   0.154   6.044
 5182SOL     OW16444   4.227   5.532   3.114
 5182SOL    HW116445   4.143   5.480   3.127
 5182SOL    HW216446   4.285   5.523   3.195
 5183SOL     OW16447   4.100   1.960   3.723
 5183SOL    HW116448   4.111   1.942   3.821
 5183SOL    HW216449   4.023   2.022   3.709
 5184SOL     OW16450   2.442   0.868   4.164
 5184SOL    HW116451   2.457   0.913   4.252
 5184SOL    HW216452   2.348   0.835   4.159
 5185SOL     OW16453   6.036   1.158   1.855
 5185SOL    HW116454   6.071   1.066   1.839
 5185SOL    HW216455   6.112   1.219   1.878
 5186SOL     OW16456   7.001   3.507   6.011
 5186SOL    HW116457   0.072   3.483   6.017
 5186SOL    HW216458   6.977   3.569   6.086
 5187SOL     OW16459   1.978   4.829   5.243
 5187SOL    HW116460   1.991   4.891   5.166
 5187SOL    HW216461   2.067   4.806   5.283
 5188SOL     OW16462   6.665   6.832   2.376
 5188SOL    HW116463   6.668   6.839   2.276
 5188SOL    HW216464   6.746   6.875   2.415
 5189SOL     OW16465   5.386   0.347   6.097
 5189SOL    HW116466   5.383   0.353   5.998
 5189SOL    HW216467   5.292   0.343   6.133
 5190SOL     OW16468   1.731   3.581   1.520
 5190SOL    HW116469   1.647   3.632   1.501
 5190SOL    HW216470   1.804   3.612   1.459
 5191SOL     OW16471   3.335   5.311   2.397
 5191SOL    HW116472   3.387   5.390   2.431
 5191SOL    HW216473   3.388   5.227   2.412
 5192SOL     OW16474   2.476   4.982   2.426
 5192SOL    HW116475   2.389   5.014   2.386
 5192SOL    HW216476   2.538   4.956   2.353
 5193SOL     OW16477   6.156   0.881   6.554
 5193SOL    HW116478   6.120   0.799   6.510
 5193SOL    HW216479   6.241   0.860   6.602
 5194SOL     OW16480   4.394   2.326   6.791
 5194SOL    HW116481   4.385   2.419   6.756
 5194SOL    HW216482   4.448   2.328   6.876
 5195SOL     OW16483   6.540   0.833   4.648
 5195SOL    HW116484   6.467   0.818   4.715
 5195SOL    HW216485   6.617   0.773   4.669
 5196SOL     OW16486   5.368   6.101   2.948
 5196SOL    HW116487   5.272   6.120   2.931
 5196SOL    HW216488   5.418   6.097   2.861
 5197SOL     OW16489   1.347   4.335   5.910
 5197SOL    HW116490   1.289   4.363   5.834
 5197SOL    HW216491   1.349   4.235   5.915
 5198SOL     OW16492   5.496   5.736   2.791
 5198SOL    HW116493   5.442   5.705   2.713
 5198SOL    HW216494   5.549   5.817   2.764
 5199SOL     OW16495   6.591   5.037   1.200
 5199SOL    HW116496   6.636   5.008   1.285
 5199SOL    HW216497   6.493   5.019   1.206
 5200SOL     OW16498   0.378   3.687   5.357
 5200SOL    HW116499   0.279   3.690   5.342
 5200SOL    HW216500   0.396   3.689   5.456
 5201SOL     OW16501   1.604   5.193   4.040
 5201SOL    HW116502   1.656   5.147   4.112
 5201SOL    HW216503   1.630   5.289   4.036
 5202SOL     OW16504   6.597   3.720   0.499
 5202SOL    HW116505   6.625   3.749   0.590
 5202SOL    HW216506   6.624   3.790   0.432
 5203SOL     OW16507   0.974   2.229   6.726
 5203SOL    HW116508   1.019   2.162   6.668
 5203SOL    HW216509   1.020   2.318   6.716
 5204SOL     OW16510   4.189   4.950   0.063
 5204SOL    HW116511   4.111   4.911   0.113
 5204SOL    HW216512   4.240   4.876   0.019
 5205SOL     OW16513   1.728   0.133   1.543
 5205SOL    HW116514   1.769   0.193   1.474
 5205SOL    HW216515   1.758   0.162   1.634
 5206SOL     OW16516   0.386   4.211   6.894
 5206SOL    HW116517   0.323   4.173   6.962
 5206SOL    HW216518   0.433   4.137   6.846
 5207SOL     OW16519   1.182   5.148   4.062
 5207SOL    HW116520   1.249   5.079   4.033
 5207SOL    HW216521   1.228   5.236   4.070
 5208SOL     OW16522   3.608   0.761   0.214
 5208SOL    HW116523   3.648   0.838   0.265
 5208SOL    HW216524   3.635   0.675   0.257
 5209SOL     OW16525   6.087   5.859   3.579
 5209SOL    HW116526   6.018   5.873   3.651
 5209SOL    HW216527   6.129   5.769   3.590
 5210SOL     OW16528   5.003   4.326   3.997
 5210SOL    HW116529   5.069   4.398   3.977
 5210SOL    HW216530   4.918   4.344   3.947
 5211SOL     OW16531   3.199   3.019   3.671
 5211SOL    HW116532   3.182   3.089   3.601
 5211SOL    HW216533   3.239   2.938   3.629
 5212SOL     OW16534   0.493   2.272   0.747
 5212SOL    HW116535   0.518   2.230   0.659
 5212SOL    HW216536   0.554   2.349   0.765
 5213SOL     OW16537   5.033   2.615   5.606
 5213SOL    HW116538   5.005   2.534   5.554
 5213SOL    HW216539   4.959   2.641   5.668
 5214SOL     OW16540   5.706   1.546   5.679
 5214SOL    HW116541   5.746   1.458   5.703
 5214SOL    HW216542   5.630   1.566   5.742
 5215SOL     OW16543   4.914   4.754   3.322
 5215SOL    HW116544   5.012   4.763   3.340
 5215SOL    HW216545   4.882   4.835   3.272
 5216SOL     OW16546   4.988   4.802   0.919
 5216SOL    HW116547   5.002   4.823   1.016
 5216SOL    HW216548   4.890   4.810   0.898
 5217SOL     OW16549   3.352   5.326   3.924
 5217SOL    HW116550   3.363   5.323   4.023
 5217SOL    HW216551   3.349   5.422   3.894
 5218SOL     OW16552   1.497   6.525   3.610
 5218SOL    HW116553   1.559   6.596   3.575
 5218SOL    HW216554   1.478   6.542   3.707
 5219SOL     OW16555   3.371   6.796   6.671
 5219SOL    HW116556   3.329   6.705   6.662
 5219SOL    HW216557   3.314   6.853   6.730
 5220SOL     OW16558   0.449   5.860   2.404
 5220SOL    HW116559   0.412   5.939   2.355
 5220SOL    HW216560   0.485   5.794   2.338
 5221SOL     OW16561   5.494   1.194   4.477
 5221SOL    HW116562   5.472   1.265   4.543
 5221SOL    HW216563   5.420   1.187   4.409
 5222SOL     OW16564   1.650   0.354   3.428
 5222SOL    HW116565   1.732   0.411   3.416
 5222SOL    HW216566   1.651   0.281   3.360
 5223SOL     OW16567   5.043   0.725   1.477
 5223SOL    HW116568   5.104   0.692   1.405
 5223SOL    HW216569   4.955   0.677   1.470
 5224SOL     OW16570   6.647   1.896   2.526
 5224SOL    HW116571   6.676   1.849   2.610
 5224SOL    HW216572   6.559   1.940   2.541
 5225SOL     OW16573   6.408   6.324   4.304
 5225SOL    HW116574   6.391   6.423   4.305
 5225SOL    HW216575   6.370   6.283   4.386
 5226SOL     OW16576   0.812   6.339   3.946
 5226SOL    HW116577   0.858   6.363   3.861
 5226SOL    HW216578   0.714   6.325   3.929
 5227SOL     OW16579   6.418   4.995   3.568
 5227SOL    HW116580   6.337   5.008   3.511
 5227SOL    HW216581   6.479   5.073   3.556
 5228SOL     OW16582   5.577   1.684   0.790
 5228SOL    HW116583   5.603   1.623   0.864
 5228SOL    HW216584   5.478   1.676   0.773
 5229SOL     OW16585   1.426   3.795   6.225
 5229SOL    HW116586   1.343   3.843   6.195
 5229SOL    HW216587   1.465   3.841   6.305
 5230SOL     OW16588   0.067   0.330   0.614
 5230SOL    HW116589   0.154   0.327   0.565
 5230SOL    HW216590   0.060   0.416   0.664
 5231SOL     OW16591   3.877   3.234   4.087
 5231SOL    HW116592   3.782   3.201   4.084
 5231SOL    HW216593   3.905   3.262   3.995
 5232SOL     OW16594   4.581   2.287   7.011
 5232SOL    HW116595   4.602   2.189   7.018
 5232SOL    HW216596   4.498   2.307   0.037
 5233SOL     OW16597   6.877   5.884   1.832
 5233SOL    HW116598   6.958   5.899   1.888
 5233SOL    HW216599   6.830   5.971   1.817
 5234SOL     OW16600   3.211   6.757   0.459
 5234SOL    HW116601   3.291   6.745   0.518
 5234SOL    HW216602   3.240   6.773   0.365
 5235SOL     OW16603   1.975   3.601   0.793
 5235SOL    HW116604   2.022   3.675   0.745
 5235SOL    HW216605   2.043   3.538   0.831
 5236SOL     OW16606   5.156   3.557   1.201
 5236SOL    HW116607   5.083   3.539   1.268
 5236SOL    HW216608   5.125   3.628   1.138
 5237SOL     OW16609   2.516   2.050   5.384
 5237SOL    HW116610   2.491   2.051   5.287
 5237SOL    HW216611   2.439   2.014   5.437
 5238SOL     OW16612   1.461   5.062   0.574
 5238SOL    HW116613   1.429   4.975   0.612
 5238SOL    HW216614   1.522   5.107   0.639
 5239SOL     OW16615   3.223   3.140   4.154
 5239SOL    HW116616   3.138   3.181   4.186
 5239SOL    HW216617   3.211   3.105   4.061
 5240SOL     OW16618   3.357   2.104   5.153
 5240SOL    HW116619   3.342   2.102   5.252
 5240SOL    HW216620   3.287   2.162   5.110
 5241SOL     OW16621   1.070   6.195   6.371
 5241SOL    HW116622   1.170   6.189   6.371
 5241SOL    HW216623   1.033   6.127   6.307
 5242SOL     OW16624   5.998   1.026   5.984
 5242SOL    HW116625   6.029   1.118   5.961
 5242SOL    HW216626   5.906   1.011   5.948
 5243SOL     OW16627   0.840   5.710   1.019
 5243SOL    HW116628   0.803   5.698   0.927
 5243SOL    HW216629   0.932   5.670   1.024
 5244SOL     OW16630   4.435   4.223   5.745
 5244SOL    HW116631   4.343   4.185   5.745
 5244SOL    HW216632   4.430   4.323   5.753
 5245SOL     OW16633   4.204   4.209   6.295
 5245SOL    HW116634   4.161   4.299   6.287
 5245SOL    HW216635   4.196   4.161   6.208
 5246SOL     OW16636   0.668   3.215   2.627
 5246SOL    HW116637   0.607   3.241   2.553
 5246SOL    HW216638   0.690   3.117   2.620
 5247SOL     OW16639   0.183   5.163   0.644
 5247SOL    HW116640   0.164   5.080   0.591
 5247SOL    HW216641   0.136   5.157   0.732
 5248SOL     OW16642   5.203   0.987   6.122
 5248SOL    HW116643   5.162   0.953   6.206
 5248SOL    HW216644   5.142   1.054   6.079
 5249SOL     OW16645   0.745   4.961   4.997
 5249SOL    HW116646   0.737   5.057   4.970
 5249SOL    HW216647   0.840   4.941   5.020
 5250SOL     OW16648   0.199   2.198   5.973
 5250SOL    HW116649   0.256   2.212   6.055
 5250SOL    HW216650   0.247   2.235   5.893
 5251SOL     OW16651   6.356   3.605   1.186
 5251SOL    HW116652   6.449   3.603   1.150
 5251SOL    HW216653   6.322   3.511   1.196
 5252SOL     OW16654   3.058   6.181   0.838
 5252SOL    HW116655   3.063   6.248   0.764
 5252SOL    HW216656   3.147   6.175   0.883
 5253SOL     OW16657   5.912   3.828   4.567
 5253SOL    HW116658   5.841   3.773   4.611
 5253SOL    HW216659   5.984   3.768   4.531
 5254SOL     OW16660   4.604   1.135   4.101
 5254SOL    HW116661   4.688   1.092   4.133
 5254SOL    HW216662   4.594   1.225   4.143
 5255SOL     OW16663   3.261   7.014   5.010
 5255SOL    HW116664   3.281   0.018   4.917
 5255SOL    HW216665   3.301   6.924   5.025
 5256SOL     OW16666   4.909   0.858   3.619
 5256SOL    HW116667   4.981   0.920   3.650
 5256SOL    HW216668   4.863   0.898   3.539
 5257SOL     OW16669   3.686   6.692   0.514
 5257SOL    HW116670   3.696   6.778   0.464
 5257SOL    HW216671   3.691   6.615   0.450
 5258SOL     OW16672   5.020   4.517   2.429
 5258SOL    HW116673   5.053   4.427   2.457
 5258SOL    HW216674   5.012   4.576   2.509
 5259SOL     OW16675   4.450   6.480   2.605
 5259SOL    HW116676   4.441   6.559   2.665
 5259SOL    HW216677   4.542   6.440   2.616
 5260SOL     OW16678   5.934   3.476   0.847
 5260SOL    HW116679   5.874   3.400   0.821
 5260SOL    HW216680   5.985   3.451   0.930
 5261SOL     OW16681   0.163   2.789   4.655
 5261SOL    HW116682   0.184   2.878   4.615
 5261SOL    HW216683   0.069   2.763   4.634
 5262SOL     OW16684   2.546   6.678   2.338
 5262SOL    HW116685   2.543   6.766   2.384
 5262SOL    HW216686   2.460   6.664   2.288
 5263SOL     OW16687   1.714   0.412   5.854
 5263SOL    HW116688   1.688   0.315   5.858
 5263SOL    HW216689   1.736   0.444   5.946
 5264SOL     OW16690   6.269   1.316   1.597
 5264SOL    HW116691   6.284   1.405   1.554
 5264SOL    HW216692   6.295   1.243   1.534
 5265SOL     OW16693   5.479   4.569   2.105
 5265SOL    HW116694   5.514   4.623   2.028
 5265SOL    HW216695   5.388   4.602   2.129
 5266SOL     OW16696   1.138   6.530   1.832
 5266SOL    HW116697   1.110   6.618   1.869
 5266SOL    HW216698   1.198   6.544   1.753
 5267SOL     OW16699   4.670   5.275   5.428
 5267SOL    HW116700   4.767   5.248   5.422
 5267SOL    HW216701   4.650   5.309   5.520
 5268SOL     OW16702   6.548   5.245   5.121
 5268SOL    HW116703   6.488   5.321   5.096
 5268SOL    HW216704   6.532   5.220   5.216
 5269SOL     OW16705   1.518   5.385   4.418
 5269SOL    HW116706   1.508   5.370   4.517
 5269SOL    HW216707   1.607   5.349   4.389
 5270SOL     OW16708   5.719   2.942   1.703
 5270SOL    HW116709   5.787   2.906   1.639
 5270SOL    HW216710   5.671   2.866   1.746
 5271SOL     OW16711   4.770   4.945   5.161
 5271SOL    HW116712   4.801   4.933   5.255
 5271SOL    HW216713   4.734   5.038   5.150
 5272SOL     OW16714   0.141   5.892   4.860
 5272SOL    HW116715   0.234   5.924   4.843
 5272SOL    HW216716   0.110   5.838   4.782
 5273SOL     OW16717   0.887   2.054   3.965
 5273SOL    HW116718   0.940   1.970   3.954
 5273SOL    HW216719   0.947   2.134   3.954
 5274SOL     OW16720   0.072   4.880   3.898
 5274SOL    HW116721   0.067   4.822   3.817
 5274SOL    HW216722   7.005   4.906   3.926
 5275SOL     OW16723   2.528   6.889   6.377
 5275SOL    HW116724   2.560   6.949   6.450
 5275SOL    HW216725   2.521   6.940   6.292
 5276SOL     OW16726   6.793   6.811   1.697
 5276SOL    HW116727   6.811   6.887   1.635
 5276SOL    HW216728   6.699   6.778   1.682
 5277SOL     OW16729   1.256   1.448   3.546
 5277SOL    HW116730   1.237   1.395   3.464
 5277SOL    HW216731   1.329   1.404   3.598
 5278SOL     OW16732   0.401   6.485   5.750
 5278SOL    HW116733   0.382   6.486   5.652
 5278SOL    HW216734   0.359   6.404   5.791
 5279SOL     OW16735   1.047   5.736   6.541
 5279SOL    HW116736   1.137   5.693   6.548
 5279SOL    HW216737   1.036   5.802   6.616
 5280SOL     OW16738   3.767   6.579   4.600
 5280SOL    HW116739   3.797   6.532   4.682
 5280SOL    HW216740   3.739   6.672   4.623
 5281SOL     OW16741   1.226   0.859   4.401
 5281SOL    HW116742   1.253   0.878   4.495
 5281SOL    HW216743   1.172   0.775   4.398
 5282SOL     OW16744   1.819   0.141   2.863
 5282SOL    HW116745   1.744   0.102   2.917
 5282SOL    HW216746   1.787   0.162   2.771
 5283SOL     OW16747   0.052   0.561   3.392
 5283SOL    HW116748   0.125   0.601   3.448
 5283SOL    HW216749   6.992   0.560   3.445
 5284SOL     OW16750   5.079   1.935   2.082
 5284SOL    HW116751   5.019   1.908   2.158
 5284SOL    HW216752   5.170   1.955   2.117
 5285SOL     OW16753   0.997   3.031   3.111
 5285SOL    HW116754   1.017   3.086   3.192
 5285SOL    HW216755   0.993   3.091   3.031
 5286SOL     OW16756   6.554   2.790   0.427
 5286SOL    HW116757   6.647   2.782   0.392
 5286SOL    HW216758   6.550   2.757   0.521
 5287SOL     OW16759   3.405   5.371   2.006
 5287SOL    HW116760   3.407   5.433   1.928
 5287SOL    HW216761   3.373   5.420   2.087
 5288SOL     OW16762   5.118   0.436   1.636
 5288SOL    HW116763   5.173   0.485   1.703
 5288SOL    HW216764   5.108   0.492   1.554
 5289SOL     OW16765   1.835   5.387   6.490
 5289SOL    HW116766   1.753   5.339   6.522
 5289SOL    HW216767   1.916   5.344   6.530
 5290SOL     OW16768   2.049   4.498   5.908
 5290SOL    HW116769   2.064   4.581   5.962
 5290SOL    HW216770   1.957   4.499   5.869
 5291SOL     OW16771   2.853   4.424   5.502
 5291SOL    HW116772   2.823   4.440   5.408
 5291SOL    HW216773   2.919   4.349   5.503
 5292SOL     OW16774   6.969   4.458   6.541
 5292SOL    HW116775   7.005   4.535   6.593
 5292SOL    HW216776   6.870   4.467   6.533
 5293SOL     OW16777   2.369   5.319   4.419
 5293SOL    HW116778   2.344   5.246   4.482
 5293SOL    HW216779   2.392   5.402   4.471
 5294SOL     OW16780   4.624   0.610   5.143
 5294SOL    HW116781   4.589   0.702   5.164
 5294SOL    HW216782   4.568   0.542   5.191
 5295SOL     OW16783   3.420   1.155   3.178
 5295SOL    HW116784   3.492   1.095   3.142
 5295SOL    HW216785   3.364   1.103   3.243
 5296SOL     OW16786   3.914   4.293   0.883
 5296SOL    HW116787   3.947   4.203   0.915
 5296SOL    HW216788   3.970   4.323   0.806
 5297SOL     OW16789   2.484   3.703   0.258
 5297SOL    HW116790   2.549   3.748   0.198
 5297SOL    HW216791   2.408   3.667   0.204
 5298SOL     OW16792   2.335   6.222   6.968
 5298SOL    HW116793   2.431   6.244   6.988
 5298SOL    HW216794   2.320   6.226   6.870
 5299SOL     OW16795   2.667   2.350   0.644
 5299SOL    HW116796   2.750   2.334   0.590
 5299SOL    HW216797   2.646   2.448   0.643
 5300SOL     OW16798   1.143   4.716   0.709
 5300SOL    HW116799   1.061   4.760   0.745
 5300SOL    HW216800   1.124   4.621   0.687
 5301SOL     OW16801   4.157   0.574   0.043
 5301SOL    HW116802   4.079   0.636   0.038
 5301SOL    HW216803   4.235   0.623   0.082
 5302SOL     OW16804   4.874   5.676   3.498
 5302SOL    HW116805   4.927   5.599   3.463
 5302SOL    HW216806   4.776   5.656   3.489
 5303SOL     OW16807   6.732   5.213   6.304
 5303SOL    HW116808   6.798   5.239   6.374
 5303SOL    HW216809   6.770   5.139   6.248
 5304SOL     OW16810   5.872   1.168   1.245
 5304SOL    HW116811   5.917   1.241   1.296
 5304SOL    HW216812   5.800   1.206   1.187
 5305SOL     OW16813   1.447   5.253   2.965
 5305SOL    HW116814   1.505   5.335   2.968
 5305SOL    HW216815   1.448   5.214   2.873
 5306SOL     OW16816   0.240   4.292   5.882
 5306SOL    HW116817   0.319   4.280   5.821
 5306SOL    HW216818   0.168   4.343   5.833
 5307SOL     OW16819   4.678   2.280   0.353
 5307SOL    HW116820   4.739   2.314   0.425
 5307SOL    HW216821   4.623   2.356   0.318
 5308SOL     OW16822   1.514   4.646   2.760
 5308SOL    HW116823   1.556   4.728   2.720
 5308SOL    HW216824   1.537   4.566   2.705
 5309SOL     OW16825   4.198   6.083   2.677
 5309SOL    HW116826   4.276   6.146   2.685
 5309SOL    HW216827   4.227   5.991   2.704
 5310SOL     OW16828   6.266   3.284   2.320
 5310SOL    HW116829   6.278   3.382   2.332
 5310SOL    HW216830   6.180   3.266   2.271
 5311SOL     OW16831   6.094   0.638   6.994
 5311SOL    HW116832   6.021   0.573   6.976
 5311SOL    HW216833   6.110   0.693   6.912
 5312SOL     OW16834   7.007   5.997   1.369
 5312SOL    HW116835   6.948   6.030   1.296
 5312SOL    HW216836   6.959   5.928   1.423
 5313SOL     OW16837   0.260   4.859   5.587
 5313SOL    HW116838   0.166   4.862   5.554
 5313SOL    HW216839   0.319   4.911   5.526
 5314SOL     OW16840   5.237   6.977   0.740
 5314SOL    HW116841   5.160   6.957   0.801
 5314SOL    HW216842   5.321   6.981   0.793
 5315SOL     OW16843   4.866   2.316   3.349
 5315SOL    HW116844   4.808   2.301   3.269
 5315SOL    HW216845   4.944   2.373   3.324
 5316SOL     OW16846   0.847   3.780   5.285
 5316SOL    HW116847   0.825   3.840   5.208
 5316SOL    HW216848   0.766   3.729   5.312
 5317SOL     OW16849   6.914   1.153   5.410
 5317SOL    HW116850   6.856   1.096   5.352
 5317SOL    HW216851   6.925   1.109   5.499
 5318SOL     OW16852   0.198   3.004   0.741
 5318SOL    HW116853   0.224   2.994   0.645
 5318SOL    HW216854   0.112   2.956   0.757
 5319SOL     OW16855   4.731   6.230   0.991
 5319SOL    HW116856   4.728   6.329   1.005
 5319SOL    HW216857   4.764   6.210   0.899
 5320SOL     OW16858   4.403   5.734   1.346
 5320SOL    HW116859   4.329   5.759   1.409
 5320SOL    HW216860   4.439   5.644   1.371
 5321SOL     OW16861   2.082   4.648   4.956
 5321SOL    HW116862   2.156   4.700   4.999
 5321SOL    HW216863   2.078   4.557   4.997
 5322SOL     OW16864   5.671   0.005   0.871
 5322SOL    HW116865   5.698   6.998   0.781
 5322SOL    HW216866   5.739   0.069   0.906
 5323SOL     OW16867   4.408   1.462   5.866
 5323SOL    HW116868   4.358   1.548   5.857
 5323SOL    HW216869   4.404   1.412   5.779
 5324SOL     OW16870   2.774   2.161   0.007
 5324SOL    HW116871   2.737   2.245   6.992
 5324SOL    HW216872   2.813   2.182   0.097
 5325SOL     OW16873   2.688   1.726   4.967
 5325SOL    HW116874   2.605   1.704   5.018
 5325SOL    HW216875   2.709   1.652   4.903
 5326SOL     OW16876   6.262   6.001   3.441
 5326SOL    HW116877   6.228   6.029   3.352
 5326SOL    HW216878   6.186   5.966   3.497
 5327SOL     OW16879   5.798   2.449   4.666
 5327SOL    HW116880   5.795   2.437   4.765
 5327SOL    HW216881   5.878   2.503   4.640
 5328SOL     OW16882   3.826   3.773   6.087
 5328SOL    HW116883   3.888   3.731   6.021
 5328SOL    HW216884   3.749   3.815   6.039
 5329SOL     OW16885   0.964   5.233   6.468
 5329SOL    HW116886   0.933   5.139   6.476
 5329SOL    HW216887   0.980   5.271   6.559
 5330SOL     OW16888   3.954   4.277   0.113
 5330SOL    HW116889   3.899   4.305   0.034
 5330SOL    HW216890   4.027   4.216   0.082
 5331SOL     OW16891   6.148   1.965   6.667
 5331SOL    HW116892   6.095   2.016   6.600
 5331SOL    HW216893   6.115   1.871   6.671
 5332SOL     OW16894   1.681   4.150   1.435
 5332SOL    HW116895   1.705   4.229   1.492
 5332SOL    HW216896   1.642   4.182   1.349
 5333SOL     OW16897   1.397   0.821   3.497
 5333SOL    HW116898   1.345   0.842   3.414
 5333SOL    HW216899   1.424   0.725   3.496
 5334SOL     OW16900   3.127   0.811   5.286
 5334SOL    HW116901   3.162   0.860   5.366
 5334SOL    HW216902   3.193   0.819   5.211
 5335SOL     OW16903   6.187   6.051   0.783
 5335SOL    HW116904   6.227   6.114   0.850
 5335SOL    HW216905   6.153   5.970   0.831
 5336SOL     OW16906   1.614   3.604   2.257
 5336SOL    HW116907   1.661   3.590   2.344
 5336SOL    HW216908   1.657   3.548   2.187
 5337SOL     OW16909   4.516   3.750   1.569
 5337SOL    HW116910   4.557   3.834   1.604
 5337SOL    HW216911   4.424   3.769   1.536
 5338SOL     OW16912   5.798   1.847   6.622
 5338SOL    HW116913   5.819   1.754   6.594
 5338SOL    HW216914   5.842   1.866   6.710
 5339SOL     OW16915   6.369   1.754   3.763
 5339SOL    HW116916   6.391   1.753   3.665
 5339SOL    HW216917   6.452   1.774   3.815
 5340SOL     OW16918   6.031   2.793   0.431
 5340SOL    HW116919   5.933   2.797   0.412
 5340SOL    HW216920   6.069   2.885   0.434
 5341SOL     OW16921   3.805   2.439   5.852
 5341SOL    HW116922   3.723   2.383   5.861
 5341SOL    HW216923   3.846   2.423   5.762
 5342SOL     OW16924   4.085   0.822   5.128
 5342SOL    HW116925   4.045   0.765   5.199
 5342SOL    HW216926   4.146   0.768   5.071
 5343SOL     OW16927   3.562   3.582   3.604
 5343SOL    HW116928   3.625   3.597   3.527
 5343SOL    HW216929   3.515   3.668   3.625
 5344SOL     OW16930   1.555   2.775   2.682
 5344SOL    HW116931   1.525   2.704   2.746
 5344SOL    HW216932   1.525   2.865   2.715
 5345SOL     OW16933   4.468   5.904   0.899
 5345SOL    HW116934   4.398   5.849   0.854
 5345SOL    HW216935   4.505   5.971   0.835
 5346SOL     OW16936   3.220   6.388   3.529
 5346SOL    HW116937   3.229   6.319   3.601
 5346SOL    HW216938   3.123   6.406   3.512
 5347SOL     OW16939   0.059   2.097   2.301
 5347SOL    HW116940   0.006   2.143   2.230
 5347SOL    HW216941   0.048   2.147   2.387
 5348SOL     OW16942   0.929   1.589   0.401
 5348SOL    HW116943   0.964   1.594   0.494
 5348SOL    HW216944   0.901   1.495   0.382
 5349SOL     OW16945   1.022   2.368   0.273
 5349SOL    HW116946   1.104   2.353   0.328
 5349SOL    HW216947   1.048   2.381   0.177
 5350SOL     OW16948   2.651   0.376   6.117
 5350SOL    HW116949   2.566   0.343   6.076
 5350SOL    HW216950   2.703   0.427   6.050
 5351SOL     OW16951   4.808   5.547   1.330
 5351SOL    HW116952   4.770   5.639   1.322
 5351SOL    HW216953   4.797   5.515   1.424
 5352SOL     OW16954   2.374   6.220   3.860
 5352SOL    HW116955   2.466   6.181   3.864
 5352SOL    HW216956   2.346   6.231   3.765
 5353SOL     OW16957   4.250   6.034   4.718
 5353SOL    HW116958   4.226   6.115   4.665
 5353SOL    HW216959   4.276   5.960   4.656
 5354SOL     OW16960   2.454   4.351   2.690
 5354SOL    HW116961   2.538   4.390   2.653
 5354SOL    HW216962   2.382   4.421   2.693
 5355SOL     OW16963   4.934   2.366   3.684
 5355SOL    HW116964   5.029   2.339   3.668
 5355SOL    HW216965   4.874   2.289   3.664
 5356SOL     OW16966   5.923   4.221   1.833
 5356SOL    HW116967   6.008   4.171   1.848
 5356SOL    HW216968   5.907   4.283   1.910
 5357SOL     OW16969   3.383   1.023   1.036
 5357SOL    HW116970   3.475   1.050   1.063
 5357SOL    HW216971   3.323   1.027   1.116
 5358SOL     OW16972   4.315   2.241   0.749
 5358SOL    HW116973   4.365   2.230   0.835
 5358SOL    HW216974   4.374   2.286   0.681
 5359SOL     OW16975   2.419   1.673   0.377
 5359SOL    HW116976   2.339   1.642   0.428
 5359SOL    HW216977   2.445   1.764   0.408
 5360SOL     OW16978   3.710   6.607   4.937
 5360SOL    HW116979   3.774   6.538   4.903
 5360SOL    HW216980   3.666   6.574   5.021
 5361SOL     OW16981   2.652   0.762   4.809
 5361SOL    HW116982   2.615   0.716   4.890
 5361SOL    HW216983   2.712   0.837   4.838
 5362SOL     OW16984   5.032   4.583   3.675
 5362SOL    HW116985   5.073   4.671   3.653
 5362SOL    HW216986   4.982   4.549   3.595
 5363SOL     OW16987   1.013   5.973   5.869
 5363SOL    HW116988   0.948   5.903   5.840
 5363SOL    HW216989   1.059   5.944   5.953
 5364SOL     OW16990   6.389   5.380   0.892
 5364SOL    HW116991   6.410   5.394   0.988
 5364SOL    HW216992   6.329   5.453   0.860
 5365SOL     OW16993   4.548   3.046   6.529
 5365SOL    HW116994   4.450   3.026   6.534
 5365SOL    HW216995   4.562   3.129   6.474
 5366SOL     OW16996   5.056   4.843   1.241
 5366SOL    HW116997   5.131   4.867   1.303
 5366SOL    HW216998   5.022   4.752   1.264
 5367SOL     OW16999   0.455   5.082   0.553
 5367SOL    HW117000   0.376   5.111   0.606
 5367SOL    HW217001   0.534   5.070   0.614
 5368SOL     OW17002   5.275   1.334   2.958
 5368SOL    HW117003   5.313   1.313   2.868
 5368SOL    HW217004   5.233   1.251   2.996
 5369SOL     OW17005   2.489   5.791   3.619
 5369SOL    HW117006   2.577   5.777   3.665
 5369SOL    HW217007   2.484   5.885   3.585
 5370SOL     OW17008   4.107   3.043   1.880
 5370SOL    HW117009   4.041   3.103   1.834
 5370SOL    HW217010   4.191   3.094   1.900
 5371SOL     OW17011   1.981   4.230   4.389
 5371SOL    HW117012   2.020   4.246   4.298
 5371SOL    HW217013   1.902   4.289   4.402
 5372SOL     OW17014   2.773   5.320   2.282
 5372SOL    HW117015   2.833   5.304   2.360
 5372SOL    HW217016   2.680   5.339   2.315
 5373SOL     OW17017   3.035   4.854   4.314
 5373SOL    HW117018   2.993   4.873   4.225
 5373SOL    HW217019   2.977   4.793   4.367
 5374SOL     OW17020   1.159   3.519   0.022
 5374SOL    HW117021   1.221   3.454   7.003
 5374SOL    HW217022   1.085   3.542   6.985
 5375SOL     OW17023   0.969   4.856   5.111
 5375SOL    HW117024   0.964   4.757   5.099
 5375SOL    HW217025   0.975   4.877   5.209
 5376SOL     OW17026   1.812   3.081   1.330
 5376SOL    HW117027   1.907   3.049   1.324
 5376SOL    HW217028   1.811   3.174   1.366
 5377SOL     OW17029   6.915   0.179   1.814
 5377SOL    HW117030   6.959   0.193   1.902
 5377SOL    HW217031   6.921   0.082   1.789
 5378SOL     OW17032   6.740   0.626   1.028
 5378SOL    HW117033   6.740   0.655   0.932
 5378SOL    HW217034   6.710   0.702   1.086
 5379SOL     OW17035   0.316   5.445   4.191
 5379SOL    HW117036   0.373   5.510   4.140
 5379SOL    HW217037   0.245   5.496   4.240
 5380SOL     OW17038   2.211   0.969   3.679
 5380SOL    HW117039   2.294   0.999   3.632
 5380SOL    HW217040   2.186   0.878   3.648
 5381SOL     OW17041   6.762   3.445   0.669
 5381SOL    HW117042   6.845   3.394   0.689
 5381SOL    HW217043   6.761   3.473   0.573
 5382SOL     OW17044   3.075   0.030   1.589
 5382SOL    HW117045   3.032   6.974   1.627
 5382SOL    HW217046   3.057   0.034   1.491
 5383SOL     OW17047   2.889   2.280   5.283
 5383SOL    HW117048   2.908   2.243   5.374
 5383SOL    HW217049   2.974   2.286   5.231
 5384SOL     OW17050   6.028   0.297   3.921
 5384SOL    HW117051   6.110   0.291   3.978
 5384SOL    HW217052   6.041   0.242   3.838
 5385SOL     OW17053   3.123   3.916   3.303
 5385SOL    HW117054   3.137   3.979   3.227
 5385SOL    HW217055   3.053   3.849   3.279
 5386SOL     OW17056   5.012   6.229   4.402
 5386SOL    HW117057   5.100   6.199   4.365
 5386SOL    HW217058   4.948   6.244   4.327
 5387SOL     OW17059   1.974   5.914   3.041
 5387SOL    HW117060   2.014   5.960   2.962
 5387SOL    HW217061   2.001   5.963   3.125
 5388SOL     OW17062   5.483   6.124   2.630
 5388SOL    HW117063   5.543   6.203   2.619
 5388SOL    HW217064   5.411   6.126   2.560
 5389SOL     OW17065   5.256   0.893   1.868
 5389SOL    HW117066   5.302   0.907   1.781
 5389SOL    HW217067   5.324   0.884   1.941
 5390SOL     OW17068   4.484   5.521   4.231
 5390SOL    HW117069   4.558   5.565   4.281
 5390SOL    HW217070   4.503   5.526   4.133
 5391SOL     OW17071   2.481   3.210   0.291
 5391SOL    HW117072   2.491   3.287   0.228
 5391SOL    HW217073   2.392   3.167   0.278
 5392SOL     OW17074   6.500   3.727   0.813
 5392SOL    HW117075   6.434   3.662   0.776
 5392SOL    HW217076   6.582   3.679   0.843
 5393SOL     OW17077   6.466   0.146   6.702
 5393SOL    HW117078   6.469   0.054   6.741
 5393SOL    HW217079   6.498   0.212   6.769
 5394SOL     OW17080   0.450   3.758   6.225
 5394SOL    HW117081   0.470   3.721   6.316
 5394SOL    HW217082   0.500   3.705   6.156
 5395SOL     OW17083   4.604   0.794   1.629
 5395SOL    HW117084   4.636   0.784   1.535
 5395SOL    HW217085   4.506   0.812   1.630
 5396SOL     OW17086   5.268   3.408   2.674
 5396SOL    HW117087   5.222   3.416   2.586
 5396SOL    HW217088   5.316   3.493   2.695
 5397SOL     OW17089   0.117   2.969   2.120
 5397SOL    HW117090   0.202   3.014   2.093
 5397SOL    HW217091   0.087   3.005   2.208
 5398SOL     OW17092   3.328   2.320   1.481
 5398SOL    HW117093   3.423   2.329   1.451
 5398SOL    HW217094   3.325   2.323   1.581
 5399SOL     OW17095   2.462   6.548   0.875
 5399SOL    HW117096   2.529   6.616   0.843
 5399SOL    HW217097   2.464   6.544   0.975
 5400SOL     OW17098   2.904   4.267   0.851
 5400SOL    HW117099   2.996   4.230   0.841
 5400SOL    HW217100   2.908   4.367   0.854
 5401SOL     OW17101   5.633   3.287   1.955
 5401SOL    HW117102   5.681   3.200   1.967
 5401SOL    HW217103   5.665   3.331   1.871
 5402SOL     OW17104   2.417   5.978   1.948
 5402SOL    HW117105   2.393   5.950   2.041
 5402SOL    HW217106   2.349   6.044   1.915
 5403SOL     OW17107   6.728   3.282   6.237
 5403SOL    HW117108   6.793   3.231   6.181
 5403SOL    HW217109   6.639   3.284   6.191
 5404SOL     OW17110   1.021   2.104   3.546
 5404SOL    HW117111   0.939   2.152   3.515
 5404SOL    HW217112   1.040   2.028   3.484
 5405SOL     OW17113   6.620   5.417   0.033
 5405SOL    HW117114   6.667   5.371   6.983
 5405SOL    HW217115   6.555   5.354   0.076
 5406SOL     OW17116   2.624   1.392   6.430
 5406SOL    HW117117   2.627   1.321   6.501
 5406SOL    HW217118   2.598   1.351   6.343
 5407SOL     OW17119   4.429   3.370   0.443
 5407SOL    HW117120   4.404   3.334   0.533
 5407SOL    HW217121   4.439   3.294   0.379
 5408SOL     OW17122   2.833   1.135   5.312
 5408SOL    HW117123   2.912   1.154   5.370
 5408SOL    HW217124   2.763   1.089   5.367
 5409SOL     OW17125   5.088   0.349   2.946
 5409SOL    HW117126   5.093   0.429   2.886
 5409SOL    HW217127   5.043   0.274   2.898
 5410SOL     OW17128   2.746   2.615   1.750
 5410SOL    HW117129   2.789   2.651   1.667
 5410SOL    HW217130   2.812   2.559   1.800
 5411SOL     OW17131   6.322   5.037   6.111
 5411SOL    HW117132   6.264   5.101   6.161
 5411SOL    HW217133   6.266   4.981   6.051
 5412SOL     OW17134   4.476   2.375   0.567
 5412SOL    HW117135   4.574   2.395   0.568
 5412SOL    HW217136   4.458   2.297   0.508
 5413SOL     OW17137   2.650   1.113   1.337
 5413SOL    HW117138   2.585   1.184   1.309
 5413SOL    HW217139   2.741   1.136   1.301
 5414SOL     OW17140   5.263   1.891   4.610
 5414SOL    HW117141   5.254   1.984   4.575
 5414SOL    HW217142   5.284   1.894   4.708
 5415SOL     OW17143   0.241   5.962   1.345
 5415SOL    HW117144   0.141   5.959   1.342
 5415SOL    HW217145   0.272   6.052   1.314
 5416SOL     OW17146   4.302   5.500   5.572
 5416SOL    HW117147   4.277   5.477   5.478
 5416SOL    HW217148   4.370   5.573   5.572
 5417SOL     OW17149   3.389   6.576   5.783
 5417SOL    HW117150   3.312   6.554   5.723
 5417SOL    HW217151   3.395   6.675   5.796
 5418SOL     OW17152   3.692   0.215   3.207
 5418SOL    HW117153   3.672   0.132   3.260
 5418SOL    HW217154   3.607   0.263   3.188
 5419SOL     OW17155   3.755   5.098   0.363
 5419SOL    HW117156   3.744   5.032   0.437
 5419SOL    HW217157   3.746   5.051   0.275
 5420SOL     OW17158   1.762   3.437   3.251
 5420SOL    HW117159   1.801   3.392   3.171
 5420SOL    HW217160   1.808   3.405   3.334
 5421SOL     OW17161   1.766   3.517   1.778
 5421SOL    HW117162   1.739   3.528   1.682
 5421SOL    HW217163   1.860   3.483   1.782
 5422SOL     OW17164   0.456   4.810   0.728
 5422SOL    HW117165   0.430   4.874   0.800
 5422SOL    HW217166   0.373   4.779   0.681
 5423SOL     OW17167   6.782   2.921   0.002
 5423SOL    HW117168   6.730   3.002   0.031
 5423SOL    HW217169   6.754   2.895   6.936
 5424SOL     OW17170   5.336   3.061   3.885
 5424SOL    HW117171   5.289   2.976   3.908
 5424SOL    HW217172   5.435   3.046   3.888
 5425SOL     OW17173   4.298   1.027   4.825
 5425SOL    HW117174   4.262   1.035   4.918
 5425SOL    HW217175   4.310   1.118   4.786
 5426SOL     OW17176   5.962   6.332   4.560
 5426SOL    HW117177   5.887   6.271   4.586
 5426SOL    HW217178   6.040   6.315   4.620
 5427SOL     OW17179   5.185   5.870   6.452
 5427SOL    HW117180   5.283   5.890   6.443
 5427SOL    HW217181   5.168   5.830   6.542
 5428SOL     OW17182   6.708   0.021   1.411
 5428SOL    HW117183   6.685   0.116   1.389
 5428SOL    HW217184   6.802   0.017   1.447
 5429SOL     OW17185   2.043   1.830   6.552
 5429SOL    HW117186   2.067   1.758   6.487
 5429SOL    HW217187   2.051   1.795   6.645
 5430SOL     OW17188   0.025   2.436   5.452
 5430SOL    HW117189   6.995   2.499   5.505
 5430SOL    HW217190   7.010   2.423   5.361
 5431SOL     OW17191   3.551   6.133   0.537
 5431SOL    HW117192   3.649   6.115   0.524
 5431SOL    HW217193   3.508   6.055   0.583
 5432SOL     OW17194   5.653   0.416   6.872
 5432SOL    HW117195   5.601   0.347   6.823
 5432SOL    HW217196   5.610   0.505   6.862
 5433SOL     OW17197   0.292   1.877   4.615
 5433SOL    HW117198   0.212   1.937   4.612
 5433SOL    HW217199   0.263   1.782   4.616
 5434SOL     OW17200   3.404   0.637   6.041
 5434SOL    HW117201   3.372   0.623   6.135
 5434SOL    HW217202   3.503   0.648   6.040
 5435SOL     OW17203   5.911   0.138   1.948
 5435SOL    HW117204   5.876   0.063   2.005
 5435SOL    HW217205   5.851   0.149   1.868
 5436SOL     OW17206   4.925   3.927   4.202
 5436SOL    HW117207   4.869   3.971   4.272
 5436SOL    HW217208   4.929   3.829   4.219
 5437SOL     OW17209   2.666   3.819   0.092
 5437SOL    HW117210   2.679   3.918   0.091
 5437SOL    HW217211   2.754   3.774   0.085
 5438SOL     OW17212   6.927   2.368   1.553
 5438SOL    HW117213   7.006   2.334   1.604
 5438SOL    HW217214   6.898   2.456   1.590
 5439SOL     OW17215   1.417   1.540   1.192
 5439SOL    HW117216   1.487   1.612   1.186
 5439SOL    HW217217   1.435   1.471   1.123
 5440SOL     OW17218   0.994   1.064   0.898
 5440SOL    HW117219   0.902   1.057   0.936
 5440SOL    HW217220   1.053   0.994   0.939
 5441SOL     OW17221   3.966   2.188   3.691
 5441SOL    HW117222   3.926   2.208   3.780
 5441SOL    HW217223   3.895   2.193   3.620
 5442SOL     OW17224   4.374   6.627   2.850
 5442SOL    HW117225   4.427   6.595   2.929
 5442SOL    HW217226   4.282   6.587   2.854
 5443SOL     OW17227   3.607   6.852   4.876
 5443SOL    HW117228   3.594   6.844   4.778
 5443SOL    HW217229   3.657   6.773   4.910
 5444SOL     OW17230   0.876   0.869   4.087
 5444SOL    HW117231   0.909   0.907   4.173
 5444SOL    HW217232   0.778   0.884   4.078
 5445SOL     OW17233   6.300   4.201   3.106
 5445SOL    HW117234   6.276   4.177   3.012
 5445SOL    HW217235   6.400   4.197   3.117
 5446SOL     OW17236   6.275   5.552   4.817
 5446SOL    HW117237   6.293   5.613   4.740
 5446SOL    HW217238   6.254   5.460   4.782
 5447SOL     OW17239   2.812   2.530   6.833
 5447SOL    HW117240   2.911   2.537   6.845
 5447SOL    HW217241   2.778   2.616   6.795
 5448SOL     OW17242   4.218   2.747   5.577
 5448SOL    HW117243   4.226   2.731   5.478
 5448SOL    HW217244   4.306   2.729   5.621
 5449SOL     OW17245   1.343   2.811   6.220
 5449SOL    HW117246   1.367   2.859   6.305
 5449SOL    HW217247   1.303   2.723   6.242
 5450SOL     OW17248   2.332   0.535   1.652
 5450SOL    HW117249   2.400   0.598   1.615
 5450SOL    HW217250   2.366   0.441   1.647
 5451SOL     OW17251   1.774   6.329   3.439
 5451SOL    HW117252   1.794   6.407   3.380
 5451SOL    HW217253   1.848   6.316   3.505
 5452SOL     OW17254   2.140   4.656   6.863
 5452SOL    HW117255   2.076   4.581   6.875
 5452SOL    HW217256   2.214   4.648   6.931
 5453SOL     OW17257   6.349   3.896   0.523
 5453SOL    HW117258   6.423   3.836   0.554
 5453SOL    HW217259   6.354   3.909   0.424
 5454SOL     OW17260   6.961   4.087   6.978
 5454SOL    HW117261   7.019   4.085   6.897
 5454SOL    HW217262   7.011   4.129   0.028
 5455SOL     OW17263   6.519   3.126   7.004
 5455SOL    HW117264   6.471   3.106   6.919
 5455SOL    HW217265   6.468   3.194   0.031
 5456SOL     OW17266   3.626   6.896   6.737
 5456SOL    HW117267   3.538   6.852   6.720
 5456SOL    HW217268   3.610   6.987   6.777
 5457SOL     OW17269   5.172   1.705   1.094
 5457SOL    HW117270   5.246   1.773   1.091
 5457SOL    HW217271   5.089   1.745   1.054
 5458SOL     OW17272   0.869   4.365   6.973
 5458SOL    HW117273   0.941   4.402   6.914
 5458SOL    HW217274   0.884   4.397   0.042
 5459SOL     OW17275   1.746   5.443   0.523
 5459SOL    HW117276   1.738   5.381   0.445
 5459SOL    HW217277   1.815   5.407   0.587
 5460SOL     OW17278   3.193   0.151   2.101
 5460SOL    HW117279   3.166   0.134   2.006
 5460SOL    HW217280   3.187   0.066   2.154
 5461SOL     OW17281   5.933   6.238   5.028
 5461SOL    HW117282   5.883   6.156   5.000
 5461SOL    HW217283   5.873   6.317   5.022
 5462SOL     OW17284   1.894   0.549   0.435
 5462SOL    HW117285   1.795   0.562   0.438
 5462SOL    HW217286   1.922   0.490   0.511
 5463SOL     OW17287   5.965   2.054   0.218
 5463SOL    HW117288   6.047   2.107   0.240
 5463SOL    HW217289   5.927   2.086   0.131
 5464SOL     OW17290   1.265   0.509   4.185
 5464SOL    HW117291   1.288   0.603   4.158
 5464SOL    HW217292   1.349   0.457   4.199
 5465SOL     OW17293   3.403   6.583   3.486
 5465SOL    HW117294   3.343   6.505   3.499
 5465SOL    HW217295   3.368   6.641   3.413
 5466SOL     OW17296   5.902   4.618   4.761
 5466SOL    HW117297   5.969   4.635   4.689
 5466SOL    HW217298   5.943   4.562   4.833
 5467SOL     OW17299   5.226   1.866   2.887
 5467SOL    HW117300   5.274   1.942   2.842
 5467SOL    HW217301   5.215   1.887   2.984
 5468SOL     OW17302   4.882   1.652   4.291
 5468SOL    HW117303   4.968   1.688   4.327
 5468SOL    HW217304   4.869   1.684   4.197
 5469SOL     OW17305   3.890   5.070   6.412
 5469SOL    HW117306   3.839   5.040   6.492
 5469SOL    HW217307   3.830   5.119   6.350
 5470SOL     OW17308   1.934   5.386   3.183
 5470SOL    HW117309   1.931   5.484   3.202
 5470SOL    HW217310   1.856   5.341   3.228
 5471SOL     OW17311   5.591   6.698   1.056
 5471SOL    HW117312   5.633   6.650   1.133
 5471SOL    HW217313   5.562   6.631   0.987
 5472SOL     OW17314   4.607   4.242   6.153
 5472SOL    HW117315   4.584   4.305   6.227
 5472SOL    HW217316   4.543   4.165   6.154
 5473SOL     OW17317   0.684   3.619   3.372
 5473SOL    HW117318   0.639   3.544   3.421
 5473SOL    HW217319   0.743   3.670   3.436
 5474SOL     OW17320   1.473   4.682   4.479
 5474SOL    HW117321   1.573   4.687   4.476
 5474SOL    HW217322   1.442   4.607   4.421
 5475SOL     OW17323   3.697   2.621   1.362
 5475SOL    HW117324   3.717   2.714   1.393
 5475SOL    HW217325   3.600   2.614   1.340
 5476SOL     OW17326   2.207   3.508   6.238
 5476SOL    HW117327   2.268   3.438   6.199
 5476SOL    HW217328   2.251   3.597   6.232
 5477SOL     OW17329   2.162   3.808   3.566
 5477SOL    HW117330   2.108   3.798   3.650
 5477SOL    HW217331   2.192   3.903   3.557
 5478SOL     OW17332   5.681   5.636   5.735
 5478SOL    HW117333   5.745   5.704   5.700
 5478SOL    HW217334   5.643   5.584   5.658
 5479SOL     OW17335   4.891   0.881   5.309
 5479SOL    HW117336   4.839   0.931   5.378
 5479SOL    HW217337   4.906   0.787   5.341
 5480SOL     OW17338   0.967   3.379   3.877
 5480SOL    HW117339   0.927   3.291   3.904
 5480SOL    HW217340   1.017   3.417   3.955
 5481SOL     OW17341   3.022   0.240   4.534
 5481SOL    HW117342   2.933   0.285   4.526
 5481SOL    HW217343   3.075   0.253   4.450
 5482SOL     OW17344   3.828   4.407   1.664
 5482SOL    HW117345   3.830   4.501   1.698
 5482SOL    HW217346   3.837   4.407   1.565
 5483SOL     OW17347   0.570   3.344   5.292
 5483SOL    HW117348   0.581   3.246   5.309
 5483SOL    HW217349   0.495   3.380   5.349
 5484SOL     OW17350   4.753   0.413   4.950
 5484SOL    HW117351   4.706   0.479   5.009
 5484SOL    HW217352   4.715   0.417   4.858
 5485SOL     OW17353   2.756   6.942   5.494
 5485SOL    HW117354   2.807   6.966   5.577
 5485SOL    HW217355   2.776   6.847   5.469
 5486SOL     OW17356   2.473   5.711   5.214
 5486SOL    HW117357   2.549   5.674   5.268
 5486SOL    HW217358   2.459   5.654   5.133
 5487SOL     OW17359   3.028   4.468   5.904
 5487SOL    HW117360   3.029   4.371   5.880
 5487SOL    HW217361   3.023   4.523   5.821
 5488SOL     OW17362   6.545   1.113   0.517
 5488SOL    HW117363   6.494   1.162   0.588
 5488SOL    HW217364   6.497   1.123   0.429
 5489SOL     OW17365   6.765   3.137   2.431
 5489SOL    HW117366   6.718   3.132   2.343
 5489SOL    HW217367   6.722   3.207   2.488
 5490SOL     OW17368   1.570   6.670   2.393
 5490SOL    HW117369   1.519   6.730   2.331
 5490SOL    HW217370   1.591   6.720   2.477
 5491SOL     OW17371   6.790   3.039   0.358
 5491SOL    HW117372   6.854   3.113   0.376
 5491SOL    HW217373   6.697   3.071   0.375
 5492SOL     OW17374   0.863   3.215   5.464
 5492SOL    HW117375   0.918   3.175   5.538
 5492SOL    HW217376   0.767   3.188   5.477
 5493SOL     OW17377   4.121   3.674   2.113
 5493SOL    HW117378   4.093   3.684   2.208
 5493SOL    HW217379   4.214   3.711   2.101
 5494SOL     OW17380   5.975   4.498   5.241
 5494SOL    HW117381   6.048   4.488   5.309
 5494SOL    HW217382   5.945   4.594   5.238
 5495SOL     OW17383   6.148   0.744   0.489
 5495SOL    HW117384   6.108   0.711   0.575
 5495SOL    HW217385   6.089   0.716   0.413
 5496SOL     OW17386   4.401   0.434   4.305
 5496SOL    HW117387   4.431   0.374   4.231
 5496SOL    HW217388   4.437   0.526   4.290
 5497SOL     OW17389   0.480   0.553   5.772
 5497SOL    HW117390   0.453   0.575   5.866
 5497SOL    HW217391   0.406   0.577   5.710
 5498SOL     OW17392   0.328   4.887   1.507
 5498SOL    HW117393   0.257   4.837   1.459
 5498SOL    HW217394   0.320   4.871   1.605
 5499SOL     OW17395   0.095   0.604   3.765
 5499SOL    HW117396   0.158   0.541   3.720
 5499SOL    HW217397   0.010   0.610   3.712
 5500SOL     OW17398   1.744   0.609   0.119
 5500SOL    HW117399   1.721   0.609   0.022
 5500SOL    HW217400   1.809   0.535   0.138
 5501SOL     OW17401   4.037   2.050   0.477
 5501SOL    HW117402   4.086   2.018   0.557
 5501SOL    HW217403   3.947   2.006   0.473
 5502SOL     OW17404   5.225   3.442   6.368
 5502SOL    HW117405   5.295   3.387   6.413
 5502SOL    HW217406   5.191   3.394   6.287
 5503SOL     OW17407   0.070   3.719   0.289
 5503SOL    HW117408   0.094   3.630   0.328
 5503SOL    HW217409   0.097   3.792   0.352
 5504SOL     OW17410   3.882   1.133   6.876
 5504SOL    HW117411   3.941   1.199   6.830
 5504SOL    HW217412   3.925   1.103   6.961
 5505SOL     OW17413   2.250   4.280   3.938
 5505SOL    HW117414   2.231   4.187   3.971
 5505SOL    HW217415   2.218   4.289   3.843
 5506SOL     OW17416   0.621   3.634   6.039
 5506SOL    HW117417   0.678   3.677   5.969
 5506SOL    HW217418   0.675   3.567   6.090
 5507SOL     OW17419   3.187   0.276   6.228
 5507SOL    HW117420   3.204   0.199   6.289
 5507SOL    HW217421   3.090   0.278   6.203
 5508SOL     OW17422   1.026   1.009   6.707
 5508SOL    HW117423   1.114   0.999   6.660
 5508SOL    HW217424   0.997   0.921   6.744
 5509SOL     OW17425   7.025   5.383   0.985
 5509SOL    HW117426   6.987   5.387   1.077
 5509SOL    HW217427   6.990   5.301   0.938
 5510SOL     OW17428   4.584   5.599   7.002
 5510SOL    HW117429   4.554   5.682   6.955
 5510SOL    HW217430   4.684   5.594   7.000
 5511SOL     OW17431   0.380   1.766   5.129
 5511SOL    HW117432   0.374   1.715   5.044
 5511SOL    HW217433   0.373   1.703   5.206
 5512SOL     OW17434   3.431   1.248   2.357
 5512SOL    HW117435   3.364   1.183   2.323
 5512SOL    HW217436   3.436   1.242   2.457
 5513SOL     OW17437   4.384   4.644   6.276
 5513SOL    HW117438   4.292   4.613   6.302
 5513SOL    HW217439   4.411   4.721   6.334
 5514SOL     OW17440   2.934   6.664   5.440
 5514SOL    HW117441   2.897   6.668   5.347
 5514SOL    HW217442   3.033   6.659   5.436
 5515SOL     OW17443   1.923   5.708   2.025
 5515SOL    HW117444   1.871   5.625   2.006
 5515SOL    HW217445   1.992   5.722   1.954
 5516SOL     OW17446   2.305   2.880   5.373
 5516SOL    HW117447   2.254   2.830   5.303
 5516SOL    HW217448   2.369   2.944   5.329
 5517SOL     OW17449   1.578   3.748   2.968
 5517SOL    HW117450   1.540   3.732   2.878
 5517SOL    HW217451   1.678   3.754   2.962
 5518SOL     OW17452   4.867   4.661   5.391
 5518SOL    HW117453   4.915   4.651   5.477
 5518SOL    HW217454   4.929   4.643   5.315
 5519SOL     OW17455   4.558   2.547   3.675
 5519SOL    HW117456   4.579   2.526   3.580
 5519SOL    HW217457   4.469   2.507   3.699
 5520SOL     OW17458   5.481   6.638   2.216
 5520SOL    HW117459   5.570   6.597   2.239
 5520SOL    HW217460   5.440   6.677   2.298
 5521SOL     OW17461   5.678   5.206   1.971
 5521SOL    HW117462   5.722   5.139   1.910
 5521SOL    HW217463   5.626   5.157   2.042
 5522SOL     OW17464   5.711   5.192   1.268
 5522SOL    HW117465   5.635   5.252   1.291
 5522SOL    HW217466   5.722   5.187   1.169
 5523SOL     OW17467   6.085   1.394   2.345
 5523SOL    HW117468   5.990   1.390   2.312
 5523SOL    HW217469   6.145   1.422   2.270
 5524SOL     OW17470   3.253   0.651   4.937
 5524SOL    HW117471   3.192   0.693   4.871
 5524SOL    HW217472   3.292   0.567   4.898
 5525SOL     OW17473   6.896   2.889   1.290
 5525SOL    HW117474   6.982   2.849   1.258
 5525SOL    HW217475   6.903   2.989   1.289
 5526SOL     OW17476   4.591   4.339   3.139
 5526SOL    HW117477   4.504   4.309   3.178
 5526SOL    HW217478   4.574   4.415   3.077
 5527SOL     OW17479   5.107   2.698   4.210
 5527SOL    HW117480   5.113   2.755   4.291
 5527SOL    HW217481   5.196   2.655   4.192
 5528SOL     OW17482   1.189   1.619   1.338
 5528SOL    HW117483   1.158   1.700   1.290
 5528SOL    HW217484   1.267   1.579   1.290
 5529SOL     OW17485   3.297   0.450   2.756
 5529SOL    HW117486   3.242   0.505   2.694
 5529SOL    HW217487   3.249   0.439   2.843
 5530SOL     OW17488   6.803   2.179   1.366
 5530SOL    HW117489   6.850   2.257   1.409
 5530SOL    HW217490   6.779   2.202   1.272
 5531SOL     OW17491   3.719   3.954   1.421
 5531SOL    HW117492   3.637   3.912   1.381
 5531SOL    HW217493   3.698   3.986   1.514
 5532SOL     OW17494   1.881   2.457   1.533
 5532SOL    HW117495   1.931   2.544   1.538
 5532SOL    HW217496   1.945   2.383   1.510
 5533SOL     OW17497   4.232   2.150   4.145
 5533SOL    HW117498   4.317   2.201   4.152
 5533SOL    HW217499   4.215   2.101   4.230
 5534SOL     OW17500   0.842   1.716   5.436
 5534SOL    HW117501   0.876   1.809   5.443
 5534SOL    HW217502   0.887   1.658   5.504
 5535SOL     OW17503   1.034   1.604   3.223
 5535SOL    HW117504   1.042   1.674   3.293
 5535SOL    HW217505   1.046   1.645   3.132
 5536SOL     OW17506   2.805   0.992   4.842
 5536SOL    HW117507   2.724   1.051   4.851
 5536SOL    HW217508   2.843   0.974   4.933
 5537SOL     OW17509   3.134   0.985   3.012
 5537SOL    HW117510   3.166   0.897   2.976
 5537SOL    HW217511   3.192   1.059   2.979
 5538SOL     OW17512   4.825   5.665   4.864
 5538SOL    HW117513   4.773   5.750   4.861
 5538SOL    HW217514   4.820   5.619   4.776
 5539SOL     OW17515   2.330   2.758   0.911
 5539SOL    HW117516   2.292   2.720   0.994
 5539SOL    HW217517   2.322   2.691   0.837
 5540SOL     OW17518   4.985   5.380   2.825
 5540SOL    HW117519   4.898   5.348   2.787
 5540SOL    HW217520   4.971   5.470   2.868
 5541SOL     OW17521   4.984   1.369   5.779
 5541SOL    HW117522   5.003   1.322   5.693
 5541SOL    HW217523   4.974   1.467   5.761
 5542SOL     OW17524   3.931   4.719   6.187
 5542SOL    HW117525   4.018   4.762   6.210
 5542SOL    HW217526   3.934   4.685   6.092
 5543SOL     OW17527   6.345   2.856   6.224
 5543SOL    HW117528   6.274   2.907   6.272
 5543SOL    HW217529   6.412   2.822   6.291
 5544SOL     OW17530   5.787   0.725   5.413
 5544SOL    HW117531   5.833   0.724   5.502
 5544SOL    HW217532   5.807   0.639   5.365
 5545SOL     OW17533   3.849   2.150   2.230
 5545SOL    HW117534   3.795   2.179   2.151
 5545SOL    HW217535   3.940   2.192   2.226
 5546SOL     OW17536   2.126   5.064   5.694
 5546SOL    HW117537   2.144   5.102   5.603
 5546SOL    HW217538   2.038   5.018   5.694
 5547SOL     OW17539   3.145   4.950   5.251
 5547SOL    HW117540   3.121   4.930   5.155
 5547SOL    HW217541   3.157   5.048   5.262
 5548SOL     OW17542   6.547   3.461   5.438
 5548SOL    HW117543   6.605   3.388   5.401
 5548SOL    HW217544   6.566   3.546   5.390
 5549SOL     OW17545   2.669   4.963   0.110
 5549SOL    HW117546   2.598   5.001   0.169
 5549SOL    HW217547   2.656   4.995   0.016
 5550SOL     OW17548   4.144   6.625   1.410
 5550SOL    HW117549   4.069   6.613   1.345
 5550SOL    HW217550   4.171   6.721   1.414
 5551SOL     OW17551   0.921   1.296   3.470
 5551SOL    HW117552   0.996   1.336   3.419
 5551SOL    HW217553   0.876   1.226   3.413
 5552SOL     OW17554   0.191   2.472   1.339
 5552SOL    HW117555   0.099   2.478   1.301
 5552SOL    HW217556   0.193   2.513   1.430
 5553SOL     OW17557   5.481   6.083   0.602
 5553SOL    HW117558   5.493   6.016   0.675
 5553SOL    HW217559   5.570   6.103   0.560
 5554SOL     OW17560   2.931   2.226   4.858
 5554SOL    HW117561   3.013   2.240   4.913
 5554SOL    HW217562   2.851   2.229   4.917
 5555SOL     OW17563   0.386   5.404   3.584
 5555SOL    HW117564   0.445   5.359   3.517
 5555SOL    HW217565   0.400   5.362   3.674
 5556SOL     OW17566   0.491   2.014   4.817
 5556SOL    HW117567   0.539   1.979   4.898
 5556SOL    HW217568   0.436   1.942   4.776
 5557SOL     OW17569   1.808   0.073   3.825
 5557SOL    HW117570   1.861   0.091   3.908
 5557SOL    HW217571   1.869   0.036   3.755
 5558SOL     OW17572   5.243   3.150   5.253
 5558SOL    HW117573   5.173   3.093   5.209
 5558SOL    HW217574   5.243   3.132   5.351
 5559SOL     OW17575   1.928   0.470   0.926
 5559SOL    HW117576   1.961   0.523   1.003
 5559SOL    HW217577   1.844   0.512   0.891
 5560SOL     OW17578   0.323   0.916   3.655
 5560SOL    HW117579   0.264   0.970   3.596
 5560SOL    HW217580   0.375   0.977   3.714
 5561SOL     OW17581   1.647   2.518   3.566
 5561SOL    HW117582   1.587   2.572   3.507
 5561SOL    HW217583   1.665   2.430   3.522
 5562SOL     OW17584   2.597   2.893   6.255
 5562SOL    HW117585   2.532   2.914   6.328
 5562SOL    HW217586   2.668   2.832   6.291
 5563SOL     OW17587   4.560   5.887   1.703
 5563SOL    HW117588   4.608   5.974   1.690
 5563SOL    HW217589   4.462   5.903   1.701
 5564SOL     OW17590   5.397   4.098   1.851
 5564SOL    HW117591   5.324   4.162   1.874
 5564SOL    HW217592   5.382   4.011   1.898
 5565SOL     OW17593   3.473   3.155   5.528
 5565SOL    HW117594   3.570   3.175   5.514
 5565SOL    HW217595   3.425   3.158   5.440
 5566SOL     OW17596   1.790   4.866   1.314
 5566SOL    HW117597   1.847   4.942   1.282
 5566SOL    HW217598   1.728   4.899   1.385
 5567SOL     OW17599   1.204   5.552   1.890
 5567SOL    HW117600   1.123   5.498   1.867
 5567SOL    HW217601   1.273   5.543   1.818
 5568SOL     OW17602   3.268   1.999   1.565
 5568SOL    HW117603   3.349   1.940   1.564
 5568SOL    HW217604   3.286   2.081   1.619
 5569SOL     OW17605   4.954   1.252   0.098
 5569SOL    HW117606   5.020   1.188   0.058
 5569SOL    HW217607   4.974   1.345   0.066
 5570SOL     OW17608   0.037   4.122   6.015
 5570SOL    HW117609   0.024   4.044   5.954
 5570SOL    HW217610   0.099   4.188   5.972
 5571SOL     OW17611   6.818   4.948   6.678
 5571SOL    HW117612   6.792   4.872   6.618
 5571SOL    HW217613   6.736   4.994   6.711
 5572SOL     OW17614   4.977   2.392   6.395
 5572SOL    HW117615   5.016   2.483   6.407
 5572SOL    HW217616   4.999   2.335   6.474
 5573SOL     OW17617   1.189   3.645   0.572
 5573SOL    HW117618   1.218   3.675   0.481
 5573SOL    HW217619   1.093   3.619   0.569
 5574SOL     OW17620   0.712   6.039   4.746
 5574SOL    HW117621   0.700   5.983   4.828
 5574SOL    HW217622   0.762   5.986   4.677
 5575SOL     OW17623   1.565   0.963   0.635
 5575SOL    HW117624   1.635   1.034   0.639
 5575SOL    HW217625   1.601   0.882   0.590
 5576SOL     OW17626   6.121   6.117   6.755
 5576SOL    HW117627   6.054   6.191   6.764
 5576SOL    HW217628   6.108   6.051   6.828
 5577SOL     OW17629   2.175   3.940   5.555
 5577SOL    HW117630   2.172   3.840   5.566
 5577SOL    HW217631   2.160   3.963   5.459
 5578SOL     OW17632   4.213   2.528   6.910
 5578SOL    HW117633   4.289   2.573   6.863
 5578SOL    HW217634   4.195   2.439   6.869
 5579SOL     OW17635   4.804   4.326   6.819
 5579SOL    HW117636   4.813   4.249   6.755
 5579SOL    HW217637   4.780   4.290   6.910
 5580SOL     OW17638   5.961   1.486   0.545
 5580SOL    HW117639   5.969   1.387   0.559
 5580SOL    HW217640   6.045   1.531   0.574
 5581SOL     OW17641   2.349   2.091   6.776
 5581SOL    HW117642   2.278   2.156   6.751
 5581SOL    HW217643   2.409   2.132   6.845
 5582SOL     OW17644   4.105   3.494   3.625
 5582SOL    HW117645   4.023   3.523   3.675
 5582SOL    HW217646   4.110   3.394   3.625
 5583SOL     OW17647   4.221   6.886   1.384
 5583SOL    HW117648   4.135   6.930   1.359
 5583SOL    HW217649   4.237   6.896   1.482
 5584SOL     OW17650   6.702   2.932   3.353
 5584SOL    HW117651   6.688   2.833   3.357
 5584SOL    HW217652   6.778   2.952   3.290
 5585SOL     OW17653   6.067   0.237   4.237
 5585SOL    HW117654   6.022   0.324   4.220
 5585SOL    HW217655   6.145   0.228   4.175
 5586SOL     OW17656   2.032   0.955   6.290
 5586SOL    HW117657   1.958   0.887   6.289
 5586SOL    HW217658   2.019   1.018   6.213
 5587SOL     OW17659   3.522   0.265   3.885
 5587SOL    HW117660   3.487   0.229   3.798
 5587SOL    HW217661   3.536   0.364   3.877
 5588SOL     OW17662   3.794   7.001   6.275
 5588SOL    HW117663   3.710   0.028   6.265
 5588SOL    HW217664   3.785   6.936   6.351
 5589SOL     OW17665   4.422   3.040   0.019
 5589SOL    HW117666   4.369   2.979   0.077
 5589SOL    HW217667   4.362   3.110   7.004
 5590SOL     OW17668   7.019   6.189   3.518
 5590SOL    HW117669   0.083   6.144   3.514
 5590SOL    HW217670   7.000   6.218   3.611
 5591SOL     OW17671   4.688   1.016   0.036
 5591SOL    HW117672   4.645   1.019   6.972
 5591SOL    HW217673   4.763   1.082   0.040
 5592SOL     OW17674   1.836   2.833   2.679
 5592SOL    HW117675   1.743   2.806   2.704
 5592SOL    HW217676   1.890   2.849   2.762
 5593SOL     OW17677   1.624   3.154   5.954
 5593SOL    HW117678   1.558   3.103   6.009
 5593SOL    HW217679   1.716   3.123   5.976
 5594SOL     OW17680   2.090   0.500   6.886
 5594SOL    HW117681   2.040   0.469   6.967
 5594SOL    HW217682   2.110   0.423   6.827
 5595SOL     OW17683   6.521   2.286   5.945
 5595SOL    HW117684   6.590   2.311   6.013
 5595SOL    HW217685   6.548   2.200   5.901
 5596SOL     OW17686   4.840   1.252   3.336
 5596SOL    HW117687   4.833   1.287   3.242
 5596SOL    HW217688   4.776   1.301   3.395
 5597SOL     OW17689   0.061   1.162   6.011
 5597SOL    HW117690   6.997   1.134   6.043
 5597SOL    HW217691   0.127   1.088   6.026
 5598SOL     OW17692   6.692   2.492   4.247
 5598SOL    HW117693   6.750   2.448   4.178
 5598SOL    HW217694   6.621   2.546   4.202
 5599SOL     OW17695   5.197   2.857   3.331
 5599SOL    HW117696   5.240   2.917   3.399
 5599SOL    HW217697   5.099   2.849   3.350
 5600SOL     OW17698   2.706   1.618   2.360
 5600SOL    HW117699   2.798   1.578   2.365
 5600SOL    HW217700   2.713   1.717   2.371
 5601SOL     OW17701   5.734   2.528   5.497
 5601SOL    HW117702   5.696   2.540   5.588
 5601SOL    HW217703   5.685   2.586   5.432
 5602SOL     OW17704   6.634   2.254   2.416
 5602SOL    HW117705   6.733   2.260   2.428
 5602SOL    HW217706   6.612   2.173   2.360
 5603SOL     OW17707   4.053   1.640   5.029
 5603SOL    HW117708   4.105   1.583   4.965
 5603SOL    HW217709   4.063   1.604   5.121
 5604SOL     OW17710   1.096   0.625   4.401
 5604SOL    HW117711   1.007   0.579   4.404
 5604SOL    HW217712   1.145   0.597   4.318
 5605SOL     OW17713   3.349   6.124   4.607
 5605SOL    HW117714   3.394   6.116   4.696
 5605SOL    HW217715   3.411   6.167   4.542
 5606SOL     OW17716   4.349   2.592   0.456
 5606SOL    HW117717   4.363   2.522   0.526
 5606SOL    HW217718   4.251   2.604   0.439
 5607SOL     OW17719   6.381   2.592   2.669
 5607SOL    HW117720   6.319   2.570   2.594
 5607SOL    HW217721   6.445   2.516   2.684
 5608SOL     OW17722   4.938   0.588   3.524
 5608SOL    HW117723   4.914   0.571   3.428
 5608SOL    HW217724   4.943   0.686   3.540
 5609SOL     OW17725   6.955   0.150   0.781
 5609SOL    HW117726   0.002   0.208   0.746
 5609SOL    HW217727   6.921   0.188   0.867
 5610SOL     OW17728   5.428   4.498   0.461
 5610SOL    HW117729   5.516   4.466   0.496
 5610SOL    HW217730   5.442   4.548   0.375
 5611SOL     OW17731   6.660   4.571   1.452
 5611SOL    HW117732   6.578   4.513   1.444
 5611SOL    HW217733   6.684   4.581   1.549
 5612SOL     OW17734   2.957   1.473   0.504
 5612SOL    HW117735   2.957   1.374   0.500
 5612SOL    HW217736   2.868   1.506   0.535
 5613SOL     OW17737   6.511   5.160   5.720
 5613SOL    HW117738   6.500   5.218   5.801
 5613SOL    HW217739   6.585   5.095   5.735
 5614SOL     OW17740   5.594   2.616   3.916
 5614SOL    HW117741   5.523   2.683   3.940
 5614SOL    HW217742   5.570   2.528   3.955
 5615SOL     OW17743   0.194   3.014   2.803
 5615SOL    HW117744   0.188   2.950   2.880
 5615SOL    HW217745   0.166   3.105   2.834
 5616SOL     OW17746   1.237   3.191   2.522
 5616SOL    HW117747   1.223   3.157   2.429
 5616SOL    HW217748   1.212   3.121   2.588
 5617SOL     OW17749   2.050   5.132   5.961
 5617SOL    HW117750   2.094   5.124   5.872
 5617SOL    HW217751   2.095   5.203   6.014
 5618SOL     OW17752   6.226   5.818   3.109
 5618SOL    HW117753   6.196   5.851   3.020
 5618SOL    HW217754   6.309   5.867   3.136
 5619SOL     OW17755   3.719   2.974   3.954
 5619SOL    HW117756   3.638   2.917   3.940
 5619SOL    HW217757   3.739   2.979   4.052
 5620SOL     OW17758   5.045   4.621   5.158
 5620SOL    HW117759   5.042   4.522   5.147
 5620SOL    HW217760   4.994   4.664   5.084
 5621SOL     OW17761   1.525   2.317   5.450
 5621SOL    HW117762   1.492   2.407   5.423
 5621SOL    HW217763   1.613   2.299   5.404
 5622SOL     OW17764   4.835   6.100   4.593
 5622SOL    HW117765   4.901   6.053   4.651
 5622SOL    HW217766   4.882   6.144   4.516
 5623SOL     OW17767   4.997   5.388   3.494
 5623SOL    HW117768   4.958   5.327   3.563
 5623SOL    HW217769   4.970   5.357   3.403
 5624SOL     OW17770   6.386   5.481   3.980
 5624SOL    HW117771   6.348   5.572   3.998
 5624SOL    HW217772   6.367   5.421   4.057
 5625SOL     OW17773   1.011   6.497   5.054
 5625SOL    HW117774   0.979   6.405   5.075
 5625SOL    HW217775   1.062   6.533   5.131
 5626SOL     OW17776   0.913   4.261   6.039
 5626SOL    HW117777   0.876   4.287   5.950
 5626SOL    HW217778   0.990   4.321   6.062
 5627SOL     OW17779   0.611   5.949   0.253
 5627SOL    HW117780   0.674   5.872   0.243
 5627SOL    HW217781   0.553   5.955   0.172
 5628SOL     OW17782   2.436   2.321   1.734
 5628SOL    HW117783   2.516   2.351   1.786
 5628SOL    HW217784   2.376   2.399   1.717
 5629SOL     OW17785   5.422   3.263   2.115
 5629SOL    HW117786   5.387   3.345   2.162
 5629SOL    HW217787   5.501   3.289   2.060
 5630SOL     OW17788   1.368   4.314   6.960
 5630SOL    HW117789   1.326   4.271   6.880
 5630SOL    HW217790   1.327   4.278   0.018
 5631SOL     OW17791   4.150   1.597   1.681
 5631SOL    HW117792   4.098   1.673   1.719
 5631SOL    HW217793   4.239   1.629   1.651
 5632SOL     OW17794   5.411   6.945   5.804
 5632SOL    HW117795   5.382   6.943   5.709
 5632SOL    HW217796   5.331   6.961   5.863
 5633SOL     OW17797   0.756   5.014   5.857
 5633SOL    HW117798   0.718   5.028   5.949
 5633SOL    HW217799   0.700   4.946   5.809
 5634SOL     OW17800   2.393   0.171   1.240
 5634SOL    HW117801   2.392   0.188   1.142
 5634SOL    HW217802   2.374   0.256   1.289
 5635SOL     OW17803   1.995   0.736   6.777
 5635SOL    HW117804   2.006   0.655   6.835
 5635SOL    HW217805   2.084   0.778   6.762
 5636SOL     OW17806   6.055   1.672   5.717
 5636SOL    HW117807   6.111   1.753   5.734
 5636SOL    HW217808   6.115   1.594   5.696
 5637SOL     OW17809   4.527   6.575   4.706
 5637SOL    HW117810   4.586   6.643   4.750
 5637SOL    HW217811   4.516   6.598   4.609
 5638SOL     OW17812   6.121   5.659   1.355
 5638SOL    HW117813   6.150   5.609   1.274
 5638SOL    HW217814   6.140   5.757   1.342
 5639SOL     OW17815   1.420   0.257   0.853
 5639SOL    HW117816   1.459   0.185   0.910
 5639SOL    HW217817   1.326   0.276   0.883
 5640SOL     OW17818   2.907   5.882   2.928
 5640SOL    HW117819   2.826   5.939   2.935
 5640SOL    HW217820   2.904   5.828   2.844
 5641SOL     OW17821   1.234   4.269   4.365
 5641SOL    HW117822   1.234   4.186   4.310
 5641SOL    HW217823   1.154   4.267   4.426
 5642SOL     OW17824   1.663   4.904   0.010
 5642SOL    HW117825   1.727   4.865   6.968
 5642SOL    HW217826   1.651   4.839   0.085
 5643SOL     OW17827   4.492   2.201   5.045
 5643SOL    HW117828   4.462   2.289   5.011
 5643SOL    HW217829   4.444   2.128   4.997
 5644SOL     OW17830   4.484   0.855   4.921
 5644SOL    HW117831   4.411   0.912   4.885
 5644SOL    HW217832   4.450   0.803   4.999
 5645SOL     OW17833   5.658   5.561   4.608
 5645SOL    HW117834   5.681   5.538   4.514
 5645SOL    HW217835   5.573   5.613   4.610
 5646SOL     OW17836   0.389   5.937   4.529
 5646SOL    HW117837   0.394   5.922   4.627
 5646SOL    HW217838   0.453   5.876   4.482
 5647SOL     OW17839   5.497   5.273   6.028
 5647SOL    HW117840   5.580   5.227   6.061
 5647SOL    HW217841   5.422   5.256   6.092
 5648SOL     OW17842   1.700   1.696   4.689
 5648SOL    HW117843   1.715   1.787   4.650
 5648SOL    HW217844   1.714   1.627   4.618
 5649SOL     OW17845   0.569   0.912   5.493
 5649SOL    HW117846   0.635   0.948   5.427
 5649SOL    HW217847   0.594   0.942   5.585
 5650SOL     OW17848   6.150   4.939   6.788
 5650SOL    HW117849   6.229   4.939   6.726
 5650SOL    HW217850   6.093   4.859   6.769
 5651SOL     OW17851   6.813   0.437   3.029
 5651SOL    HW117852   6.770   0.471   2.945
 5651SOL    HW217853   6.871   0.358   3.007
 5652SOL     OW17854   4.707   4.748   0.932
 5652SOL    HW117855   4.628   4.783   0.983
 5652SOL    HW217856   4.702   4.649   0.926
 5653SOL     OW17857   1.076   5.998   6.157
 5653SOL    HW117858   1.141   6.057   6.108
 5653SOL    HW217859   1.124   5.946   6.227
 5654SOL     OW17860   6.833   6.286   5.591
 5654SOL    HW117861   6.769   6.355   5.627
 5654SOL    HW217862   6.841   6.297   5.492
 5655SOL     OW17863   6.936   3.239   3.786
 5655SOL    HW117864   6.935   3.318   3.848
 5655SOL    HW217865   7.015   3.245   3.725
 5656SOL     OW17866   3.570   4.709   0.403
 5656SOL    HW117867   3.522   4.689   0.489
 5656SOL    HW217868   3.667   4.684   0.413
 5657SOL     OW17869   3.831   6.824   1.922
 5657SOL    HW117870   3.786   6.911   1.945
 5657SOL    HW217871   3.877   6.788   2.003
 5658SOL     OW17872   3.951   0.013   5.934
 5658SOL    HW117873   3.866   0.065   5.946
 5658SOL    HW217874   3.990   0.033   5.844
 5659SOL     OW17875   2.985   3.888   3.026
 5659SOL    HW117876   2.954   3.887   2.932
 5659SOL    HW217877   3.049   3.964   3.040
 5660SOL     OW17878   5.886   6.752   6.879
 5660SOL    HW117879   5.966   6.693   6.892
 5660SOL    HW217880   5.898   6.837   6.930
 5661SOL     OW17881   6.221   5.628   4.200
 5661SOL    HW117882   6.318   5.647   4.216
 5661SOL    HW217883   6.166   5.702   4.239
 5662SOL     OW17884   2.308   4.674   4.347
 5662SOL    HW117885   2.348   4.674   4.255
 5662SOL    HW217886   2.225   4.619   4.347
 5663SOL     OW17887   1.479   4.501   0.490
 5663SOL    HW117888   1.445   4.480   0.399
 5663SOL    HW217889   1.473   4.419   0.548
 5664SOL     OW17890   0.409   4.461   2.559
 5664SOL    HW117891   0.371   4.420   2.476
 5664SOL    HW217892   0.434   4.556   2.540
 5665SOL     OW17893   2.369   2.766   5.851
 5665SOL    HW117894   2.440   2.716   5.902
 5665SOL    HW217895   2.407   2.802   5.766
 5666SOL     OW17896   5.611   4.390   1.039
 5666SOL    HW117897   5.605   4.342   1.126
 5666SOL    HW217898   5.664   4.336   0.973
 5667SOL     OW17899   0.126   4.789   3.582
 5667SOL    HW117900   0.194   4.842   3.530
 5667SOL    HW217901   0.036   4.830   3.570
 5668SOL     OW17902   5.634   2.124   6.244
 5668SOL    HW117903   5.637   2.183   6.324
 5668SOL    HW217904   5.656   2.030   6.271
 5669SOL     OW17905   0.639   4.278   6.232
 5669SOL    HW117906   0.707   4.351   6.225
 5669SOL    HW217907   0.586   4.273   6.148
 5670SOL     OW17908   0.700   3.865   3.901
 5670SOL    HW117909   0.694   3.944   3.962
 5670SOL    HW217910   0.650   3.885   3.816
 5671SOL     OW17911   1.677   1.012   5.757
 5671SOL    HW117912   1.712   1.105   5.745
 5671SOL    HW217913   1.742   0.947   5.719
 5672SOL     OW17914   4.698   4.897   5.714
 5672SOL    HW117915   4.647   4.981   5.701
 5672SOL    HW217916   4.688   4.866   5.809
 5673SOL     OW17917   0.545   0.633   2.568
 5673SOL    HW117918   0.553   0.543   2.612
 5673SOL    HW217919   0.449   0.655   2.555
 5674SOL     OW17920   6.666   3.242   1.907
 5674SOL    HW117921   6.727   3.316   1.878
 5674SOL    HW217922   6.628   3.197   1.826
 5675SOL     OW17923   4.529   2.576   5.413
 5675SOL    HW117924   4.458   2.531   5.466
 5675SOL    HW217925   4.536   2.533   5.323
 5676SOL     OW17926   2.355   0.410   2.032
 5676SOL    HW117927   2.444   0.367   2.013
 5676SOL    HW217928   2.357   0.505   2.002
 5677SOL     OW17929   6.289   0.859   3.626
 5677SOL    HW117930   6.382   0.878   3.593
 5677SOL    HW217931   6.246   0.791   3.566
 5678SOL     OW17932   2.809   6.510   2.951
 5678SOL    HW117933   2.828   6.434   3.013
 5678SOL    HW217934   2.757   6.476   2.872
 5679SOL     OW17935   2.151   6.813   5.017
 5679SOL    HW117936   2.167   6.869   5.099
 5679SOL    HW217937   2.136   6.718   5.044
 5680SOL     OW17938   2.062   5.734   6.627
 5680SOL    HW117939   1.997   5.809   6.631
 5680SOL    HW217940   2.112   5.736   6.541
 5681SOL     OW17941   1.252   3.002   6.928
 5681SOL    HW117942   1.291   2.912   6.945
 5681SOL    HW217943   1.298   3.045   6.851
 5682SOL     OW17944   1.259   3.768   5.208
 5682SOL    HW117945   1.318   3.767   5.128
 5682SOL    HW217946   1.173   3.814   5.186
 5683SOL     OW17947   3.267   2.400   5.828
 5683SOL    HW117948   3.289   2.440   5.739
 5683SOL    HW217949   3.245   2.472   5.893
 5684SOL     OW17950   3.586   3.963   4.078
 5684SOL    HW117951   3.522   4.013   4.020
 5684SOL    HW217952   3.538   3.923   4.155
 5685SOL     OW17953   0.033   5.004   1.856
 5685SOL    HW117954   6.981   5.051   1.815
 5685SOL    HW217955   0.069   5.058   1.933
 5686SOL     OW17956   3.595   0.259   0.576
 5686SOL    HW117957   3.556   0.169   0.594
 5686SOL    HW217958   3.620   0.266   0.480
 5687SOL     OW17959   5.080   4.941   5.265
 5687SOL    HW117960   5.133   4.977   5.188
 5687SOL    HW217961   5.000   4.999   5.281
 5688SOL     OW17962   5.906   1.762   1.464
 5688SOL    HW117963   5.814   1.758   1.425
 5688SOL    HW217964   5.909   1.830   1.536
 5689SOL     OW17965   3.670   2.249   0.360
 5689SOL    HW117966   3.702   2.247   0.455
 5689SOL    HW217967   3.593   2.313   0.352
 5690SOL     OW17968   5.078   6.411   0.876
 5690SOL    HW117969   5.064   6.434   0.780
 5690SOL    HW217970   4.989   6.402   0.921
 5691SOL     OW17971   2.029   0.325   1.810
 5691SOL    HW117972   2.012   0.415   1.771
 5691SOL    HW217973   2.127   0.305   1.806
 5692SOL     OW17974   6.454   2.674   6.917
 5692SOL    HW117975   6.408   2.737   6.855
 5692SOL    HW217976   6.468   2.718   7.006
 5693SOL     OW17977   4.887   2.410   2.518
 5693SOL    HW117978   4.946   2.444   2.591
 5693SOL    HW217979   4.799   2.382   2.556
 5694SOL     OW17980   0.269   1.709   3.730
 5694SOL    HW117981   0.186   1.703   3.674
 5694SOL    HW217982   0.245   1.741   3.821
 5695SOL     OW17983   1.866   3.272   3.465
 5695SOL    HW117984   1.815   3.244   3.546
 5695SOL    HW217985   1.956   3.307   3.492
 5696SOL     OW17986   2.726   0.459   4.810
 5696SOL    HW117987   2.807   0.489   4.859
 5696SOL    HW217988   2.703   0.525   4.738
 5697SOL     OW17989   6.413   2.362   0.287
 5697SOL    HW117990   6.456   2.349   0.376
 5697SOL    HW217991   6.421   2.458   0.259
 5698SOL     OW17992   0.907   3.634   1.743
 5698SOL    HW117993   0.898   3.568   1.817
 5698SOL    HW217994   0.971   3.599   1.674
 5699SOL     OW17995   5.671   0.781   4.927
 5699SOL    HW117996   5.688   0.790   5.025
 5699SOL    HW217997   5.753   0.742   4.883
 5700SOL     OW17998   1.812   5.830   4.407
 5700SOL    HW117999   1.739   5.764   4.425
 5700SOL    HW218000   1.795   5.913   4.461
 5701SOL     OW18001   6.315   5.284   1.676
 5701SOL    HW118002   6.336   5.352   1.606
 5701SOL    HW218003   6.286   5.199   1.632
 5702SOL     OW18004   2.614   0.400   6.398
 5702SOL    HW118005   2.624   0.370   6.303
 5702SOL    HW218006   2.556   0.336   6.447
 5703SOL     OW18007   4.522   4.989   0.341
 5703SOL    HW118008   4.451   5.050   0.305
 5703SOL    HW218009   4.524   4.996   0.441
 5704SOL     OW18010   4.740   5.426   3.770
 5704SOL    HW118011   4.711   5.501   3.712
 5704SOL    HW218012   4.775   5.462   3.857
 5705SOL     OW18013   5.876   0.289   1.520
 5705SOL    HW118014   5.958   0.331   1.559
 5705SOL    HW218015   5.853   0.334   1.434
 5706SOL     OW18016   0.826   1.195   6.789
 5706SOL    HW118017   0.892   1.143   6.735
 5706SOL    HW218018   0.873   1.240   6.866
 5707SOL     OW18019   2.350   1.661   6.557
 5707SOL    HW118020   2.412   1.734   6.585
 5707SOL    HW218021   2.258   1.681   6.592
 5708SOL     OW18022   4.812   6.842   2.546
 5708SOL    HW118023   4.821   6.940   2.560
 5708SOL    HW218024   4.809   6.822   2.448
 5709SOL     OW18025   0.062   6.845   2.777
 5709SOL    HW118026   0.140   6.825   2.836
 5709SOL    HW218027   0.005   6.915   2.820
 5710SOL     OW18028   3.342   3.012   6.122
 5710SOL    HW118029   3.318   3.036   6.028
 5710SOL    HW218030   3.392   3.088   6.164
 5711SOL     OW18031   4.584   0.998   4.464
 5711SOL    HW118032   4.538   0.968   4.381
 5711SOL    HW218033   4.634   0.921   4.504
 5712SOL     OW18034   0.201   6.047   6.240
 5712SOL    HW118035   0.125   6.057   6.176
 5712SOL    HW218036   0.282   6.015   6.191
 5713SOL     OW18037   0.065   2.862   2.483
 5713SOL    HW118038   0.097   2.816   2.566
 5713SOL    HW218039   0.065   2.961   2.497
 5714SOL     OW18040   1.621   0.886   5.986
 5714SOL    HW118041   1.536   0.838   5.963
 5714SOL    HW218042   1.652   0.939   5.907
 5715SOL     OW18043   1.518   6.413   2.496
 5715SOL    HW118044   1.423   6.425   2.525
 5715SOL    HW218045   1.559   6.503   2.481
 5716SOL     OW18046   1.885   3.769   6.013
 5716SOL    HW118047   1.971   3.726   5.989
 5716SOL    HW218048   1.879   3.859   5.970
 5717SOL     OW18049   1.220   4.067   0.459
 5717SOL    HW118050   1.200   4.109   0.548
 5717SOL    HW218051   1.319   4.060   0.448
 5718SOL     OW18052   3.099   4.809   6.703
 5718SOL    HW118053   3.042   4.831   6.783
 5718SOL    HW218054   3.082   4.876   6.631
 5719SOL     OW18055   3.143   0.577   6.761
 5719SOL    HW118056   3.120   0.665   6.720
 5719SOL    HW218057   3.064   0.543   6.812
 5720SOL     OW18058   1.688   5.155   5.161
 5720SOL    HW118059   1.728   5.182   5.248
 5720SOL    HW218060   1.689   5.055   5.153
 5721SOL     OW18061   0.630   3.618   1.431
 5721SOL    HW118062   0.577   3.543   1.474
 5721SOL    HW218063   0.646   3.689   1.499
 5722SOL     OW18064   5.328   6.840   4.678
 5722SOL    HW118065   5.238   6.804   4.702
 5722SOL    HW218066   5.318   6.926   4.628
 5723SOL     OW18067   3.570   5.563   0.354
 5723SOL    HW118068   3.497   5.535   0.417
 5723SOL    HW218069   3.597   5.657   0.374
 5724SOL     OW18070   5.329   1.778   6.218
 5724SOL    HW118071   5.321   1.729   6.305
 5724SOL    HW218072   5.422   1.770   6.184
 5725SOL     OW18073   5.518   4.852   5.391
 5725SOL    HW118074   5.433   4.840   5.442
 5725SOL    HW218075   5.514   4.797   5.307
 5726SOL     OW18076   5.857   3.513   6.093
 5726SOL    HW118077   5.886   3.497   6.187
 5726SOL    HW218078   5.837   3.425   6.049
 5727SOL     OW18079   5.608   1.890   3.354
 5727SOL    HW118080   5.637   1.984   3.373
 5727SOL    HW218081   5.520   1.872   3.399
 5728SOL     OW18082   6.136   0.369   5.004
 5728SOL    HW118083   6.220   0.419   5.024
 5728SOL    HW218084   6.107   0.390   4.910
 5729SOL     OW18085   0.393   2.082   6.428
 5729SOL    HW118086   0.433   2.009   6.483
 5729SOL    HW218087   0.324   2.130   6.482
 5730SOL     OW18088   3.954   4.629   5.929
 5730SOL    HW118089   3.993   4.694   5.865
 5730SOL    HW218090   3.855   4.625   5.916
 5731SOL     OW18091   2.813   0.756   3.983
 5731SOL    HW118092   2.912   0.739   3.977
 5731SOL    HW218093   2.783   0.804   3.900
 5732SOL     OW18094   5.794   5.167   5.221
 5732SOL    HW118095   5.856   5.095   5.190
 5732SOL    HW218096   5.809   5.249   5.165
 5733SOL     OW18097   3.320   1.188   0.040
 5733SOL    HW118098   3.256   1.170   0.115
 5733SOL    HW218099   3.413   1.163   0.069
 5734SOL     OW18100   1.574   6.338   5.888
 5734SOL    HW118101   1.475   6.323   5.891
 5734SOL    HW218102   1.620   6.253   5.862
 5735SOL     OW18103   4.182   0.624   2.139
 5735SOL    HW118104   4.210   0.528   2.145
 5735SOL    HW218105   4.228   0.677   2.210
 5736SOL     OW18106   4.479   3.936   6.868
 5736SOL    HW118107   4.430   3.902   6.949
 5736SOL    HW218108   4.478   3.865   6.797
 5737SOL     OW18109   4.715   5.380   1.170
 5737SOL    HW118110   4.751   5.436   1.245
 5737SOL    HW218111   4.706   5.285   1.201
 5738SOL     OW18112   3.277   1.109   6.524
 5738SOL    HW118113   3.355   1.151   6.478
 5738SOL    HW218114   3.194   1.127   6.473
 5739SOL     OW18115   3.024   0.573   5.677
 5739SOL    HW118116   3.123   0.567   5.687
 5739SOL    HW218117   3.001   0.580   5.580
 5740SOL     OW18118   5.323   3.836   1.937
 5740SOL    HW118119   5.232   3.843   1.896
 5740SOL    HW218120   5.353   3.740   1.934
 5741SOL     OW18121   0.536   3.701   4.380
 5741SOL    HW118122   0.453   3.756   4.392
 5741SOL    HW218123   0.533   3.654   4.292
 5742SOL     OW18124   4.314   0.325   3.497
 5742SOL    HW118125   4.301   0.238   3.449
 5742SOL    HW218126   4.404   0.363   3.472
 5743SOL     OW18127   3.595   3.889   5.302
 5743SOL    HW118128   3.594   3.984   5.332
 5743SOL    HW218129   3.682   3.869   5.256
 5744SOL     OW18130   5.918   6.089   2.705
 5744SOL    HW118131   5.925   6.052   2.797
 5744SOL    HW218132   5.968   6.175   2.699
 5745SOL     OW18133   2.173   2.735   3.541
 5745SOL    HW118134   2.209   2.692   3.623
 5745SOL    HW218135   2.088   2.783   3.562
 5746SOL     OW18136   4.159   0.292   3.714
 5746SOL    HW118137   4.074   0.242   3.701
 5746SOL    HW218138   4.202   0.309   3.626
 5747SOL     OW18139   0.830   5.862   1.832
 5747SOL    HW118140   0.740   5.868   1.788
 5747SOL    HW218141   0.835   5.779   1.886
 5748SOL     OW18142   0.537   6.194   0.846
 5748SOL    HW118143   0.514   6.114   0.902
 5748SOL    HW218144   0.563   6.164   0.754
 5749SOL     OW18145   1.678   6.285   5.041
 5749SOL    HW118146   1.747   6.270   4.969
 5749SOL    HW218147   1.587   6.274   5.002
 5750SOL     OW18148   6.756   4.629   3.934
 5750SOL    HW118149   6.705   4.581   4.006
 5750SOL    HW218150   6.851   4.599   3.936
 5751SOL     OW18151   2.093   3.758   4.358
 5751SOL    HW118152   2.150   3.686   4.317
 5751SOL    HW218153   2.077   3.737   4.454
 5752SOL     OW18154   5.436   0.226   0.888
 5752SOL    HW118155   5.526   0.243   0.849
 5752SOL    HW218156   5.446   0.181   0.977
 5753SOL     OW18157   3.266   4.120   4.826
 5753SOL    HW118158   3.174   4.086   4.847
 5753SOL    HW218159   3.266   4.220   4.830
 5754SOL     OW18160   0.699   6.196   1.787
 5754SOL    HW118161   0.685   6.153   1.697
 5754SOL    HW218162   0.795   6.221   1.797
 5755SOL     OW18163   2.197   2.098   0.132
 5755SOL    HW118164   2.179   2.148   0.217
 5755SOL    HW218165   2.229   2.162   0.062
 5756SOL     OW18166   5.677   5.948   1.850
 5756SOL    HW118167   5.690   5.854   1.818
 5756SOL    HW218168   5.582   5.974   1.838
 5757SOL     OW18169   6.954   6.972   3.680
 5757SOL    HW118170   6.887   6.963   3.606
 5757SOL    HW218171   6.956   0.041   3.711
 5758SOL     OW18172   0.931   6.696   3.278
 5758SOL    HW118173   0.946   6.599   3.260
 5758SOL    HW218174   0.974   6.750   3.207
 5759SOL     OW18175   4.014   6.475   1.591
 5759SOL    HW118176   4.084   6.522   1.537
 5759SOL    HW218177   3.960   6.542   1.641
 5760SOL     OW18178   6.947   3.100   1.862
 5760SOL    HW118179   6.874   3.101   1.931
 5760SOL    HW218180   6.928   3.170   1.793
 5761SOL     OW18181   5.394   5.446   4.784
 5761SOL    HW118182   5.454   5.366   4.785
 5761SOL    HW218183   5.414   5.503   4.863
 5762SOL     OW18184   5.201   4.074   6.726
 5762SOL    HW118185   5.147   3.995   6.757
 5762SOL    HW218186   5.157   4.158   6.756
 5763SOL     OW18187   5.665   0.396   0.763
 5763SOL    HW118188   5.718   0.480   0.773
 5763SOL    HW218189   5.724   0.323   0.729
 5764SOL     OW18190   4.498   5.311   3.148
 5764SOL    HW118191   4.482   5.226   3.097
 5764SOL    HW218192   4.587   5.349   3.122
 5765SOL     OW18193   6.410   4.669   1.337
 5765SOL    HW118194   6.464   4.587   1.315
 5765SOL    HW218195   6.463   4.730   1.396
 5766SOL     OW18196   0.706   1.735   4.674
 5766SOL    HW118197   0.646   1.793   4.618
 5766SOL    HW218198   0.764   1.793   4.731
 5767SOL     OW18199   2.110   0.036   1.245
 5767SOL    HW118200   2.069   6.995   1.182
 5767SOL    HW218201   2.209   0.037   1.232
 5768SOL     OW18202   6.744   6.423   4.133
 5768SOL    HW118203   6.772   6.354   4.199
 5768SOL    HW218204   6.653   6.401   4.098
 5769SOL     OW18205   1.472   5.125   6.268
 5769SOL    HW118206   1.533   5.069   6.211
 5769SOL    HW218207   1.419   5.187   6.210
 5770SOL     OW18208   0.910   5.746   1.383
 5770SOL    HW118209   0.892   5.829   1.331
 5770SOL    HW218210   0.995   5.757   1.435
 5771SOL     OW18211   2.175   5.272   4.034
 5771SOL    HW118212   2.099   5.290   3.971
 5771SOL    HW218213   2.178   5.174   4.054
 5772SOL     OW18214   4.821   0.112   2.001
 5772SOL    HW118215   4.734   0.162   2.004
 5772SOL    HW218216   4.804   0.015   2.013
 5773SOL     OW18217   4.687   2.175   2.133
 5773SOL    HW118218   4.627   2.096   2.141
 5773SOL    HW218219   4.638   2.249   2.087
 5774SOL     OW18220   0.637   6.360   3.387
 5774SOL    HW118221   0.579   6.383   3.466
 5774SOL    HW218222   0.733   6.359   3.415
 5775SOL     OW18223   0.538   5.469   2.468
 5775SOL    HW118224   0.557   5.372   2.476
 5775SOL    HW218225   0.520   5.492   2.372
 5776SOL     OW18226   2.064   0.279   2.953
 5776SOL    HW118227   2.107   0.194   2.983
 5776SOL    HW218228   1.980   0.258   2.903
 5777SOL     OW18229   1.100   0.093   3.175
 5777SOL    HW118230   1.170   0.110   3.244
 5777SOL    HW218231   1.012   0.126   3.209
 5778SOL     OW18232   1.210   1.422   6.244
 5778SOL    HW118233   1.253   1.428   6.154
 5778SOL    HW218234   1.116   1.456   6.239
 5779SOL     OW18235   4.725   2.425   6.572
 5779SOL    HW118236   4.767   2.439   6.482
 5779SOL    HW218237   4.742   2.505   6.630
 5780SOL     OW18238   5.326   4.745   4.158
 5780SOL    HW118239   5.313   4.646   4.156
 5780SOL    HW218240   5.387   4.770   4.234
 5781SOL     OW18241   0.297   4.195   4.797
 5781SOL    HW118242   0.331   4.232   4.884
 5781SOL    HW218243   0.370   4.198   4.729
 5782SOL     OW18244   0.859   1.344   0.346
 5782SOL    HW118245   0.909   1.262   0.376
 5782SOL    HW218246   0.761   1.325   0.344
 5783SOL     OW18247   1.700   1.408   1.766
 5783SOL    HW118248   1.614   1.375   1.805
 5783SOL    HW218249   1.681   1.468   1.689
 5784SOL     OW18250   0.133   6.490   0.010
 5784SOL    HW118251   0.046   6.451   7.008
 5784SOL    HW218252   0.132   6.506   0.109
 5785SOL     OW18253   2.519   1.585   0.842
 5785SOL    HW118254   2.475   1.510   0.793
 5785SOL    HW218255   2.454   1.660   0.852
 5786SOL     OW18256   6.924   3.831   0.094
 5786SOL    HW118257   6.991   3.811   0.165
 5786SOL    HW218258   6.936   3.925   0.063
 5787SOL     OW18259   2.685   1.958   5.716
 5787SOL    HW118260   2.663   2.025   5.787
 5787SOL    HW218261   2.659   1.994   5.626
 5788SOL     OW18262   2.551   0.544   2.787
 5788SOL    HW118263   2.465   0.540   2.737
 5788SOL    HW218264   2.538   0.595   2.872
 5789SOL     OW18265   3.735   5.305   6.552
 5789SOL    HW118266   3.690   5.384   6.511
 5789SOL    HW218267   3.834   5.319   6.553
 5790SOL     OW18268   0.391   3.192   4.399
 5790SOL    HW118269   0.322   3.140   4.450
 5790SOL    HW218270   0.435   3.132   4.332
 5791SOL     OW18271   2.769   0.068   2.778
 5791SOL    HW118272   2.750   0.166   2.769
 5791SOL    HW218273   2.837   0.053   2.850
 5792SOL     OW18274   0.116   1.929   3.225
 5792SOL    HW118275   0.067   2.008   3.187
 5792SOL    HW218276   0.074   1.844   3.191
 5793SOL     OW18277   6.599   1.296   3.869
 5793SOL    HW118278   6.553   1.308   3.958
 5793SOL    HW218279   6.563   1.362   3.804
 5794SOL     OW18280   3.634   3.100   0.387
 5794SOL    HW118281   3.715   3.124   0.441
 5794SOL    HW218282   3.599   3.182   0.342
 5795SOL     OW18283   5.737   5.005   5.757
 5795SOL    HW118284   5.762   4.969   5.667
 5795SOL    HW218285   5.638   5.014   5.764
 5796SOL     OW18286   3.094   1.223   0.233
 5796SOL    HW118287   3.129   1.190   0.321
 5796SOL    HW218288   3.055   1.146   0.182
 5797SOL     OW18289   3.736   2.080   4.722
 5797SOL    HW118290   3.666   2.126   4.668
 5797SOL    HW218291   3.709   1.985   4.737
 5798SOL     OW18292   0.435   4.636   4.962
 5798SOL    HW118293   0.499   4.663   5.034
 5798SOL    HW218294   0.485   4.618   4.878
 5799SOL     OW18295   5.284   0.193   3.555
 5799SOL    HW118296   5.276   0.094   3.538
 5799SOL    HW218297   5.271   0.242   3.469
 5800SOL     OW18298   5.578   4.592   1.415
 5800SOL    HW118299   5.607   4.627   1.504
 5800SOL    HW218300   5.658   4.556   1.366
 5801SOL     OW18301   0.525   1.755   3.663
 5801SOL    HW118302   0.601   1.756   3.727
 5801SOL    HW218303   0.439   1.742   3.713
 5802SOL     OW18304   0.554   4.225   6.477
 5802SOL    HW118305   0.563   4.238   6.378
 5802SOL    HW218306   0.627   4.274   6.523
 5803SOL     OW18307   1.452   4.904   1.362
 5803SOL    HW118308   1.409   4.951   1.285
 5803SOL    HW218309   1.469   4.969   1.436
 5804SOL     OW18310   6.460   3.952   4.340
 5804SOL    HW118311   6.408   4.035   4.319
 5804SOL    HW218312   6.444   3.925   4.434
 5805SOL     OW18313   4.124   4.533   6.345
 5805SOL    HW118314   4.096   4.507   6.253
 5805SOL    HW218315   4.045   4.532   6.406
 5806SOL     OW18316   1.041   6.917   0.578
 5806SOL    HW118317   1.045   6.985   0.505
 5806SOL    HW218318   1.125   6.862   0.577
 5807SOL     OW18319   1.360   3.929   1.075
 5807SOL    HW118320   1.385   3.833   1.061
 5807SOL    HW218321   1.403   3.985   1.005
 5808SOL     OW18322   5.318   4.461   2.833
 5808SOL    HW118323   5.357   4.370   2.820
 5808SOL    HW218324   5.372   4.510   2.902
 5809SOL     OW18325   6.891   3.278   4.502
 5809SOL    HW118326   6.906   3.182   4.526
 5809SOL    HW218327   6.795   3.302   4.517
 5810SOL     OW18328   2.914   1.372   4.134
 5810SOL    HW118329   2.833   1.411   4.090
 5810SOL    HW218330   2.937   1.285   4.091
 5811SOL     OW18331   3.095   0.277   5.035
 5811SOL    HW118332   3.183   0.297   5.079
 5811SOL    HW218333   3.112   0.238   4.944
 5812SOL     OW18334   5.099   6.775   4.154
 5812SOL    HW118335   5.054   6.826   4.081
 5812SOL    HW218336   5.165   6.711   4.114
 5813SOL     OW18337   1.158   1.081   6.002
 5813SOL    HW118338   1.066   1.106   5.970
 5813SOL    HW218339   1.226   1.129   5.947
 5814SOL     OW18340   6.652   4.031   0.567
 5814SOL    HW118341   6.570   4.088   0.570
 5814SOL    HW218342   6.706   4.046   0.650
 5815SOL     OW18343   4.365   2.403   2.980
 5815SOL    HW118344   4.323   2.403   3.070
 5815SOL    HW218345   4.397   2.311   2.958
 5816SOL     OW18346   5.501   0.336   0.102
 5816SOL    HW118347   5.593   0.337   0.143
 5816SOL    HW218348   5.508   0.307   0.006
 5817SOL     OW18349   5.954   3.041   5.935
 5817SOL    HW118350   5.900   3.123   5.952
 5817SOL    HW218351   5.993   3.008   6.021
 5818SOL     OW18352   6.083   6.152   5.231
 5818SOL    HW118353   6.013   6.093   5.272
 5818SOL    HW218354   6.039   6.219   5.171
 5819SOL     OW18355   4.411   0.418   1.026
 5819SOL    HW118356   4.396   0.404   0.928
 5819SOL    HW218357   4.367   0.345   1.078
 5820SOL     OW18358   4.823   6.820   3.619
 5820SOL    HW118359   4.834   6.890   3.549
 5820SOL    HW218360   4.748   6.846   3.681
 5821SOL     OW18361   2.683   0.524   1.896
 5821SOL    HW118362   2.659   0.443   1.949
 5821SOL    HW218363   2.632   0.603   1.931
 5822SOL     OW18364   0.859   2.517   1.557
 5822SOL    HW118365   0.841   2.525   1.459
 5822SOL    HW218366   0.836   2.603   1.602
 5823SOL     OW18367   0.897   0.455   5.324
 5823SOL    HW118368   0.969   0.504   5.275
 5823SOL    HW218369   0.920   0.358   5.329
 5824SOL     OW18370   6.602   6.363   3.080
 5824SOL    HW118371   6.563   6.311   3.156
 5824SOL    HW218372   6.606   6.460   3.104
 5825SOL     OW18373   2.484   1.714   6.124
 5825SOL    HW118374   2.441   1.747   6.209
 5825SOL    HW218375   2.583   1.728   6.129
 5826SOL     OW18376   6.494   6.142   5.347
 5826SOL    HW118377   6.447   6.217   5.394
 5826SOL    HW218378   6.429   6.071   5.324
 5827SOL     OW18379   0.979   5.272   5.212
 5827SOL    HW118380   1.001   5.363   5.176
 5827SOL    HW218381   1.003   5.267   5.309
 5828SOL     OW18382   0.511   3.686   1.875
 5828SOL    HW118383   0.582   3.704   1.808
 5828SOL    HW218384   0.449   3.615   1.840
 5829SOL     OW18385   2.805   1.330   2.341
 5829SOL    HW118386   2.775   1.235   2.344
 5829SOL    HW218387   2.802   1.364   2.247
 5830SOL     OW18388   4.204   0.852   5.995
 5830SOL    HW118389   4.221   0.775   5.933
 5830SOL    HW218390   4.106   0.862   6.010
 5831SOL     OW18391   6.066   6.375   3.072
 5831SOL    HW118392   5.987   6.391   3.012
 5831SOL    HW218393   6.033   6.349   3.163
 5832SOL     OW18394   4.519   4.046   5.547
 5832SOL    HW118395   4.561   4.098   5.473
 5832SOL    HW218396   4.481   4.108   5.615
 5833SOL     OW18397   3.136   3.459   4.202
 5833SOL    HW118398   3.212   3.418   4.253
 5833SOL    HW218399   3.153   3.449   4.104
 5834SOL     OW18400   5.946   1.616   0.303
 5834SOL    HW118401   5.949   1.708   0.343
 5834SOL    HW218402   5.941   1.548   0.375
 5835SOL     OW18403   5.263   2.525   3.845
 5835SOL    HW118404   5.228   2.529   3.751
 5835SOL    HW218405   5.188   2.538   3.909
 5836SOL     OW18406   2.997   5.655   3.104
 5836SOL    HW118407   2.969   5.746   3.074
 5836SOL    HW218408   3.021   5.600   3.024
 5837SOL     OW18409   4.694   4.511   0.212
 5837SOL    HW118410   4.684   4.604   0.247
 5837SOL    HW218411   4.656   4.446   0.278
 5838SOL     OW18412   1.827   1.437   6.196
 5838SOL    HW118413   1.775   1.507   6.245
 5838SOL    HW218414   1.867   1.477   6.114
 5839SOL     OW18415   7.018   3.160   2.322
 5839SOL    HW118416   0.057   3.183   2.395
 5839SOL    HW218417   6.929   3.140   2.362
 5840SOL     OW18418   1.279   5.834   6.895
 5840SOL    HW118419   1.369   5.878   6.893
 5840SOL    HW218420   1.269   5.782   6.979
 5841SOL     OW18421   5.980   3.356   2.562
 5841SOL    HW118422   5.898   3.342   2.506
 5841SOL    HW218423   6.041   3.278   2.551
 5842SOL     OW18424   3.769   3.434   0.710
 5842SOL    HW118425   3.792   3.398   0.800
 5842SOL    HW218426   3.732   3.526   0.719
 5843SOL     OW18427   2.136   3.681   2.508
 5843SOL    HW118428   2.111   3.656   2.415
 5843SOL    HW218429   2.200   3.614   2.545
 5844SOL     OW18430   0.420   5.955   6.463
 5844SOL    HW118431   0.384   6.040   6.502
 5844SOL    HW218432   0.398   5.951   6.366
 5845SOL     OW18433   1.192   2.297   3.483
 5845SOL    HW118434   1.139   2.212   3.494
 5845SOL    HW218435   1.272   2.278   3.426
 5846SOL     OW18436   6.714   2.985   5.062
 5846SOL    HW118437   6.804   2.942   5.065
 5846SOL    HW218438   6.655   2.943   5.131
 5847SOL     OW18439   2.203   2.144   2.333
 5847SOL    HW118440   2.158   2.173   2.417
 5847SOL    HW218441   2.142   2.084   2.281
 5848SOL     OW18442   2.163   5.190   3.327
 5848SOL    HW118443   2.133   5.108   3.279
 5848SOL    HW218444   2.230   5.239   3.272
 5849SOL     OW18445   1.316   0.143   5.482
 5849SOL    HW118446   1.353   0.061   5.439
 5849SOL    HW218447   1.307   0.215   5.414
 5850SOL     OW18448   1.123   3.553   2.111
 5850SOL    HW118449   1.187   3.476   2.114
 5850SOL    HW218450   1.142   3.609   2.031
 5851SOL     OW18451   6.037   3.735   2.544
 5851SOL    HW118452   5.978   3.703   2.470
 5851SOL    HW218453   6.041   3.835   2.544
 5852SOL     OW18454   4.163   6.315   2.887
 5852SOL    HW118455   4.196   6.242   2.828
 5852SOL    HW218456   4.091   6.367   2.840
 5853SOL     OW18457   2.902   5.612   6.180
 5853SOL    HW118458   2.833   5.578   6.245
 5853SOL    HW218459   2.861   5.685   6.124
 5854SOL     OW18460   6.729   3.468   5.968
 5854SOL    HW118461   6.713   3.460   5.869
 5854SOL    HW218462   6.827   3.479   5.985
 5855SOL     OW18463   1.145   1.253   4.579
 5855SOL    HW118464   1.066   1.258   4.640
 5855SOL    HW218465   1.203   1.333   4.594
 5856SOL     OW18466   2.179   5.604   3.467
 5856SOL    HW118467   2.099   5.546   3.463
 5856SOL    HW218468   2.217   5.604   3.559
 5857SOL     OW18469   6.330   2.864   5.341
 5857SOL    HW118470   6.287   2.931   5.402
 5857SOL    HW218471   6.270   2.786   5.330
 5858SOL     OW18472   2.965   1.687   2.445
 5858SOL    HW118473   3.058   1.685   2.481
 5858SOL    HW218474   2.929   1.780   2.453
 5859SOL     OW18475   6.150   6.589   0.410
 5859SOL    HW118476   6.247   6.605   0.428
 5859SOL    HW218477   6.112   6.531   0.481
 5860SOL     OW18478   2.078   4.738   1.843
 5860SOL    HW118479   2.028   4.673   1.901
 5860SOL    HW218480   2.147   4.689   1.790
 5861SOL     OW18481   5.545   2.011   3.942
 5861SOL    HW118482   5.541   1.983   3.846
 5861SOL    HW218483   5.557   2.110   3.948
 5862SOL     OW18484   3.868   5.343   3.364
 5862SOL    HW118485   3.807   5.363   3.441
 5862SOL    HW218486   3.876   5.423   3.306
 5863SOL     OW18487   2.416   0.755   6.443
 5863SOL    HW118488   2.443   0.811   6.521
 5863SOL    HW218489   2.462   0.666   6.448
 5864SOL     OW18490   4.304   3.994   1.699
 5864SOL    HW118491   4.277   3.928   1.769
 5864SOL    HW218492   4.345   4.074   1.743
 5865SOL     OW18493   5.108   0.705   3.854
 5865SOL    HW118494   5.093   0.610   3.826
 5865SOL    HW218495   5.155   0.754   3.782
 5866SOL     OW18496   4.478   6.361   6.157
 5866SOL    HW118497   4.510   6.276   6.115
 5866SOL    HW218498   4.391   6.345   6.203
 5867SOL     OW18499   0.521   2.455   1.036
 5867SOL    HW118500   0.573   2.526   0.989
 5867SOL    HW218501   0.507   2.482   1.131
 5868SOL     OW18502   0.331   0.375   5.159
 5868SOL    HW118503   0.258   0.352   5.223
 5868SOL    HW218504   0.364   0.467   5.178
 5869SOL     OW18505   2.153   4.542   3.946
 5869SOL    HW118506   2.103   4.537   3.860
 5869SOL    HW218507   2.214   4.463   3.954
 5870SOL     OW18508   5.166   4.804   4.775
 5870SOL    HW118509   5.184   4.772   4.681
 5870SOL    HW218510   5.104   4.882   4.772
 5871SOL     OW18511   3.528   3.679   0.250
 5871SOL    HW118512   3.475   3.647   0.328
 5871SOL    HW218513   3.626   3.674   0.272
 5872SOL     OW18514   4.187   5.670   6.869
 5872SOL    HW118515   4.211   5.762   6.900
 5872SOL    HW218516   4.267   5.610   6.878
 5873SOL     OW18517   2.268   3.122   0.430
 5873SOL    HW118518   2.194   3.188   0.444
 5873SOL    HW218519   2.299   3.087   0.519
 5874SOL     OW18520   2.655   3.331   1.438
 5874SOL    HW118521   2.737   3.375   1.474
 5874SOL    HW218522   2.594   3.306   1.513
 5875SOL     OW18523   3.399   1.748   0.224
 5875SOL    HW118524   3.315   1.769   0.176
 5875SOL    HW218525   3.394   1.782   0.318
 5876SOL     OW18526   3.282   3.286   6.461
 5876SOL    HW118527   3.334   3.279   6.546
 5876SOL    HW218528   3.198   3.233   6.468
 5877SOL     OW18529   6.406   6.977   1.332
 5877SOL    HW118530   6.487   6.993   1.275
 5877SOL    HW218531   6.346   0.031   1.328
 5878SOL     OW18532   4.599   5.664   2.209
 5878SOL    HW118533   4.506   5.628   2.218
 5878SOL    HW218534   4.602   5.735   2.139
 5879SOL     OW18535   3.874   3.118   6.157
 5879SOL    HW118536   3.787   3.134   6.112
 5879SOL    HW218537   3.882   3.021   6.181
 5880SOL     OW18538   4.938   3.049   5.515
 5880SOL    HW118539   4.889   3.077   5.432
 5880SOL    HW218540   4.886   3.079   5.596
 5881SOL     OW18541   0.896   6.326   2.803
 5881SOL    HW118542   0.859   6.318   2.710
 5881SOL    HW218543   0.888   6.238   2.849
 5882SOL     OW18544   1.339   6.258   5.725
 5882SOL    HW118545   1.383   6.336   5.680
 5882SOL    HW218546   1.354   6.175   5.672
 5883SOL     OW18547   0.271   3.771   0.895
 5883SOL    HW118548   0.248   3.734   0.805
 5883SOL    HW218549   0.311   3.698   0.951
 5884SOL     OW18550   6.069   1.328   3.869
 5884SOL    HW118551   6.111   1.282   3.791
 5884SOL    HW218552   6.118   1.413   3.888
 5885SOL     OW18553   0.526   5.203   0.317
 5885SOL    HW118554   0.483   5.168   0.401
 5885SOL    HW218555   0.607   5.148   0.297
 5886SOL     OW18556   1.212   3.387   3.290
 5886SOL    HW118557   1.215   3.438   3.204
 5886SOL    HW218558   1.297   3.335   3.301
 5887SOL     OW18559   2.325   1.972   1.425
 5887SOL    HW118560   2.361   2.010   1.510
 5887SOL    HW218561   2.335   1.873   1.425
 5888SOL     OW18562   2.627   0.072   1.676
 5888SOL    HW118563   2.658   0.004   1.609
 5888SOL    HW218564   2.706   0.111   1.723
 5889SOL     OW18565   0.288   0.948   1.489
 5889SOL    HW118566   0.363   1.015   1.489
 5889SOL    HW218567   0.316   0.868   1.437
 5890SOL     OW18568   2.470   6.150   2.356
 5890SOL    HW118569   2.455   6.078   2.424
 5890SOL    HW218570   2.555   6.132   2.306
 5891SOL     OW18571   3.071   3.174   0.588
 5891SOL    HW118572   3.086   3.148   0.683
 5891SOL    HW218573   3.136   3.247   0.563
 5892SOL     OW18574   0.347   3.822   0.463
 5892SOL    HW118575   0.369   3.914   0.432
 5892SOL    HW218576   0.409   3.757   0.418
 5893SOL     OW18577   0.971   5.563   2.236
 5893SOL    HW118578   0.926   5.526   2.317
 5893SOL    HW218579   1.028   5.641   2.263
 5894SOL     OW18580   0.784   5.767   5.434
 5894SOL    HW118581   0.737   5.763   5.346
 5894SOL    HW218582   0.768   5.681   5.484
 5895SOL     OW18583   5.918   3.135   4.942
 5895SOL    HW118584   5.927   3.038   4.922
 5895SOL    HW218585   5.992   3.163   5.004
 5896SOL     OW18586   6.062   1.639   1.714
 5896SOL    HW118587   6.146   1.594   1.682
 5896SOL    HW218588   6.017   1.683   1.637
 5897SOL     OW18589   4.451   1.634   1.595
 5897SOL    HW118590   4.507   1.575   1.536
 5897SOL    HW218591   4.440   1.724   1.552
 5898SOL     OW18592   1.808   1.264   5.710
 5898SOL    HW118593   1.882   1.236   5.771
 5898SOL    HW218594   1.844   1.323   5.638
 5899SOL     OW18595   6.883   5.411   6.122
 5899SOL    HW118596   6.947   5.481   6.091
 5899SOL    HW218597   6.816   5.452   6.184
 5900SOL     OW18598   6.907   5.847   3.194
 5900SOL    HW118599   6.895   5.885   3.102
 5900SOL    HW218600   7.002   5.861   3.224
 5901SOL     OW18601   1.564   7.007   6.359
 5901SOL    HW118602   1.638   0.013   6.300
 5901SOL    HW218603   1.506   6.943   6.308
 5902SOL     OW18604   5.872   4.072   4.657
 5902SOL    HW118605   5.913   4.140   4.596
 5902SOL    HW218606   5.892   3.980   4.623
 5903SOL     OW18607   6.128   2.653   6.658
 5903SOL    HW118608   6.219   2.616   6.640
 5903SOL    HW218609   6.060   2.581   6.645
 5904SOL     OW18610   1.931   4.895   2.851
 5904SOL    HW118611   1.883   4.949   2.920
 5904SOL    HW218612   1.933   4.799   2.879
 5905SOL     OW18613   5.674   1.019   4.098
 5905SOL    HW118614   5.640   1.110   4.077
 5905SOL    HW218615   5.599   0.961   4.128
 5906SOL     OW18616   5.359   1.482   5.621
 5906SOL    HW118617   5.428   1.472   5.550
 5906SOL    HW218618   5.405   1.491   5.710
 5907SOL     OW18619   1.405   1.482   6.735
 5907SOL    HW118620   1.309   1.478   6.709
 5907SOL    HW218621   1.451   1.398   6.707
 5908SOL     OW18622   4.601   3.712   6.411
 5908SOL    HW118623   4.541   3.730   6.334
 5908SOL    HW218624   4.660   3.634   6.390
 5909SOL     OW18625   0.197   4.691   5.340
 5909SOL    HW118626   0.185   4.597   5.371
 5909SOL    HW218627   0.113   4.743   5.354
 5910SOL     OW18628   2.038   4.021   1.448
 5910SOL    HW118629   2.058   4.112   1.483
 5910SOL    HW218630   2.013   4.027   1.351
 5911SOL     OW18631   6.199   5.207   6.274
 5911SOL    HW118632   6.121   5.223   6.335
 5911SOL    HW218633   6.283   5.205   6.327
 5912SOL     OW18634   6.259   3.509   6.956
 5912SOL    HW118635   6.326   3.551   6.894
 5912SOL    HW218636   6.170   3.503   6.910
 5913SOL     OW18637   2.275   1.942   6.056
 5913SOL    HW118638   2.228   1.861   6.092
 5913SOL    HW218639   2.272   2.015   6.125
 5914SOL     OW18640   2.550   5.518   0.527
 5914SOL    HW118641   2.473   5.471   0.569
 5914SOL    HW218642   2.623   5.530   0.594
 5915SOL     OW18643   4.791   2.933   2.841
 5915SOL    HW118644   4.820   2.854   2.895
 5915SOL    HW218645   4.818   3.018   2.888
 5916SOL     OW18646   3.781   0.091   5.476
 5916SOL    HW118647   3.709   0.071   5.542
 5916SOL    HW218648   3.769   0.183   5.440
 5917SOL     OW18649   3.619   3.344   3.235
 5917SOL    HW118650   3.688   3.391   3.289
 5917SOL    HW218651   3.554   3.410   3.198
 5918SOL     OW18652   1.532   3.417   4.145
 5918SOL    HW118653   1.483   3.501   4.166
 5918SOL    HW218654   1.630   3.431   4.157
 5919SOL     OW18655   2.501   2.562   0.396
 5919SOL    HW118656   2.514   2.611   0.310
 5919SOL    HW218657   2.524   2.465   0.382
 5920SOL     OW18658   3.791   0.335   6.655
 5920SOL    HW118659   3.816   0.276   6.578
 5920SOL    HW218660   3.854   0.413   6.659
 5921SOL     OW18661   3.499   5.378   5.720
 5921SOL    HW118662   3.515   5.329   5.635
 5921SOL    HW218663   3.573   5.356   5.785
 5922SOL     OW18664   6.422   4.773   2.720
 5922SOL    HW118665   6.437   4.683   2.761
 5922SOL    HW218666   6.437   4.844   2.790
 5923SOL     OW18667   6.340   0.303   3.530
 5923SOL    HW118668   6.425   0.259   3.561
 5923SOL    HW218669   6.338   0.304   3.431
 5924SOL     OW18670   5.216   2.177   4.582
 5924SOL    HW118671   5.212   2.183   4.682
 5924SOL    HW218672   5.257   2.261   4.545
 5925SOL     OW18673   5.688   5.707   1.703
 5925SOL    HW118674   5.657   5.628   1.756
 5925SOL    HW218675   5.636   5.713   1.618
 5926SOL     OW18676   3.618   5.247   1.828
 5926SOL    HW118677   3.592   5.150   1.824
 5926SOL    HW218678   3.536   5.304   1.827
 5927SOL     OW18679   2.819   5.706   1.821
 5927SOL    HW118680   2.871   5.620   1.819
 5927SOL    HW218681   2.754   5.707   1.745
 5928SOL     OW18682   1.489   0.026   2.553
 5928SOL    HW118683   1.466   0.123   2.551
 5928SOL    HW218684   1.439   7.005   2.480
 5929SOL     OW18685   1.036   6.567   5.649
 5929SOL    HW118686   0.960   6.620   5.686
 5929SOL    HW218687   1.066   6.500   5.717
 5930SOL     OW18688   6.427   1.171   4.886
 5930SOL    HW118689   6.359   1.243   4.873
 5930SOL    HW218690   6.476   1.155   4.800
 5931SOL     OW18691   5.932   5.492   1.734
 5931SOL    HW118692   5.853   5.492   1.795
 5931SOL    HW218693   5.982   5.578   1.745
 5932SOL     OW18694   2.193   6.729   1.172
 5932SOL    HW118695   2.096   6.717   1.192
 5932SOL    HW218696   2.203   6.770   1.081
 5933SOL     OW18697   0.028   4.212   2.689
 5933SOL    HW118698   0.053   4.284   2.754
 5933SOL    HW218699   0.109   4.156   2.669
 5934SOL     OW18700   3.712   3.703   3.016
 5934SOL    HW118701   3.762   3.790   3.021
 5934SOL    HW218702   3.762   3.638   2.960
 5935SOL     OW18703   3.966   4.077   5.070
 5935SOL    HW118704   3.942   4.091   4.974
 5935SOL    HW218705   3.935   4.156   5.123
 5936SOL     OW18706   5.016   4.567   6.993
 5936SOL    HW118707   4.918   4.577   7.008
 5936SOL    HW218708   5.037   4.583   6.896
 5937SOL     OW18709   1.056   3.960   0.740
 5937SOL    HW118710   1.143   3.913   0.730
 5937SOL    HW218711   0.986   3.896   0.772
 5938SOL     OW18712   2.111   4.458   2.973
 5938SOL    HW118713   2.211   4.462   2.964
 5938SOL    HW218714   2.078   4.371   2.938
 5939SOL     OW18715   3.215   0.666   3.048
 5939SOL    HW118716   3.313   0.683   3.056
 5939SOL    HW218717   3.177   0.647   3.138
 5940SOL     OW18718   3.526   6.987   2.927
 5940SOL    HW118719   3.608   0.009   2.899
 5940SOL    HW218720   3.549   6.920   2.998
 5941SOL     OW18721   6.319   4.925   2.226
 5941SOL    HW118722   6.303   4.955   2.321
 5941SOL    HW218723   6.238   4.947   2.171
 5942SOL     OW18724   3.897   3.491   6.219
 5942SOL    HW118725   3.932   3.451   6.134
 5942SOL    HW218726   3.825   3.556   6.198
 5943SOL     OW18727   1.915   5.801   0.044
 5943SOL    HW118728   1.987   5.807   0.113
 5943SOL    HW218729   1.828   5.783   0.089
 5944SOL     OW18730   5.050   1.375   2.424
 5944SOL    HW118731   5.132   1.365   2.368
 5944SOL    HW218732   4.979   1.312   2.391
 5945SOL     OW18733   6.585   5.209   5.448
 5945SOL    HW118734   6.679   5.187   5.476
 5945SOL    HW218735   6.524   5.202   5.527
 5946SOL     OW18736   4.499   3.902   6.037
 5946SOL    HW118737   4.542   3.813   6.021
 5946SOL    HW218738   4.540   3.943   6.119
 5947SOL     OW18739   4.211   3.460   1.857
 5947SOL    HW118740   4.305   3.425   1.857
 5947SOL    HW218741   4.147   3.384   1.866
 5948SOL     OW18742   3.518   4.984   3.008
 5948SOL    HW118743   3.607   4.964   2.967
 5948SOL    HW218744   3.531   5.009   3.104
 5949SOL     OW18745   4.275   4.858   0.864
 5949SOL    HW118746   4.192   4.870   0.810
 5949SOL    HW218747   4.278   4.764   0.899
 5950SOL     OW18748   5.884   1.980   4.414
 5950SOL    HW118749   5.810   1.925   4.452
 5950SOL    HW218750   5.915   2.047   4.482
 5951SOL     OW18751   1.956   6.427   4.072
 5951SOL    HW118752   1.979   6.370   3.993
 5951SOL    HW218753   1.959   6.523   4.046
 5952SOL     OW18754   6.336   6.117   3.681
 5952SOL    HW118755   6.244   6.123   3.720
 5952SOL    HW218756   6.332   6.063   3.596
 5953SOL     OW18757   6.677   3.478   5.683
 5953SOL    HW118758   6.603   3.506   5.623
 5953SOL    HW218759   6.757   3.452   5.628
 5954SOL     OW18760   6.727   4.774   6.469
 5954SOL    HW118761   6.739   4.799   6.373
 5954SOL    HW218762   6.729   4.675   6.478
 5955SOL     OW18763   5.232   5.136   1.793
 5955SOL    HW118764   5.182   5.193   1.727
 5955SOL    HW218765   5.190   5.144   1.883
 5956SOL     OW18766   3.860   2.359   6.758
 5956SOL    HW118767   3.878   2.315   6.670
 5956SOL    HW218768   3.937   2.342   6.820
 5957SOL     OW18769   5.378   6.440   5.861
 5957SOL    HW118770   5.350   6.420   5.767
 5957SOL    HW218771   5.368   6.538   5.878
 5958SOL     OW18772   6.537   6.329   1.553
 5958SOL    HW118773   6.601   6.369   1.619
 5958SOL    HW218774   6.541   6.230   1.558
 5959SOL     OW18775   2.870   1.721   5.810
 5959SOL    HW118776   2.775   1.746   5.831
 5959SOL    HW218777   2.931   1.795   5.839
 5960SOL     OW18778   2.837   0.116   3.546
 5960SOL    HW118779   2.851   0.213   3.566
 5960SOL    HW218780   2.832   0.103   3.447
 5961SOL     OW18781   3.727   0.513   4.923
 5961SOL    HW118782   3.684   0.598   4.895
 5961SOL    HW218783   3.659   0.453   4.965
 5962SOL     OW18784   4.924   5.758   2.044
 5962SOL    HW118785   4.982   5.679   2.059
 5962SOL    HW218786   4.830   5.728   2.028
 5963SOL     OW18787   3.820   3.495   2.866
 5963SOL    HW118788   3.824   3.397   2.845
 5963SOL    HW218789   3.901   3.521   2.918
 5964SOL     OW18790   0.272   4.976   6.818
 5964SOL    HW118791   0.366   4.953   6.843
 5964SOL    HW218792   0.261   5.075   6.816
 5965SOL     OW18793   1.637   2.411   6.455
 5965SOL    HW118794   1.661   2.508   6.463
 5965SOL    HW218795   1.720   2.357   6.446
 5966SOL     OW18796   2.761   6.222   4.854
 5966SOL    HW118797   2.837   6.195   4.914
 5966SOL    HW218798   2.788   6.208   4.758
 5967SOL     OW18799   4.463   6.871   2.818
 5967SOL    HW118800   4.420   6.781   2.829
 5967SOL    HW218801   4.446   6.927   2.899
 5968SOL     OW18802   6.588   2.227   3.403
 5968SOL    HW118803   6.500   2.190   3.432
 5968SOL    HW218804   6.624   2.287   3.475
 5969SOL     OW18805   5.915   3.386   4.057
 5969SOL    HW118806   6.005   3.411   4.094
 5969SOL    HW218807   5.847   3.452   4.087
 5970SOL     OW18808   1.240   3.506   3.032
 5970SOL    HW118809   1.210   3.508   2.937
 5970SOL    HW218810   1.339   3.514   3.036
 5971SOL     OW18811   1.962   6.948   2.943
 5971SOL    HW118812   1.904   7.024   2.913
 5971SOL    HW218813   1.907   6.864   2.947
 5972SOL     OW18814   5.380   0.228   6.853
 5972SOL    HW118815   5.321   0.280   6.915
 5972SOL    HW218816   5.394   0.136   6.889
 5973SOL     OW18817   1.758   4.163   2.848
 5973SOL    HW118818   1.857   4.149   2.855
 5973SOL    HW218819   1.710   4.091   2.898
 5974SOL     OW18820   6.828   3.712   6.609
 5974SOL    HW118821   6.881   3.770   6.547
 5974SOL    HW218822   6.768   3.652   6.556
 5975SOL     OW18823   3.748   2.570   1.080
 5975SOL    HW118824   3.825   2.623   1.046
 5975SOL    HW218825   3.736   2.587   1.178
 5976SOL     OW18826   2.964   3.247   4.685
 5976SOL    HW118827   2.978   3.180   4.612
 5976SOL    HW218828   2.979   3.339   4.650
 5977SOL     OW18829   2.118   4.976   2.031
 5977SOL    HW118830   2.117   4.891   1.979
 5977SOL    HW218831   2.093   4.958   2.126
 5978SOL     OW18832   5.323   4.639   2.510
 5978SOL    HW118833   5.384   4.562   2.528
 5978SOL    HW218834   5.286   4.674   2.596
 5979SOL     OW18835   6.362   0.978   3.882
 5979SOL    HW118836   6.323   0.974   3.790
 5979SOL    HW218837   6.347   1.069   3.920
 5980SOL     OW18838   4.844   4.402   0.566
 5980SOL    HW118839   4.914   4.390   0.637
 5980SOL    HW218840   4.780   4.325   0.570
 5981SOL     OW18841   6.168   1.538   2.572
 5981SOL    HW118842   6.242   1.600   2.547
 5981SOL    HW218843   6.127   1.499   2.490
 5982SOL     OW18844   0.043   1.990   6.845
 5982SOL    HW118845   0.051   2.083   6.810
 5982SOL    HW218846   0.059   1.925   6.771
 5983SOL     OW18847   2.045   2.246   4.079
 5983SOL    HW118848   2.026   2.322   4.142
 5983SOL    HW218849   2.106   2.277   4.007
 5984SOL     OW18850   6.806   6.149   4.313
 5984SOL    HW118851   6.742   6.075   4.337
 5984SOL    HW218852   6.870   6.163   4.388
 5985SOL     OW18853   5.375   2.096   3.533
 5985SOL    HW118854   5.440   2.158   3.578
 5985SOL    HW218855   5.283   2.135   3.537
 5986SOL     OW18856   3.435   2.949   3.084
 5986SOL    HW118857   3.350   2.982   3.125
 5986SOL    HW218858   3.511   3.010   3.112
 5987SOL     OW18859   4.342   6.785   4.767
 5987SOL    HW118860   4.388   6.716   4.711
 5987SOL    HW218861   4.388   6.873   4.758
 5988SOL     OW18862   4.452   6.813   4.250
 5988SOL    HW118863   4.375   6.756   4.222
 5988SOL    HW218864   4.430   6.909   4.234
 5989SOL     OW18865   2.895   0.304   6.243
 5989SOL    HW118866   2.805   0.345   6.229
 5989SOL    HW218867   2.910   0.232   6.175
 5990SOL     OW18868   3.834   4.587   0.470
 5990SOL    HW118869   3.865   4.531   0.548
 5990SOL    HW218870   3.903   4.583   0.398
 5991SOL     OW18871   3.612   5.241   4.566
 5991SOL    HW118872   3.649   5.280   4.650
 5991SOL    HW218873   3.651   5.289   4.487
 5992SOL     OW18874   3.541   0.530   3.853
 5992SOL    HW118875   3.574   0.553   3.761
 5992SOL    HW218876   3.612   0.551   3.920
 5993SOL     OW18877   2.510   6.538   5.677
 5993SOL    HW118878   2.412   6.555   5.689
 5993SOL    HW218879   2.556   6.624   5.653
 5994SOL     OW18880   6.387   2.359   2.501
 5994SOL    HW118881   6.469   2.309   2.473
 5994SOL    HW218882   6.312   2.294   2.515
 5995SOL     OW18883   6.671   5.347   1.248
 5995SOL    HW118884   6.667   5.248   1.233
 5995SOL    HW218885   6.764   5.373   1.272
 5996SOL     OW18886   0.338   5.707   6.511
 5996SOL    HW118887   0.367   5.802   6.510
 5996SOL    HW218888   0.419   5.648   6.499
 5997SOL     OW18889   0.300   6.948   1.786
 5997SOL    HW118890   0.377   6.963   1.847
 5997SOL    HW218891   0.280   0.006   1.736
 5998SOL     OW18892   5.391   2.058   2.803
 5998SOL    HW118893   5.388   2.147   2.756
 5998SOL    HW218894   5.461   2.001   2.760
 5999SOL     OW18895   1.741   1.670   3.390
 5999SOL    HW118896   1.724   1.594   3.452
 5999SOL    HW218897   1.723   1.756   3.437
 6000SOL     OW18898   3.985   4.794   2.756
 6000SOL    HW118899   4.029   4.781   2.668
 6000SOL    HW218900   4.033   4.742   2.826
 6001SOL     OW18901   0.076   3.098   7.023
 6001SOL    HW118902   0.118   3.077   6.934
 6001SOL    HW218903   7.018   3.046   0.008
 6002SOL     OW18904   1.450   0.524   1.489
 6002SOL    HW118905   1.385   0.600   1.499
 6002SOL    HW218906   1.541   0.554   1.519
 6003SOL     OW18907   5.566   4.049   4.751
 6003SOL    HW118908   5.657   4.067   4.713
 6003SOL    HW218909   5.566   3.961   4.798
 6004SOL     OW18910   0.771   3.384   2.991
 6004SOL    HW118911   0.761   3.473   3.037
 6004SOL    HW218912   0.825   3.396   2.908
 6005SOL     OW18913   4.003   5.769   4.216
 6005SOL    HW118914   3.994   5.704   4.141
 6005SOL    HW218915   3.973   5.726   4.301
 6006SOL     OW18916   2.767   6.508   6.645
 6006SOL    HW118917   2.804   6.462   6.725
 6006SOL    HW218918   2.838   6.516   6.575
 6007SOL     OW18919   5.548   2.314   3.657
 6007SOL    HW118920   5.600   2.232   3.681
 6007SOL    HW218921   5.588   2.393   3.702
 6008SOL     OW18922   3.227   4.969   5.802
 6008SOL    HW118923   3.253   4.895   5.740
 6008SOL    HW218924   3.233   5.057   5.755
 6009SOL     OW18925   2.595   1.806   4.349
 6009SOL    HW118926   2.662   1.837   4.282
 6009SOL    HW218927   2.609   1.853   4.436
 6010SOL     OW18928   1.903   4.208   2.341
 6010SOL    HW118929   1.917   4.233   2.245
 6010SOL    HW218930   1.929   4.113   2.356
 6011SOL     OW18931   5.232   2.696   2.205
 6011SOL    HW118932   5.236   2.786   2.250
 6011SOL    HW218933   5.138   2.675   2.181
 6012SOL     OW18934   6.902   2.593   6.919
 6012SOL    HW118935   6.895   2.495   6.936
 6012SOL    HW218936   6.815   2.628   6.886
 6013SOL     OW18937   6.254   0.694   2.102
 6013SOL    HW118938   6.242   0.607   2.149
 6013SOL    HW218939   6.209   0.690   2.013
 6014SOL     OW18940   5.891   0.872   0.182
 6014SOL    HW118941   5.946   0.797   0.220
 6014SOL    HW218942   5.924   0.959   0.219
 6015SOL     OW18943   6.042   2.074   4.779
 6015SOL    HW118944   6.001   1.991   4.817
 6015SOL    HW218945   5.970   2.134   4.745
 6016SOL     OW18946   1.097   0.599   5.197
 6016SOL    HW118947   1.167   0.642   5.254
 6016SOL    HW218948   1.140   0.544   5.126
 6017SOL     OW18949   5.971   5.098   3.094
 6017SOL    HW118950   5.995   5.193   3.077
 6017SOL    HW218951   5.941   5.088   3.189
 6018SOL     OW18952   2.867   3.325   0.430
 6018SOL    HW118953   2.775   3.330   0.470
 6018SOL    HW218954   2.932   3.293   0.499
 6019SOL     OW18955   4.160   1.075   3.983
 6019SOL    HW118956   4.124   1.016   3.911
 6019SOL    HW218957   4.142   1.034   4.073
 6020SOL     OW18958   3.804   0.674   2.550
 6020SOL    HW118959   3.755   0.629   2.624
 6020SOL    HW218960   3.899   0.643   2.549
 6021SOL     OW18961   4.201   1.236   2.141
 6021SOL    HW118962   4.294   1.232   2.176
 6021SOL    HW218963   4.162   1.144   2.137
 6022SOL     OW18964   4.721   1.432   3.103
 6022SOL    HW118965   4.673   1.517   3.122
 6022SOL    HW218966   4.655   1.359   3.086
 6023SOL     OW18967   0.384   1.423   3.218
 6023SOL    HW118968   0.364   1.484   3.141
 6023SOL    HW218969   0.398   1.478   3.300
 6024SOL     OW18970   0.694   4.662   2.012
 6024SOL    HW118971   0.617   4.705   1.965
 6024SOL    HW218972   0.689   4.563   2.000
 6025SOL     OW18973   4.584   1.189   2.006
 6025SOL    HW118974   4.572   1.090   1.999
 6025SOL    HW218975   4.587   1.229   1.914
 6026SOL     OW18976   6.806   5.273   5.021
 6026SOL    HW118977   6.821   5.356   5.074
 6026SOL    HW218978   6.717   5.234   5.043
 6027SOL     OW18979   2.852   3.311   6.776
 6027SOL    HW118980   2.874   3.393   6.829
 6027SOL    HW218981   2.762   3.322   6.734
 6028SOL     OW18982   1.657   4.711   0.205
 6028SOL    HW118983   1.623   4.618   0.198
 6028SOL    HW218984   1.756   4.712   0.190
 6029SOL     OW18985   1.687   5.973   0.645
 6029SOL    HW118986   1.725   6.064   0.657
 6029SOL    HW218987   1.758   5.911   0.611
 6030SOL     OW18988   2.302   0.639   1.916
 6030SOL    HW118989   2.331   0.595   1.831
 6030SOL    HW218990   2.306   0.738   1.906
 6031SOL     OW18991   4.733   6.785   6.050
 6031SOL    HW118992   4.670   6.723   6.005
 6031SOL    HW218993   4.776   6.844   5.981
 6032SOL     OW18994   1.556   3.914   2.583
 6032SOL    HW118995   1.562   4.014   2.579
 6032SOL    HW218996   1.482   3.888   2.644
 6033SOL     OW18997   1.510   2.021   2.709
 6033SOL    HW118998   1.556   2.009   2.797
 6033SOL    HW218999   1.443   2.095   2.717
 6034SOL     OW19000   2.495   4.601   4.700
 6034SOL    HW119001   2.508   4.603   4.799
 6034SOL    HW219002   2.435   4.676   4.672
 6035SOL     OW19003   5.317   0.582   4.694
 6035SOL    HW119004   5.294   0.659   4.753
 6035SOL    HW219005   5.319   0.613   4.599
 6036SOL     OW19006   0.352   0.150   4.889
 6036SOL    HW119007   0.415   0.227   4.880
 6036SOL    HW219008   0.278   0.160   4.822
 6037SOL     OW19009   4.764   4.903   5.434
 6037SOL    HW119010   4.818   4.820   5.433
 6037SOL    HW219011   4.775   4.949   5.522
 6038SOL     OW19012   6.812   3.957   6.139
 6038SOL    HW119013   6.845   3.977   6.047
 6038SOL    HW219014   6.769   3.866   6.140
 6039SOL     OW19015   3.291   3.539   2.339
 6039SOL    HW119016   3.297   3.636   2.362
 6039SOL    HW219017   3.195   3.515   2.322
 6040SOL     OW19018   0.449   1.910   6.167
 6040SOL    HW119019   0.501   1.881   6.247
 6040SOL    HW219020   0.435   2.009   6.169
 6041SOL     OW19021   1.023   1.529   7.015
 6041SOL    HW119022   0.933   1.488   7.005
 6041SOL    HW219023   1.027   1.583   0.073
 6042SOL     OW19024   5.039   5.187   2.381
 6042SOL    HW119025   5.014   5.246   2.303
 6042SOL    HW219026   5.098   5.113   2.349
 6043SOL     OW19027   1.117   4.694   4.679
 6043SOL    HW119028   1.081   4.757   4.748
 6043SOL    HW219029   1.214   4.677   4.697
 6044SOL     OW19030   0.288   0.606   1.135
 6044SOL    HW119031   0.345   0.526   1.116
 6044SOL    HW219032   0.322   0.653   1.217
 6045SOL     OW19033   5.785   5.276   0.726
 6045SOL    HW119034   5.762   5.187   0.686
 6045SOL    HW219035   5.814   5.338   0.653
 6046SOL     OW19036   2.456   2.173   7.009
 6046SOL    HW119037   2.459   2.187   0.082
 6046SOL    HW219038   2.529   2.225   6.966
 6047SOL     OW19039   6.215   6.945   3.884
 6047SOL    HW119040   6.150   6.963   3.958
 6047SOL    HW219041   6.269   6.864   3.907
 6048SOL     OW19042   4.112   0.567   3.735
 6048SOL    HW119043   4.158   0.621   3.665
 6048SOL    HW219044   4.132   0.470   3.722
 6049SOL     OW19045   4.807   3.868   6.570
 6049SOL    HW119046   4.740   3.794   6.557
 6049SOL    HW219047   4.822   3.913   6.482
 6050SOL     OW19048   3.941   4.811   5.457
 6050SOL    HW119049   3.965   4.882   5.390
 6050SOL    HW219050   3.915   4.728   5.409
 6051SOL     OW19051   2.344   2.415   2.314
 6051SOL    HW119052   2.262   2.358   2.327
 6051SOL    HW219053   2.387   2.392   2.226
 6052SOL     OW19054   6.616   1.537   0.458
 6052SOL    HW119055   6.566   1.505   0.378
 6052SOL    HW219056   6.714   1.532   0.441
 6053SOL     OW19057   3.004   6.777   6.787
 6053SOL    HW119058   3.024   6.679   6.791
 6053SOL    HW219059   2.906   6.790   6.771
 6054SOL     OW19060   1.512   5.293   1.106
 6054SOL    HW119061   1.478   5.312   1.198
 6054SOL    HW219062   1.462   5.348   1.040
 6055SOL     OW19063   4.852   1.104   5.177
 6055SOL    HW119064   4.857   1.013   5.218
 6055SOL    HW219065   4.932   1.120   5.120
 6056SOL     OW19066   3.798   1.426   6.287
 6056SOL    HW119067   3.840   1.475   6.363
 6056SOL    HW219068   3.753   1.492   6.226
 6057SOL     OW19069   4.215   1.423   5.189
 6057SOL    HW119070   4.128   1.382   5.164
 6057SOL    HW219071   4.287   1.354   5.185
 6058SOL     OW19072   5.431   3.096   4.464
 6058SOL    HW119073   5.399   3.033   4.535
 6058SOL    HW219074   5.442   3.047   4.378
 6059SOL     OW19075   4.829   4.485   6.300
 6059SOL    HW119076   4.840   4.515   6.206
 6059SOL    HW219077   4.766   4.546   6.348
 6060SOL     OW19078   4.468   5.519   5.865
 6060SOL    HW119079   4.406   5.469   5.804
 6060SOL    HW219080   4.490   5.461   5.943
 6061SOL     OW19081   3.255   1.784   6.509
 6061SOL    HW119082   3.213   1.737   6.587
 6061SOL    HW219083   3.354   1.791   6.524
 6062SOL     OW19084   1.815   1.060   4.370
 6062SOL    HW119085   1.781   0.968   4.350
 6062SOL    HW219086   1.915   1.057   4.381
 6063SOL     OW19087   4.084   0.953   6.656
 6063SOL    HW119088   4.125   0.938   6.746
 6063SOL    HW219089   4.080   0.866   6.607
 6064SOL     OW19090   1.206   5.739   3.045
 6064SOL    HW119091   1.166   5.748   2.954
 6064SOL    HW219092   1.171   5.656   3.088
 6065SOL     OW19093   6.026   6.512   1.038
 6065SOL    HW119094   6.101   6.455   1.070
 6065SOL    HW219095   6.004   6.581   1.107
 6066SOL     OW19096   4.406   2.066   1.167
 6066SOL    HW119097   4.384   1.976   1.128
 6066SOL    HW219098   4.331   2.096   1.226
 6067SOL     OW19099   6.353   1.243   5.826
 6067SOL    HW119100   6.320   1.242   5.732
 6067SOL    HW219101   6.452   1.254   5.828
 6068SOL     OW19102   5.033   3.200   4.900
 6068SOL    HW119103   5.025   3.135   4.975
 6068SOL    HW219104   5.002   3.290   4.930
 6069SOL     OW19105   6.886   4.177   5.597
 6069SOL    HW119106   6.897   4.196   5.500
 6069SOL    HW219107   6.870   4.080   5.611
 6070SOL     OW19108   4.220   2.473   6.404
 6070SOL    HW119109   4.137   2.529   6.413
 6070SOL    HW219110   4.219   2.401   6.473
 6071SOL     OW19111   4.266   6.199   5.367
 6071SOL    HW119112   4.295   6.283   5.323
 6071SOL    HW219113   4.252   6.128   5.299
 6072SOL     OW19114   1.327   2.111   1.966
 6072SOL    HW119115   1.308   2.164   2.049
 6072SOL    HW219116   1.256   2.041   1.954
 6073SOL     OW19117   6.492   2.646   0.661
 6073SOL    HW119118   6.412   2.605   0.706
 6073SOL    HW219119   6.536   2.710   0.724
 6074SOL     OW19120   0.854   6.664   4.544
 6074SOL    HW119121   0.884   6.625   4.631
 6074SOL    HW219122   0.762   6.702   4.555
 6075SOL     OW19123   6.408   3.380   0.135
 6075SOL    HW119124   6.359   3.422   0.059
 6075SOL    HW219125   6.352   3.308   0.177
 6076SOL     OW19126   2.147   6.795   4.001
 6076SOL    HW119127   2.197   6.842   3.928
 6076SOL    HW219128   2.186   6.703   4.013
 6077SOL     OW19129   5.999   5.970   2.057
 6077SOL    HW119130   5.963   6.062   2.070
 6077SOL    HW219131   5.995   5.920   2.144
 6078SOL     OW19132   3.018   5.162   3.968
 6078SOL    HW119133   3.068   5.234   4.015
 6078SOL    HW219134   3.010   5.185   3.871
 6079SOL     OW19135   2.429   2.637   0.041
 6079SOL    HW119136   2.425   2.571   6.991
 6079SOL    HW219137   2.524   2.648   0.071
 6080SOL     OW19138   5.982   2.186   1.463
 6080SOL    HW119139   6.009   2.114   1.399
 6080SOL    HW219140   6.055   2.253   1.471
 6081SOL     OW19141   6.561   3.537   3.622
 6081SOL    HW119142   6.587   3.610   3.686
 6081SOL    HW219143   6.623   3.459   3.634
 6082SOL     OW19144   4.195   0.376   2.891
 6082SOL    HW119145   4.224   0.471   2.892
 6082SOL    HW219146   4.129   0.359   2.964
 6083SOL     OW19147   1.000   5.863   6.770
 6083SOL    HW119148   1.066   5.818   6.830
 6083SOL    HW219149   0.992   5.959   6.796
 6084SOL     OW19150   6.275   5.197   5.035
 6084SOL    HW119151   6.294   5.295   5.039
 6084SOL    HW219152   6.223   5.170   5.116
 6085SOL     OW19153   6.766   3.215   6.910
 6085SOL    HW119154   6.676   3.179   6.933
 6085SOL    HW219155   6.774   3.308   6.945
 6086SOL     OW19156   4.315   1.261   4.715
 6086SOL    HW119157   4.386   1.331   4.726
 6086SOL    HW219158   4.322   1.221   4.623
 6087SOL     OW19159   5.626   6.721   6.985
 6087SOL    HW119160   5.710   6.737   6.934
 6087SOL    HW219161   5.560   6.674   6.927
 6088SOL     OW19162   0.656   0.019   4.795
 6088SOL    HW119163   0.632   0.041   4.889
 6088SOL    HW219164   0.653   6.946   4.782
 6089SOL     OW19165   0.897   3.474   0.778
 6089SOL    HW119166   0.946   3.418   0.844
 6089SOL    HW219167   0.833   3.534   0.826
 6090SOL     OW19168   0.586   6.005   5.497
 6090SOL    HW119169   0.622   5.916   5.524
 6090SOL    HW219170   0.622   6.075   5.558
 6091SOL     OW19171   6.602   1.754   2.264
 6091SOL    HW119172   6.520   1.716   2.308
 6091SOL    HW219173   6.653   1.810   2.328
 6092SOL     OW19174   2.359   0.945   2.062
 6092SOL    HW119175   2.305   0.939   1.978
 6092SOL    HW219176   2.301   0.925   2.141
 6093SOL     OW19177   1.308   2.995   1.247
 6093SOL    HW119178   1.317   2.987   1.346
 6093SOL    HW219179   1.305   2.904   1.206
 6094SOL     OW19180   1.513   1.385   1.393
 6094SOL    HW119181   1.556   1.447   1.457
 6094SOL    HW219182   1.454   1.436   1.330
 6095SOL     OW19183   5.703   2.927   6.895
 6095SOL    HW119184   5.711   3.003   6.830
 6095SOL    HW219185   5.655   2.851   6.852
 6096SOL     OW19186   4.296   1.330   4.156
 6096SOL    HW119187   4.396   1.324   4.146
 6096SOL    HW219188   4.255   1.246   4.121
 6097SOL     OW19189   2.534   0.954   2.521
 6097SOL    HW119190   2.547   0.935   2.618
 6097SOL    HW219191   2.493   0.874   2.477
 6098SOL     OW19192   2.394   2.332   6.095
 6098SOL    HW119193   2.348   2.248   6.123
 6098SOL    HW219194   2.336   2.383   6.031
 6099SOL     OW19195   6.225   5.747   5.027
 6099SOL    HW119196   6.322   5.771   5.030
 6099SOL    HW219197   6.211   5.672   4.962
 6100SOL     OW19198   6.407   2.904   0.073
 6100SOL    HW119199   6.320   2.943   0.044
 6100SOL    HW219200   6.482   2.963   0.042
 6101SOL     OW19201   6.751   1.964   5.663
 6101SOL    HW119202   6.717   1.936   5.574
 6101SOL    HW219203   6.818   1.897   5.696
 6102SOL     OW19204   3.321   0.860   5.101
 6102SOL    HW119205   3.290   0.791   5.035
 6102SOL    HW219206   3.418   0.879   5.086
 6103SOL     OW19207   6.653   0.612   4.380
 6103SOL    HW119208   6.622   0.706   4.382
 6103SOL    HW219209   6.747   0.608   4.346
 6104SOL     OW19210   5.846   1.574   6.869
 6104SOL    HW119211   5.928   1.525   6.900
 6104SOL    HW219212   5.870   1.669   6.849
 6105SOL     OW19213   3.593   5.635   6.208
 6105SOL    HW119214   3.529   5.609   6.135
 6105SOL    HW219215   3.580   5.731   6.231
 6106SOL     OW19216   2.899   5.172   6.474
 6106SOL    HW119217   2.947   5.169   6.386
 6106SOL    HW219218   2.901   5.081   6.515
 6107SOL     OW19219   2.146   5.201   4.527
 6107SOL    HW119220   2.215   5.194   4.599
 6107SOL    HW219221   2.056   5.187   4.567
 6108SOL     OW19222   0.910   2.408   4.271
 6108SOL    HW119223   0.996   2.431   4.316
 6108SOL    HW219224   0.833   2.436   4.328
 6109SOL     OW19225   5.876   3.257   0.415
 6109SOL    HW119226   5.796   3.298   0.372
 6109SOL    HW219227   5.938   3.329   0.446
 6110SOL     OW19228   3.393   1.729   5.554
 6110SOL    HW119229   3.333   1.683   5.489
 6110SOL    HW219230   3.364   1.710   5.647
 6111SOL     OW19231   1.215   4.639   2.967
 6111SOL    HW119232   1.131   4.587   2.983
 6111SOL    HW219233   1.220   4.713   3.034
 6112SOL     OW19234   1.419   1.472   2.952
 6112SOL    HW119235   1.381   1.559   2.919
 6112SOL    HW219236   1.514   1.487   2.979
 6113SOL     OW19237   1.740   0.606   5.477
 6113SOL    HW119238   1.701   0.586   5.387
 6113SOL    HW219239   1.667   0.611   5.545
 6114SOL     OW19240   4.622   5.902   0.457
 6114SOL    HW119241   4.597   5.850   0.375
 6114SOL    HW219242   4.655   5.839   0.528
 6115SOL     OW19243   4.709   5.393   2.768
 6115SOL    HW119244   4.720   5.407   2.670
 6115SOL    HW219245   4.681   5.299   2.786
 6116SOL     OW19246   3.011   1.310   1.908
 6116SOL    HW119247   2.992   1.403   1.876
 6116SOL    HW219248   2.978   1.244   1.841
 6117SOL     OW19249   5.888   6.560   4.716
 6117SOL    HW119250   5.975   6.583   4.759
 6117SOL    HW219251   5.903   6.488   4.648
 6118SOL     OW19252   6.364   1.257   3.230
 6118SOL    HW119253   6.334   1.231   3.138
 6118SOL    HW219254   6.455   1.219   3.247
 6119SOL     OW19255   0.666   5.456   4.922
 6119SOL    HW119256   0.637   5.519   4.994
 6119SOL    HW219257   0.618   5.477   4.837
 6120SOL     OW19258   3.144   6.968   3.132
 6120SOL    HW119259   3.104   6.899   3.193
 6120SOL    HW219260   3.233   6.997   3.168
 6121SOL     OW19261   0.269   2.572   3.303
 6121SOL    HW119262   0.272   2.665   3.339
 6121SOL    HW219263   0.267   2.575   3.203
 6122SOL     OW19264   4.082   6.150   3.325
 6122SOL    HW119265   4.114   6.139   3.419
 6122SOL    HW219266   4.130   6.227   3.282
 6123SOL     OW19267   6.604   0.843   1.692
 6123SOL    HW119268   6.603   0.828   1.791
 6123SOL    HW219269   6.588   0.756   1.645
 6124SOL     OW19270   3.309   0.393   6.025
 6124SOL    HW119271   3.260   0.366   6.107
 6124SOL    HW219272   3.339   0.488   6.033
 6125SOL     OW19273   1.599   5.816   1.575
 6125SOL    HW119274   1.520   5.852   1.624
 6125SOL    HW219275   1.617   5.873   1.495
 6126SOL     OW19276   4.812   4.524   3.509
 6126SOL    HW119277   4.850   4.573   3.430
 6126SOL    HW219278   4.731   4.573   3.542
 6127SOL     OW19279   2.148   6.003   1.375
 6127SOL    HW119280   2.156   5.937   1.450
 6127SOL    HW219281   2.069   6.062   1.391
 6128SOL     OW19282   6.977   2.617   0.368
 6128SOL    HW119283   7.007   2.548   0.302
 6128SOL    HW219284   6.910   2.677   0.325
 6129SOL     OW19285   6.120   4.068   2.499
 6129SOL    HW119286   6.059   4.130   2.549
 6129SOL    HW219287   6.191   4.121   2.454
 6130SOL     OW19288   5.062   2.607   3.646
 6130SOL    HW119289   5.030   2.671   3.577
 6130SOL    HW219290   4.991   2.540   3.665
 6131SOL     OW19291   6.617   1.277   5.719
 6131SOL    HW119292   6.652   1.243   5.631
 6131SOL    HW219293   6.671   1.238   5.793
 6132SOL     OW19294   3.739   3.025   0.838
 6132SOL    HW119295   3.760   3.064   0.748
 6132SOL    HW219296   3.821   3.027   0.895
 6133SOL     OW19297   1.180   3.544   1.268
 6133SOL    HW119298   1.211   3.638   1.282
 6133SOL    HW219299   1.118   3.541   1.189
 6134SOL     OW19300   3.802   4.019   6.728
 6134SOL    HW119301   3.845   3.949   6.671
 6134SOL    HW219302   3.795   4.104   6.675
 6135SOL     OW19303   6.707   0.051   1.000
 6135SOL    HW119304   6.779   7.014   0.970
 6135SOL    HW219305   6.739   0.145   0.991
 6136SOL     OW19306   0.852   1.993   1.971
 6136SOL    HW119307   0.758   2.022   1.992
 6136SOL    HW219308   0.874   2.019   1.877
 6137SOL     OW19309   3.039   6.325   6.275
 6137SOL    HW119310   3.000   6.282   6.193
 6137SOL    HW219311   3.108   6.264   6.314
 6138SOL     OW19312   4.068   6.185   2.389
 6138SOL    HW119313   4.153   6.225   2.422
 6138SOL    HW219314   4.038   6.233   2.307
 6139SOL     OW19315   1.591   3.995   4.901
 6139SOL    HW119316   1.611   4.004   4.998
 6139SOL    HW219317   1.676   3.974   4.851
 6140SOL     OW19318   1.446   6.744   1.714
 6140SOL    HW119319   1.520   6.811   1.708
 6140SOL    HW219320   1.417   6.735   1.810
 6141SOL     OW19321   6.700   5.325   5.932
 6141SOL    HW119322   6.786   5.340   5.979
 6141SOL    HW219323   6.630   5.296   5.997
 6142SOL     OW19324   6.750   3.608   0.874
 6142SOL    HW119325   6.745   3.543   0.949
 6142SOL    HW219326   6.735   3.561   0.787
 6143SOL     OW19327   6.008   5.221   6.511
 6143SOL    HW119328   5.926   5.169   6.533
 6143SOL    HW219329   6.053   5.249   6.596
 6144SOL     OW19330   0.016   4.244   3.421
 6144SOL    HW119331   7.016   4.161   3.371
 6144SOL    HW219332   0.013   4.226   3.520
 6145SOL     OW19333   4.920   5.619   2.932
 6145SOL    HW119334   4.858   5.686   2.891
 6145SOL    HW219335   4.961   5.657   3.015
 6146SOL     OW19336   5.177   1.092   3.063
 6146SOL    HW119337   5.146   1.110   3.156
 6146SOL    HW219338   5.099   1.066   3.006
 6147SOL     OW19339   1.844   3.790   2.963
 6147SOL    HW119340   1.912   3.735   3.011
 6147SOL    HW219341   1.835   3.878   3.008
 6148SOL     OW19342   5.634   6.449   4.126
 6148SOL    HW119343   5.686   6.489   4.202
 6148SOL    HW219344   5.537   6.445   4.151
 6149SOL     OW19345   3.297   5.312   3.109
 6149SOL    HW119346   3.279   5.214   3.095
 6149SOL    HW219347   3.393   5.325   3.132
 6150SOL     OW19348   5.056   6.060   6.158
 6150SOL    HW119349   5.020   6.137   6.105
 6150SOL    HW219350   5.018   6.061   6.250
 6151SOL     OW19351   5.000   2.343   5.231
 6151SOL    HW119352   4.919   2.383   5.274
 6151SOL    HW219353   4.995   2.244   5.237
 6152SOL     OW19354   5.692   4.719   6.305
 6152SOL    HW119355   5.599   4.750   6.283
 6152SOL    HW219356   5.704   4.625   6.273
 6153SOL     OW19357   4.643   4.015   1.412
 6153SOL    HW119358   4.592   4.022   1.498
 6153SOL    HW219359   4.729   4.065   1.419
 6154SOL     OW19360   5.851   2.406   2.680
 6154SOL    HW119361   5.902   2.418   2.765
 6154SOL    HW219362   5.893   2.459   2.607
 6155SOL     OW19363   0.317   3.676   4.748
 6155SOL    HW119364   0.323   3.619   4.665
 6155SOL    HW219365   0.267   3.760   4.726
 6156SOL     OW19366   5.701   6.692   2.898
 6156SOL    HW119367   5.752   6.671   2.815
 6156SOL    HW219368   5.749   6.764   2.949
 6157SOL     OW19369   1.675   1.802   4.310
 6157SOL    HW119370   1.653   1.789   4.407
 6157SOL    HW219371   1.715   1.892   4.296
 6158SOL     OW19372   4.395   0.742   6.801
 6158SOL    HW119373   4.462   0.671   6.822
 6158SOL    HW219374   4.382   0.747   6.702
 6159SOL     OW19375   5.376   2.692   0.626
 6159SOL    HW119376   5.346   2.665   0.717
 6159SOL    HW219377   5.476   2.684   0.620
 6160SOL     OW19378   5.747   5.931   1.141
 6160SOL    HW119379   5.774   5.956   1.234
 6160SOL    HW219380   5.731   6.014   1.087
 6161SOL     OW19381   5.547   0.196   6.227
 6161SOL    HW119382   5.494   0.264   6.176
 6161SOL    HW219383   5.492   0.161   6.303
 6162SOL     OW19384   0.627   5.453   4.636
 6162SOL    HW119385   0.593   5.360   4.653
 6162SOL    HW219386   0.560   5.503   4.581
 6163SOL     OW19387   5.890   3.837   0.487
 6163SOL    HW119388   5.936   3.794   0.565
 6163SOL    HW219389   5.915   3.787   0.403
 6164SOL     OW19390   3.088   1.265   0.822
 6164SOL    HW119391   3.171   1.258   0.767
 6164SOL    HW219392   3.059   1.360   0.828
 6165SOL     OW19393   4.001   6.166   0.650
 6165SOL    HW119394   4.091   6.195   0.682
 6165SOL    HW219395   3.942   6.246   0.641
 6166SOL     OW19396   2.704   1.135   5.911
 6166SOL    HW119397   2.682   1.222   5.868
 6166SOL    HW219398   2.622   1.097   5.955
 6167SOL     OW19399   0.396   4.225   2.940
 6167SOL    HW119400   0.378   4.316   2.902
 6167SOL    HW219401   0.309   4.179   2.958
 6168SOL     OW19402   0.385   3.877   2.209
 6168SOL    HW119403   0.358   3.956   2.263
 6168SOL    HW219404   0.484   3.877   2.196
 6169SOL     OW19405   2.191   4.257   2.057
 6169SOL    HW119406   2.227   4.345   2.089
 6169SOL    HW219407   2.092   4.254   2.072
 6170SOL     OW19408   6.980   3.466   5.242
 6170SOL    HW119409   6.993   3.497   5.336
 6170SOL    HW219410   6.898   3.409   5.237
 6171SOL     OW19411   0.555   0.541   6.985
 6171SOL    HW119412   0.551   0.458   0.015
 6171SOL    HW219413   0.636   0.594   7.009
 6172SOL     OW19414   0.600   2.934   2.749
 6172SOL    HW119415   0.591   2.863   2.820
 6172SOL    HW219416   0.662   3.005   2.781
 6173SOL     OW19417   6.309   0.020   2.674
 6173SOL    HW119418   6.328   6.947   2.677
 6173SOL    HW219419   6.313   0.051   2.579
 6174SOL     OW19420   5.446   4.148   2.940
 6174SOL    HW119421   5.518   4.080   2.953
 6174SOL    HW219422   5.356   4.104   2.947
 6175SOL     OW19423   2.296   1.030   5.079
 6175SOL    HW119424   2.382   1.071   5.047
 6175SOL    HW219425   2.219   1.088   5.052
 6176SOL     OW19426   4.398   4.255   5.303
 6176SOL    HW119427   4.350   4.325   5.250
 6176SOL    HW219428   4.495   4.256   5.281
 6177SOL     OW19429   6.191   1.476   2.113
 6177SOL    HW119430   6.202   1.567   2.074
 6177SOL    HW219431   6.241   1.410   2.057
 6178SOL     OW19432   5.148   4.154   2.247
 6178SOL    HW119433   5.058   4.189   2.275
 6178SOL    HW219434   5.213   4.163   2.322
 6179SOL     OW19435   6.292   5.057   2.505
 6179SOL    HW119436   6.390   5.055   2.484
 6179SOL    HW219437   6.278   5.103   2.592
 6180SOL     OW19438   2.832   4.744   0.290
 6180SOL    HW119439   2.922   4.758   0.332
 6180SOL    HW219440   2.784   4.832   0.285
 6181SOL     OW19441   4.732   5.156   6.297
 6181SOL    HW119442   4.705   5.171   6.392
 6181SOL    HW219443   4.733   5.243   6.249
 6182SOL     OW19444   3.503   3.046   7.012
 6182SOL    HW119445   3.557   2.974   6.969
 6182SOL    HW219446   3.408   3.015   7.021
 6183SOL     OW19447   1.100   2.036   0.892
 6183SOL    HW119448   1.129   2.099   0.964
 6183SOL    HW219449   1.067   1.951   0.933
 6184SOL     OW19450   2.976   0.742   5.873
 6184SOL    HW119451   2.940   0.828   5.837
 6184SOL    HW219452   2.994   0.679   5.798
 6185SOL     OW19453   3.452   2.805   5.279
 6185SOL    HW119454   3.546   2.799   5.245
 6185SOL    HW219455   3.390   2.827   5.204
 6186SOL     OW19456   6.276   2.041   2.195
 6186SOL    HW119457   6.212   1.967   2.215
 6186SOL    HW219458   6.320   2.023   2.106
 6187SOL     OW19459   5.276   2.302   5.215
 6187SOL    HW119460   5.323   2.374   5.165
 6187SOL    HW219461   5.182   2.329   5.233
 6188SOL     OW19462   1.793   2.130   5.008
 6188SOL    HW119463   1.702   2.170   5.014
 6188SOL    HW219464   1.835   2.129   5.099
 6189SOL     OW19465   5.212   6.269   2.517
 6189SOL    HW119466   5.147   6.336   2.481
 6189SOL    HW219467   5.163   6.186   2.544
 6190SOL     OW19468   6.765   2.205   5.411
 6190SOL    HW119469   6.844   2.146   5.392
 6190SOL    HW219470   6.725   2.237   5.325
 6191SOL     OW19471   3.613   3.603   6.638
 6191SOL    HW119472   3.682   3.635   6.703
 6191SOL    HW219473   3.528   3.582   6.686
 6192SOL     OW19474   2.457   1.928   0.485
 6192SOL    HW119475   2.373   1.980   0.471
 6192SOL    HW219476   2.536   1.983   0.458
 6193SOL     OW19477   5.212   5.345   0.283
 6193SOL    HW119478   5.255   5.418   0.336
 6193SOL    HW219479   5.240   5.352   0.187
 6194SOL     OW19480   6.678   0.390   6.082
 6194SOL    HW119481   6.672   0.343   5.994
 6194SOL    HW219482   6.593   0.441   6.098
 6195SOL     OW19483   6.193   6.653   5.166
 6195SOL    HW119484   6.271   6.610   5.212
 6195SOL    HW219485   6.125   6.679   5.234
 6196SOL     OW19486   5.127   3.497   3.281
 6196SOL    HW119487   5.187   3.419   3.262
 6196SOL    HW219488   5.153   3.574   3.223
 6197SOL     OW19489   2.939   5.390   2.071
 6197SOL    HW119490   3.014   5.345   2.118
 6197SOL    HW219491   2.856   5.384   2.126
 6198SOL     OW19492   6.389   6.494   6.434
 6198SOL    HW119493   6.424   6.461   6.346
 6198SOL    HW219494   6.291   6.475   6.440
 6199SOL     OW19495   1.188   0.027   0.778
 6199SOL    HW119496   1.119   6.997   0.733
 6199SOL    HW219497   1.240   6.997   0.843
 6200SOL     OW19498   2.030   2.279   2.517
 6200SOL    HW119499   2.073   2.234   2.595
 6200SOL    HW219500   2.049   2.377   2.521
 6201SOL     OW19501   6.863   3.571   3.789
 6201SOL    HW119502   6.841   3.535   3.698
 6201SOL    HW219503   6.783   3.620   3.825
 6202SOL     OW19504   6.203   1.246   2.739
 6202SOL    HW119505   6.255   1.247   2.654
 6202SOL    HW219506   6.129   1.179   2.731
 6203SOL     OW19507   6.365   5.806   1.886
 6203SOL    HW119508   6.393   5.710   1.878
 6203SOL    HW219509   6.345   5.827   1.982
 6204SOL     OW19510   1.803   0.050   5.048
 6204SOL    HW119511   1.785   7.019   4.967
 6204SOL    HW219512   1.892   0.095   5.039
 6205SOL     OW19513   4.987   4.283   2.601
 6205SOL    HW119514   4.996   4.318   2.694
 6205SOL    HW219515   4.905   4.226   2.594
 6206SOL     OW19516   5.145   2.153   3.908
 6206SOL    HW119517   5.201   2.155   3.991
 6206SOL    HW219518   5.050   2.139   3.933
 6207SOL     OW19519   2.083   5.786   4.374
 6207SOL    HW119520   2.111   5.697   4.340
 6207SOL    HW219521   1.983   5.792   4.375
 6208SOL     OW19522   3.891   2.771   5.558
 6208SOL    HW119523   3.919   2.772   5.462
 6208SOL    HW219524   3.826   2.845   5.574
 6209SOL     OW19525   3.966   3.845   0.723
 6209SOL    HW119526   3.991   3.790   0.803
 6209SOL    HW219527   4.049   3.865   0.671
 6210SOL     OW19528   4.665   2.513   3.402
 6210SOL    HW119529   4.618   2.507   3.314
 6210SOL    HW219530   4.728   2.436   3.412
 6211SOL     OW19531   5.057   5.411   4.864
 6211SOL    HW119532   4.966   5.370   4.862
 6211SOL    HW219533   5.053   5.506   4.833
 6212SOL     OW19534   4.295   4.424   5.926
 6212SOL    HW119535   4.243   4.367   5.862
 6212SOL    HW219536   4.242   4.437   6.009
 6213SOL     OW19537   4.303   6.080   0.596
 6213SOL    HW119538   4.338   6.091   0.503
 6213SOL    HW219539   4.379   6.089   0.661
 6214SOL     OW19540   6.225   5.857   5.610
 6214SOL    HW119541   6.277   5.931   5.651
 6214SOL    HW219542   6.239   5.773   5.663
 6215SOL     OW19543   5.079   2.351   6.036
 6215SOL    HW119544   5.131   2.315   6.114
 6215SOL    HW219545   4.982   2.330   6.050
 6216SOL     OW19546   4.778   2.691   2.986
 6216SOL    HW119547   4.718   2.650   3.055
 6216SOL    HW219548   4.864   2.641   2.982
 6217SOL     OW19549   1.197   4.378   2.316
 6217SOL    HW119550   1.115   4.327   2.343
 6217SOL    HW219551   1.170   4.456   2.259
 6218SOL     OW19552   4.667   6.849   0.288
 6218SOL    HW119553   4.759   6.846   0.328
 6218SOL    HW219554   4.628   6.940   0.302
 6219SOL     OW19555   1.385   1.010   5.395
 6219SOL    HW119556   1.465   1.067   5.413
 6219SOL    HW219557   1.328   1.054   5.325
 6220SOL     OW19558   4.096   0.758   0.977
 6220SOL    HW119559   4.158   0.813   0.921
 6220SOL    HW219560   4.130   0.754   1.071
 6221SOL     OW19561   6.145   5.769   6.444
 6221SOL    HW119562   6.185   5.768   6.352
 6221SOL    HW219563   6.160   5.681   6.488
 6222SOL     OW19564   6.469   1.505   2.737
 6222SOL    HW119565   6.397   1.438   2.753
 6222SOL    HW219566   6.546   1.461   2.691
 6223SOL     OW19567   0.454   5.321   3.938
 6223SOL    HW119568   0.463   5.253   3.865
 6223SOL    HW219569   0.513   5.297   4.014
 6224SOL     OW19570   4.265   1.918   6.727
 6224SOL    HW119571   4.235   1.935   6.633
 6224SOL    HW219572   4.337   1.982   6.752
 6225SOL     OW19573   4.076   6.936   6.550
 6225SOL    HW119574   4.075   6.953   6.451
 6225SOL    HW219575   3.984   6.948   6.586
 6226SOL     OW19576   0.607   1.533   4.358
 6226SOL    HW119577   0.697   1.491   4.372
 6226SOL    HW219578   0.552   1.520   4.440
 6227SOL     OW19579   3.211   3.826   5.095
 6227SOL    HW119580   3.202   3.926   5.101
 6227SOL    HW219581   3.121   3.784   5.102
 6228SOL     OW19582   2.029   2.643   3.876
 6228SOL    HW119583   2.107   2.639   3.939
 6228SOL    HW219584   1.984   2.553   3.873
 6229SOL     OW19585   0.548   3.670   4.066
 6229SOL    HW119586   0.507   3.600   4.008
 6229SOL    HW219587   0.585   3.743   4.009
 6230SOL     OW19588   0.914   0.876   1.982
 6230SOL    HW119589   0.909   0.908   1.887
 6230SOL    HW219590   1.006   0.891   2.018
 6231SOL     OW19591   0.228   4.723   0.237
 6231SOL    HW119592   0.295   4.669   0.186
 6231SOL    HW219593   0.272   4.804   0.274
 6232SOL     OW19594   4.671   1.396   6.773
 6232SOL    HW119595   4.577   1.372   6.797
 6232SOL    HW219596   4.735   1.336   6.822
 6233SOL     OW19597   0.155   3.692   1.465
 6233SOL    HW119598   0.237   3.743   1.492
 6233SOL    HW219599   0.093   3.754   1.416
 6234SOL     OW19600   5.892   0.143   4.440
 6234SOL    HW119601   5.912   0.076   4.512
 6234SOL    HW219602   5.975   0.162   4.387
 6235SOL     OW19603   6.753   1.059   2.333
 6235SOL    HW119604   6.700   1.144   2.335
 6235SOL    HW219605   6.743   1.016   2.244
 6236SOL     OW19606   0.643   4.675   1.117
 6236SOL    HW119607   0.601   4.766   1.111
 6236SOL    HW219608   0.574   4.607   1.139
 6237SOL     OW19609   3.597   0.794   1.255
 6237SOL    HW119610   3.502   0.774   1.277
 6237SOL    HW219611   3.636   0.717   1.203
 6238SOL     OW19612   2.513   6.817   4.673
 6238SOL    HW119613   2.497   6.911   4.645
 6238SOL    HW219614   2.594   6.812   4.731
 6239SOL     OW19615   4.672   1.052   2.857
 6239SOL    HW119616   4.612   0.978   2.827
 6239SOL    HW219617   4.709   1.099   2.777
 6240SOL     OW19618   4.050   3.288   4.272
 6240SOL    HW119619   4.109   3.362   4.240
 6240SOL    HW219620   3.994   3.255   4.196
 6241SOL     OW19621   3.078   6.613   3.885
 6241SOL    HW119622   3.128   6.530   3.861
 6241SOL    HW219623   2.989   6.612   3.840
 6242SOL     OW19624   2.932   1.873   3.375
 6242SOL    HW119625   2.959   1.803   3.441
 6242SOL    HW219626   3.013   1.915   3.336
 6243SOL     OW19627   5.609   1.525   6.113
 6243SOL    HW119628   5.691   1.475   6.140
 6243SOL    HW219629   5.621   1.622   6.133
 6244SOL     OW19630   4.449   4.790   3.130
 6244SOL    HW119631   4.433   4.794   3.229
 6244SOL    HW219632   4.498   4.706   3.107
 6245SOL     OW19633   0.687   4.380   2.549
 6245SOL    HW119634   0.697   4.310   2.478
 6245SOL    HW219635   0.591   4.408   2.555
 6246SOL     OW19636   6.992   6.572   4.535
 6246SOL    HW119637   6.950   6.610   4.618
 6246SOL    HW219638   0.063   6.554   4.552
 6247SOL     OW19639   6.020   6.306   2.782
 6247SOL    HW119640   6.087   6.281   2.852
 6247SOL    HW219641   5.948   6.361   2.823
 6248SOL     OW19642   3.798   2.978   6.538
 6248SOL    HW119643   3.850   2.935   6.464
 6248SOL    HW219644   3.700   2.969   6.519
 6249SOL     OW19645   6.042   3.055   1.074
 6249SOL    HW119646   6.103   3.128   1.042
 6249SOL    HW219647   5.954   3.062   1.027
 6250SOL     OW19648   0.272   0.622   0.359
 6250SOL    HW119649   0.257   0.526   0.338
 6250SOL    HW219650   0.184   0.668   0.370
 6251SOL     OW19651   3.016   6.388   4.275
 6251SOL    HW119652   2.942   6.407   4.339
 6251SOL    HW219653   3.092   6.451   4.293
 6252SOL     OW19654   2.483   5.745   0.259
 6252SOL    HW119655   2.428   5.792   0.190
 6252SOL    HW219656   2.505   5.653   0.227
 6253SOL     OW19657   3.353   5.032   4.619
 6253SOL    HW119658   3.371   5.120   4.662
 6253SOL    HW219659   3.435   4.999   4.573
 6254SOL     OW19660   6.733   6.061   0.235
 6254SOL    HW119661   6.696   6.133   0.176
 6254SOL    HW219662   6.752   5.979   0.180
 6255SOL     OW19663   0.063   1.336   1.661
 6255SOL    HW119664   0.147   1.376   1.697
 6255SOL    HW219665   7.010   1.386   1.697
 6256SOL     OW19666   4.654   5.766   2.464
 6256SOL    HW119667   4.653   5.722   2.374
 6256SOL    HW219668   4.746   5.762   2.502
 6257SOL     OW19669   4.173   4.120   1.490
 6257SOL    HW119670   4.222   4.063   1.556
 6257SOL    HW219671   4.104   4.065   1.444
 6258SOL     OW19672   4.362   6.224   5.616
 6258SOL    HW119673   4.330   6.211   5.522
 6258SOL    HW219674   4.283   6.228   5.677
 6259SOL     OW19675   2.641   0.837   5.128
 6259SOL    HW119676   2.734   0.802   5.115
 6259SOL    HW219677   2.575   0.774   5.086
 6260SOL     OW19678   2.423   1.415   0.131
 6260SOL    HW119679   2.458   1.326   0.163
 6260SOL    HW219680   2.467   1.488   0.183
 6261SOL     OW19681   3.647   6.062   1.554
 6261SOL    HW119682   3.723   6.065   1.619
 6261SOL    HW219683   3.648   5.975   1.505
 6262SOL     OW19684   6.900   0.054   2.141
 6262SOL    HW119685   6.967   0.117   2.181
 6262SOL    HW219686   6.947   7.014   2.082
 6263SOL     OW19687   6.262   6.284   5.365
 6263SOL    HW119688   6.244   6.311   5.460
 6263SOL    HW219689   6.186   6.228   5.332
 6264SOL     OW19690   1.552   6.437   1.294
 6264SOL    HW119691   1.548   6.505   1.366
 6264SOL    HW219692   1.618   6.466   1.224
 6265SOL     OW19693   4.596   1.610   0.080
 6265SOL    HW119694   4.496   1.600   0.081
 6265SOL    HW219695   4.634   1.545   0.014
 6266SOL     OW19696   2.570   5.508   3.570
 6266SOL    HW119697   2.555   5.584   3.634
 6266SOL    HW219698   2.482   5.467   3.546
 6267SOL     OW19699   1.252   6.731   4.994
 6267SOL    HW119700   1.234   6.677   5.076
 6267SOL    HW219701   1.333   6.788   5.008
 6268SOL     OW19702   3.443   0.427   1.675
 6268SOL    HW119703   3.378   0.499   1.696
 6268SOL    HW219704   3.514   0.424   1.745
 6269SOL     OW19705   5.733   5.499   0.867
 6269SOL    HW119706   5.760   5.419   0.814
 6269SOL    HW219707   5.808   5.527   0.926
 6270SOL     OW19708   1.872   6.268   0.448
 6270SOL    HW119709   1.843   6.305   0.536
 6270SOL    HW219710   1.864   6.340   0.378
 6271SOL     OW19711   6.036   3.218   6.488
 6271SOL    HW119712   6.068   3.149   6.423
 6271SOL    HW219713   6.017   3.176   6.576
 6272SOL     OW19714   6.860   7.007   0.244
 6272SOL    HW119715   6.876   7.005   0.343
 6272SOL    HW219716   6.891   0.069   0.207
 6273SOL     OW19717   6.997   0.463   1.724
 6273SOL    HW119718   6.942   0.533   1.770
 6273SOL    HW219719   6.966   0.373   1.753
 6274SOL     OW19720   3.257   5.622   5.047
 6274SOL    HW119721   3.322   5.606   5.121
 6274SOL    HW219722   3.261   5.547   4.981
 6275SOL     OW19723   1.774   5.181   6.916
 6275SOL    HW119724   1.837   5.128   6.974
 6275SOL    HW219725   1.688   5.196   6.964
 6276SOL     OW19726   1.440   6.133   2.814
 6276SOL    HW119727   1.343   6.113   2.798
 6276SOL    HW219728   1.472   6.082   2.894
 6277SOL     OW19729   5.536   3.145   1.426
 6277SOL    HW119730   5.478   3.120   1.504
 6277SOL    HW219731   5.625   3.176   1.459
 6278SOL     OW19732   2.879   0.235   6.495
 6278SOL    HW119733   2.876   0.285   6.409
 6278SOL    HW219734   2.972   0.238   6.532
 6279SOL     OW19735   2.690   6.910   1.457
 6279SOL    HW119736   2.779   6.905   1.412
 6279SOL    HW219737   2.691   6.856   1.541
 6280SOL     OW19738   6.788   1.891   6.915
 6280SOL    HW119739   6.797   1.804   6.964
 6280SOL    HW219740   6.875   1.916   6.875
 6281SOL     OW19741   6.190   4.420   5.412
 6281SOL    HW119742   6.273   4.375   5.442
 6281SOL    HW219743   6.156   4.479   5.486
 6282SOL     OW19744   0.675   3.404   5.668
 6282SOL    HW119745   0.684   3.374   5.763
 6282SOL    HW219746   0.736   3.482   5.651
 6283SOL     OW19747   1.130   6.142   5.303
 6283SOL    HW119748   1.072   6.192   5.238
 6283SOL    HW219749   1.074   6.079   5.356
 6284SOL     OW19750   2.239   4.743   6.617
 6284SOL    HW119751   2.334   4.771   6.631
 6284SOL    HW219752   2.205   4.699   6.701
 6285SOL     OW19753   0.979   3.444   3.622
 6285SOL    HW119754   1.053   3.389   3.583
 6285SOL    HW219755   0.975   3.428   3.721
 6286SOL     OW19756   1.061   3.072   5.320
 6286SOL    HW119757   1.072   3.121   5.234
 6286SOL    HW219758   0.978   3.103   5.366
 6287SOL     OW19759   4.639   4.734   5.086
 6287SOL    HW119760   4.659   4.656   5.146
 6287SOL    HW219761   4.661   4.819   5.133
 6288SOL     OW19762   3.993   3.134   6.791
 6288SOL    HW119763   4.054   3.197   6.838
 6288SOL    HW219764   3.924   3.099   6.856
 6289SOL     OW19765   2.748   4.664   5.842
 6289SOL    HW119766   2.673   4.599   5.825
 6289SOL    HW219767   2.823   4.645   5.779
 6290SOL     OW19768   5.225   5.440   5.107
 6290SOL    HW119769   5.218   5.536   5.137
 6290SOL    HW219770   5.156   5.422   5.037
 6291SOL     OW19771   2.964   3.186   2.976
 6291SOL    HW119772   3.042   3.127   2.956
 6291SOL    HW219773   2.935   3.172   3.071
 6292SOL     OW19774   1.879   3.178   4.688
 6292SOL    HW119775   1.869   3.163   4.786
 6292SOL    HW219776   1.825   3.257   4.660
 6293SOL     OW19777   4.377   1.441   6.405
 6293SOL    HW119778   4.312   1.370   6.379
 6293SOL    HW219779   4.348   1.484   6.490
 6294SOL     OW19780   1.890   1.416   3.039
 6294SOL    HW119781   1.968   1.446   2.984
 6294SOL    HW219782   1.809   1.409   2.981
 6295SOL     OW19783   5.697   4.112   5.589
 6295SOL    HW119784   5.769   4.166   5.632
 6295SOL    HW219785   5.609   4.130   5.633
 6296SOL     OW19786   0.278   2.496   6.422
 6296SOL    HW119787   0.250   2.478   6.517
 6296SOL    HW219788   0.197   2.501   6.364
 6297SOL     OW19789   5.843   0.757   4.263
 6297SOL    HW119790   5.846   0.786   4.167
 6297SOL    HW219791   5.850   0.837   4.323
 6298SOL     OW19792   6.211   5.100   0.803
 6298SOL    HW119793   6.249   5.024   0.751
 6298SOL    HW219794   6.250   5.186   0.769
 6299SOL     OW19795   4.876   1.841   2.598
 6299SOL    HW119796   4.882   1.851   2.499
 6299SOL    HW219797   4.967   1.819   2.635
 6300SOL     OW19798   3.214   0.074   6.406
 6300SOL    HW119799   3.275   0.053   6.482
 6300SOL    HW219800   3.161   7.018   6.382
 6301SOL     OW19801   3.551   6.401   0.557
 6301SOL    HW119802   3.487   6.403   0.633
 6301SOL    HW219803   3.563   6.307   0.526
 6302SOL     OW19804   2.951   1.021   5.813
 6302SOL    HW119805   2.883   1.078   5.860
 6302SOL    HW219806   3.043   1.048   5.841
 6303SOL     OW19807   1.011   5.605   5.701
 6303SOL    HW119808   1.039   5.693   5.662
 6303SOL    HW219809   1.091   5.545   5.706
 6304SOL     OW19810   4.226   1.182   3.303
 6304SOL    HW119811   4.244   1.274   3.338
 6304SOL    HW219812   4.143   1.184   3.247
 6305SOL     OW19813   0.724   6.170   5.918
 6305SOL    HW119814   0.794   6.098   5.908
 6305SOL    HW219815   0.766   6.251   5.960
 6306SOL     OW19816   7.012   4.520   4.003
 6306SOL    HW119817   6.974   4.429   3.983
 6306SOL    HW219818   0.036   4.553   3.923
 6307SOL     OW19819   4.019   3.431   3.209
 6307SOL    HW119820   4.080   3.502   3.245
 6307SOL    HW219821   3.944   3.417   3.274
 6308SOL     OW19822   0.617   2.652   0.112
 6308SOL    HW119823   0.651   2.727   0.169
 6308SOL    HW219824   0.541   2.607   0.157
 6309SOL     OW19825   1.916   6.129   4.239
 6309SOL    HW119826   1.949   6.117   4.333
 6309SOL    HW219827   1.979   6.189   4.189
 6310SOL     OW19828   1.532   6.326   3.172
 6310SOL    HW119829   1.503   6.373   3.255
 6310SOL    HW219830   1.497   6.232   3.172
 6311SOL     OW19831   4.892   0.739   6.145
 6311SOL    HW119832   4.907   0.822   6.199
 6311SOL    HW219833   4.794   0.729   6.126
 6312SOL     OW19834   3.883   6.416   6.700
 6312SOL    HW119835   3.870   6.423   6.799
 6312SOL    HW219836   3.942   6.490   6.668
 6313SOL     OW19837   5.571   6.088   3.629
 6313SOL    HW119838   5.499   6.143   3.585
 6313SOL    HW219839   5.583   6.003   3.578
 6314SOL     OW19840   2.004   6.920   1.894
 6314SOL    HW119841   1.940   6.955   1.826
 6314SOL    HW219842   2.004   6.980   1.974
 6315SOL     OW19843   2.408   2.688   3.921
 6315SOL    HW119844   2.329   2.747   3.901
 6315SOL    HW219845   2.399   2.651   4.013
 6316SOL     OW19846   5.522   1.392   4.674
 6316SOL    HW119847   5.465   1.471   4.695
 6316SOL    HW219848   5.618   1.417   4.682
 6317SOL     OW19849   4.715   4.965   2.014
 6317SOL    HW119850   4.737   4.964   1.916
 6317SOL    HW219851   4.775   5.029   2.061
 6318SOL     OW19852   6.337   7.022   6.110
 6318SOL    HW119853   6.340   0.090   6.146
 6318SOL    HW219854   6.414   7.007   6.048
 6319SOL     OW19855   5.714   1.715   4.595
 6319SOL    HW119856   5.692   1.669   4.682
 6319SOL    HW219857   5.663   1.672   4.521
 6320SOL     OW19858   6.698   0.606   4.646
 6320SOL    HW119859   6.787   0.563   4.657
 6320SOL    HW219860   6.677   0.617   4.549
 6321SOL     OW19861   5.753   2.160   0.335
 6321SOL    HW119862   5.809   2.091   0.288
 6321SOL    HW219863   5.680   2.191   0.274
 6322SOL     OW19864   1.490   0.769   1.335
 6322SOL    HW119865   1.569   0.721   1.374
 6322SOL    HW219866   1.523   0.847   1.281
 6323SOL     OW19867   2.955   3.354   1.567
 6323SOL    HW119868   2.976   3.402   1.652
 6323SOL    HW219869   2.969   3.417   1.490
 6324SOL     OW19870   4.506   1.612   0.868
 6324SOL    HW119871   4.484   1.605   0.771
 6324SOL    HW219872   4.434   1.569   0.922
 6325SOL     OW19873   1.759   2.487   3.248
 6325SOL    HW119874   1.675   2.521   3.291
 6325SOL    HW219875   1.838   2.511   3.305
 6326SOL     OW19876   5.360   4.563   5.884
 6326SOL    HW119877   5.284   4.513   5.924
 6326SOL    HW219878   5.329   4.653   5.853
 6327SOL     OW19879   0.135   0.026   3.120
 6327SOL    HW119880   0.136   0.102   3.054
 6327SOL    HW219881   0.102   0.059   3.208
 6328SOL     OW19882   4.674   3.802   5.791
 6328SOL    HW119883   4.711   3.776   5.702
 6328SOL    HW219884   4.675   3.901   5.799
 6329SOL     OW19885   1.419   2.966   5.541
 6329SOL    HW119886   1.513   2.932   5.537
 6329SOL    HW219887   1.359   2.904   5.491
 6330SOL     OW19888   5.345   1.301   3.426
 6330SOL    HW119889   5.346   1.375   3.359
 6330SOL    HW219890   5.298   1.222   3.388
 6331SOL     OW19891   0.097   3.293   2.911
 6331SOL    HW119892   0.076   3.315   3.006
 6331SOL    HW219893   0.137   3.374   2.867
 6332SOL     OW19894   2.699   1.187   0.453
 6332SOL    HW119895   2.714   1.092   0.480
 6332SOL    HW219896   2.601   1.207   0.457
 6333SOL     OW19897   4.528   1.311   0.714
 6333SOL    HW119898   4.464   1.349   0.781
 6333SOL    HW219899   4.599   1.379   0.694
 6334SOL     OW19900   1.832   1.170   1.682
 6334SOL    HW119901   1.787   1.252   1.718
 6334SOL    HW219902   1.897   1.196   1.610
 6335SOL     OW19903   6.195   1.409   0.923
 6335SOL    HW119904   6.157   1.443   1.009
 6335SOL    HW219905   6.168   1.314   0.911
 6336SOL     OW19906   0.907   3.125   6.041
 6336SOL    HW119907   0.906   3.051   5.973
 6336SOL    HW219908   0.999   3.166   6.045
 6337SOL     OW19909   4.410   5.739   4.899
 6337SOL    HW119910   4.407   5.781   4.990
 6337SOL    HW219911   4.458   5.652   4.904
 6338SOL     OW19912   3.014   1.841   4.065
 6338SOL    HW119913   2.925   1.858   4.023
 6338SOL    HW219914   3.004   1.776   4.140
 6339SOL     OW19915   0.995   4.670   3.395
 6339SOL    HW119916   1.063   4.611   3.350
 6339SOL    HW219917   0.906   4.624   3.394
 6340SOL     OW19918   2.002   4.336   1.633
 6340SOL    HW119919   2.047   4.262   1.684
 6340SOL    HW219920   1.903   4.332   1.650
 6341SOL     OW19921   0.878   4.299   3.587
 6341SOL    HW119922   0.805   4.238   3.619
 6341SOL    HW219923   0.921   4.260   3.505
 6342SOL     OW19924   1.979   1.963   1.944
 6342SOL    HW119925   1.910   2.024   1.982
 6342SOL    HW219926   1.936   1.901   1.878
 6343SOL     OW19927   2.287   5.743   1.058
 6343SOL    HW119928   2.257   5.651   1.032
 6343SOL    HW219929   2.387   5.745   1.067
 6344SOL     OW19930   6.651   1.552   3.723
 6344SOL    HW119931   6.652   1.602   3.636
 6344SOL    HW219932   6.693   1.462   3.710
 6345SOL     OW19933   5.848   3.643   1.655
 6345SOL    HW119934   5.887   3.660   1.564
 6345SOL    HW219935   5.792   3.721   1.682
 6346SOL     OW19936   6.953   4.569   5.525
 6346SOL    HW119937   0.001   4.615   5.476
 6346SOL    HW219938   6.877   4.552   5.462
 6347SOL     OW19939   2.041   1.742   2.778
 6347SOL    HW119940   2.049   1.832   2.822
 6347SOL    HW219941   2.081   1.746   2.686
 6348SOL     OW19942   6.788   2.454   5.833
 6348SOL    HW119943   6.786   2.388   5.759
 6348SOL    HW219944   6.862   2.432   5.896
 6349SOL     OW19945   7.008   1.449   6.852
 6349SOL    HW119946   6.912   1.476   6.861
 6349SOL    HW219947   0.008   1.448   6.755
 6350SOL     OW19948   1.824   5.268   1.803
 6350SOL    HW119949   1.835   5.305   1.710
 6350SOL    HW219950   1.914   5.263   1.847
 6351SOL     OW19951   5.577   3.342   2.522
 6351SOL    HW119952   5.644   3.287   2.472
 6351SOL    HW219953   5.506   3.283   2.560
 6352SOL     OW19954   2.463   0.673   4.994
 6352SOL    HW119955   2.428   0.594   5.044
 6352SOL    HW219956   2.419   0.678   4.904
 6353SOL     OW19957   3.614   6.168   6.454
 6353SOL    HW119958   3.536   6.176   6.516
 6353SOL    HW219959   3.625   6.254   6.404
 6354SOL     OW19960   4.417   4.959   2.435
 6354SOL    HW119961   4.467   4.877   2.463
 6354SOL    HW219962   4.420   4.968   2.335
 6355SOL     OW19963   2.589   5.123   1.113
 6355SOL    HW119964   2.511   5.060   1.123
 6355SOL    HW219965   2.571   5.186   1.037
 6356SOL     OW19966   6.064   4.298   6.724
 6356SOL    HW119967   6.133   4.244   6.676
 6356SOL    HW219968   5.973   4.276   6.688
 6357SOL     OW19969   5.450   1.426   1.148
 6357SOL    HW119970   5.357   1.396   1.127
 6357SOL    HW219971   5.472   1.403   1.243
 6358SOL     OW19972   1.238   2.125   6.880
 6358SOL    HW119973   1.156   2.160   6.926
 6358SOL    HW219974   1.221   2.120   6.782
 6359SOL     OW19975   5.734   6.107   0.478
 6359SOL    HW119976   5.702   6.194   0.442
 6359SOL    HW219977   5.825   6.118   0.517
 6360SOL     OW19978   1.048   2.703   1.969
 6360SOL    HW119979   1.078   2.656   2.052
 6360SOL    HW219980   1.049   2.639   1.893
 6361SOL     OW19981   0.847   0.638   6.649
 6361SOL    HW119982   0.767   0.658   6.592
 6361SOL    HW219983   0.922   0.608   6.591
 6362SOL     OW19984   1.203   5.398   7.014
 6362SOL    HW119985   1.104   5.411   7.014
 6362SOL    HW219986   1.247   5.476   0.034
 6363SOL     OW19987   2.620   4.688   3.800
 6363SOL    HW119988   2.719   4.676   3.809
 6363SOL    HW219989   2.576   4.598   3.799
 6364SOL     OW19990   2.496   2.593   4.796
 6364SOL    HW119991   2.455   2.684   4.805
 6364SOL    HW219992   2.457   2.547   4.716
 6365SOL     OW19993   5.779   5.170   3.284
 6365SOL    HW119994   5.828   5.255   3.301
 6365SOL    HW219995   5.681   5.188   3.281
 6366SOL     OW19996   5.699   6.708   4.800
 6366SOL    HW119997   5.743   6.785   4.846
 6366SOL    HW219998   5.768   6.652   4.755
 6367SOL     OW19999   2.171   2.153   2.712
 6367SOL    HW120000   2.109   2.214   2.762
 6367SOL    HW220001   2.160   2.059   2.744
 6368SOL     OW20002   5.014   3.011   4.690
 6368SOL    HW120003   5.039   3.081   4.623
 6368SOL    HW220004   4.986   3.055   4.775
 6369SOL     OW20005   2.939   5.611   6.541
 6369SOL    HW120006   2.987   5.576   6.462
 6369SOL    HW220007   2.892   5.696   6.517
 6370SOL     OW20008   5.712   3.270   4.442
 6370SOL    HW120009   5.645   3.300   4.374
 6370SOL    HW220010   5.670   3.200   4.501
 6371SOL     OW20011   5.373   3.987   2.188
 6371SOL    HW120012   5.298   4.047   2.213
 6371SOL    HW220013   5.355   3.947   2.098
 6372SOL     OW20014   6.873   1.421   2.886
 6372SOL    HW120015   6.932   1.499   2.866
 6372SOL    HW220016   6.867   1.361   2.806
 6373SOL     OW20017   4.881   4.283   1.724
 6373SOL    HW120018   4.887   4.198   1.776
 6373SOL    HW220019   4.829   4.350   1.776
 6374SOL     OW20020   4.567   2.913   0.381
 6374SOL    HW120021   4.650   2.861   0.404
 6374SOL    HW220022   4.493   2.886   0.443
 6375SOL     OW20023   6.417   2.770   1.920
 6375SOL    HW120024   6.505   2.808   1.949
 6375SOL    HW220025   6.344   2.835   1.943
 6376SOL     OW20026   3.428   0.846   6.771
 6376SOL    HW120027   3.517   0.828   6.813
 6376SOL    HW220028   3.361   0.867   6.843
 6377SOL     OW20029   6.875   0.588   0.394
 6377SOL    HW120030   6.892   0.497   0.431
 6377SOL    HW220031   6.783   0.590   0.353
 6378SOL     OW20032   5.499   5.519   3.257
 6378SOL    HW120033   5.508   5.533   3.158
 6378SOL    HW220034   5.495   5.608   3.303
 6379SOL     OW20035   2.624   6.000   0.171
 6379SOL    HW120036   2.548   5.973   0.111
 6379SOL    HW220037   2.676   5.918   0.197
 6380SOL     OW20038   1.426   3.750   5.007
 6380SOL    HW120039   1.495   3.679   5.022
 6380SOL    HW220040   1.412   3.764   4.909
 6381SOL     OW20041   4.236   2.522   0.141
 6381SOL    HW120042   4.153   2.566   0.175
 6381SOL    HW220043   4.236   2.524   0.041
 6382SOL     OW20044   2.041   1.797   1.572
 6382SOL    HW120045   2.118   1.798   1.636
 6382SOL    HW220046   2.066   1.847   1.489
 6383SOL     OW20047   2.081   2.556   2.527
 6383SOL    HW120048   2.159   2.611   2.498
 6383SOL    HW220049   2.018   2.612   2.580
 6384SOL     OW20050   6.288   2.594   2.391
 6384SOL    HW120051   6.210   2.570   2.333
 6384SOL    HW220052   6.329   2.511   2.428
 6385SOL     OW20053   6.861   3.232   1.142
 6385SOL    HW120054   6.845   3.222   1.240
 6385SOL    HW220055   6.939   3.176   1.115
 6386SOL     OW20056   2.326   3.553   0.053
 6386SOL    HW120057   2.346   3.638   0.005
 6386SOL    HW220058   2.236   3.520   0.025
 6387SOL     OW20059   6.882   0.697   6.413
 6387SOL    HW120060   6.982   0.700   6.415
 6387SOL    HW220061   6.850   0.609   6.447
 6388SOL     OW20062   6.491   5.229   2.122
 6388SOL    HW120063   6.401   5.260   2.152
 6388SOL    HW220064   6.546   5.308   2.095
 6389SOL     OW20065   1.240   1.063   6.541
 6389SOL    HW120066   1.270   1.158   6.552
 6389SOL    HW220067   1.224   1.044   6.444
 6390SOL     OW20068   6.553   1.457   6.264
 6390SOL    HW120069   6.564   1.386   6.334
 6390SOL    HW220070   6.561   1.547   6.307
 6391SOL     OW20071   0.702   1.507   5.284
 6391SOL    HW120072   0.610   1.512   5.322
 6391SOL    HW220073   0.760   1.576   5.328
 6392SOL     OW20074   4.275   6.543   3.468
 6392SOL    HW120075   4.229   6.613   3.523
 6392SOL    HW220076   4.326   6.482   3.529
 6393SOL     OW20077   6.766   5.619   0.618
 6393SOL    HW120078   6.852   5.587   0.659
 6393SOL    HW220079   6.701   5.543   0.614
 6394SOL     OW20080   1.159   5.515   1.301
 6394SOL    HW120081   1.173   5.585   1.371
 6394SOL    HW220082   1.226   5.442   1.314
 6395SOL     OW20083   2.003   4.642   3.419
 6395SOL    HW120084   2.061   4.705   3.367
 6395SOL    HW220085   1.977   4.565   3.362
 6396SOL     OW20086   0.780   3.897   0.555
 6396SOL    HW120087   0.850   3.826   0.553
 6396SOL    HW220088   0.730   3.892   0.641
 6397SOL     OW20089   5.925   3.015   3.627
 6397SOL    HW120090   5.880   2.934   3.590
 6397SOL    HW220091   5.947   3.001   3.723
 6398SOL     OW20092   1.631   6.888   1.005
 6398SOL    HW120093   1.563   6.899   0.932
 6398SOL    HW220094   1.662   6.978   1.036
 6399SOL     OW20095   3.022   0.870   6.132
 6399SOL    HW120096   2.950   0.932   6.162
 6399SOL    HW220097   3.008   0.845   6.037
 6400SOL     OW20098   1.136   5.835   2.793
 6400SOL    HW120099   1.150   5.930   2.766
 6400SOL    HW220100   1.052   5.801   2.751
 6401SOL     OW20101   3.715   6.245   3.582
 6401SOL    HW120102   3.749   6.181   3.514
 6401SOL    HW220103   3.686   6.330   3.538
 6402SOL     OW20104   1.922   5.389   4.848
 6402SOL    HW120105   2.022   5.390   4.854
 6402SOL    HW220106   1.894   5.448   4.772
 6403SOL     OW20107   4.643   5.878   4.862
 6403SOL    HW120108   4.622   5.969   4.898
 6403SOL    HW220109   4.560   5.823   4.862
 6404SOL     OW20110   4.088   0.135   1.991
 6404SOL    HW120111   4.062   0.058   2.049
 6404SOL    HW220112   4.148   0.102   1.918
 6405SOL     OW20113   5.274   1.798   2.348
 6405SOL    HW120114   5.208   1.731   2.314
 6405SOL    HW220115   5.290   1.868   2.277
 6406SOL     OW20116   1.179   2.116   2.939
 6406SOL    HW120117   1.114   2.057   2.890
 6406SOL    HW220118   1.192   2.081   3.032
 6407SOL     OW20119   2.026   6.096   2.840
 6407SOL    HW120120   2.107   6.154   2.826
 6407SOL    HW220121   1.959   6.113   2.768
 6408SOL     OW20122   6.463   0.576   0.783
 6408SOL    HW120123   6.481   0.659   0.730
 6408SOL    HW220124   6.436   0.601   0.876
 6409SOL     OW20125   5.993   4.943   3.344
 6409SOL    HW120126   5.956   4.875   3.281
 6409SOL    HW220127   6.087   4.966   3.317
 6410SOL     OW20128   2.207   1.439   5.469
 6410SOL    HW120129   2.213   1.512   5.536
 6410SOL    HW220130   2.200   1.479   5.377
 6411SOL     OW20131   0.780   2.396   2.051
 6411SOL    HW120132   0.697   2.378   2.000
 6411SOL    HW220133   0.859   2.363   1.999
 6412SOL     OW20134   3.061   0.042   0.204
 6412SOL    HW120135   3.124   6.990   0.204
 6412SOL    HW220136   2.967   0.009   0.192
 6413SOL     OW20137   5.089   5.664   3.733
 6413SOL    HW120138   5.176   5.697   3.695
 6413SOL    HW220139   5.016   5.678   3.666
 6414SOL     OW20140   1.400   0.060   0.048
 6414SOL    HW120141   1.333   0.059   0.122
 6414SOL    HW220142   1.438   0.152   0.039
 6415SOL     OW20143   0.597   2.186   3.151
 6415SOL    HW120144   0.543   2.104   3.128
 6415SOL    HW220145   0.626   2.232   3.067
 6416SOL     OW20146   2.526   7.004   0.045
 6416SOL    HW120147   2.505   0.070   0.012
 6416SOL    HW220148   2.448   6.944   0.025
 6417SOL     OW20149   3.663   1.808   0.193
 6417SOL    HW120150   3.567   1.780   0.204
 6417SOL    HW220151   3.688   1.870   0.267
 6418SOL     OW20152   4.820   5.130   0.891
 6418SOL    HW120153   4.847   5.094   0.980
 6418SOL    HW220154   4.796   5.054   0.830
 6419SOL     OW20155   0.918   6.882   0.035
 6419SOL    HW120156   0.943   6.842   0.124
 6419SOL    HW220157   0.986   6.855   6.992
 6420SOL     OW20158   1.814   4.135   3.907
 6420SOL    HW120159   1.785   4.056   3.961
 6420SOL    HW220160   1.829   4.107   3.812
 6421SOL     OW20161   4.831   0.540   1.487
 6421SOL    HW120162   4.754   0.538   1.551
 6421SOL    HW220163   4.897   0.469   1.512
 6422SOL     OW20164   6.259   2.242   4.804
 6422SOL    HW120165   6.300   2.243   4.713
 6422SOL    HW220166   6.179   2.181   4.805
 6423SOL     OW20167   2.331   4.359   4.228
 6423SOL    HW120168   2.327   4.294   4.153
 6423SOL    HW220169   2.383   4.440   4.200
 6424SOL     OW20170   6.849   4.753   4.381
 6424SOL    HW120171   6.933   4.755   4.326
 6424SOL    HW220172   6.854   4.822   4.453
 6425SOL     OW20173   6.672   5.840   3.388
 6425SOL    HW120174   6.697   5.934   3.410
 6425SOL    HW220175   6.753   5.790   3.357
 6426SOL     OW20176   4.606   4.541   4.822
 6426SOL    HW120177   4.663   4.621   4.840
 6426SOL    HW220178   4.533   4.535   4.890
 6427SOL     OW20179   3.362   2.906   3.452
 6427SOL    HW120180   3.411   2.993   3.443
 6427SOL    HW220181   3.428   2.830   3.449
 6428SOL     OW20182   4.960   2.542   0.306
 6428SOL    HW120183   4.988   2.447   0.294
 6428SOL    HW220184   5.022   2.602   0.254
 6429SOL     OW20185   2.247   0.889   5.484
 6429SOL    HW120186   2.315   0.915   5.415
 6429SOL    HW220187   2.155   0.899   5.446
 6430SOL     OW20188   6.705   0.236   5.057
 6430SOL    HW120189   6.756   0.321   5.065
 6430SOL    HW220190   6.732   0.174   5.131
 6431SOL     OW20191   3.814   4.971   1.755
 6431SOL    HW120192   3.828   5.018   1.668
 6431SOL    HW220193   3.716   4.959   1.771
 6432SOL     OW20194   4.802   4.119   6.030
 6432SOL    HW120195   4.742   4.184   6.076
 6432SOL    HW220196   4.814   4.038   6.087
 6433SOL     OW20197   2.527   5.939   6.811
 6433SOL    HW120198   2.538   5.891   6.724
 6433SOL    HW220199   2.517   6.037   6.794
 6434SOL     OW20200   3.274   5.452   5.858
 6434SOL    HW120201   3.324   5.506   5.926
 6434SOL    HW220202   3.340   5.403   5.800
 6435SOL     OW20203   4.777   0.784   0.812
 6435SOL    HW120204   4.873   0.788   0.785
 6435SOL    HW220205   4.763   0.839   0.894
 6436SOL     OW20206   0.090   4.049   4.078
 6436SOL    HW120207   0.156   3.982   4.111
 6436SOL    HW220208   0.093   4.131   4.136
 6437SOL     OW20209   0.457   1.821   5.471
 6437SOL    HW120210   0.409   1.742   5.434
 6437SOL    HW220211   0.406   1.858   5.549
 6438SOL     OW20212   0.422   6.021   0.418
 6438SOL    HW120213   0.338   5.972   0.396
 6438SOL    HW220214   0.500   5.975   0.375
 6439SOL     OW20215   5.736   0.329   2.453
 6439SOL    HW120216   5.778   0.286   2.372
 6439SOL    HW220217   5.808   0.355   2.517
 6440SOL     OW20218   2.548   1.357   6.161
 6440SOL    HW120219   2.554   1.416   6.080
 6440SOL    HW220220   2.476   1.288   6.146
 6441SOL     OW20221   0.649   1.163   2.815
 6441SOL    HW120222   0.650   1.259   2.789
 6441SOL    HW220223   0.646   1.106   2.734
 6442SOL     OW20224   3.159   3.006   5.177
 6442SOL    HW120225   3.101   3.088   5.179
 6442SOL    HW220226   3.114   2.933   5.227
 6443SOL     OW20227   4.860   2.515   0.795
 6443SOL    HW120228   4.879   2.432   0.847
 6443SOL    HW220229   4.928   2.585   0.819
 6444SOL     OW20230   6.693   3.309   4.929
 6444SOL    HW120231   6.606   3.285   4.973
 6444SOL    HW220232   6.681   3.312   4.830
 6445SOL     OW20233   2.943   3.603   3.444
 6445SOL    HW120234   2.991   3.667   3.504
 6445SOL    HW220235   2.937   3.642   3.352
 6446SOL     OW20236   2.496   0.929   6.743
 6446SOL    HW120237   2.462   1.021   6.759
 6446SOL    HW220238   2.594   0.926   6.759
 6447SOL     OW20239   6.387   3.746   1.452
 6447SOL    HW120240   6.428   3.712   1.368
 6447SOL    HW220241   6.296   3.705   1.465
 6448SOL     OW20242   3.968   5.363   1.549
 6448SOL    HW120243   3.975   5.264   1.551
 6448SOL    HW220244   4.059   5.403   1.535
 6449SOL     OW20245   2.547   5.822   1.147
 6449SOL    HW120246   2.556   5.913   1.106
 6449SOL    HW220247   2.633   5.797   1.191
 6450SOL     OW20248   0.372   4.136   1.099
 6450SOL    HW120249   0.428   4.070   1.148
 6450SOL    HW220250   0.388   4.228   1.136
 6451SOL     OW20251   3.784   2.168   1.448
 6451SOL    HW120252   3.847   2.246   1.447
 6451SOL    HW220253   3.773   2.132   1.355
 6452SOL     OW20254   5.024   2.399   3.154
 6452SOL    HW120255   4.982   2.456   3.083
 6452SOL    HW220256   5.103   2.448   3.192
 6453SOL     OW20257   3.354   0.098   0.897
 6453SOL    HW120258   3.402   0.098   0.985
 6453SOL    HW220259   3.377   0.015   0.847
 6454SOL     OW20260   5.732   2.546   3.097
 6454SOL    HW120261   5.668   2.576   3.168
 6454SOL    HW220262   5.777   2.625   3.056
 6455SOL     OW20263   6.244   3.621   3.379
 6455SOL    HW120264   6.165   3.655   3.329
 6455SOL    HW220265   6.321   3.685   3.369
 6456SOL     OW20266   6.158   1.251   3.408
 6456SOL    HW120267   6.237   1.254   3.345
 6456SOL    HW220268   6.117   1.342   3.414
 6457SOL     OW20269   4.699   0.465   2.022
 6457SOL    HW120270   4.767   0.440   1.953
 6457SOL    HW220271   4.609   0.472   1.979
 6458SOL     OW20272   0.567   4.651   3.905
 6458SOL    HW120273   0.653   4.660   3.853
 6458SOL    HW220274   0.512   4.733   3.890
 6459SOL     OW20275   6.652   2.851   2.503
 6459SOL    HW120276   6.608   2.875   2.589
 6459SOL    HW220277   6.704   2.929   2.469
 6460SOL     OW20278   0.781   5.555   6.853
 6460SOL    HW120279   0.778   5.613   6.772
 6460SOL    HW220280   0.692   5.510   6.865
 6461SOL     OW20281   3.031   5.351   0.994
 6461SOL    HW120282   2.989   5.269   0.954
 6461SOL    HW220283   3.116   5.372   0.945
 6462SOL     OW20284   1.840   3.520   5.468
 6462SOL    HW120285   1.788   3.478   5.394
 6462SOL    HW220286   1.806   3.487   5.556
 6463SOL     OW20287   4.558   1.988   1.448
 6463SOL    HW120288   4.463   1.969   1.472
 6463SOL    HW220289   4.564   2.080   1.408
 6464SOL     OW20290   0.621   5.791   4.469
 6464SOL    HW120291   0.673   5.789   4.555
 6464SOL    HW220292   0.684   5.799   4.392
 6465SOL     OW20293   4.053   1.503   3.129
 6465SOL    HW120294   4.087   1.510   3.222
 6465SOL    HW220295   4.036   1.595   3.093
 6466SOL     OW20296   0.557   2.957   6.806
 6466SOL    HW120297   0.634   2.922   6.859
 6466SOL    HW220298   0.473   2.950   6.861
 6467SOL     OW20299   3.204   1.541   0.657
 6467SOL    HW120300   3.152   1.565   0.739
 6467SOL    HW220301   3.142   1.510   0.585
 6468SOL     OW20302   2.831   0.676   0.731
 6468SOL    HW120303   2.788   0.586   0.734
 6468SOL    HW220304   2.775   0.741   0.782
 6469SOL     OW20305   3.649   1.781   3.562
 6469SOL    HW120306   3.712   1.733   3.501
 6469SOL    HW220307   3.555   1.764   3.534
 6470SOL     OW20308   6.057   1.839   0.064
 6470SOL    HW120309   6.051   1.870   0.159
 6470SOL    HW220310   6.134   1.884   0.019
 6471SOL     OW20311   6.732   6.005   5.590
 6471SOL    HW120312   6.770   6.098   5.590
 6471SOL    HW220313   6.780   5.950   5.657
 6472SOL     OW20314   6.660   6.005   2.973
 6472SOL    HW120315   6.752   5.973   2.950
 6472SOL    HW220316   6.637   5.977   3.066
 6473SOL     OW20317   2.467   1.146   3.962
 6473SOL    HW120318   2.460   1.246   3.968
 6473SOL    HW220319   2.380   1.105   3.991
 6474SOL     OW20320   3.802   5.582   5.417
 6474SOL    HW120321   3.766   5.564   5.508
 6474SOL    HW220322   3.900   5.599   5.423
 6475SOL     OW20323   5.618   4.466   2.770
 6475SOL    HW120324   5.641   4.489   2.864
 6475SOL    HW220325   5.655   4.535   2.708
 6476SOL     OW20326   3.465   1.595   6.317
 6476SOL    HW120327   3.394   1.526   6.303
 6476SOL    HW220328   3.521   1.569   6.396
 6477SOL     OW20329   6.355   6.538   1.430
 6477SOL    HW120330   6.386   6.615   1.375
 6477SOL    HW220331   6.433   6.494   1.474
 6478SOL     OW20332   3.367   5.619   1.842
 6478SOL    HW120333   3.413   5.706   1.826
 6478SOL    HW220334   3.282   5.634   1.893
 6479SOL     OW20335   3.485   6.248   4.387
 6479SOL    HW120336   3.570   6.296   4.410
 6479SOL    HW220337   3.497   6.199   4.300
 6480SOL     OW20338   3.242   1.496   6.930
 6480SOL    HW120339   3.312   1.425   6.920
 6480SOL    HW220340   3.168   1.462   6.987
 6481SOL     OW20341   3.346   2.640   1.723
 6481SOL    HW120342   3.254   2.604   1.709
 6481SOL    HW220343   3.413   2.575   1.687
 6482SOL     OW20344   6.502   3.942   5.027
 6482SOL    HW120345   6.419   3.930   4.972
 6482SOL    HW220346   6.572   3.877   4.998
 6483SOL     OW20347   1.016   5.522   5.088
 6483SOL    HW120348   1.099   5.501   5.037
 6483SOL    HW220349   1.030   5.605   5.143
 6484SOL     OW20350   2.849   0.857   4.277
 6484SOL    HW120351   2.770   0.802   4.304
 6484SOL    HW220352   2.854   0.860   4.177
 6485SOL     OW20353   2.459   7.012   4.316
 6485SOL    HW120354   2.442   0.063   4.254
 6485SOL    HW220355   2.435   0.012   4.409
 6486SOL     OW20356   1.723   5.232   3.303
 6486SOL    HW120357   1.635   5.276   3.288
 6486SOL    HW220358   1.735   5.213   3.400
 6487SOL     OW20359   6.368   4.701   3.580
 6487SOL    HW120360   6.438   4.692   3.652
 6487SOL    HW220361   6.381   4.788   3.532
 6488SOL     OW20362   4.404   5.424   4.682
 6488SOL    HW120363   4.384   5.453   4.776
 6488SOL    HW220364   4.359   5.486   4.618
 6489SOL     OW20365   4.284   3.489   5.808
 6489SOL    HW120366   4.323   3.552   5.741
 6489SOL    HW220367   4.356   3.458   5.870
 6490SOL     OW20368   2.060   1.674   0.011
 6490SOL    HW120369   2.142   1.705   0.057
 6490SOL    HW220370   1.979   1.708   0.060
 6491SOL     OW20371   2.225   0.251   0.559
 6491SOL    HW120372   2.210   0.242   0.461
 6491SOL    HW220373   2.258   0.343   0.580
 6492SOL     OW20374   3.415   3.704   4.932
 6492SOL    HW120375   3.505   3.674   4.965
 6492SOL    HW220376   3.357   3.729   5.009
 6493SOL     OW20377   1.299   4.074   5.967
 6493SOL    HW120378   1.345   3.987   5.950
 6493SOL    HW220379   1.222   4.084   5.903
 6494SOL     OW20380   6.108   0.091   2.153
 6494SOL    HW120381   6.046   0.088   2.075
 6494SOL    HW220382   6.182   0.025   2.140
 6495SOL     OW20383   6.636   0.271   4.134
 6495SOL    HW120384   6.615   0.354   4.081
 6495SOL    HW220385   6.551   0.220   4.150
 6496SOL     OW20386   4.348   0.805   1.576
 6496SOL    HW120387   4.339   0.813   1.676
 6496SOL    HW220388   4.260   0.781   1.536
 6497SOL     OW20389   0.021   1.749   1.129
 6497SOL    HW120390   0.079   1.826   1.102
 6497SOL    HW220391   0.070   1.691   1.194
 6498SOL     OW20392   1.257   4.382   4.772
 6498SOL    HW120393   1.304   4.323   4.706
 6498SOL    HW220394   1.284   4.477   4.757
 6499SOL     OW20395   5.721   3.388   3.586
 6499SOL    HW120396   5.651   3.449   3.549
 6499SOL    HW220397   5.773   3.436   3.656
 6500SOL     OW20398   1.660   3.934   3.322
 6500SOL    HW120399   1.733   3.871   3.349
 6500SOL    HW220400   1.617   3.971   3.404
 6501SOL     OW20401   6.285   1.812   1.087
 6501SOL    HW120402   6.309   1.908   1.074
 6501SOL    HW220403   6.243   1.800   1.178
 6502SOL     OW20404   6.528   3.711   1.702
 6502SOL    HW120405   6.487   3.724   1.611
 6502SOL    HW220406   6.467   3.655   1.758
 6503SOL     OW20407   6.557   3.149   5.669
 6503SOL    HW120408   6.504   3.229   5.643
 6503SOL    HW220409   6.542   3.076   5.601
 6504SOL     OW20410   4.540   5.805   6.839
 6504SOL    HW120411   4.496   5.759   6.762
 6504SOL    HW220412   4.608   5.870   6.805
 6505SOL     OW20413   6.191   5.959   0.435
 6505SOL    HW120414   6.154   5.867   0.419
 6505SOL    HW220415   6.282   5.952   0.474
 6506SOL     OW20416   0.274   3.283   2.405
 6506SOL    HW120417   0.338   3.359   2.409
 6506SOL    HW220418   0.215   3.293   2.324
 6507SOL     OW20419   4.178   4.614   6.803
 6507SOL    HW120420   4.238   4.546   6.762
 6507SOL    HW220421   4.083   4.584   6.794
 6508SOL     OW20422   0.930   6.217   2.111
 6508SOL    HW120423   0.884   6.230   2.023
 6508SOL    HW220424   1.021   6.179   2.096
 6509SOL     OW20425   3.144   1.257   5.957
 6509SOL    HW120426   3.098   1.252   6.045
 6509SOL    HW220427   3.090   1.312   5.894
 6510SOL     OW20428   4.483   5.991   5.702
 6510SOL    HW120429   4.581   5.987   5.680
 6510SOL    HW220430   4.448   6.082   5.680
 6511SOL     OW20431   2.980   0.730   0.059
 6511SOL    HW120432   2.973   0.657   7.016
 6511SOL    HW220433   3.005   0.691   0.147
 6512SOL     OW20434   3.820   0.799   0.932
 6512SOL    HW120435   3.916   0.771   0.935
 6512SOL    HW220436   3.767   0.739   0.991
 6513SOL     OW20437   2.406   5.500   3.956
 6513SOL    HW120438   2.406   5.583   4.012
 6513SOL    HW220439   2.343   5.433   3.995
 6514SOL     OW20440   5.845   6.933   6.016
 6514SOL    HW120441   5.819   6.837   6.009
 6514SOL    HW220442   5.772   6.990   5.977
 6515SOL     OW20443   2.365   4.817   2.662
 6515SOL    HW120444   2.351   4.858   2.752
 6515SOL    HW220445   2.408   4.884   2.601
 6516SOL     OW20446   0.070   3.529   1.077
 6516SOL    HW120447   0.140   3.599   1.088
 6516SOL    HW220448   7.014   3.570   1.035
 6517SOL     OW20449   0.223   2.785   0.217
 6517SOL    HW120450   0.206   2.749   0.309
 6517SOL    HW220451   0.138   2.781   0.164
 6518SOL     OW20452   1.213   1.259   3.357
 6518SOL    HW120453   1.263   1.222   3.279
 6518SOL    HW220454   1.219   1.196   3.434
 6519SOL     OW20455   0.858   1.500   3.036
 6519SOL    HW120456   0.780   1.438   3.027
 6519SOL    HW220457   0.901   1.485   3.125
 6520SOL     OW20458   0.205   5.847   0.364
 6520SOL    HW120459   0.127   5.790   0.388
 6520SOL    HW220460   0.194   5.880   0.270
 6521SOL     OW20461   1.395   3.580   4.414
 6521SOL    HW120462   1.485   3.599   4.375
 6521SOL    HW220463   1.383   3.634   4.498
 6522SOL     OW20464   2.636   3.423   5.560
 6522SOL    HW120465   2.648   3.433   5.461
 6522SOL    HW220466   2.673   3.334   5.590
 6523SOL     OW20467   5.909   0.477   6.921
 6523SOL    HW120468   5.812   0.452   6.912
 6523SOL    HW220469   5.953   0.468   6.832
 6524SOL     OW20470   2.139   2.533   1.873
 6524SOL    HW120471   2.057   2.572   1.914
 6524SOL    HW220472   2.156   2.443   1.913
 6525SOL     OW20473   0.906   4.786   3.091
 6525SOL    HW120474   0.906   4.686   3.086
 6525SOL    HW220475   0.947   4.816   3.177
 6526SOL     OW20476   0.388   6.737   0.442
 6526SOL    HW120477   0.387   6.733   0.342
 6526SOL    HW220478   0.478   6.769   0.472
 6527SOL     OW20479   0.598   2.116   0.462
 6527SOL    HW120480   0.503   2.103   0.491
 6527SOL    HW220481   0.604   2.198   0.405
 6528SOL     OW20482   5.368   0.729   6.101
 6528SOL    HW120483   5.290   0.666   6.097
 6528SOL    HW220484   5.340   0.813   6.147
 6529SOL     OW20485   6.995   1.242   2.040
 6529SOL    HW120486   7.009   1.200   2.129
 6529SOL    HW220487   6.952   1.176   1.978
 6530SOL     OW20488   0.890   2.433   2.528
 6530SOL    HW120489   0.809   2.482   2.563
 6530SOL    HW220490   0.861   2.366   2.460
 6531SOL     OW20491   4.377   3.712   5.363
 6531SOL    HW120492   4.469   3.751   5.367
 6531SOL    HW220493   4.372   3.645   5.289
 6532SOL     OW20494   1.180   0.786   0.540
 6532SOL    HW120495   1.230   0.739   0.613
 6532SOL    HW220496   1.081   0.776   0.555
 6533SOL     OW20497   4.842   3.864   0.293
 6533SOL    HW120498   4.744   3.844   0.302
 6533SOL    HW220499   4.887   3.788   0.246
 6534SOL     OW20500   6.789   4.510   2.817
 6534SOL    HW120501   6.764   4.607   2.806
 6534SOL    HW220502   6.778   4.484   2.913
 6535SOL     OW20503   6.279   3.513   5.472
 6535SOL    HW120504   6.258   3.610   5.484
 6535SOL    HW220505   6.378   3.501   5.469
 6536SOL     OW20506   1.142   4.054   4.739
 6536SOL    HW120507   1.190   4.082   4.822
 6536SOL    HW220508   1.174   3.964   4.711
 6537SOL     OW20509   6.071   5.424   4.096
 6537SOL    HW120510   6.121   5.495   4.145
 6537SOL    HW220511   6.048   5.457   4.004
 6538SOL     OW20512   2.374   3.218   5.560
 6538SOL    HW120513   2.422   3.148   5.612
 6538SOL    HW220514   2.357   3.298   5.618
 6539SOL     OW20515   6.627   0.545   5.694
 6539SOL    HW120516   6.568   0.475   5.735
 6539SOL    HW220517   6.647   0.615   5.762
 6540SOL     OW20518   4.942   2.647   6.177
 6540SOL    HW120519   4.857   2.675   6.131
 6540SOL    HW220520   4.983   2.571   6.128
 6541SOL     OW20521   5.969   1.059   4.708
 6541SOL    HW120522   5.942   0.991   4.639
 6541SOL    HW220523   5.993   1.012   4.793
 6542SOL     OW20524   1.530   4.161   4.290
 6542SOL    HW120525   1.589   4.176   4.211
 6542SOL    HW220526   1.571   4.204   4.370
 6543SOL     OW20527   3.918   2.163   4.957
 6543SOL    HW120528   3.856   2.156   4.879
 6543SOL    HW220529   4.005   2.203   4.927
 6544SOL     OW20530   0.877   6.554   2.055
 6544SOL    HW120531   0.790   6.527   2.097
 6544SOL    HW220532   0.885   6.510   1.965
 6545SOL     OW20533   4.337   0.054   0.967
 6545SOL    HW120534   4.428   0.080   0.936
 6545SOL    HW220535   4.337   6.984   0.995
 6546SOL     OW20536   5.095   3.348   6.158
 6546SOL    HW120537   5.093   3.251   6.134
 6546SOL    HW220538   5.019   3.395   6.114
 6547SOL     OW20539   5.752   5.489   6.573
 6547SOL    HW120540   5.744   5.550   6.652
 6547SOL    HW220541   5.831   5.516   6.518
 6548SOL     OW20542   0.737   2.218   5.283
 6548SOL    HW120543   0.703   2.252   5.195
 6548SOL    HW220544   0.727   2.118   5.286
 6549SOL     OW20545   5.010   0.171   1.612
 6549SOL    HW120546   5.056   0.136   1.530
 6549SOL    HW220547   5.043   0.263   1.633
 6550SOL     OW20548   6.136   0.013   3.126
 6550SOL    HW120549   6.112   6.984   3.206
 6550SOL    HW220550   6.123   6.985   3.043
 6551SOL     OW20551   3.000   3.625   1.530
 6551SOL    HW120552   3.047   3.621   1.442
 6551SOL    HW220553   2.903   3.640   1.515
 6552SOL     OW20554   2.351   6.536   0.486
 6552SOL    HW120555   2.412   6.594   0.539
 6552SOL    HW220556   2.405   6.470   0.433
 6553SOL     OW20557   6.881   1.096   2.942
 6553SOL    HW120558   6.975   1.087   2.909
 6553SOL    HW220559   6.882   1.116   3.040
 6554SOL     OW20560   2.986   1.446   4.643
 6554SOL    HW120561   2.911   1.445   4.577
 6554SOL    HW220562   3.051   1.373   4.621
 6555SOL     OW20563   6.972   2.743   4.128
 6555SOL    HW120564   6.992   2.801   4.049
 6555SOL    HW220565   6.906   2.673   4.102
 6556SOL     OW20566   4.936   2.825   3.471
 6556SOL    HW120567   4.855   2.815   3.414
 6556SOL    HW220568   4.921   2.898   3.538
 6557SOL     OW20569   2.013   0.172   2.053
 6557SOL    HW120570   2.050   0.199   1.964
 6557SOL    HW220571   2.084   0.180   2.123
 6558SOL     OW20572   5.259   4.786   0.556
 6558SOL    HW120573   5.289   4.859   0.618
 6558SOL    HW220574   5.255   4.821   0.463
 6559SOL     OW20575   6.725   2.793   6.128
 6559SOL    HW120576   6.653   2.814   6.062
 6559SOL    HW220577   6.770   2.877   6.157
 6560SOL     OW20578   5.670   4.884   0.284
 6560SOL    HW120579   5.625   4.795   0.287
 6560SOL    HW220580   5.612   4.952   0.330
 6561SOL     OW20581   3.985   4.617   0.922
 6561SOL    HW120582   4.083   4.635   0.912
 6561SOL    HW220583   3.962   4.532   0.875
 6562SOL     OW20584   5.858   3.229   1.260
 6562SOL    HW120585   5.769   3.238   1.216
 6562SOL    HW220586   5.846   3.205   1.356
 6563SOL     OW20587   5.217   5.839   5.072
 6563SOL    HW120588   5.139   5.888   5.033
 6563SOL    HW220589   5.292   5.839   5.005
 6564SOL     OW20590   0.083   3.860   2.895
 6564SOL    HW120591   0.113   3.950   2.925
 6564SOL    HW220592   0.089   3.853   2.796
 6565SOL     OW20593   5.531   0.279   3.185
 6565SOL    HW120594   5.625   0.246   3.183
 6565SOL    HW220595   5.468   0.202   3.181
 6566SOL     OW20596   4.208   5.825   2.453
 6566SOL    HW120597   4.243   5.765   2.526
 6566SOL    HW220598   4.266   5.906   2.446
 6567SOL     OW20599   4.091   0.482   0.864
 6567SOL    HW120600   4.057   0.421   0.935
 6567SOL    HW220601   4.111   0.571   0.904
 6568SOL     OW20602   3.765   1.166   1.579
 6568SOL    HW120603   3.853   1.209   1.558
 6568SOL    HW220604   3.769   1.069   1.554
 6569SOL     OW20605   0.498   3.905   5.900
 6569SOL    HW120606   0.407   3.915   5.939
 6569SOL    HW220607   0.518   3.809   5.883
 6570SOL     OW20608   3.850   6.158   1.899
 6570SOL    HW120609   3.830   6.231   1.833
 6570SOL    HW220610   3.867   6.072   1.849
 6571SOL     OW20611   2.729   5.524   2.918
 6571SOL    HW120612   2.642   5.539   2.964
 6571SOL    HW220613   2.747   5.426   2.910
 6572SOL     OW20614   0.590   5.875   3.913
 6572SOL    HW120615   0.635   5.878   3.823
 6572SOL    HW220616   0.512   5.936   3.913
 6573SOL     OW20617   1.018   1.112   3.070
 6573SOL    HW120618   0.968   1.136   2.987
 6573SOL    HW220619   1.115   1.103   3.050
 6574SOL     OW20620   1.620   5.878   2.230
 6574SOL    HW120621   1.623   5.967   2.186
 6574SOL    HW220622   1.525   5.853   2.250
 6575SOL     OW20623   6.559   0.448   2.787
 6575SOL    HW120624   6.515   0.367   2.826
 6575SOL    HW220625   6.515   0.530   2.824
 6576SOL     OW20626   3.868   5.649   0.561
 6576SOL    HW120627   3.930   5.690   0.494
 6576SOL    HW220628   3.896   5.554   0.579
 6577SOL     OW20629   2.028   2.107   3.404
 6577SOL    HW120630   2.109   2.165   3.415
 6577SOL    HW220631   2.052   2.012   3.425
 6578SOL     OW20632   1.631   4.863   1.972
 6578SOL    HW120633   1.548   4.817   2.002
 6578SOL    HW220634   1.711   4.810   1.999
 6579SOL     OW20635   6.599   1.395   4.353
 6579SOL    HW120636   6.669   1.379   4.283
 6579SOL    HW220637   6.549   1.478   4.331
 6580SOL     OW20638   1.019   0.117   0.004
 6580SOL    HW120639   0.959   0.195   0.025
 6580SOL    HW220640   0.977   0.033   0.037
 6581SOL     OW20641   1.303   1.861   6.895
 6581SOL    HW120642   1.222   1.826   6.848
 6581SOL    HW220643   1.291   1.959   6.913
 6582SOL     OW20644   6.601   1.074   2.904
 6582SOL    HW120645   6.582   1.022   2.820
 6582SOL    HW220646   6.699   1.087   2.913
 6583SOL     OW20647   4.698   6.399   0.063
 6583SOL    HW120648   4.710   6.496   0.082
 6583SOL    HW220649   4.687   6.385   6.990
 6584SOL     OW20650   2.981   2.297   1.104
 6584SOL    HW120651   3.011   2.297   1.199
 6584SOL    HW220652   2.984   2.204   1.068
 6585SOL     OW20653   5.590   0.133   1.112
 6585SOL    HW120654   5.645   0.055   1.083
 6585SOL    HW220655   5.513   0.100   1.166
 6586SOL     OW20656   6.192   2.390   6.471
 6586SOL    HW120657   6.106   2.401   6.522
 6586SOL    HW220658   6.263   2.446   6.513
 6587SOL     OW20659   1.693   4.169   5.391
 6587SOL    HW120660   1.662   4.110   5.466
 6587SOL    HW220661   1.747   4.244   5.428
 6588SOL     OW20662   0.709   3.339   0.641
 6588SOL    HW120663   0.729   3.322   0.544
 6588SOL    HW220664   0.787   3.387   0.682
 6589SOL     OW20665   6.990   0.854   1.882
 6589SOL    HW120666   0.054   0.844   1.839
 6589SOL    HW220667   6.959   0.949   1.872
 6590SOL     OW20668   1.363   0.125   4.219
 6590SOL    HW120669   1.296   0.157   4.285
 6590SOL    HW220670   1.338   0.034   4.186
 6591SOL     OW20671   5.577   4.417   4.152
 6591SOL    HW120672   5.481   4.429   4.128
 6591SOL    HW220673   5.613   4.503   4.188
 6592SOL     OW20674   5.107   6.182   2.888
 6592SOL    HW120675   5.066   6.272   2.872
 6592SOL    HW220676   5.076   6.119   2.817
 6593SOL     OW20677   2.589   1.863   2.930
 6593SOL    HW120678   2.608   1.958   2.953
 6593SOL    HW220679   2.643   1.836   2.851
 6594SOL     OW20680   4.295   1.646   6.599
 6594SOL    HW120681   4.365   1.625   6.668
 6594SOL    HW220682   4.211   1.674   6.645
 6595SOL     OW20683   1.805   2.487   4.908
 6595SOL    HW120684   1.756   2.485   4.995
 6595SOL    HW220685   1.816   2.581   4.878
 6596SOL     OW20686   5.660   5.940   2.700
 6596SOL    HW120687   5.752   5.980   2.694
 6596SOL    HW220688   5.592   6.007   2.672
 6597SOL     OW20689   1.711   4.977   2.307
 6597SOL    HW120690   1.785   4.970   2.375
 6597SOL    HW220691   1.733   4.920   2.228
 6598SOL     OW20692   1.800   4.752   4.199
 6598SOL    HW120693   1.776   4.849   4.199
 6598SOL    HW220694   1.766   4.709   4.116
 6599SOL     OW20695   5.825   5.520   6.059
 6599SOL    HW120696   5.892   5.577   6.107
 6599SOL    HW220697   5.852   5.510   5.964
 6600SOL     OW20698   4.259   0.067   5.296
 6600SOL    HW120699   4.216   0.110   5.375
 6600SOL    HW220700   4.314   0.134   5.246
 6601SOL     OW20701   1.454   2.445   1.811
 6601SOL    HW120702   1.418   2.535   1.786
 6601SOL    HW220703   1.551   2.441   1.789
 6602SOL     OW20704   2.136   6.372   1.495
 6602SOL    HW120705   2.185   6.313   1.559
 6602SOL    HW220706   2.061   6.321   1.453
 6603SOL     OW20707   0.618   3.044   3.202
 6603SOL    HW120708   0.647   3.140   3.199
 6603SOL    HW220709   0.558   3.026   3.123
 6604SOL     OW20710   1.587   6.449   2.198
 6604SOL    HW120711   1.612   6.515   2.127
 6604SOL    HW220712   1.553   6.499   2.278
 6605SOL     OW20713   6.582   5.413   1.508
 6605SOL    HW120714   6.488   5.431   1.478
 6605SOL    HW220715   6.639   5.394   1.428
 6606SOL     OW20716   1.808   3.583   3.799
 6606SOL    HW120717   1.822   3.602   3.702
 6606SOL    HW220718   1.722   3.623   3.829
 6607SOL     OW20719   5.713   3.780   3.581
 6607SOL    HW120720   5.812   3.774   3.599
 6607SOL    HW220721   5.662   3.750   3.662
 6608SOL     OW20722   0.417   6.793   5.808
 6608SOL    HW120723   0.514   6.819   5.805
 6608SOL    HW220724   0.409   6.694   5.806
 6609SOL     OW20725   4.383   1.935   5.797
 6609SOL    HW120726   4.346   1.988   5.721
 6609SOL    HW220727   4.337   1.961   5.882
 6610SOL     OW20728   3.164   4.987   1.018
 6610SOL    HW120729   3.238   5.053   1.007
 6610SOL    HW220730   3.151   4.968   1.116
 6611SOL     OW20731   4.321   1.829   4.354
 6611SOL    HW120732   4.341   1.926   4.372
 6611SOL    HW220733   4.226   1.820   4.326
 6612SOL     OW20734   5.892   1.850   6.155
 6612SOL    HW120735   5.879   1.906   6.073
 6612SOL    HW220736   5.977   1.876   6.200
 6613SOL     OW20737   5.532   0.235   6.622
 6613SOL    HW120738   5.486   0.230   6.711
 6613SOL    HW220739   5.464   0.224   6.549
 6614SOL     OW20740   4.278   6.003   1.634
 6614SOL    HW120741   4.233   6.086   1.602
 6614SOL    HW220742   4.227   5.923   1.601
 6615SOL     OW20743   3.153   5.276   0.596
 6615SOL    HW120744   3.242   5.231   0.595
 6615SOL    HW220745   3.081   5.209   0.577
 6616SOL     OW20746   4.862   1.138   5.493
 6616SOL    HW120747   4.843   1.146   5.395
 6616SOL    HW220748   4.958   1.162   5.511
 6617SOL     OW20749   4.505   0.794   3.863
 6617SOL    HW120750   4.588   0.794   3.919
 6617SOL    HW220751   4.521   0.847   3.779
 6618SOL     OW20752   6.899   2.296   2.459
 6618SOL    HW120753   6.925   2.364   2.390
 6618SOL    HW220754   6.942   2.321   2.546
 6619SOL     OW20755   5.045   6.343   4.011
 6619SOL    HW120756   5.110   6.409   4.050
 6619SOL    HW220757   4.954   6.385   4.007
 6620SOL     OW20758   0.686   3.384   3.834
 6620SOL    HW120759   0.764   3.447   3.848
 6620SOL    HW220760   0.714   3.292   3.859
 6621SOL     OW20761   3.902   3.127   4.976
 6621SOL    HW120762   3.860   3.096   4.890
 6621SOL    HW220763   3.988   3.173   4.955
 6622SOL     OW20764   0.228   5.972   0.768
 6622SOL    HW120765   0.153   5.906   0.772
 6622SOL    HW220766   0.258   5.983   0.673
 6623SOL     OW20767   3.531   4.250   5.634
 6623SOL    HW120768   3.436   4.265   5.606
 6623SOL    HW220769   3.534   4.179   5.704
 6624SOL     OW20770   1.089   2.355   4.598
 6624SOL    HW120771   1.182   2.357   4.563
 6624SOL    HW220772   1.066   2.445   4.637
 6625SOL     OW20773   6.010   2.681   5.627
 6625SOL    HW120774   6.057   2.597   5.653
 6625SOL    HW220775   5.963   2.718   5.707
 6626SOL     OW20776   2.687   6.414   5.324
 6626SOL    HW120777   2.691   6.512   5.345
 6626SOL    HW220778   2.652   6.402   5.231
 6627SOL     OW20779   1.214   5.958   4.635
 6627SOL    HW120780   1.121   5.935   4.605
 6627SOL    HW220781   1.273   5.969   4.555
 6628SOL     OW20782   4.735   5.387   4.339
 6628SOL    HW120783   4.826   5.427   4.352
 6628SOL    HW220784   4.733   5.338   4.251
 6629SOL     OW20785   5.506   6.060   0.010
 6629SOL    HW120786   5.558   6.053   6.951
 6629SOL    HW220787   5.561   6.107   0.079
 6630SOL     OW20788   2.334   1.687   1.399
 6630SOL    HW120789   2.272   1.625   1.447
 6630SOL    HW220790   2.380   1.639   1.325
 6631SOL     OW20791   2.167   4.765   6.005
 6631SOL    HW120792   2.102   4.840   6.010
 6631SOL    HW220793   2.239   4.787   5.940
 6632SOL     OW20794   1.053   0.586   0.125
 6632SOL    HW120795   1.054   0.641   0.042
 6632SOL    HW220796   1.062   0.646   0.205
 6633SOL     OW20797   3.329   5.560   6.395
 6633SOL    HW120798   3.366   5.636   6.342
 6633SOL    HW220799   3.323   5.586   6.491
 6634SOL     OW20800   5.046   1.986   4.872
 6634SOL    HW120801   5.086   1.907   4.919
 6634SOL    HW220802   4.968   1.957   4.818
 6635SOL     OW20803   5.443   4.859   2.389
 6635SOL    HW120804   5.421   4.767   2.424
 6635SOL    HW220805   5.503   4.905   2.455
 6636SOL     OW20806   3.434   6.811   1.469
 6636SOL    HW120807   3.442   6.901   1.512
 6636SOL    HW220808   3.524   6.778   1.443
 6637SOL     OW20809   1.325   1.286   0.341
 6637SOL    HW120810   1.388   1.216   0.373
 6637SOL    HW220811   1.305   1.271   0.244
 6638SOL     OW20812   3.103   3.476   3.701
 6638SOL    HW120813   3.133   3.469   3.606
 6638SOL    HW220814   3.046   3.558   3.712
 6639SOL     OW20815   5.201   2.969   1.506
 6639SOL    HW120816   5.174   3.016   1.422
 6639SOL    HW220817   5.295   2.937   1.497
 6640SOL     OW20818   1.167   2.794   5.230
 6640SOL    HW120819   1.126   2.856   5.297
 6640SOL    HW220820   1.224   2.846   5.167
 6641SOL     OW20821   4.046   2.107   1.146
 6641SOL    HW120822   4.003   2.193   1.120
 6641SOL    HW220823   4.067   2.108   1.244
 6642SOL     OW20824   1.502   5.555   0.270
 6642SOL    HW120825   1.521   5.586   0.363
 6642SOL    HW220826   1.442   5.475   0.273
 6643SOL     OW20827   4.525   0.048   0.361
 6643SOL    HW120828   4.441   0.023   0.313
 6643SOL    HW220829   4.512   0.134   0.411
 6644SOL     OW20830   1.858   6.580   3.352
 6644SOL    HW120831   1.796   6.657   3.333
 6644SOL    HW220832   1.932   6.611   3.411
 6645SOL     OW20833   6.294   2.470   0.759
 6645SOL    HW120834   6.244   2.499   0.678
 6645SOL    HW220835   6.293   2.370   0.764
 6646SOL     OW20836   4.284   0.399   6.696
 6646SOL    HW120837   4.245   0.307   6.687
 6646SOL    HW220838   4.334   0.406   6.782
 6647SOL     OW20839   4.579   5.136   1.191
 6647SOL    HW120840   4.564   5.038   1.176
 6647SOL    HW220841   4.492   5.185   1.180
 6648SOL     OW20842   2.381   6.197   5.720
 6648SOL    HW120843   2.354   6.293   5.713
 6648SOL    HW220844   2.377   6.154   5.630
 6649SOL     OW20845   6.092   2.131   6.860
 6649SOL    HW120846   6.115   2.075   6.780
 6649SOL    HW220847   6.165   2.124   6.927
 6650SOL     OW20848   2.780   1.375   5.128
 6650SOL    HW120849   2.857   1.422   5.086
 6650SOL    HW220850   2.811   1.328   5.211
 6651SOL     OW20851   0.416   1.479   6.845
 6651SOL    HW120852   0.493   1.431   6.803
 6651SOL    HW220853   0.387   1.553   6.785
 6652SOL     OW20854   0.941   4.534   0.176
 6652SOL    HW120855   1.012   4.557   0.243
 6652SOL    HW220856   0.871   4.606   0.176
 6653SOL     OW20857   5.522   2.980   0.570
 6653SOL    HW120858   5.438   2.941   0.531
 6653SOL    HW220859   5.519   2.973   0.670
 6654SOL     OW20860   0.628   4.314   3.095
 6654SOL    HW120861   0.547   4.274   3.054
 6654SOL    HW220862   0.673   4.374   3.029
 6655SOL     OW20863   7.016   5.195   1.560
 6655SOL    HW120864   6.961   5.272   1.593
 6655SOL    HW220865   0.088   5.215   1.575
 6656SOL     OW20866   4.459   1.415   2.557
 6656SOL    HW120867   4.360   1.399   2.566
 6656SOL    HW220868   4.503   1.393   2.644
 6657SOL     OW20869   5.840   2.179   4.616
 6657SOL    HW120870   5.758   2.130   4.589
 6657SOL    HW220871   5.823   2.278   4.615
 6658SOL     OW20872   6.220   6.091   4.956
 6658SOL    HW120873   6.168   6.124   5.035
 6658SOL    HW220874   6.160   6.036   4.898
 6659SOL     OW20875   1.160   4.932   1.761
 6659SOL    HW120876   1.179   4.843   1.719
 6659SOL    HW220877   1.245   4.984   1.767
 6660SOL     OW20878   0.194   6.429   3.346
 6660SOL    HW120879   0.117   6.471   3.299
 6660SOL    HW220880   0.204   6.334   3.314
 6661SOL     OW20881   3.381   6.468   4.148
 6661SOL    HW120882   3.433   6.382   4.155
 6661SOL    HW220883   3.439   6.538   4.106
 6662SOL     OW20884   2.795   0.053   2.274
 6662SOL    HW120885   2.716   0.106   2.307
 6662SOL    HW220886   2.862   0.044   2.348
 6663SOL     OW20887   1.553   4.504   5.881
 6663SOL    HW120888   1.515   4.534   5.794
 6663SOL    HW220889   1.493   4.436   5.923
 6664SOL     OW20890   3.168   0.652   1.500
 6664SOL    HW120891   3.242   0.692   1.447
 6664SOL    HW220892   3.115   0.590   1.443
 6665SOL     OW20893   2.749   0.568   5.931
 6665SOL    HW120894   2.737   0.542   5.836
 6665SOL    HW220895   2.830   0.625   5.941
 6666SOL     OW20896   5.067   6.458   5.358
 6666SOL    HW120897   5.093   6.445   5.262
 6666SOL    HW220898   5.085   6.552   5.386
 6667SOL     OW20899   6.860   6.601   6.359
 6667SOL    HW120900   6.922   6.522   6.361
 6667SOL    HW220901   6.802   6.596   6.278
 6668SOL     OW20902   6.858   6.233   0.765
 6668SOL    HW120903   6.760   6.247   0.781
 6668SOL    HW220904   6.896   6.314   0.721
 6669SOL     OW20905   1.627   1.732   1.937
 6669SOL    HW120906   1.682   1.691   2.010
 6669SOL    HW220907   1.674   1.812   1.901
 6670SOL     OW20908   3.655   2.762   0.839
 6670SOL    HW120909   3.673   2.709   0.922
 6670SOL    HW220910   3.693   2.853   0.848
 6671SOL     OW20911   5.284   5.933   7.010
 6671SOL    HW120912   5.208   5.969   0.039
 6671SOL    HW220913   5.364   5.991   7.022
 6672SOL     OW20914   0.859   1.784   0.748
 6672SOL    HW120915   0.789   1.851   0.723
 6672SOL    HW220916   0.864   1.777   0.848
 6673SOL     OW20917   5.728   3.753   4.306
 6673SOL    HW120918   5.639   3.725   4.342
 6673SOL    HW220919   5.746   3.849   4.330
 6674SOL     OW20920   0.336   2.861   6.958
 6674SOL    HW120921   0.342   2.850   0.031
 6674SOL    HW220922   0.256   2.813   6.923
 6675SOL     OW20923   4.579   2.782   6.894
 6675SOL    HW120924   4.579   2.691   6.935
 6675SOL    HW220925   4.603   2.851   6.963
 6676SOL     OW20926   1.333   3.556   3.733
 6676SOL    HW120927   1.293   3.647   3.749
 6676SOL    HW220928   1.327   3.533   3.636
 6677SOL     OW20929   0.658   1.663   0.524
 6677SOL    HW120930   0.745   1.654   0.476
 6677SOL    HW220931   0.666   1.733   0.595
 6678SOL     OW20932   1.601   5.056   0.321
 6678SOL    HW120933   1.528   5.082   0.385
 6678SOL    HW220934   1.664   5.133   0.310
 6679SOL     OW20935   2.424   1.412   3.983
 6679SOL    HW120936   2.511   1.462   3.983
 6679SOL    HW220937   2.351   1.471   3.949
 6680SOL     OW20938   5.407   6.383   0.325
 6680SOL    HW120939   5.344   6.420   0.393
 6680SOL    HW220940   5.364   6.386   0.234
 6681SOL     OW20941   4.192   5.777   1.503
 6681SOL    HW120942   4.161   5.691   1.543
 6681SOL    HW220943   4.113   5.834   1.479
 6682SOL     OW20944   3.313   5.311   6.756
 6682SOL    HW120945   3.368   5.388   6.724
 6682SOL    HW220946   3.305   5.244   6.683
 6683SOL     OW20947   6.361   3.050   6.794
 6683SOL    HW120948   6.427   3.046   6.719
 6683SOL    HW220949   6.272   3.019   6.762
 6684SOL     OW20950   3.591   0.027   1.499
 6684SOL    HW120951   3.542   0.031   1.586
 6684SOL    HW220952   3.527   0.042   1.424
 6685SOL     OW20953   4.129   3.366   6.934
 6685SOL    HW120954   4.153   3.384   0.004
 6685SOL    HW220955   4.212   3.369   6.878
 6686SOL     OW20956   5.463   5.420   3.882
 6686SOL    HW120957   5.495   5.345   3.825
 6686SOL    HW220958   5.498   5.408   3.975
 6687SOL     OW20959   6.476   2.154   1.749
 6687SOL    HW120960   6.546   2.084   1.738
 6687SOL    HW220961   6.479   2.217   1.671
 6688SOL     OW20962   4.092   5.339   0.829
 6688SOL    HW120963   4.177   5.290   0.810
 6688SOL    HW220964   4.112   5.433   0.856
 6689SOL     OW20965   2.951   5.161   6.202
 6689SOL    HW120966   3.000   5.234   6.155
 6689SOL    HW220967   2.956   5.077   6.148
 6690SOL     OW20968   0.783   0.069   5.578
 6690SOL    HW120969   0.854   0.121   5.532
 6690SOL    HW220970   0.701   0.125   5.588
 6691SOL     OW20971   2.710   2.122   2.657
 6691SOL    HW120972   2.739   2.029   2.678
 6691SOL    HW220973   2.737   2.145   2.564
 6692SOL     OW20974   4.641   4.995   1.466
 6692SOL    HW120975   4.648   5.053   1.385
 6692SOL    HW220976   4.545   4.976   1.486
 6693SOL     OW20977   4.474   1.673   4.545
 6693SOL    HW120978   4.392   1.673   4.603
 6693SOL    HW220979   4.451   1.712   4.455
 6694SOL     OW20980   3.780   5.721   0.977
 6694SOL    HW120981   3.816   5.756   0.890
 6694SOL    HW220982   3.680   5.719   0.973
 6695SOL     OW20983   2.629   2.346   6.828
 6695SOL    HW120984   2.694   2.422   6.834
 6695SOL    HW220985   2.667   2.274   6.771
 6696SOL     OW20986   3.969   3.967   4.542
 6696SOL    HW120987   3.992   3.884   4.492
 6696SOL    HW220988   4.006   4.047   4.493
 6697SOL     OW20989   4.595   2.410   2.432
 6697SOL    HW120990   4.642   2.383   2.348
 6697SOL    HW220991   4.584   2.331   2.491
 6698SOL     OW20992   3.601   4.264   1.776
 6698SOL    HW120993   3.519   4.318   1.761
 6698SOL    HW220994   3.679   4.308   1.731
 6699SOL     OW20995   1.168   4.614   5.311
 6699SOL    HW120996   1.142   4.617   5.214
 6699SOL    HW220997   1.107   4.550   5.359
 6700SOL     OW20998   5.995   0.417   0.588
 6700SOL    HW120999   5.952   0.507   0.596
 6700SOL    HW221000   6.083   0.418   0.636
 6701SOL     OW21001   5.824   7.000   1.387
 6701SOL    HW121002   5.743   0.008   1.435
 6701SOL    HW221003   5.807   6.998   1.289
 6702SOL     OW21004   2.756   2.169   0.874
 6702SOL    HW121005   2.700   2.228   0.933
 6702SOL    HW221006   2.770   2.213   0.786
 6703SOL     OW21007   1.680   1.823   6.048
 6703SOL    HW121008   1.664   1.779   5.960
 6703SOL    HW221009   1.744   1.899   6.037
 6704SOL     OW21010   3.775   1.622   5.242
 6704SOL    HW121011   3.722   1.596   5.161
 6704SOL    HW221012   3.725   1.691   5.294
 6705SOL     OW21013   6.368   3.136   1.894
 6705SOL    HW121014   6.289   3.084   1.925
 6705SOL    HW221015   6.411   3.181   1.972
 6706SOL     OW21016   0.477   6.607   1.574
 6706SOL    HW121017   0.458   6.614   1.672
 6706SOL    HW221018   0.450   6.517   1.541
 6707SOL     OW21019   5.575   0.485   2.316
 6707SOL    HW121020   5.538   0.444   2.232
 6707SOL    HW221021   5.641   0.423   2.357
 6708SOL     OW21022   0.499   4.068   1.471
 6708SOL    HW121023   0.440   3.994   1.505
 6708SOL    HW221024   0.523   4.050   1.375
 6709SOL     OW21025   1.360   4.675   2.335
 6709SOL    HW121026   1.410   4.596   2.372
 6709SOL    HW221027   1.262   4.658   2.345
 6710SOL     OW21028   4.569   1.179   1.710
 6710SOL    HW121029   4.657   1.143   1.678
 6710SOL    HW221030   4.525   1.231   1.637
 6711SOL     OW21031   4.759   6.260   6.253
 6711SOL    HW121032   4.819   6.285   6.328
 6711SOL    HW221033   4.682   6.205   6.288
 6712SOL     OW21034   5.963   3.701   0.711
 6712SOL    HW121035   5.946   3.608   0.744
 6712SOL    HW221036   6.047   3.736   0.752
 6713SOL     OW21037   1.668   0.055   4.173
 6713SOL    HW121038   1.574   0.080   4.196
 6713SOL    HW221039   1.731   0.122   4.212
 6714SOL     OW21040   5.815   1.318   0.243
 6714SOL    HW121041   5.870   1.240   0.271
 6714SOL    HW221042   5.768   1.297   0.158
 6715SOL     OW21043   1.315   0.557   0.706
 6715SOL    HW121044   1.298   0.572   0.804
 6715SOL    HW221045   1.262   0.478   0.675
 6716SOL     OW21046   6.757   5.388   2.359
 6716SOL    HW121047   6.787   5.470   2.408
 6716SOL    HW221048   6.682   5.345   2.409
 6717SOL     OW21049   3.768   2.863   6.214
 6717SOL    HW121050   3.701   2.915   6.162
 6717SOL    HW221051   3.729   2.776   6.242
 6718SOL     OW21052   3.344   0.222   2.546
 6718SOL    HW121053   3.364   0.126   2.526
 6718SOL    HW221054   3.264   0.228   2.606
 6719SOL     OW21055   1.947   0.033   6.620
 6719SOL    HW121056   1.867   0.092   6.612
 6719SOL    HW221057   1.922   6.965   6.593
 6720SOL     OW21058   2.264   0.808   5.929
 6720SOL    HW121059   2.333   0.772   5.866
 6720SOL    HW221060   2.291   0.789   6.023
 6721SOL     OW21061   0.612   1.308   0.608
 6721SOL    HW121062   0.526   1.350   0.636
 6721SOL    HW221063   0.616   1.305   0.508
 6722SOL     OW21064   6.163   3.001   0.023
 6722SOL    HW121065   6.099   2.946   6.995
 6722SOL    HW221066   6.113   3.053   0.092
 6723SOL     OW21067   1.653   2.032   6.243
 6723SOL    HW121068   1.656   1.935   6.218
 6723SOL    HW221069   1.741   2.075   6.220
 6724SOL     OW21070   1.933   3.325   5.957
 6724SOL    HW121071   1.871   3.346   5.881
 6724SOL    HW221072   1.974   3.235   5.943
 6725SOL     OW21073   6.221   3.024   3.321
 6725SOL    HW121074   6.219   3.098   3.388
 6725SOL    HW221075   6.181   3.055   3.235
 6726SOL     OW21076   0.307   0.844   5.638
 6726SOL    HW121077   0.239   0.812   5.572
 6726SOL    HW221078   0.387   0.879   5.589
 6727SOL     OW21079   1.149   4.418   6.063
 6727SOL    HW121080   1.227   4.380   6.014
 6727SOL    HW221081   1.180   4.486   6.129
 6728SOL     OW21082   3.632   2.059   3.565
 6728SOL    HW121083   3.652   1.962   3.580
 6728SOL    HW221084   3.663   2.112   3.644
 6729SOL     OW21085   4.962   1.851   0.999
 6729SOL    HW121086   4.879   1.796   0.992
 6729SOL    HW221087   4.972   1.906   0.916
 6730SOL     OW21088   1.057   0.832   1.323
 6730SOL    HW121089   1.019   0.831   1.231
 6730SOL    HW221090   0.993   0.787   1.386
 6731SOL     OW21091   3.061   6.346   0.629
 6731SOL    HW121092   3.069   6.314   0.535
 6731SOL    HW221093   3.147   6.390   0.657
 6732SOL     OW21094   5.659   5.084   4.289
 6732SOL    HW121095   5.701   5.145   4.222
 6732SOL    HW221096   5.723   5.012   4.314
 6733SOL     OW21097   3.625   5.527   6.453
 6733SOL    HW121098   3.616   5.547   6.355
 6733SOL    HW221099   3.544   5.558   6.501
 6734SOL     OW21100   5.292   1.451   5.147
 6734SOL    HW121101   5.247   1.448   5.058
 6734SOL    HW221102   5.270   1.368   5.199
 6735SOL     OW21103   6.064   3.407   3.612
 6735SOL    HW121104   6.042   3.341   3.541
 6735SOL    HW221105   6.159   3.396   3.639
 6736SOL     OW21106   3.100   3.998   1.069
 6736SOL    HW121107   3.048   3.990   1.155
 6736SOL    HW221108   3.048   3.954   0.995
 6737SOL     OW21109   1.348   2.959   1.537
 6737SOL    HW121110   1.356   2.994   1.630
 6737SOL    HW221111   1.409   2.881   1.525
 6738SOL     OW21112   1.671   5.874   3.423
 6738SOL    HW121113   1.696   5.793   3.370
 6738SOL    HW221114   1.691   5.957   3.371
 6739SOL     OW21115   6.448   0.088   4.217
 6739SOL    HW121116   6.450   0.096   4.316
 6739SOL    HW221117   6.472   7.021   4.190
 6740SOL     OW21118   6.295   6.220   4.575
 6740SOL    HW121119   6.324   6.315   4.588
 6740SOL    HW221120   6.216   6.201   4.633
 6741SOL     OW21121   4.362   2.074   5.569
 6741SOL    HW121122   4.438   2.093   5.630
 6741SOL    HW221123   4.378   2.116   5.480
 6742SOL     OW21124   5.152   4.579   3.166
 6742SOL    HW121125   5.171   4.482   3.183
 6742SOL    HW221126   5.064   4.588   3.120
 6743SOL     OW21127   4.283   4.262   0.151
 6743SOL    HW121128   4.224   4.191   0.114
 6743SOL    HW221129   4.323   4.315   0.077
 6744SOL     OW21130   6.496   5.241   6.194
 6744SOL    HW121131   6.581   5.230   6.247
 6744SOL    HW221132   6.465   5.151   6.163
 6745SOL     OW21133   6.982   6.154   3.824
 6745SOL    HW121134   6.901   6.131   3.876
 6745SOL    HW221135   7.025   6.236   3.863
 6746SOL     OW21136   1.688   1.252   2.655
 6746SOL    HW121137   1.752   1.234   2.580
 6746SOL    HW221138   1.716   1.335   2.703
 6747SOL     OW21139   0.688   6.885   6.614
 6747SOL    HW121140   0.727   6.799   6.648
 6747SOL    HW221141   0.598   6.867   6.575
 6748SOL     OW21142   2.351   1.741   4.006
 6748SOL    HW121143   2.392   1.705   3.922
 6748SOL    HW221144   2.416   1.804   4.049
 6749SOL     OW21145   3.405   4.181   0.869
 6749SOL    HW121146   3.421   4.250   0.798
 6749SOL    HW221147   3.490   4.130   0.885
 6750SOL     OW21148   2.902   1.864   4.551
 6750SOL    HW121149   2.911   1.945   4.493
 6750SOL    HW221150   2.941   1.884   4.641
 6751SOL     OW21151   4.489   6.934   3.376
 6751SOL    HW121152   4.393   6.960   3.386
 6751SOL    HW221153   4.538   6.955   3.460
 6752SOL     OW21154   1.724   6.436   3.008
 6752SOL    HW121155   1.716   6.372   2.932
 6752SOL    HW221156   1.671   6.403   3.086
 6753SOL     OW21157   3.683   2.515   5.387
 6753SOL    HW121158   3.714   2.602   5.349
 6753SOL    HW221159   3.593   2.493   5.350
 6754SOL     OW21160   6.124   0.840   1.319
 6754SOL    HW121161   6.212   0.797   1.298
 6754SOL    HW221162   6.109   0.838   1.418
 6755SOL     OW21163   2.929   5.104   0.814
 6755SOL    HW121164   2.923   5.065   0.906
 6755SOL    HW221165   2.933   5.031   0.746
 6756SOL     OW21166   2.293   1.891   5.795
 6756SOL    HW121167   2.313   1.925   5.886
 6756SOL    HW221168   2.195   1.899   5.777
 6757SOL     OW21169   3.209   0.829   0.483
 6757SOL    HW121170   3.182   0.749   0.536
 6757SOL    HW221171   3.302   0.856   0.508
 6758SOL     OW21172   5.580   2.883   0.955
 6758SOL    HW121173   5.615   2.791   0.935
 6758SOL    HW221174   5.586   2.900   1.053
 6759SOL     OW21175   0.062   3.220   3.219
 6759SOL    HW121176   0.067   3.120   3.221
 6759SOL    HW221177   6.996   3.249   3.191
 6760SOL     OW21178   5.350   2.991   2.940
 6760SOL    HW121179   5.361   3.085   2.907
 6760SOL    HW221180   5.264   2.954   2.905
 6761SOL     OW21181   4.947   1.937   4.254
 6761SOL    HW121182   4.951   2.032   4.285
 6761SOL    HW221183   4.969   1.876   4.330
 6762SOL     OW21184   6.657   5.408   3.496
 6762SOL    HW121185   6.719   5.335   3.525
 6762SOL    HW221186   6.690   5.448   3.410
 6763SOL     OW21187   4.583   5.546   4.967
 6763SOL    HW121188   4.680   5.550   4.942
 6763SOL    HW221189   4.574   5.525   5.064
 6764SOL     OW21190   1.418   5.964   1.967
 6764SOL    HW121191   1.493   5.907   1.934
 6764SOL    HW221192   1.344   5.906   2.000
 6765SOL     OW21193   6.025   5.138   3.521
 6765SOL    HW121194   5.997   5.055   3.473
 6765SOL    HW221195   5.944   5.183   3.561
 6766SOL     OW21196   4.770   6.376   0.539
 6766SOL    HW121197   4.699   6.364   0.609
 6766SOL    HW221198   4.744   6.325   0.457
 6767SOL     OW21199   2.673   0.712   0.415
 6767SOL    HW121200   2.636   0.759   0.495
 6767SOL    HW221201   2.766   0.744   0.398
 6768SOL     OW21202   1.815   0.942   6.719
 6768SOL    HW121203   1.884   0.873   6.741
 6768SOL    HW221204   1.826   1.021   6.780
 6769SOL     OW21205   3.569   2.751   0.545
 6769SOL    HW121206   3.616   2.675   0.500
 6769SOL    HW221207   3.622   2.780   0.625
 6770SOL     OW21208   6.812   0.510   2.100
 6770SOL    HW121209   6.714   0.488   2.105
 6770SOL    HW221210   6.835   0.534   2.006
 6771SOL     OW21211   4.536   2.186   2.895
 6771SOL    HW121212   4.623   2.155   2.932
 6771SOL    HW221213   4.469   2.112   2.900
 6772SOL     OW21214   3.195   1.053   2.389
 6772SOL    HW121215   3.131   1.105   2.334
 6772SOL    HW221216   3.152   1.029   2.476
 6773SOL     OW21217   6.634   3.983   1.661
 6773SOL    HW121218   6.582   3.898   1.675
 6773SOL    HW221219   6.717   3.964   1.610
 6774SOL     OW21220   0.083   2.531   6.233
 6774SOL    HW121221   0.098   2.627   6.211
 6774SOL    HW221222   0.049   2.483   6.152
 6775SOL     OW21223   2.754   3.658   0.887
 6775SOL    HW121224   2.794   3.589   0.946
 6775SOL    HW221225   2.657   3.636   0.871
 6776SOL     OW21226   4.482   4.719   0.411
 6776SOL    HW121227   4.499   4.814   0.386
 6776SOL    HW221228   4.561   4.681   0.458
 6777SOL     OW21229   4.409   4.804   6.030
 6777SOL    HW121230   4.503   4.817   6.000
 6777SOL    HW221231   4.402   4.717   6.078
 6778SOL     OW21232   0.643   3.944   2.287
 6778SOL    HW121233   0.634   4.040   2.259
 6778SOL    HW221234   0.713   3.937   2.358
 6779SOL     OW21235   6.622   4.137   6.977
 6779SOL    HW121236   6.713   4.118   7.013
 6779SOL    HW221237   6.606   4.080   6.897
 6780SOL     OW21238   1.213   2.290   2.477
 6780SOL    HW121239   1.281   2.342   2.426
 6780SOL    HW221240   1.171   2.221   2.417
 6781SOL     OW21241   5.543   6.060   5.395
 6781SOL    HW121242   5.449   6.037   5.420
 6781SOL    HW221243   5.599   6.065   5.477
 6782SOL     OW21244   0.204   0.838   2.893
 6782SOL    HW121245   0.274   0.767   2.907
 6782SOL    HW221246   0.114   0.799   2.912
 6783SOL     OW21247   0.155   6.509   6.158
 6783SOL    HW121248   0.243   6.467   6.141
 6783SOL    HW221249   0.130   6.566   6.080
 6784SOL     OW21250   3.786   4.194   0.312
 6784SOL    HW121251   3.848   4.230   0.242
 6784SOL    HW221252   3.826   4.210   0.403
 6785SOL     OW21253   6.015   4.750   1.749
 6785SOL    HW121254   5.987   4.809   1.674
 6785SOL    HW221255   5.970   4.661   1.742
 6786SOL     OW21256   1.248   2.097   6.613
 6786SOL    HW121257   1.285   2.183   6.577
 6786SOL    HW221258   1.199   2.049   6.541
 6787SOL     OW21259   1.881   3.755   1.131
 6787SOL    HW121260   1.829   3.825   1.179
 6787SOL    HW221261   1.844   3.743   1.039
 6788SOL     OW21262   2.757   3.894   1.694
 6788SOL    HW121263   2.807   3.848   1.768
 6788SOL    HW221264   2.658   3.888   1.712
 6789SOL     OW21265   0.238   6.761   2.163
 6789SOL    HW121266   0.333   6.739   2.186
 6789SOL    HW221267   0.223   6.742   2.066
 6790SOL     OW21268   1.604   4.049   0.134
 6790SOL    HW121269   1.517   4.017   0.171
 6790SOL    HW221270   1.655   4.098   0.205
 6791SOL     OW21271   3.946   2.354   1.090
 6791SOL    HW121272   4.040   2.384   1.072
 6791SOL    HW221273   3.884   2.431   1.083
 6792SOL     OW21274   6.726   5.814   5.834
 6792SOL    HW121275   6.635   5.805   5.796
 6792SOL    HW221276   6.723   5.874   5.914
 6793SOL     OW21277   0.954   2.256   0.718
 6793SOL    HW121278   0.941   2.232   0.622
 6793SOL    HW221279   1.002   2.182   0.764
 6794SOL     OW21280   5.233   1.349   4.842
 6794SOL    HW121281   5.261   1.340   4.746
 6794SOL    HW221282   5.309   1.320   4.901
 6795SOL     OW21283   2.533   5.821   0.813
 6795SOL    HW121284   2.520   5.733   0.859
 6795SOL    HW221285   2.494   5.816   0.721
 6796SOL     OW21286   5.967   1.093   2.186
 6796SOL    HW121287   6.058   1.131   2.201
 6796SOL    HW221288   5.915   1.154   2.126
 6797SOL     OW21289   5.047   3.813   1.906
 6797SOL    HW121290   5.051   3.741   1.837
 6797SOL    HW221291   4.998   3.779   1.987
 6798SOL     OW21292   5.673   5.156   2.702
 6798SOL    HW121293   5.618   5.210   2.638
 6798SOL    HW221294   5.644   5.061   2.698
 6799SOL     OW21295   5.478   5.578   0.325
 6799SOL    HW121296   5.519   5.669   0.333
 6799SOL    HW221297   5.489   5.529   0.412
 6800SOL     OW21298   2.085   4.486   0.644
 6800SOL    HW121299   2.107   4.496   0.741
 6800SOL    HW221300   2.141   4.412   0.605
 6801SOL     OW21301   1.611   1.104   2.206
 6801SOL    HW121302   1.669   1.155   2.270
 6801SOL    HW221303   1.523   1.085   2.249
 6802SOL     OW21304   2.266   5.679   0.471
 6802SOL    HW121305   2.211   5.596   0.462
 6802SOL    HW221306   2.360   5.660   0.443
 6803SOL     OW21307   4.763   2.638   6.742
 6803SOL    HW121308   4.694   2.710   6.744
 6803SOL    HW221309   4.791   2.616   6.835
 6804SOL     OW21310   2.431   5.657   3.352
 6804SOL    HW121311   2.480   5.719   3.413
 6804SOL    HW221312   2.334   5.656   3.376
 6805SOL     OW21313   5.598   6.465   4.584
 6805SOL    HW121314   5.554   6.555   4.590
 6805SOL    HW221315   5.635   6.453   4.492
 6806SOL     OW21316   5.107   1.333   3.595
 6806SOL    HW121317   5.108   1.376   3.505
 6806SOL    HW221318   5.183   1.370   3.650
 6807SOL     OW21319   2.286   3.138   0.083
 6807SOL    HW121320   2.271   3.049   0.124
 6807SOL    HW221321   2.257   3.210   0.146
 6808SOL     OW21322   0.391   3.014   5.488
 6808SOL    HW121323   0.469   3.075   5.503
 6808SOL    HW221324   0.404   2.966   5.401
 6809SOL     OW21325   1.875   4.366   0.083
 6809SOL    HW121326   1.777   4.385   0.092
 6809SOL    HW221327   1.918   4.369   0.174
 6810SOL     OW21328   1.373   0.669   2.009
 6810SOL    HW121329   1.454   0.621   1.975
 6810SOL    HW221330   1.332   0.721   1.934
 6811SOL     OW21331   5.144   4.161   0.036
 6811SOL    HW121332   5.222   4.208   0.078
 6811SOL    HW221333   5.114   4.211   6.981
 6812SOL     OW21334   3.872   3.288   3.395
 6812SOL    HW121335   3.792   3.229   3.397
 6812SOL    HW221336   3.939   3.255   3.462
 6813SOL     OW21337   4.620   1.510   1.395
 6813SOL    HW121338   4.619   1.586   1.330
 6813SOL    HW221339   4.711   1.502   1.435
 6814SOL     OW21340   3.382   2.738   0.901
 6814SOL    HW121341   3.321   2.790   0.841
 6814SOL    HW221342   3.476   2.747   0.869
 6815SOL     OW21343   2.887   6.817   1.243
 6815SOL    HW121344   2.819   6.795   1.173
 6815SOL    HW221345   2.958   6.746   1.244
 6816SOL     OW21346   6.405   5.062   7.020
 6816SOL    HW121347   6.317   5.081   6.975
 6816SOL    HW221348   6.444   4.978   6.983
 6817SOL     OW21349   6.702   1.433   5.428
 6817SOL    HW121350   6.682   1.510   5.490
 6817SOL    HW221351   6.800   1.413   5.431
 6818SOL     OW21352   2.912   6.298   1.916
 6818SOL    HW121353   2.826   6.247   1.914
 6818SOL    HW221354   2.988   6.233   1.925
 6819SOL     OW21355   3.565   0.874   3.782
 6819SOL    HW121356   3.467   0.895   3.787
 6819SOL    HW221357   3.615   0.930   3.847
 6820SOL     OW21358   0.814   4.733   3.766
 6820SOL    HW121359   0.875   4.657   3.743
 6820SOL    HW221360   0.792   4.783   3.682
 6821SOL     OW21361   2.615   2.292   5.414
 6821SOL    HW121362   2.700   2.295   5.466
 6821SOL    HW221363   2.596   2.197   5.386
 6822SOL     OW21364   5.604   1.793   6.203
 6822SOL    HW121365   5.701   1.811   6.187
 6822SOL    HW221366   5.581   1.819   6.297
 6823SOL     OW21367   3.778   3.619   4.060
 6823SOL    HW121368   3.835   3.693   4.025
 6823SOL    HW221369   3.686   3.627   4.023
 6824SOL     OW21370   0.590   3.011   6.034
 6824SOL    HW121371   0.510   3.031   6.091
 6824SOL    HW221372   0.644   2.939   6.078
 6825SOL     OW21373   4.802   0.086   2.604
 6825SOL    HW121374   4.812   0.096   2.505
 6825SOL    HW221375   4.707   0.063   2.626
 6826SOL     OW21376   2.097   3.377   2.917
 6826SOL    HW121377   2.110   3.460   2.862
 6826SOL    HW221378   2.099   3.297   2.857
 6827SOL     OW21379   5.075   5.715   0.169
 6827SOL    HW121380   5.115   5.776   0.237
 6827SOL    HW221381   5.045   5.630   0.213
 6828SOL     OW21382   1.645   2.218   1.586
 6828SOL    HW121383   1.649   2.294   1.651
 6828SOL    HW221384   1.635   2.132   1.636
 6829SOL     OW21385   5.044   6.700   3.710
 6829SOL    HW121386   4.970   6.746   3.662
 6829SOL    HW221387   5.063   6.612   3.666
 6830SOL     OW21388   5.659   1.303   3.126
 6830SOL    HW121389   5.604   1.228   3.088
 6830SOL    HW221390   5.623   1.390   3.093
 6831SOL     OW21391   0.834   0.480   6.122
 6831SOL    HW121392   0.849   0.385   6.096
 6831SOL    HW221393   0.796   0.531   6.044
 6832SOL     OW21394   2.890   4.522   1.553
 6832SOL    HW121395   2.799   4.564   1.546
 6832SOL    HW221396   2.920   4.522   1.648
 6833SOL     OW21397   4.144   5.253   6.914
 6833SOL    HW121398   4.060   5.243   6.859
 6833SOL    HW221399   4.220   5.276   6.854
 6834SOL     OW21400   4.276   6.666   1.736
 6834SOL    HW121401   4.260   6.764   1.723
 6834SOL    HW221402   4.212   6.630   1.804
 6835SOL     OW21403   4.025   6.983   5.046
 6835SOL    HW121404   4.017   6.907   4.981
 6835SOL    HW221405   4.085   6.956   5.122
 6836SOL     OW21406   3.320   6.113   0.400
 6836SOL    HW121407   3.388   6.131   0.472
 6836SOL    HW221408   3.254   6.046   0.433
 6837SOL     OW21409   1.930   3.272   2.027
 6837SOL    HW121410   1.995   3.207   2.065
 6837SOL    HW221411   1.964   3.306   1.939
 6838SOL     OW21412   1.875   0.912   0.765
 6838SOL    HW121413   1.935   0.875   0.694
 6838SOL    HW221414   1.845   1.004   0.738
 6839SOL     OW21415   4.427   0.966   0.849
 6839SOL    HW121416   4.496   1.024   0.892
 6839SOL    HW221417   4.412   0.996   0.754
 6840SOL     OW21418   2.539   1.719   5.783
 6840SOL    HW121419   2.456   1.757   5.824
 6840SOL    HW221420   2.599   1.793   5.754
 6841SOL     OW21421   6.166   3.256   6.085
 6841SOL    HW121422   6.216   3.191   6.027
 6841SOL    HW221423   6.130   3.208   6.165
 6842SOL     OW21424   2.146   5.172   1.601
 6842SOL    HW121425   2.204   5.095   1.629
 6842SOL    HW221426   2.085   5.143   1.527
 6843SOL     OW21427   5.347   0.139   6.423
 6843SOL    HW121428   5.321   0.234   6.406
 6843SOL    HW221429   5.271   0.079   6.399
 6844SOL     OW21430   5.111   1.042   4.111
 6844SOL    HW121431   5.074   1.102   4.040
 6844SOL    HW221432   5.209   1.029   4.096
 6845SOL     OW21433   5.567   2.818   2.857
 6845SOL    HW121434   5.641   2.796   2.921
 6845SOL    HW221435   5.500   2.876   2.903
 6846SOL     OW21436   3.036   4.165   0.040
 6846SOL    HW121437   3.113   4.190   7.006
 6846SOL    HW221438   2.957   4.222   0.019
 6847SOL     OW21439   6.651   4.173   4.658
 6847SOL    HW121440   6.708   4.176   4.576
 6847SOL    HW221441   6.637   4.078   4.686
 6848SOL     OW21442   5.349   4.055   4.100
 6848SOL    HW121443   5.256   4.088   4.092
 6848SOL    HW221444   5.348   3.958   4.127
 6849SOL     OW21445   3.532   4.406   5.836
 6849SOL    HW121446   3.552   4.347   5.758
 6849SOL    HW221447   3.459   4.470   5.812
 6850SOL     OW21448   4.283   2.297   3.227
 6850SOL    HW121449   4.248   2.286   3.320
 6850SOL    HW221450   4.363   2.239   3.214
 6851SOL     OW21451   1.957   2.834   2.929
 6851SOL    HW121452   2.029   2.767   2.912
 6851SOL    HW221453   1.982   2.891   3.007
 6852SOL     OW21454   2.685   5.666   1.331
 6852SOL    HW121455   2.670   5.606   1.410
 6852SOL    HW221456   2.780   5.658   1.301
 6853SOL     OW21457   5.410   3.256   6.489
 6853SOL    HW121458   5.434   3.273   6.585
 6853SOL    HW221459   5.348   3.178   6.484
 6854SOL     OW21460   5.145   6.944   5.849
 6854SOL    HW121461   5.134   6.871   5.781
 6854SOL    HW221462   5.178   6.904   5.935
 6855SOL     OW21463   4.057   5.589   3.495
 6855SOL    HW121464   4.126   5.516   3.489
 6855SOL    HW221465   4.020   5.606   3.403
 6856SOL     OW21466   0.480   2.655   6.086
 6856SOL    HW121467   0.393   2.696   6.112
 6856SOL    HW221468   0.522   2.611   6.166
 6857SOL     OW21469   1.140   3.242   6.863
 6857SOL    HW121470   1.147   3.164   6.924
 6857SOL    HW221471   1.228   3.290   6.858
 6858SOL     OW21472   3.308   4.309   1.564
 6858SOL    HW121473   3.215   4.303   1.601
 6858SOL    HW221474   3.360   4.376   1.617
 6859SOL     OW21475   0.715   1.523   1.977
 6859SOL    HW121476   0.772   1.461   2.031
 6859SOL    HW221477   0.619   1.511   2.003
 6860SOL     OW21478   6.930   5.161   2.203
 6860SOL    HW121479   6.880   5.075   2.207
 6860SOL    HW221480   6.896   5.223   2.274
 6861SOL     OW21481   4.764   3.239   5.629
 6861SOL    HW121482   4.677   3.190   5.631
 6861SOL    HW221483   4.758   3.317   5.566
 6862SOL     OW21484   0.802   4.541   6.236
 6862SOL    HW121485   0.863   4.608   6.194
 6862SOL    HW221486   0.805   4.550   6.336
 6863SOL     OW21487   6.684   6.320   4.601
 6863SOL    HW121488   6.638   6.400   4.640
 6863SOL    HW221489   6.747   6.349   4.529
 6864SOL     OW21490   1.674   4.023   5.907
 6864SOL    HW121491   1.604   3.956   5.931
 6864SOL    HW221492   1.696   4.015   5.810
 6865SOL     OW21493   1.714   0.570   4.815
 6865SOL    HW121494   1.673   0.660   4.826
 6865SOL    HW221495   1.798   0.565   4.869
 6866SOL     OW21496   6.603   4.532   1.974
 6866SOL    HW121497   6.505   4.533   1.958
 6866SOL    HW221498   6.634   4.437   1.988
 6867SOL     OW21499   1.493   3.847   0.653
 6867SOL    HW121500   1.550   3.786   0.707
 6867SOL    HW221501   1.397   3.836   0.680
 6868SOL     OW21502   1.764   5.827   5.736
 6868SOL    HW121503   1.681   5.774   5.749
 6868SOL    HW221504   1.829   5.806   5.810
 6869SOL     OW21505   3.577   6.999   5.694
 6869SOL    HW121506   3.648   0.006   5.756
 6869SOL    HW221507   3.511   6.944   5.745
 6870SOL     OW21508   0.785   3.150   0.152
 6870SOL    HW121509   0.847   3.136   0.230
 6870SOL    HW221510   0.782   3.067   0.097
 6871SOL     OW21511   6.553   3.511   2.257
 6871SOL    HW121512   6.498   3.470   2.184
 6871SOL    HW221513   6.522   3.604   2.274
 6872SOL     OW21514   1.513   2.691   2.135
 6872SOL    HW121515   1.506   2.595   2.111
 6872SOL    HW221516   1.538   2.700   2.232
 6873SOL     OW21517   1.272   4.001   4.155
 6873SOL    HW121518   1.220   3.994   4.239
 6873SOL    HW221519   1.370   4.009   4.176
 6874SOL     OW21520   5.925   5.651   2.935
 6874SOL    HW121521   5.878   5.603   2.861
 6874SOL    HW221522   5.857   5.680   3.003
 6875SOL     OW21523   1.475   2.757   1.417
 6875SOL    HW121524   1.570   2.735   1.396
 6875SOL    HW221525   1.423   2.764   1.332
 6876SOL     OW21526   3.572   0.332   3.427
 6876SOL    HW121527   3.632   0.383   3.489
 6876SOL    HW221528   3.622   0.309   3.344
 6877SOL     OW21529   2.650   4.586   1.711
 6877SOL    HW121530   2.577   4.643   1.673
 6877SOL    HW221531   2.699   4.637   1.782
 6878SOL     OW21532   2.160   1.004   3.955
 6878SOL    HW121533   2.092   1.073   3.980
 6878SOL    HW221534   2.161   0.992   3.856
 6879SOL     OW21535   2.432   2.244   0.277
 6879SOL    HW121536   2.367   2.196   0.336
 6879SOL    HW221537   2.524   2.208   0.293
 6880SOL     OW21538   1.205   5.873   6.361
 6880SOL    HW121539   1.131   5.851   6.425
 6880SOL    HW221540   1.272   5.799   6.360
 6881SOL     OW21541   1.928   3.838   0.440
 6881SOL    HW121542   1.838   3.821   0.479
 6881SOL    HW221543   1.921   3.910   0.371
 6882SOL     OW21544   2.462   0.088   0.514
 6882SOL    HW121545   2.501   0.095   0.605
 6882SOL    HW221546   2.412   0.172   0.493
 6883SOL     OW21547   5.133   0.605   6.137
 6883SOL    HW121548   5.139   0.507   6.155
 6883SOL    HW221549   5.041   0.638   6.157
 6884SOL     OW21550   1.816   4.021   3.125
 6884SOL    HW121551   1.868   4.100   3.159
 6884SOL    HW221552   1.758   3.985   3.198
 6885SOL     OW21553   4.903   4.656   4.145
 6885SOL    HW121554   4.894   4.719   4.222
 6885SOL    HW221555   4.915   4.563   4.179
 6886SOL     OW21556   5.944   1.254   5.372
 6886SOL    HW121557   5.858   1.304   5.381
 6886SOL    HW221558   5.925   1.157   5.355
 6887SOL     OW21559   5.018   6.093   6.477
 6887SOL    HW121560   5.076   6.011   6.470
 6887SOL    HW221561   4.989   6.105   6.572
 6888SOL     OW21562   5.604   4.126   6.460
 6888SOL    HW121563   5.540   4.149   6.533
 6888SOL    HW221564   5.671   4.200   6.450
 6889SOL     OW21565   1.506   3.236   5.529
 6889SOL    HW121566   1.426   3.294   5.546
 6889SOL    HW221567   1.475   3.142   5.512
 6890SOL     OW21568   3.818   5.587   2.928
 6890SOL    HW121569   3.790   5.539   2.845
 6890SOL    HW221570   3.756   5.564   3.003
 6891SOL     OW21571   2.189   2.671   1.161
 6891SOL    HW121572   2.168   2.757   1.114
 6891SOL    HW221573   2.106   2.637   1.206
 6892SOL     OW21574   2.977   1.714   4.315
 6892SOL    HW121575   2.953   1.753   4.404
 6892SOL    HW221576   3.051   1.648   4.326
 6893SOL     OW21577   6.300   3.308   6.654
 6893SOL    HW121578   6.277   3.245   6.728
 6893SOL    HW221579   6.247   3.284   6.572
 6894SOL     OW21580   5.530   4.260   1.260
 6894SOL    HW121581   5.487   4.187   1.208
 6894SOL    HW221582   5.467   4.292   1.331
 6895SOL     OW21583   1.242   6.104   0.792
 6895SOL    HW121584   1.222   6.026   0.732
 6895SOL    HW221585   1.299   6.073   0.868
 6896SOL     OW21586   3.586   2.152   4.287
 6896SOL    HW121587   3.494   2.172   4.251
 6896SOL    HW221588   3.582   2.151   4.387
 6897SOL     OW21589   4.943   3.827   4.951
 6897SOL    HW121590   4.894   3.751   4.994
 6897SOL    HW221591   5.040   3.806   4.948
 6898SOL     OW21592   2.134   1.195   1.166
 6898SOL    HW121593   2.050   1.212   1.218
 6898SOL    HW221594   2.181   1.115   1.203
 6899SOL     OW21595   5.983   5.884   2.314
 6899SOL    HW121596   6.026   5.816   2.373
 6899SOL    HW221597   5.885   5.888   2.334
 6900SOL     OW21598   6.809   4.397   6.235
 6900SOL    HW121599   6.902   4.427   6.217
 6900SOL    HW221600   6.745   4.461   6.192
 6901SOL     OW21601   4.353   4.864   6.443
 6901SOL    HW121602   4.428   4.930   6.447
 6901SOL    HW221603   4.288   4.884   6.516
 6902SOL     OW21604   6.742   5.959   6.064
 6902SOL    HW121605   6.818   5.994   6.117
 6902SOL    HW221606   6.661   6.015   6.081
 6903SOL     OW21607   2.585   4.855   5.352
 6903SOL    HW121608   2.559   4.878   5.258
 6903SOL    HW221609   2.624   4.763   5.355
 6904SOL     OW21610   0.278   6.061   5.177
 6904SOL    HW121611   0.263   6.079   5.274
 6904SOL    HW221612   0.373   6.080   5.154
 6905SOL     OW21613   5.243   5.210   7.005
 6905SOL    HW121614   5.156   5.165   0.002
 6905SOL    HW221615   5.318   5.161   0.024
 6906SOL     OW21616   4.118   1.426   3.621
 6906SOL    HW121617   4.061   1.502   3.653
 6906SOL    HW221618   4.073   1.339   3.642
 6907SOL     OW21619   6.210   2.014   1.366
 6907SOL    HW121620   6.303   2.047   1.347
 6907SOL    HW221621   6.195   2.015   1.465
 6908SOL     OW21622   2.587   4.463   6.768
 6908SOL    HW121623   2.618   4.377   6.809
 6908SOL    HW221624   2.659   4.501   6.711
 6909SOL     OW21625   5.210   4.884   1.928
 6909SOL    HW121626   5.230   4.792   1.895
 6909SOL    HW221627   5.157   4.933   1.859
 6910SOL     OW21628   1.462   3.355   2.518
 6910SOL    HW121629   1.376   3.308   2.535
 6910SOL    HW221630   1.530   3.290   2.484
 6911SOL     OW21631   3.496   6.821   5.513
 6911SOL    HW121632   3.521   6.900   5.568
 6911SOL    HW221633   3.396   6.814   5.507
 6912SOL     OW21634   1.811   3.235   6.388
 6912SOL    HW121635   1.808   3.272   6.481
 6912SOL    HW221636   1.851   3.304   6.326
 6913SOL     OW21637   5.121   5.969   5.328
 6913SOL    HW121638   5.028   6.003   5.341
 6913SOL    HW221639   5.123   5.905   5.250
 6914SOL     OW21640   6.110   3.616   1.959
 6914SOL    HW121641   6.062   3.702   1.974
 6914SOL    HW221642   6.125   3.603   1.861
 6915SOL     OW21643   0.986   3.242   1.828
 6915SOL    HW121644   1.053   3.311   1.853
 6915SOL    HW221645   0.902   3.256   1.881
 6916SOL     OW21646   5.087   0.475   5.880
 6916SOL    HW121647   5.101   0.531   5.961
 6916SOL    HW221648   5.073   0.380   5.907
 6917SOL     OW21649   4.997   5.733   1.721
 6917SOL    HW121650   5.072   5.702   1.779
 6917SOL    HW221651   5.023   5.818   1.675
 6918SOL     OW21652   0.586   3.258   2.339
 6918SOL    HW121653   0.622   3.307   2.260
 6918SOL    HW221654   0.556   3.167   2.311
 6919SOL     OW21655   5.934   0.055   2.496
 6919SOL    HW121656   5.957   0.150   2.476
 6919SOL    HW221657   5.958   0.034   2.591
 6920SOL     OW21658   4.861   0.645   5.015
 6920SOL    HW121659   4.919   0.564   5.025
 6920SOL    HW221660   4.780   0.635   5.072
 6921SOL     OW21661   4.026   6.848   4.334
 6921SOL    HW121662   3.949   6.793   4.303
 6921SOL    HW221663   4.041   6.923   4.270
 6922SOL     OW21664   2.303   6.205   4.460
 6922SOL    HW121665   2.288   6.236   4.367
 6922SOL    HW221666   2.383   6.251   4.498
 6923SOL     OW21667   6.086   6.284   2.283
 6923SOL    HW121668   6.139   6.199   2.297
 6923SOL    HW221669   6.058   6.321   2.372
 6924SOL     OW21670   3.131   6.325   1.171
 6924SOL    HW121671   3.133   6.226   1.157
 6924SOL    HW221672   3.174   6.347   1.259
 6925SOL     OW21673   5.281   6.415   6.422
 6925SOL    HW121674   5.354   6.441   6.486
 6925SOL    HW221675   5.277   6.315   6.416
 6926SOL     OW21676   2.136   1.676   0.445
 6926SOL    HW121677   2.136   1.580   0.419
 6926SOL    HW221678   2.059   1.695   0.506
 6927SOL     OW21679   3.576   0.747   0.667
 6927SOL    HW121680   3.673   0.760   0.645
 6927SOL    HW221681   3.543   0.663   0.625
 6928SOL     OW21682   5.092   5.316   0.716
 6928SOL    HW121683   5.128   5.383   0.780
 6928SOL    HW221684   5.066   5.362   0.631
 6929SOL     OW21685   5.200   4.891   1.503
 6929SOL    HW121686   5.148   4.903   1.587
 6929SOL    HW221687   5.236   4.980   1.473
 6930SOL     OW21688   0.645   0.911   0.345
 6930SOL    HW121689   0.652   0.919   0.445
 6930SOL    HW221690   0.557   0.946   0.315
 6931SOL     OW21691   2.376   2.335   1.159
 6931SOL    HW121692   2.359   2.238   1.144
 6931SOL    HW221693   2.360   2.357   1.255
 6932SOL     OW21694   4.979   4.988   0.061
 6932SOL    HW121695   4.963   4.907   0.119
 6932SOL    HW221696   4.892   5.033   0.042
 6933SOL     OW21697   3.335   6.146   6.094
 6933SOL    HW121698   3.312   6.232   6.048
 6933SOL    HW221699   3.318   6.155   6.192
 6934SOL     OW21700   4.971   3.894   6.780
 6934SOL    HW121701   4.932   3.901   6.688
 6934SOL    HW221702   4.897   3.885   6.847
 6935SOL     OW21703   5.088   5.506   1.990
 6935SOL    HW121704   5.141   5.517   1.906
 6935SOL    HW221705   5.140   5.452   2.056
 6936SOL     OW21706   0.537   2.273   4.398
 6936SOL    HW121707   0.629   2.244   4.422
 6936SOL    HW221708   0.475   2.254   4.474
 6937SOL     OW21709   5.820   6.536   0.248
 6937SOL    HW121710   5.843   6.625   0.285
 6937SOL    HW221711   5.898   6.499   0.197
 6938SOL     OW21712   0.232   1.178   4.279
 6938SOL    HW121713   0.175   1.134   4.210
 6938SOL    HW221714   0.294   1.242   4.235
 6939SOL     OW21715   6.419   4.594   3.315
 6939SOL    HW121716   6.513   4.579   3.286
 6939SOL    HW221717   6.417   4.619   3.412
 6940SOL     OW21718   4.574   6.746   0.734
 6940SOL    HW121719   4.605   6.785   0.820
 6940SOL    HW221720   4.555   6.648   0.747
 6941SOL     OW21721   3.009   3.875   2.320
 6941SOL    HW121722   3.093   3.858   2.267
 6941SOL    HW221723   2.980   3.969   2.306
 6942SOL     OW21724   6.207   6.325   1.893
 6942SOL    HW121725   6.207   6.258   1.818
 6942SOL    HW221726   6.186   6.415   1.857
 6943SOL     OW21727   3.501   4.646   6.814
 6943SOL    HW121728   3.563   4.688   6.747
 6943SOL    HW221729   3.554   4.611   6.891
 6944SOL     OW21730   1.191   4.013   6.214
 6944SOL    HW121731   1.096   3.985   6.204
 6944SOL    HW221732   1.228   4.036   6.123
 6945SOL     OW21733   6.261   2.194   0.700
 6945SOL    HW121734   6.282   2.130   0.626
 6945SOL    HW221735   6.172   2.171   0.739
 6946SOL     OW21736   3.856   5.891   2.322
 6946SOL    HW121737   3.812   5.814   2.368
 6946SOL    HW221738   3.883   5.960   2.389
 6947SOL     OW21739   4.577   4.911   6.239
 6947SOL    HW121740   4.619   4.999   6.259
 6947SOL    HW221741   4.480   4.924   6.220
 6948SOL     OW21742   0.168   6.179   0.962
 6948SOL    HW121743   0.136   6.267   0.928
 6948SOL    HW221744   0.221   6.133   0.890
 6949SOL     OW21745   2.603   2.351   3.325
 6949SOL    HW121746   2.619   2.253   3.309
 6949SOL    HW221747   2.599   2.399   3.237
 6950SOL     OW21748   1.319   6.741   4.509
 6950SOL    HW121749   1.396   6.722   4.449
 6950SOL    HW221750   1.234   6.713   4.465
 6951SOL     OW21751   6.732   5.317   6.843
 6951SOL    HW121752   6.693   5.305   6.752
 6951SOL    HW221753   6.830   5.338   6.834
 6952SOL     OW21754   3.054   5.121   2.886
 6952SOL    HW121755   2.970   5.155   2.844
 6952SOL    HW221756   3.112   5.079   2.816
 6953SOL     OW21757   5.114   0.051   0.495
 6953SOL    HW121758   5.129   7.016   0.573
 6953SOL    HW221759   5.200   0.093   0.468
 6954SOL     OW21760   0.551   3.684   1.172
 6954SOL    HW121761   0.598   3.642   1.249
 6954SOL    HW221762   0.464   3.637   1.157
 6955SOL     OW21763   5.406   0.187   2.320
 6955SOL    HW121764   5.324   0.148   2.277
 6955SOL    HW221765   5.421   0.142   2.409
 6956SOL     OW21766   5.962   5.966   1.780
 6956SOL    HW121767   5.992   5.979   1.874
 6956SOL    HW221768   5.863   5.952   1.778
 6957SOL     OW21769   5.524   5.996   6.377
 6957SOL    HW121770   5.448   6.046   6.337
 6957SOL    HW221771   5.491   5.911   6.417
 6958SOL     OW21772   3.532   3.487   3.940
 6958SOL    HW121773   3.529   3.517   3.844
 6958SOL    HW221774   3.438   3.474   3.973
 6959SOL     OW21775   1.155   3.922   3.023
 6959SOL    HW121776   1.104   4.002   2.993
 6959SOL    HW221777   1.252   3.934   3.002
 6960SOL     OW21778   1.577   4.892   0.807
 6960SOL    HW121779   1.595   4.856   0.899
 6960SOL    HW221780   1.536   4.821   0.751
 6961SOL     OW21781   4.115   1.392   4.805
 6961SOL    HW121782   4.182   1.337   4.755
 6961SOL    HW221783   4.039   1.334   4.834
 6962SOL     OW21784   3.899   6.603   6.977
 6962SOL    HW121785   3.982   6.602   6.921
 6962SOL    HW221786   3.923   6.621   0.046
 6963SOL     OW21787   5.067   6.336   0.388
 6963SOL    HW121788   5.008   6.406   0.427
 6963SOL    HW221789   5.153   6.332   0.441
 6964SOL     OW21790   2.708   0.159   5.818
 6964SOL    HW121791   2.621   0.179   5.773
 6964SOL    HW221792   2.771   0.236   5.804
 6965SOL     OW21793   1.268   2.061   0.485
 6965SOL    HW121794   1.256   1.968   0.522
 6965SOL    HW221795   1.261   2.058   0.385
 6966SOL     OW21796   1.171   0.277   1.914
 6966SOL    HW121797   1.267   0.256   1.896
 6966SOL    HW221798   1.151   0.370   1.883
 6967SOL     OW21799   3.796   1.847   6.010
 6967SOL    HW121800   3.746   1.883   5.931
 6967SOL    HW221801   3.756   1.759   6.037
 6968SOL     OW21802   3.508   6.895   3.252
 6968SOL    HW121803   3.467   6.986   3.258
 6968SOL    HW221804   3.437   6.828   3.230
 6969SOL     OW21805   2.661   1.711   1.281
 6969SOL    HW121806   2.735   1.674   1.337
 6969SOL    HW221807   2.599   1.765   1.339
 6970SOL     OW21808   3.183   4.699   6.286
 6970SOL    HW121809   3.099   4.687   6.339
 6970SOL    HW221810   3.229   4.784   6.315
 6971SOL     OW21811   5.142   4.292   1.125
 6971SOL    HW121812   5.082   4.363   1.088
 6971SOL    HW221813   5.229   4.333   1.151
 6972SOL     OW21814   4.887   3.655   3.187
 6972SOL    HW121815   4.860   3.729   3.249
 6972SOL    HW221816   4.884   3.568   3.237
 6973SOL     OW21817   1.132   1.554   2.501
 6973SOL    HW121818   1.182   1.471   2.478
 6973SOL    HW221819   1.190   1.634   2.480
 6974SOL     OW21820   3.022   3.831   2.709
 6974SOL    HW121821   2.943   3.804   2.654
 6974SOL    HW221822   3.091   3.759   2.706
 6975SOL     OW21823   2.853   5.820   5.210
 6975SOL    HW121824   2.790   5.879   5.160
 6975SOL    HW221825   2.883   5.866   5.293
 6976SOL     OW21826   5.007   4.340   5.127
 6976SOL    HW121827   4.948   4.289   5.190
 6976SOL    HW221828   5.103   4.313   5.141
 6977SOL     OW21829   4.113   4.392   1.574
 6977SOL    HW121830   4.037   4.394   1.639
 6977SOL    HW221831   4.133   4.297   1.550
 6978SOL     OW21832   6.129   3.247   1.305
 6978SOL    HW121833   6.207   3.271   1.247
 6978SOL    HW221834   6.049   3.228   1.247
 6979SOL     OW21835   0.974   3.954   1.238
 6979SOL    HW121836   1.032   3.922   1.313
 6979SOL    HW221837   1.026   3.954   1.153
 6980SOL     OW21838   1.454   0.330   3.006
 6980SOL    HW121839   1.436   0.233   3.015
 6980SOL    HW221840   1.392   0.371   2.939
 6981SOL     OW21841   3.928   3.416   6.753
 6981SOL    HW121842   4.018   3.404   6.795
 6981SOL    HW221843   3.892   3.506   6.777
 6982SOL     OW21844   0.914   1.229   4.270
 6982SOL    HW121845   0.892   1.300   4.337
 6982SOL    HW221846   1.012   1.211   4.271
 6983SOL     OW21847   4.807   1.166   4.505
 6983SOL    HW121848   4.809   1.245   4.565
 6983SOL    HW221849   4.716   1.125   4.505
 6984SOL     OW21850   0.915   2.392   2.891
 6984SOL    HW121851   0.907   2.397   2.791
 6984SOL    HW221852   0.989   2.452   2.921
 6985SOL     OW21853   0.037   4.407   6.955
 6985SOL    HW121854   0.127   4.441   6.927
 6985SOL    HW221855   0.001   4.346   6.884
 6986SOL     OW21856   4.369   5.733   6.119
 6986SOL    HW121857   4.452   5.680   6.104
 6986SOL    HW221858   4.357   5.750   6.217
 6987SOL     OW21859   0.117   1.745   5.740
 6987SOL    HW121860   0.207   1.788   5.734
 6987SOL    HW221861   0.128   1.647   5.755
 6988SOL     OW21862   3.034   0.554   6.275
 6988SOL    HW121863   3.078   0.604   6.200
 6988SOL    HW221864   3.001   0.466   6.242
 6989SOL     OW21865   0.060   4.343   2.125
 6989SOL    HW121866   7.023   4.414   2.157
 6989SOL    HW221867   0.148   4.385   2.101
 6990SOL     OW21868   3.667   2.887   2.348
 6990SOL    HW121869   3.672   2.902   2.249
 6990SOL    HW221870   3.754   2.849   2.381
 6991SOL     OW21871   5.248   4.733   2.765
 6991SOL    HW121872   5.265   4.641   2.799
 6991SOL    HW221873   5.301   4.799   2.817
 6992SOL     OW21874   0.420   0.028   6.992
 6992SOL    HW121875   0.355   6.979   6.989
 6992SOL    HW221876   0.507   7.024   6.951
 6993SOL     OW21877   5.781   1.117   1.766
 6993SOL    HW121878   5.720   1.196   1.767
 6993SOL    HW221879   5.866   1.140   1.813
 6994SOL     OW21880   1.266   0.229   3.657
 6994SOL    HW121881   1.343   0.167   3.676
 6994SOL    HW221882   1.259   0.298   3.729
 6995SOL     OW21883   0.732   3.706   0.303
 6995SOL    HW121884   0.781   3.720   0.217
 6995SOL    HW221885   0.748   3.784   0.363
 6996SOL     OW21886   1.845   0.373   6.620
 6996SOL    HW121887   1.785   0.418   6.686
 6996SOL    HW221888   1.797   0.296   6.578
 6997SOL     OW21889   0.077   5.300   5.166
 6997SOL    HW121890   0.016   5.373   5.196
 6997SOL    HW221891   0.052   5.215   5.212
 6998SOL     OW21892   1.020   1.439   1.473
 6998SOL    HW121893   1.070   1.373   1.529
 6998SOL    HW221894   1.084   1.505   1.434
 6999SOL     OW21895   0.685   2.573   6.735
 6999SOL    HW121896   0.616   2.569   6.807
 6999SOL    HW221897   0.776   2.577   6.775
 7000SOL     OW21898   5.941   0.325   2.619
 7000SOL    HW121899   5.881   0.345   2.696
 7000SOL    HW221900   6.031   0.365   2.635
 7001SOL     OW21901   0.760   1.472   4.690
 7001SOL    HW121902   0.667   1.435   4.691
 7001SOL    HW221903   0.756   1.571   4.671
 7002SOL     OW21904   0.528   5.741   3.538
 7002SOL    HW121905   0.581   5.812   3.584
 7002SOL    HW221906   0.497   5.673   3.605
 7003SOL     OW21907   6.041   4.096   0.969
 7003SOL    HW121908   6.013   4.000   0.966
 7003SOL    HW221909   6.140   4.102   0.962
 7004SOL     OW21910   1.472   6.129   0.470
 7004SOL    HW121911   1.378   6.103   0.447
 7004SOL    HW221912   1.512   6.060   0.530
 7005SOL     OW21913   1.547   0.213   6.763
 7005SOL    HW121914   1.566   0.226   6.860
 7005SOL    HW221915   1.495   0.292   6.729
 7006SOL     OW21916   0.061   6.716   3.543
 7006SOL    HW121917   7.007   6.688   3.489
 7006SOL    HW221918   0.043   6.805   3.586
 7007SOL     OW21919   4.309   1.069   5.868
 7007SOL    HW121920   4.260   0.998   5.919
 7007SOL    HW221921   4.289   1.058   5.770
 7008SOL     OW21922   6.801   4.233   3.284
 7008SOL    HW121923   6.770   4.255   3.377
 7008SOL    HW221924   6.897   4.205   3.287
 7009SOL     OW21925   4.365   6.048   2.172
 7009SOL    HW121926   4.269   6.065   2.193
 7009SOL    HW221927   4.372   5.985   2.095
 7010SOL     OW21928   5.083   3.933   2.490
 7010SOL    HW121929   5.079   3.851   2.434
 7010SOL    HW221930   5.124   4.008   2.438
 7011SOL     OW21931   3.668   6.479   0.333
 7011SOL    HW121932   3.729   6.410   0.295
 7011SOL    HW221933   3.623   6.443   0.415
 7012SOL     OW21934   1.190   2.843   0.879
 7012SOL    HW121935   1.266   2.807   0.933
 7012SOL    HW221936   1.213   2.837   0.782
 7013SOL     OW21937   2.462   1.170   6.866
 7013SOL    HW121938   2.434   1.253   6.817
 7013SOL    HW221939   2.390   1.143   6.930
 7014SOL     OW21940   6.123   3.573   1.683
 7014SOL    HW121941   6.118   3.475   1.663
 7014SOL    HW221942   6.031   3.612   1.685
 7015SOL     OW21943   5.589   4.351   2.336
 7015SOL    HW121944   5.667   4.412   2.323
 7015SOL    HW221945   5.582   4.288   2.259
 7016SOL     OW21946   3.037   4.735   1.010
 7016SOL    HW121947   2.973   4.716   1.084
 7016SOL    HW221948   3.055   4.834   1.006
 7017SOL     OW21949   4.076   4.888   3.949
 7017SOL    HW121950   4.096   4.957   3.879
 7017SOL    HW221951   4.006   4.923   4.011
 7018SOL     OW21952   4.936   2.986   4.413
 7018SOL    HW121953   4.968   3.073   4.450
 7018SOL    HW221954   4.926   2.920   4.487
 7019SOL     OW21955   5.245   5.364   2.139
 7019SOL    HW121956   5.204   5.284   2.095
 7019SOL    HW221957   5.325   5.335   2.192
 7020SOL     OW21958   0.720   3.375   6.996
 7020SOL    HW121959   0.638   3.424   7.024
 7020SOL    HW221960   0.748   3.312   0.042
 7021SOL     OW21961   1.114   2.751   4.858
 7021SOL    HW121962   1.058   2.806   4.920
 7021SOL    HW221963   1.203   2.794   4.846
 7022SOL     OW21964   3.883   0.897   0.248
 7022SOL    HW121965   3.966   0.942   0.281
 7022SOL    HW221966   3.892   0.879   0.150
 7023SOL     OW21967   1.024   1.712   1.652
 7023SOL    HW121968   1.013   1.617   1.620
 7023SOL    HW221969   0.954   1.732   1.720
 7024SOL     OW21970   3.841   3.007   3.701
 7024SOL    HW121971   3.845   2.950   3.783
 7024SOL    HW221972   3.793   2.958   3.629
 7025SOL     OW21973   3.132   0.152   7.000
 7025SOL    HW121974   3.173   0.242   7.015
 7025SOL    HW221975   3.118   0.107   0.063
 7026SOL     OW21976   3.020   1.523   0.897
 7026SOL    HW121977   3.081   1.549   0.973
 7026SOL    HW221978   2.928   1.558   0.914
 7027SOL     OW21979   2.411   5.566   2.829
 7027SOL    HW121980   2.372   5.529   2.913
 7027SOL    HW221981   2.337   5.599   2.770
 7028SOL     OW21982   2.925   0.504   3.717
 7028SOL    HW121983   2.971   0.591   3.702
 7028SOL    HW221984   2.992   0.430   3.714
 7029SOL     OW21985   3.306   3.443   5.706
 7029SOL    HW121986   3.288   3.482   5.615
 7029SOL    HW221987   3.336   3.349   5.696
 7030SOL     OW21988   0.143   1.624   4.660
 7030SOL    HW121989   0.141   1.545   4.600
 7030SOL    HW221990   0.052   1.639   4.698
 7031SOL     OW21991   4.656   5.972   1.095
 7031SOL    HW121992   4.585   5.936   1.034
 7031SOL    HW221993   4.683   6.063   1.065
 7032SOL     OW21994   4.047   6.924   3.895
 7032SOL    HW121995   4.068   6.985   3.820
 7032SOL    HW221996   3.969   6.866   3.871
 7033SOL     OW21997   1.670   2.493   5.146
 7033SOL    HW121998   1.699   2.437   5.223
 7033SOL    HW221999   1.649   2.586   5.178
 7034SOL     OW22000   6.722   1.706   3.464
 7034SOL    HW122001   6.796   1.773   3.463
 7034SOL    HW222002   6.721   1.656   3.377
 7035SOL     OW22003   2.217   0.184   1.512
 7035SOL    HW122004   2.193   0.168   1.416
 7035SOL    HW222005   2.140   0.158   1.570
 7036SOL     OW22006   0.446   1.517   2.020
 7036SOL    HW122007   0.350   1.489   2.027
 7036SOL    HW222008   0.481   1.541   2.110
 7037SOL     OW22009   0.364   0.067   6.073
 7037SOL    HW122010   0.298   0.136   6.104
 7037SOL    HW222011   0.380   0.079   5.975
 7038SOL     OW22012   2.256   4.026   6.238
 7038SOL    HW122013   2.179   4.084   6.267
 7038SOL    HW222014   2.316   4.078   6.178
 7039SOL     OW22015   0.665   5.301   2.783
 7039SOL    HW122016   0.682   5.203   2.790
 7039SOL    HW222017   0.748   5.347   2.749
 7040SOL     OW22018   4.174   1.930   5.469
 7040SOL    HW122019   4.104   1.945   5.538
 7040SOL    HW222020   4.257   1.980   5.493
 7041SOL     OW22021   1.283   0.996   3.935
 7041SOL    HW122022   1.186   1.017   3.924
 7041SOL    HW222023   1.302   0.904   3.900
 7042SOL     OW22024   4.265   6.004   4.992
 7042SOL    HW122025   4.248   6.009   4.893
 7042SOL    HW222026   4.179   6.016   5.041
 7043SOL     OW22027   2.517   4.706   3.323
 7043SOL    HW122028   2.611   4.713   3.355
 7043SOL    HW222029   2.516   4.699   3.223
 7044SOL     OW22030   5.324   6.303   3.846
 7044SOL    HW122031   5.303   6.236   3.775
 7044SOL    HW222032   5.240   6.329   3.894
 7045SOL     OW22033   6.250   5.582   2.069
 7045SOL    HW122034   6.226   5.583   1.972
 7045SOL    HW222035   6.237   5.673   2.108
 7046SOL     OW22036   3.181   2.124   4.577
 7046SOL    HW122037   3.169   2.045   4.517
 7046SOL    HW222038   3.232   2.097   4.659
 7047SOL     OW22039   0.648   0.174   1.019
 7047SOL    HW122040   0.714   0.105   1.047
 7047SOL    HW222041   0.570   0.130   0.974
 7048SOL     OW22042   6.642   5.590   4.982
 7048SOL    HW122043   6.553   5.598   5.026
 7048SOL    HW222044   6.708   5.550   5.046
 7049SOL     OW22045   3.712   1.434   1.751
 7049SOL    HW122046   3.616   1.445   1.778
 7049SOL    HW222047   3.723   1.348   1.702
 7050SOL     OW22048   3.848   5.009   0.843
 7050SOL    HW122049   3.806   4.933   0.893
 7050SOL    HW222050   3.857   5.088   0.904
 7051SOL     OW22051   0.095   0.179   1.999
 7051SOL    HW122052   0.118   0.122   1.920
 7051SOL    HW222053   0.125   0.133   2.083
 7052SOL     OW22054   5.977   6.883   2.939
 7052SOL    HW122055   5.984   6.959   2.874
 7052SOL    HW222056   5.901   6.901   3.002
 7053SOL     OW22057   1.682   3.264   3.684
 7053SOL    HW122058   1.767   3.274   3.735
 7053SOL    HW222059   1.609   3.233   3.746
 7054SOL     OW22060   0.078   0.501   1.018
 7054SOL    HW122061   0.164   0.535   1.056
 7054SOL    HW222062   0.002   0.553   1.056
 7055SOL     OW22063   1.975   0.615   6.507
 7055SOL    HW122064   1.965   0.678   6.584
 7055SOL    HW222065   1.938   0.526   6.532
 7056SOL     OW22066   6.373   5.728   1.220
 7056SOL    HW122067   6.471   5.733   1.240
 7056SOL    HW222068   6.351   5.638   1.182
 7057SOL     OW22069   2.617   4.974   4.671
 7057SOL    HW122070   2.681   5.047   4.696
 7057SOL    HW222071   2.636   4.893   4.726
 7058SOL     OW22072   5.121   2.351   6.858
 7058SOL    HW122073   5.140   2.449   6.857
 7058SOL    HW222074   5.023   2.335   6.846
 7059SOL     OW22075   2.085   1.266   4.524
 7059SOL    HW122076   2.103   1.363   4.515
 7059SOL    HW222077   2.097   1.221   4.435
 7060SOL     OW22078   3.379   6.746   2.559
 7060SOL    HW122079   3.365   6.678   2.487
 7060SOL    HW222080   3.371   6.838   2.519
 7061SOL     OW22081   1.320   1.692   2.754
 7061SOL    HW122082   1.238   1.685   2.696
 7061SOL    HW222083   1.394   1.640   2.713
 7062SOL     OW22084   4.576   1.620   3.936
 7062SOL    HW122085   4.511   1.678   3.888
 7062SOL    HW222086   4.592   1.537   3.883
 7063SOL     OW22087   0.565   6.913   2.432
 7063SOL    HW122088   0.497   6.895   2.503
 7063SOL    HW222089   0.617   6.995   2.456
 7064SOL     OW22090   4.976   2.025   5.203
 7064SOL    HW122091   4.880   2.001   5.219
 7064SOL    HW222092   5.004   1.993   5.113
 7065SOL     OW22093   3.341   4.402   5.340
 7065SOL    HW122094   3.273   4.476   5.347
 7065SOL    HW222095   3.350   4.358   5.430
 7066SOL     OW22096   3.955   0.831   7.021
 7066SOL    HW122097   4.017   0.849   6.944
 7066SOL    HW222098   3.913   0.742   7.010
 7067SOL     OW22099   1.969   3.216   0.028
 7067SOL    HW122100   2.017   3.243   0.112
 7067SOL    HW222101   1.973   3.290   6.987
 7068SOL     OW22102   5.517   4.176   4.262
 7068SOL    HW122103   5.443   4.136   4.207
 7068SOL    HW222104   5.546   4.262   4.221
 7069SOL     OW22105   5.989   0.628   5.850
 7069SOL    HW122106   5.947   0.538   5.838
 7069SOL    HW222107   6.085   0.617   5.876
 7070SOL     OW22108   0.183   0.194   4.694
 7070SOL    HW122109   0.181   0.121   4.625
 7070SOL    HW222110   0.091   0.212   4.726
 7071SOL     OW22111   5.210   6.936   6.379
 7071SOL    HW122112   5.234   6.893   6.466
 7071SOL    HW222113   5.113   6.958   6.378
 7072SOL     OW22114   0.687   4.409   6.663
 7072SOL    HW122115   0.713   4.350   6.739
 7072SOL    HW222116   0.646   4.493   6.698
 7073SOL     OW22117   4.539   0.595   3.299
 7073SOL    HW122118   4.518   0.605   3.397
 7073SOL    HW222119   4.547   0.685   3.258
 7074SOL     OW22120   6.228   3.921   3.210
 7074SOL    HW122121   6.268   4.010   3.231
 7074SOL    HW222122   6.302   3.856   3.191
 7075SOL     OW22123   3.425   5.006   5.025
 7075SOL    HW122124   3.455   4.915   5.056
 7075SOL    HW222125   3.330   5.001   4.995
 7076SOL     OW22126   5.775   3.561   2.628
 7076SOL    HW122127   5.716   3.480   2.625
 7076SOL    HW222128   5.869   3.534   2.644
 7077SOL     OW22129   2.679   4.952   2.262
 7077SOL    HW122130   2.745   4.884   2.231
 7077SOL    HW222131   2.652   5.011   2.185
 7078SOL     OW22132   5.411   7.018   0.451
 7078SOL    HW122133   5.422   6.984   0.545
 7078SOL    HW222134   5.482   0.059   0.431
 7079SOL     OW22135   1.115   6.675   4.099
 7079SOL    HW122136   1.136   6.724   4.015
 7079SOL    HW222137   1.157   6.585   4.097
 7080SOL     OW22138   3.856   1.876   5.119
 7080SOL    HW122139   3.933   1.872   5.055
 7080SOL    HW222140   3.846   1.787   5.164
 7081SOL     OW22141   1.510   0.812   6.867
 7081SOL    HW122142   1.548   0.904   6.865
 7081SOL    HW222143   1.462   0.797   6.953
 7082SOL     OW22144   6.562   3.854   2.285
 7082SOL    HW122145   6.464   3.861   2.301
 7082SOL    HW222146   6.611   3.910   2.352
 7083SOL     OW22147   6.693   2.441   2.225
 7083SOL    HW122148   6.646   2.529   2.229
 7083SOL    HW222149   6.648   2.377   2.288
 7084SOL     OW22150   1.018   5.533   0.243
 7084SOL    HW122151   1.061   5.620   0.268
 7084SOL    HW222152   0.968   5.497   0.322
 7085SOL     OW22153   0.340   2.844   2.392
 7085SOL    HW122154   0.242   2.860   2.382
 7085SOL    HW222155   0.364   2.836   2.488
 7086SOL     OW22156   6.045   0.698   6.335
 7086SOL    HW122157   6.045   0.798   6.325
 7086SOL    HW222158   5.967   0.659   6.287
 7087SOL     OW22159   5.799   2.950   3.263
 7087SOL    HW122160   5.896   2.955   3.237
 7087SOL    HW222161   5.793   2.924   3.360
 7088SOL     OW22162   5.767   1.515   5.358
 7088SOL    HW122163   5.700   1.528   5.432
 7088SOL    HW222164   5.814   1.602   5.341
 7089SOL     OW22165   4.180   5.511   1.806
 7089SOL    HW122166   4.183   5.411   1.809
 7089SOL    HW222167   4.087   5.542   1.823
 7090SOL     OW22168   3.568   1.510   1.344
 7090SOL    HW122169   3.574   1.411   1.359
 7090SOL    HW222170   3.491   1.547   1.396
 7091SOL     OW22171   0.759   6.704   0.458
 7091SOL    HW122172   0.748   6.800   0.433
 7091SOL    HW222173   0.769   6.649   0.375
 7092SOL     OW22174   4.414   2.223   6.427
 7092SOL    HW122175   4.385   2.158   6.357
 7092SOL    HW222176   4.334   2.265   6.469
 7093SOL     OW22177   3.213   4.015   0.540
 7093SOL    HW122178   3.241   3.920   0.525
 7093SOL    HW222179   3.268   4.076   0.483
 7094SOL     OW22180   2.051   0.130   5.553
 7094SOL    HW122181   2.053   0.223   5.590
 7094SOL    HW222182   2.142   0.090   5.558
 7095SOL     OW22183   2.988   4.624   5.677
 7095SOL    HW122184   3.010   4.688   5.603
 7095SOL    HW222185   2.939   4.545   5.639
 7096SOL     OW22186   6.833   0.703   0.784
 7096SOL    HW122187   6.785   0.737   0.703
 7096SOL    HW222188   6.922   0.665   0.756
 7097SOL     OW22189   5.527   0.341   1.777
 7097SOL    HW122190   5.527   0.271   1.848
 7097SOL    HW222191   5.575   0.422   1.810
 7098SOL     OW22192   1.504   6.612   4.365
 7098SOL    HW122193   1.597   6.601   4.329
 7098SOL    HW222194   1.443   6.546   4.323
 7099SOL     OW22195   3.161   2.060   4.029
 7099SOL    HW122196   3.108   1.975   4.038
 7099SOL    HW222197   3.133   2.108   3.946
 7100SOL     OW22198   0.339   3.496   0.931
 7100SOL    HW122199   0.382   3.473   0.844
 7100SOL    HW222200   0.248   3.455   0.935
 7101SOL     OW22201   1.865   6.836   5.443
 7101SOL    HW122202   1.811   6.772   5.498
 7101SOL    HW222203   1.962   6.814   5.453
 7102SOL     OW22204   5.057   0.807   0.820
 7102SOL    HW122205   5.098   0.722   0.855
 7102SOL    HW222206   5.124   0.857   0.766
 7103SOL     OW22207   5.098   5.411   2.537
 7103SOL    HW122208   5.025   5.414   2.605
 7103SOL    HW222209   5.088   5.329   2.481
 7104SOL     OW22210   5.173   3.232   3.731
 7104SOL    HW122211   5.130   3.302   3.788
 7104SOL    HW222212   5.210   3.160   3.790
 7105SOL     OW22213   3.304   4.000   4.031
 7105SOL    HW122214   3.261   3.917   4.067
 7105SOL    HW222215   3.306   4.070   4.102
 7106SOL     OW22216   3.657   2.926   1.389
 7106SOL    HW122217   3.594   2.943   1.313
 7106SOL    HW222218   3.610   2.942   1.476
 7107SOL     OW22219   3.880   0.128   6.985
 7107SOL    HW122220   3.899   0.056   0.027
 7107SOL    HW222221   3.967   0.165   6.952
 7108SOL     OW22222   3.146   6.450   2.815
 7108SOL    HW122223   3.050   6.452   2.786
 7108SOL    HW222224   3.188   6.539   2.797
 7109SOL     OW22225   1.992   0.277   5.795
 7109SOL    HW122226   2.025   0.221   5.871
 7109SOL    HW222227   1.977   0.371   5.826
 7110SOL     OW22228   3.113   6.243   4.834
 7110SOL    HW122229   3.067   6.204   4.914
 7110SOL    HW222230   3.083   6.195   4.752
 7111SOL     OW22231   1.002   0.462   3.673
 7111SOL    HW122232   0.933   0.402   3.633
 7111SOL    HW222233   0.957   0.531   3.730
 7112SOL     OW22234   1.751   4.702   4.499
 7112SOL    HW122235   1.797   4.634   4.556
 7112SOL    HW222236   1.792   4.701   4.408
 7113SOL     OW22237   3.195   4.984   4.923
 7113SOL    HW122238   3.243   4.933   4.852
 7113SOL    HW222239   3.125   4.926   4.964
 7114SOL     OW22240   4.977   4.998   0.691
 7114SOL    HW122241   4.994   5.092   0.721
 7114SOL    HW222242   5.024   4.935   0.753
 7115SOL     OW22243   6.289   4.408   0.081
 7115SOL    HW122244   6.209   4.349   0.075
 7115SOL    HW222245   6.316   4.438   7.015
 7116SOL     OW22246   6.702   3.602   4.214
 7116SOL    HW122247   6.793   3.564   4.230
 7116SOL    HW222248   6.695   3.693   4.255
 7117SOL     OW22249   6.076   0.243   3.622
 7117SOL    HW122250   6.069   0.149   3.655
 7117SOL    HW222251   6.163   0.257   3.576
 7118SOL     OW22252   4.089   4.529   5.326
 7118SOL    HW122253   4.129   4.475   5.401
 7118SOL    HW222254   4.128   4.500   5.239
 7119SOL     OW22255   4.665   0.139   4.970
 7119SOL    HW122256   4.579   0.143   4.919
 7119SOL    HW222257   4.709   0.229   4.967
 7120SOL     OW22258   4.850   1.305   1.055
 7120SOL    HW122259   4.843   1.288   0.957
 7120SOL    HW222260   4.892   1.395   1.071
 7121SOL     OW22261   0.499   6.459   3.603
 7121SOL    HW122262   0.431   6.400   3.646
 7121SOL    HW222263   0.539   6.520   3.672
 7122SOL     OW22264   3.114   6.938   5.995
 7122SOL    HW122265   3.153   6.870   6.057
 7122SOL    HW222266   3.104   6.898   5.903
 7123SOL     OW22267   5.503   5.101   5.253
 7123SOL    HW122268   5.516   5.011   5.296
 7123SOL    HW222269   5.585   5.157   5.267
 7124SOL     OW22270   0.874   2.376   1.091
 7124SOL    HW122271   0.801   2.314   1.122
 7124SOL    HW222272   0.962   2.332   1.108
 7125SOL     OW22273   0.990   0.215   1.528
 7125SOL    HW122274   0.932   0.163   1.591
 7125SOL    HW222275   0.993   0.168   1.439
 7126SOL     OW22276   4.141   6.219   1.526
 7126SOL    HW122277   4.172   6.268   1.444
 7126SOL    HW222278   4.121   6.285   1.598
 7127SOL     OW22279   3.175   6.285   5.310
 7127SOL    HW122280   3.200   6.247   5.399
 7127SOL    HW222281   3.249   6.267   5.244
 7128SOL     OW22282   3.441   4.226   6.437
 7128SOL    HW122283   3.457   4.275   6.523
 7128SOL    HW222284   3.418   4.291   6.365
 7129SOL     OW22285   0.049   0.860   1.185
 7129SOL    HW122286   0.136   0.812   1.176
 7129SOL    HW222287   0.032   0.879   1.282
 7130SOL     OW22288   3.220   6.070   4.210
 7130SOL    HW122289   3.221   6.110   4.302
 7130SOL    HW222290   3.185   6.138   4.145
 7131SOL     OW22291   4.035   0.989   2.285
 7131SOL    HW122292   4.008   1.085   2.297
 7131SOL    HW222293   3.977   0.931   2.342
 7132SOL     OW22294   5.500   3.814   7.007
 7132SOL    HW122295   5.432   3.860   0.039
 7132SOL    HW222296   5.526   3.727   0.024
 7133SOL     OW22297   3.663   5.488   3.483
 7133SOL    HW122298   3.708   5.504   3.571
 7133SOL    HW222299   3.588   5.423   3.496
 7134SOL     OW22300   5.951   5.480   1.465
 7134SOL    HW122301   5.952   5.461   1.563
 7134SOL    HW222302   6.015   5.554   1.444
 7135SOL     OW22303   2.270   2.927   1.800
 7135SOL    HW122304   2.218   2.906   1.717
 7135SOL    HW222305   2.259   3.024   1.822
 7136SOL     OW22306   2.950   1.554   1.824
 7136SOL    HW122307   3.019   1.551   1.752
 7136SOL    HW222308   2.945   1.647   1.861
 7137SOL     OW22309   2.692   2.030   1.725
 7137SOL    HW122310   2.758   2.104   1.739
 7137SOL    HW222311   2.684   1.976   1.809
 7138SOL     OW22312   1.747   1.917   0.391
 7138SOL    HW122313   1.714   1.844   0.451
 7138SOL    HW222314   1.731   2.006   0.435
 7139SOL     OW22315   6.328   5.748   1.553
 7139SOL    HW122316   6.361   5.722   1.462
 7139SOL    HW222317   6.402   5.735   1.620
 7140SOL     OW22318   6.574   3.213   0.531
 7140SOL    HW122319   6.530   3.298   0.503
 7140SOL    HW222320   6.533   3.136   0.483
 7141SOL     OW22321   3.944   6.589   1.192
 7141SOL    HW122322   3.918   6.664   1.132
 7141SOL    HW222323   3.871   6.520   1.192
 7142SOL     OW22324   3.324   0.437   4.780
 7142SOL    HW122325   3.344   0.466   4.687
 7142SOL    HW222326   3.256   0.364   4.778
 7143SOL     OW22327   2.545   4.778   6.667
 7143SOL    HW122328   2.637   4.810   6.691
 7143SOL    HW222329   2.553   4.695   6.611
 7144SOL     OW22330   6.451   1.150   4.288
 7144SOL    HW122331   6.478   1.196   4.373
 7144SOL    HW222332   6.482   1.203   4.210
 7145SOL     OW22333   4.862   2.224   0.167
 7145SOL    HW122334   4.782   2.266   0.210
 7145SOL    HW222335   4.835   2.140   0.120
 7146SOL     OW22336   2.443   0.962   5.291
 7146SOL    HW122337   2.516   0.909   5.250
 7146SOL    HW222338   2.373   0.982   5.222
 7147SOL     OW22339   5.824   5.030   2.283
 7147SOL    HW122340   5.759   5.077   2.224
 7147SOL    HW222341   5.830   5.077   2.370
 7148SOL     OW22342   6.583   6.326   0.798
 7148SOL    HW122343   6.565   6.376   0.713
 7148SOL    HW222344   6.510   6.346   0.864
 7149SOL     OW22345   6.811   5.138   4.312
 7149SOL    HW122346   6.859   5.116   4.398
 7149SOL    HW222347   6.723   5.180   4.333
 7150SOL     OW22348   3.798   3.667   6.866
 7150SOL    HW122349   3.752   3.754   6.852
 7150SOL    HW222350   3.896   3.678   6.849
 7151SOL     OW22351   3.566   0.427   0.947
 7151SOL    HW122352   3.474   0.447   0.913
 7151SOL    HW222353   3.628   0.415   0.870
 7152SOL     OW22354   0.341   1.679   6.644
 7152SOL    HW122355   0.298   1.683   6.554
 7152SOL    HW222356   0.402   1.758   6.655
 7153SOL     OW22357   3.685   6.404   0.909
 7153SOL    HW122358   3.602   6.387   0.963
 7153SOL    HW222359   3.698   6.329   0.844
 7154SOL     OW22360   4.073   1.477   2.074
 7154SOL    HW122361   4.109   1.384   2.079
 7154SOL    HW222362   4.130   1.533   2.014
 7155SOL     OW22363   2.998   1.980   2.448
 7155SOL    HW122364   2.953   2.067   2.468
 7155SOL    HW222365   3.079   1.996   2.393
 7156SOL     OW22366   6.286   3.738   0.133
 7156SOL    HW122367   6.339   3.813   0.173
 7156SOL    HW222368   6.349   3.673   0.089
 7157SOL     OW22369   6.004   4.627   6.467
 7157SOL    HW122370   6.049   4.700   6.415
 7157SOL    HW222371   6.068   4.592   6.536
 7158SOL     OW22372   5.021   6.904   3.940
 7158SOL    HW122373   5.070   6.984   3.906
 7158SOL    HW222374   5.015   6.836   3.867
 7159SOL     OW22375   0.739   5.880   3.275
 7159SOL    HW122376   0.762   5.831   3.190
 7159SOL    HW222377   0.647   5.918   3.267
 7160SOL     OW22378   5.426   6.770   2.887
 7160SOL    HW122379   5.396   6.840   2.951
 7160SOL    HW222380   5.526   6.768   2.885
 7161SOL     OW22381   4.026   3.214   3.641
 7161SOL    HW122382   4.057   3.221   3.736
 7161SOL    HW222383   3.981   3.126   3.627
 7162SOL     OW22384   0.357   4.968   2.089
 7162SOL    HW122385   0.378   5.055   2.045
 7162SOL    HW222386   0.310   4.985   2.176
 7163SOL     OW22387   1.455   1.256   1.859
 7163SOL    HW122388   1.509   1.194   1.916
 7163SOL    HW222389   1.427   1.208   1.776
 7164SOL     OW22390   1.800   1.067   6.099
 7164SOL    HW122391   1.749   0.988   6.066
 7164SOL    HW222392   1.860   1.101   6.027
 7165SOL     OW22393   6.612   0.593   0.327
 7165SOL    HW122394   6.540   0.660   0.310
 7165SOL    HW222395   6.578   0.522   0.390
 7166SOL     OW22396   5.039   6.529   6.107
 7166SOL    HW122397   4.988   6.581   6.176
 7166SOL    HW222398   5.137   6.536   6.125
 7167SOL     OW22399   5.801   2.003   5.112
 7167SOL    HW122400   5.746   2.058   5.051
 7167SOL    HW222401   5.855   1.937   5.059
 7168SOL     OW22402   2.822   1.089   1.979
 7168SOL    HW122403   2.811   1.104   1.881
 7168SOL    HW222404   2.803   1.174   2.028
 7169SOL     OW22405   2.061   4.259   6.136
 7169SOL    HW122406   2.037   4.173   6.090
 7169SOL    HW222407   2.029   4.336   6.081
 7170SOL     OW22408   4.335   1.057   1.786
 7170SOL    HW122409   4.287   1.128   1.838
 7170SOL    HW222410   4.431   1.082   1.776
 7171SOL     OW22411   6.275   4.872   0.658
 7171SOL    HW122412   6.187   4.828   0.641
 7171SOL    HW222413   6.313   4.837   0.744
 7172SOL     OW22414   1.144   1.140   4.321
 7172SOL    HW122415   1.162   1.042   4.323
 7172SOL    HW222416   1.140   1.175   4.414
 7173SOL     OW22417   5.102   6.328   6.829
 7173SOL    HW122418   5.173   6.267   6.795
 7173SOL    HW222419   5.144   6.413   6.863
 7174SOL     OW22420   5.905   4.500   1.663
 7174SOL    HW122421   5.987   4.464   1.617
 7174SOL    HW222422   5.881   4.441   1.739
 7175SOL     OW22423   6.094   3.803   5.876
 7175SOL    HW122424   6.002   3.767   5.888
 7175SOL    HW222425   6.132   3.771   5.789
 7176SOL     OW22426   0.036   1.211   4.840
 7176SOL    HW122427   0.027   1.204   4.939
 7176SOL    HW222428   0.106   1.147   4.808
 7177SOL     OW22429   1.870   5.184   4.608
 7177SOL    HW122430   1.851   5.266   4.662
 7177SOL    HW222431   1.807   5.111   4.635
 7178SOL     OW22432   1.255   1.166   5.193
 7178SOL    HW122433   1.169   1.114   5.204
 7178SOL    HW222434   1.290   1.154   5.101
 7179SOL     OW22435   3.891   5.742   6.486
 7179SOL    HW122436   3.837   5.663   6.516
 7179SOL    HW222437   3.984   5.734   6.522
 7180SOL     OW22438   1.197   4.744   1.344
 7180SOL    HW122439   1.177   4.652   1.376
 7180SOL    HW222440   1.289   4.771   1.374
 7181SOL     OW22441   2.608   1.400   5.827
 7181SOL    HW122442   2.599   1.365   5.734
 7181SOL    HW222443   2.549   1.479   5.840
 7182SOL     OW22444   0.982   3.416   4.208
 7182SOL    HW122445   1.042   3.457   4.139
 7182SOL    HW222446   0.988   3.468   4.293
 7183SOL     OW22447   0.878   6.389   1.836
 7183SOL    HW122448   0.834   6.429   1.756
 7183SOL    HW222449   0.977   6.381   1.819
 7184SOL     OW22450   6.624   0.218   3.464
 7184SOL    HW122451   6.625   0.194   3.562
 7184SOL    HW222452   6.588   0.141   3.412
 7185SOL     OW22453   5.006   0.389   5.027
 7185SOL    HW122454   5.077   0.392   4.956
 7185SOL    HW222455   4.917   0.378   4.984
 7186SOL     OW22456   0.210   0.008   6.720
 7186SOL    HW122457   0.208   6.953   6.779
 7186SOL    HW222458   0.286   0.001   6.656
 7187SOL     OW22459   2.865   3.286   4.939
 7187SOL    HW122460   2.770   3.253   4.935
 7187SOL    HW222461   2.907   3.278   4.849
 7188SOL     OW22462   4.386   5.004   6.881
 7188SOL    HW122463   4.330   5.055   6.946
 7188SOL    HW222464   4.328   4.941   6.829
 7189SOL     OW22465   6.155   2.241   5.237
 7189SOL    HW122466   6.081   2.186   5.275
 7189SOL    HW222467   6.191   2.303   5.307
 7190SOL     OW22468   5.968   5.283   1.295
 7190SOL    HW122469   5.976   5.355   1.364
 7190SOL    HW222470   5.876   5.244   1.297
 7191SOL     OW22471   0.592   3.986   3.155
 7191SOL    HW122472   0.557   3.956   3.244
 7191SOL    HW222473   0.536   3.947   3.082
 7192SOL     OW22474   1.697   4.831   6.691
 7192SOL    HW122475   1.677   4.779   6.608
 7192SOL    HW222476   1.763   4.779   6.747
 7193SOL     OW22477   2.323   2.676   2.475
 7193SOL    HW122478   2.402   2.712   2.526
 7193SOL    HW222479   2.352   2.599   2.419
 7194SOL     OW22480   3.255   2.629   5.986
 7194SOL    HW122481   3.157   2.613   5.996
 7194SOL    HW222482   3.294   2.654   6.074
 7195SOL     OW22483   0.325   3.293   6.239
 7195SOL    HW122484   0.315   3.333   6.148
 7195SOL    HW222485   0.420   3.303   6.270
 7196SOL     OW22486   3.289   4.077   2.524
 7196SOL    HW122487   3.311   4.125   2.439
 7196SOL    HW222488   3.252   3.986   2.503
 7197SOL     OW22489   1.877   3.676   5.691
 7197SOL    HW122490   1.909   3.627   5.610
 7197SOL    HW222491   1.945   3.669   5.764
 7198SOL     OW22492   6.455   1.327   1.024
 7198SOL    HW122493   6.362   1.352   1.000
 7198SOL    HW222494   6.512   1.409   1.030
 7199SOL     OW22495   1.199   0.552   2.229
 7199SOL    HW122496   1.198   0.583   2.134
 7199SOL    HW222497   1.139   0.610   2.284
 7200SOL     OW22498   1.832   2.195   0.540
 7200SOL    HW122499   1.876   2.195   0.629
 7200SOL    HW222500   1.737   2.164   0.550
 7201SOL     OW22501   6.015   5.833   4.245
 7201SOL    HW122502   6.030   5.842   4.343
 7201SOL    HW222503   5.980   5.919   4.208
 7202SOL     OW22504   4.754   0.761   5.810
 7202SOL    HW122505   4.837   0.814   5.828
 7202SOL    HW222506   4.693   0.767   5.889
 7203SOL     OW22507   0.347   1.916   2.010
 7203SOL    HW122508   0.360   1.909   1.911
 7203SOL    HW222509   0.434   1.940   2.053
 7204SOL     OW22510   0.140   1.446   1.410
 7204SOL    HW122511   0.139   1.395   1.496
 7204SOL    HW222512   0.050   1.486   1.394
 7205SOL     OW22513   2.315   2.258   5.478
 7205SOL    HW122514   2.410   2.281   5.455
 7205SOL    HW222515   2.292   2.168   5.440
 7206SOL     OW22516   1.921   2.181   1.252
 7206SOL    HW122517   1.985   2.210   1.181
 7206SOL    HW222518   1.931   2.240   1.332
 7207SOL     OW22519   1.485   2.258   4.003
 7207SOL    HW122520   1.428   2.282   3.925
 7207SOL    HW222521   1.428   2.252   4.085
 7208SOL     OW22522   3.280   0.843   4.659
 7208SOL    HW122523   3.345   0.919   4.663
 7208SOL    HW222524   3.199   0.865   4.712
 7209SOL     OW22525   2.755   2.028   1.973
 7209SOL    HW122526   2.779   2.125   1.982
 7209SOL    HW222527   2.677   2.008   2.032
 7210SOL     OW22528   2.674   1.670   3.299
 7210SOL    HW122529   2.666   1.739   3.370
 7210SOL    HW222530   2.583   1.635   3.276
 7211SOL     OW22531   2.879   5.961   5.928
 7211SOL    HW122532   2.792   5.914   5.914
 7211SOL    HW222533   2.884   6.039   5.866
 7212SOL     OW22534   5.703   4.822   6.020
 7212SOL    HW122535   5.729   4.916   6.043
 7212SOL    HW222536   5.608   4.806   6.046
 7213SOL     OW22537   3.324   1.178   0.709
 7213SOL    HW122538   3.313   1.086   0.748
 7213SOL    HW222539   3.406   1.220   0.747
 7214SOL     OW22540   0.582   1.166   6.445
 7214SOL    HW122541   0.546   1.175   6.352
 7214SOL    HW222542   0.642   1.086   6.450
 7215SOL     OW22543   0.132   2.838   2.978
 7215SOL    HW122544   0.160   2.860   3.071
 7215SOL    HW222545   0.040   2.799   2.979
 7216SOL     OW22546   3.070   6.026   3.123
 7216SOL    HW122547   3.011   5.999   3.047
 7216SOL    HW222548   3.094   6.123   3.114
 7217SOL     OW22549   1.129   4.216   3.753
 7217SOL    HW122550   1.043   4.234   3.706
 7217SOL    HW222551   1.133   4.120   3.780
 7218SOL     OW22552   6.242   3.603   4.749
 7218SOL    HW122553   6.190   3.626   4.667
 7218SOL    HW222554   6.199   3.645   4.829
 7219SOL     OW22555   3.236   6.386   1.802
 7219SOL    HW122556   3.239   6.309   1.866
 7219SOL    HW222557   3.185   6.462   1.844
 7220SOL     OW22558   6.631   4.490   4.130
 7220SOL    HW122559   6.619   4.514   4.226
 7220SOL    HW222560   6.636   4.390   4.121
 7221SOL     OW22561   3.391   5.873   4.939
 7221SOL    HW122562   3.461   5.898   5.004
 7221SOL    HW222563   3.301   5.884   4.981
 7222SOL     OW22564   6.841   6.569   3.474
 7222SOL    HW122565   6.861   6.487   3.419
 7222SOL    HW222566   6.766   6.549   3.536
 7223SOL     OW22567   1.860   2.252   0.842
 7223SOL    HW122568   1.941   2.271   0.897
 7223SOL    HW222569   1.817   2.167   0.873
 7224SOL     OW22570   4.204   2.268   3.521
 7224SOL    HW122571   4.120   2.274   3.468
 7224SOL    HW222572   4.196   2.194   3.588
 7225SOL     OW22573   1.931   6.882   0.704
 7225SOL    HW122574   2.000   6.858   0.636
 7225SOL    HW222575   1.915   6.804   0.765
 7226SOL     OW22576   6.474   0.888   6.922
 7226SOL    HW122577   6.401   0.834   6.881
 7226SOL    HW222578   6.516   0.836   6.996
 7227SOL     OW22579   2.845   0.836   2.090
 7227SOL    HW122580   2.862   0.924   2.046
 7227SOL    HW222581   2.916   0.817   2.157
 7228SOL     OW22582   0.803   2.266   2.325
 7228SOL    HW122583   0.825   2.327   2.249
 7228SOL    HW222584   0.704   2.261   2.336
 7229SOL     OW22585   6.710   0.202   4.585
 7229SOL    HW122586   6.780   0.166   4.523
 7229SOL    HW222587   6.745   0.198   4.679
 7230SOL     OW22588   2.485   4.985   4.441
 7230SOL    HW122589   2.489   4.886   4.432
 7230SOL    HW222590   2.498   5.011   4.536
 7231SOL     OW22591   4.080   1.347   6.801
 7231SOL    HW122592   4.091   1.317   6.706
 7231SOL    HW222593   4.009   1.418   6.804
 7232SOL     OW22594   5.272   0.090   2.692
 7232SOL    HW122595   5.221   0.148   2.755
 7232SOL    HW222596   5.369   0.111   2.697
 7233SOL     OW22597   6.644   0.991   5.507
 7233SOL    HW122598   6.592   1.056   5.452
 7233SOL    HW222599   6.582   0.922   5.545
 7234SOL     OW22600   4.881   3.802   3.613
 7234SOL    HW122601   4.932   3.724   3.578
 7234SOL    HW222602   4.793   3.771   3.649
 7235SOL     OW22603   6.600   5.671   1.639
 7235SOL    HW122604   6.621   5.674   1.737
 7235SOL    HW222605   6.634   5.585   1.601
 7236SOL     OW22606   2.152   2.463   3.202
 7236SOL    HW122607   2.078   2.399   3.178
 7236SOL    HW222608   2.121   2.557   3.186
 7237SOL     OW22609   5.314   0.446   6.498
 7237SOL    HW122610   5.384   0.503   6.541
 7237SOL    HW222611   5.272   0.496   6.423
 7238SOL     OW22612   4.654   2.560   0.005
 7238SOL    HW122613   4.625   2.464   0.001
 7238SOL    HW222614   4.753   2.564   0.021
 7239SOL     OW22615   0.537   3.728   2.432
 7239SOL    HW122616   0.531   3.726   2.532
 7239SOL    HW222617   0.551   3.822   2.401
 7240SOL     OW22618   6.770   1.854   5.995
 7240SOL    HW122619   6.783   1.760   5.964
 7240SOL    HW222620   6.859   1.896   6.013
 7241SOL     OW22621   2.308   0.719   1.227
 7241SOL    HW122622   2.404   0.737   1.208
 7241SOL    HW222623   2.260   0.700   1.142
 7242SOL     OW22624   0.396   5.742   4.129
 7242SOL    HW122625   0.489   5.705   4.126
 7242SOL    HW222626   0.400   5.841   4.142
 7243SOL     OW22627   6.730   4.213   6.417
 7243SOL    HW122628   6.764   4.122   6.392
 7243SOL    HW222629   6.773   4.282   6.359
 7244SOL     OW22630   0.613   6.442   0.104
 7244SOL    HW122631   0.615   6.484   0.013
 7244SOL    HW222632   0.542   6.371   0.106
 7245SOL     OW22633   1.593   2.736   6.872
 7245SOL    HW122634   1.494   2.751   6.867
 7245SOL    HW222635   1.616   2.697   6.961
 7246SOL     OW22636   2.986   0.549   4.327
 7246SOL    HW122637   2.926   0.469   4.329
 7246SOL    HW222638   2.968   0.603   4.246
 7247SOL     OW22639   2.894   2.545   5.562
 7247SOL    HW122640   2.957   2.538   5.485
 7247SOL    HW222641   2.911   2.471   5.627
 7248SOL     OW22642   3.382   0.601   4.533
 7248SOL    HW122643   3.337   0.685   4.563
 7248SOL    HW222644   3.481   0.609   4.546
 7249SOL     OW22645   3.994   4.779   2.301
 7249SOL    HW122646   3.899   4.810   2.310
 7249SOL    HW222647   3.995   4.681   2.281
 7250SOL     OW22648   5.204   5.094   5.538
 7250SOL    HW122649   5.213   5.155   5.459
 7250SOL    HW222650   5.219   4.999   5.509
 7251SOL     OW22651   0.394   6.371   5.462
 7251SOL    HW122652   0.489   6.348   5.482
 7251SOL    HW222653   0.350   6.295   5.416
 7252SOL     OW22654   3.408   4.144   2.277
 7252SOL    HW122655   3.481   4.150   2.345
 7252SOL    HW222656   3.446   4.160   2.186
 7253SOL     OW22657   1.441   6.016   5.914
 7253SOL    HW122658   1.492   6.073   5.849
 7253SOL    HW222659   1.382   6.075   5.970
 7254SOL     OW22660   5.687   4.412   3.692
 7254SOL    HW122661   5.619   4.364   3.747
 7254SOL    HW222662   5.672   4.392   3.595
 7255SOL     OW22663   5.198   3.434   6.708
 7255SOL    HW122664   5.261   3.487   6.651
 7255SOL    HW222665   5.105   3.468   6.696
 7256SOL     OW22666   3.388   6.834   5.840
 7256SOL    HW122667   3.298   6.870   5.814
 7256SOL    HW222668   3.410   6.864   5.933
 7257SOL     OW22669   0.059   1.982   4.694
 7257SOL    HW122670   0.006   1.898   4.680
 7257SOL    HW222671   0.002   2.049   4.742
 7258SOL     OW22672   5.966   2.517   2.258
 7258SOL    HW122673   5.994   2.423   2.237
 7258SOL    HW222674   5.872   2.531   2.227
 7259SOL     OW22675   1.029   3.672   3.085
 7259SOL    HW122676   1.094   3.601   3.058
 7259SOL    HW222677   1.061   3.761   3.052
 7260SOL     OW22678   5.464   2.520   0.945
 7260SOL    HW122679   5.481   2.441   0.885
 7260SOL    HW222680   5.366   2.531   0.959
 7261SOL     OW22681   0.006   3.978   0.439
 7261SOL    HW122682   0.086   4.004   0.495
 7261SOL    HW222683   6.976   3.912   0.489
 7262SOL     OW22684   5.324   1.865   5.798
 7262SOL    HW122685   5.264   1.944   5.814
 7262SOL    HW222686   5.410   1.878   5.848
 7263SOL     OW22687   0.240   6.455   0.273
 7263SOL    HW122688   0.290   6.420   0.352
 7263SOL    HW222689   0.289   6.532   0.233
 7264SOL     OW22690   5.716   1.488   0.422
 7264SOL    HW122691   5.734   1.421   0.351
 7264SOL    HW222692   5.795   1.496   0.483
 7265SOL     OW22693   5.240   5.624   4.664
 7265SOL    HW122694   5.308   5.696   4.651
 7265SOL    HW222695   5.281   5.547   4.713
 7266SOL     OW22696   6.922   0.749   3.935
 7266SOL    HW122697   7.018   0.753   3.909
 7266SOL    HW222698   6.900   0.829   3.992
 7267SOL     OW22699   6.680   5.979   5.088
 7267SOL    HW122700   6.760   6.039   5.088
 7267SOL    HW222701   6.597   6.033   5.075
 7268SOL     OW22702   6.485   5.678   4.279
 7268SOL    HW122703   6.574   5.638   4.259
 7268SOL    HW222704   6.468   5.754   4.217
 7269SOL     OW22705   1.922   5.288   5.646
 7269SOL    HW122706   1.898   5.193   5.668
 7269SOL    HW222707   1.892   5.347   5.721
 7270SOL     OW22708   0.277   2.063   4.053
 7270SOL    HW122709   0.263   2.148   4.104
 7270SOL    HW222710   0.314   2.085   3.963
 7271SOL     OW22711   1.390   4.969   4.007
 7271SOL    HW122712   1.427   5.059   4.032
 7271SOL    HW222713   1.417   4.947   3.913
 7272SOL     OW22714   6.399   6.227   2.071
 7272SOL    HW122715   6.374   6.195   2.162
 7272SOL    HW222716   6.316   6.254   2.021
 7273SOL     OW22717   5.222   2.767   6.427
 7273SOL    HW122718   5.129   2.736   6.446
 7273SOL    HW222719   5.242   2.754   6.330
 7274SOL     OW22720   0.908   4.496   6.509
 7274SOL    HW122721   0.834   4.446   6.554
 7274SOL    HW222722   0.991   4.441   6.511
 7275SOL     OW22723   6.720   6.767   2.753
 7275SOL    HW122724   6.807   6.719   2.741
 7275SOL    HW222725   6.666   6.720   2.823
 7276SOL     OW22726   5.582   0.448   3.606
 7276SOL    HW122727   5.571   0.433   3.508
 7276SOL    HW222728   5.492   0.453   3.649
 7277SOL     OW22729   4.577   0.715   6.037
 7277SOL    HW122730   4.524   0.799   6.033
 7277SOL    HW222731   4.564   0.670   6.125
 7278SOL     OW22732   3.096   4.036   1.830
 7278SOL    HW122733   3.044   4.114   1.796
 7278SOL    HW222734   3.191   4.045   1.800
 7279SOL     OW22735   4.112   6.404   0.196
 7279SOL    HW122736   4.169   6.451   0.128
 7279SOL    HW222737   4.159   6.321   0.227
 7280SOL     OW22738   5.518   6.777   5.074
 7280SOL    HW122739   5.468   6.851   5.029
 7280SOL    HW222740   5.518   6.697   5.013
 7281SOL     OW22741   3.147   1.683   6.737
 7281SOL    HW122742   3.118   1.756   6.798
 7281SOL    HW222743   3.195   1.613   6.790
 7282SOL     OW22744   5.890   4.766   2.322
 7282SOL    HW122745   5.841   4.842   2.281
 7282SOL    HW222746   5.951   4.801   2.394
 7283SOL     OW22747   2.358   1.247   3.081
 7283SOL    HW122748   2.382   1.177   3.013
 7283SOL    HW222749   2.265   1.231   3.114
 7284SOL     OW22750   0.298   3.989   5.405
 7284SOL    HW122751   0.234   4.014   5.332
 7284SOL    HW222752   0.372   3.935   5.367
 7285SOL     OW22753   5.176   4.955   2.308
 7285SOL    HW122754   5.243   4.885   2.283
 7285SOL    HW222755   5.095   4.912   2.347
 7286SOL     OW22756   2.395   2.072   1.171
 7286SOL    HW122757   2.374   2.042   1.263
 7286SOL    HW222758   2.469   2.016   1.133
 7287SOL     OW22759   0.729   1.932   6.600
 7287SOL    HW122760   0.729   2.032   6.613
 7287SOL    HW222761   0.822   1.897   6.611
 7288SOL     OW22762   4.030   0.754   6.490
 7288SOL    HW122763   4.037   0.826   6.421
 7288SOL    HW222764   4.086   0.676   6.461
 7289SOL     OW22765   5.964   1.459   3.396
 7289SOL    HW122766   5.961   1.482   3.493
 7289SOL    HW222767   5.929   1.536   3.343
 7290SOL     OW22768   2.782   5.600   5.585
 7290SOL    HW122769   2.762   5.548   5.668
 7290SOL    HW222770   2.870   5.571   5.548
 7291SOL     OW22771   2.274   0.441   1.331
 7291SOL    HW122772   2.227   0.414   1.415
 7291SOL    HW222773   2.302   0.537   1.338
 7292SOL     OW22774   2.456   0.361   3.826
 7292SOL    HW122775   2.485   0.404   3.912
 7292SOL    HW222776   2.524   0.380   3.755
 7293SOL     OW22777   1.822   1.595   4.912
 7293SOL    HW122778   1.756   1.632   4.848
 7293SOL    HW222779   1.804   1.498   4.926
 7294SOL     OW22780   2.765   4.718   0.664
 7294SOL    HW122781   2.848   4.773   0.668
 7294SOL    HW222782   2.691   4.765   0.713
 7295SOL     OW22783   0.622   1.921   0.667
 7295SOL    HW122784   0.547   1.938   0.730
 7295SOL    HW222785   0.612   1.978   0.586
 7296SOL     OW22786   2.815   4.729   1.199
 7296SOL    HW122787   2.769   4.768   1.278
 7296SOL    HW222788   2.901   4.686   1.227
 7297SOL     OW22789   4.072   5.906   0.575
 7297SOL    HW122790   4.151   5.959   0.544
 7297SOL    HW222791   4.005   5.967   0.617
 7298SOL     OW22792   5.459   4.181   5.717
 7298SOL    HW122793   5.502   4.251   5.774
 7298SOL    HW222794   5.406   4.226   5.645
 7299SOL     OW22795   0.702   2.214   6.637
 7299SOL    HW122796   0.776   2.257   6.688
 7299SOL    HW222797   0.673   2.276   6.563
 7300SOL     OW22798   5.366   5.353   1.555
 7300SOL    HW122799   5.437   5.292   1.589
 7300SOL    HW222800   5.408   5.424   1.499
 7301SOL     OW22801   6.486   0.819   5.050
 7301SOL    HW122802   6.456   0.727   5.022
 7301SOL    HW222803   6.431   0.887   5.001
 7302SOL     OW22804   0.439   1.427   0.164
 7302SOL    HW122805   0.369   1.386   0.105
 7302SOL    HW222806   0.401   1.508   0.208
 7303SOL     OW22807   4.814   0.584   6.685
 7303SOL    HW122808   4.873   0.648   6.732
 7303SOL    HW222809   4.801   0.502   6.741
 7304SOL     OW22810   3.619   4.325   6.722
 7304SOL    HW122811   3.661   4.299   6.635
 7304SOL    HW222812   3.556   4.402   6.706
 7305SOL     OW22813   4.592   1.911   0.863
 7305SOL    HW122814   4.645   1.847   0.918
 7305SOL    HW222815   4.522   1.861   0.811
 7306SOL     OW22816   5.056   3.616   1.701
 7306SOL    HW122817   5.030   3.543   1.764
 7306SOL    HW222818   5.125   3.582   1.637
 7307SOL     OW22819   3.092   6.639   1.248
 7307SOL    HW122820   3.076   6.644   1.346
 7307SOL    HW222821   3.039   6.563   1.210
 7308SOL     OW22822   6.949   3.767   5.449
 7308SOL    HW122823   6.966   3.674   5.480
 7308SOL    HW222824   6.905   3.764   5.359
 7309SOL     OW22825   5.318   6.111   0.375
 7309SOL    HW122826   5.341   6.201   0.339
 7309SOL    HW222827   5.358   6.099   0.465
 7310SOL     OW22828   2.181   4.405   1.179
 7310SOL    HW122829   2.268   4.432   1.221
 7310SOL    HW222830   2.106   4.450   1.227
 7311SOL     OW22831   3.252   2.049   2.091
 7311SOL    HW122832   3.186   2.081   2.023
 7311SOL    HW222833   3.236   1.952   2.110
 7312SOL     OW22834   6.923   2.898   5.644
 7312SOL    HW122835   7.011   2.942   5.625
 7312SOL    HW222836   6.938   2.800   5.660
 7313SOL     OW22837   4.697   2.955   6.141
 7313SOL    HW122838   4.709   2.943   6.239
 7313SOL    HW222839   4.602   2.981   6.122
 7314SOL     OW22840   6.867   4.129   5.296
 7314SOL    HW122841   6.802   4.205   5.305
 7314SOL    HW222842   6.849   4.079   5.212
 7315SOL     OW22843   6.145   0.681   3.434
 7315SOL    HW122844   6.222   0.640   3.386
 7315SOL    HW222845   6.065   0.623   3.426
 7316SOL     OW22846   3.270   3.477   6.016
 7316SOL    HW122847   3.308   3.481   5.924
 7316SOL    HW222848   3.254   3.382   6.042
 7317SOL     OW22849   4.598   0.898   1.937
 7317SOL    HW122850   4.664   0.930   1.870
 7317SOL    HW222851   4.547   0.821   1.900
 7318SOL     OW22852   0.826   1.380   1.020
 7318SOL    HW122853   0.807   1.390   0.922
 7318SOL    HW222854   0.924   1.370   1.034
 7319SOL     OW22855   6.206   4.531   6.651
 7319SOL    HW122856   6.144   4.460   6.684
 7319SOL    HW222857   6.284   4.488   6.606
 7320SOL     OW22858   6.620   3.740   2.017
 7320SOL    HW122859   6.718   3.742   1.999
 7320SOL    HW222860   6.603   3.755   2.115
 7321SOL     OW22861   2.783   0.467   5.468
 7321SOL    HW122862   2.821   0.391   5.521
 7321SOL    HW222863   2.852   0.539   5.459
 7322SOL     OW22864   1.086   2.833   2.474
 7322SOL    HW122865   0.992   2.833   2.442
 7322SOL    HW222866   1.140   2.898   2.420
 7323SOL     OW22867   2.196   2.276   1.953
 7323SOL    HW122868   2.144   2.232   1.880
 7323SOL    HW222869   2.288   2.237   1.957
 7324SOL     OW22870   5.393   6.661   2.486
 7324SOL    HW122871   5.351   6.740   2.532
 7324SOL    HW222872   5.381   6.580   2.544
 7325SOL     OW22873   3.913   0.212   6.187
 7325SOL    HW122874   3.861   0.127   6.183
 7325SOL    HW222875   3.903   0.254   6.277
 7326SOL     OW22876   2.093   6.512   5.302
 7326SOL    HW122877   2.159   6.440   5.282
 7326SOL    HW222878   2.007   6.492   5.256
 7327SOL     OW22879   6.556   2.788   5.216
 7327SOL    HW122880   6.469   2.822   5.251
 7327SOL    HW222881   6.540   2.740   5.129
 7328SOL     OW22882   3.522   0.381   6.652
 7328SOL    HW122883   3.619   0.359   6.648
 7328SOL    HW222884   3.502   0.429   6.737
 7329SOL     OW22885   4.084   3.745   1.552
 7329SOL    HW122886   4.115   3.756   1.647
 7329SOL    HW222887   4.106   3.652   1.521
 7330SOL     OW22888   2.916   2.218   0.291
 7330SOL    HW122889   2.964   2.145   0.340
 7330SOL    HW222890   2.977   2.297   0.280
 7331SOL     OW22891   5.452   0.316   1.528
 7331SOL    HW122892   5.506   0.234   1.506
 7331SOL    HW222893   5.474   0.347   1.620
 7332SOL     OW22894   2.491   6.072   0.389
 7332SOL    HW122895   2.482   5.989   0.444
 7332SOL    HW222896   2.541   6.051   0.305
 7333SOL     OW22897   0.223   3.262   3.569
 7333SOL    HW122898   0.292   3.227   3.505
 7333SOL    HW222899   0.242   3.228   3.661
 7334SOL     OW22900   4.334   6.073   6.771
 7334SOL    HW122901   4.257   6.087   6.708
 7334SOL    HW222902   4.300   6.041   6.859
 7335SOL     OW22903   1.900   2.847   2.416
 7335SOL    HW122904   1.811   2.861   2.372
 7335SOL    HW222905   1.888   2.847   2.515
 7336SOL     OW22906   1.405   6.088   3.212
 7336SOL    HW122907   1.359   6.090   3.300
 7336SOL    HW222908   1.341   6.055   3.142
 7337SOL     OW22909   0.526   2.993   2.274
 7337SOL    HW122910   0.589   2.943   2.214
 7337SOL    HW222911   0.454   2.932   2.306
 7338SOL     OW22912   6.433   2.545   1.349
 7338SOL    HW122913   6.421   2.615   1.279
 7338SOL    HW222914   6.470   2.586   1.432
 7339SOL     OW22915   5.238   5.821   3.563
 7339SOL    HW122916   5.172   5.892   3.539
 7339SOL    HW222917   5.331   5.858   3.558
 7340SOL     OW22918   2.001   0.792   0.549
 7340SOL    HW122919   1.986   0.713   0.490
 7340SOL    HW222920   2.009   0.875   0.494
 7341SOL     OW22921   6.753   2.190   6.848
 7341SOL    HW122922   6.744   2.092   6.866
 7341SOL    HW222923   6.803   2.234   6.922
 7342SOL     OW22924   6.195   0.446   2.206
 7342SOL    HW122925   6.183   0.356   2.248
 7342SOL    HW222926   6.105   0.487   2.191
 7343SOL     OW22927   4.231   2.912   0.171
 7343SOL    HW122928   4.180   2.836   0.132
 7343SOL    HW222929   4.200   2.928   0.265
 7344SOL     OW22930   1.453   0.065   5.711
 7344SOL    HW122931   1.518   0.132   5.746
 7344SOL    HW222932   1.386   0.111   5.653
 7345SOL     OW22933   3.744   3.296   5.477
 7345SOL    HW122934   3.769   3.228   5.408
 7345SOL    HW222935   3.748   3.388   5.437
 7346SOL     OW22936   4.081   6.748   2.910
 7346SOL    HW122937   3.997   6.755   2.963
 7346SOL    HW222938   4.159   6.739   2.971
 7347SOL     OW22939   0.407   2.116   0.059
 7347SOL    HW122940   0.454   2.149   7.004
 7347SOL    HW222941   0.464   2.049   0.107
 7348SOL     OW22942   1.357   3.703   4.093
 7348SOL    HW122943   1.423   3.702   4.168
 7348SOL    HW222944   1.343   3.797   4.061
 7349SOL     OW22945   4.271   0.244   1.174
 7349SOL    HW122946   4.291   0.167   1.113
 7349SOL    HW222947   4.315   0.230   1.262
 7350SOL     OW22948   2.859   0.915   5.551
 7350SOL    HW122949   2.771   0.959   5.533
 7350SOL    HW222950   2.898   0.952   5.635
 7351SOL     OW22951   5.210   5.161   4.002
 7351SOL    HW122952   5.116   5.131   3.988
 7351SOL    HW222953   5.215   5.260   3.989
 7352SOL     OW22954   1.076   1.691   2.953
 7352SOL    HW122955   1.175   1.696   2.964
 7352SOL    HW222956   1.053   1.682   2.856
 7353SOL     OW22957   0.509   0.499   6.475
 7353SOL    HW122958   0.488   0.482   6.572
 7353SOL    HW222959   0.608   0.499   6.462
 7354SOL     OW22960   1.734   0.749   4.243
 7354SOL    HW122961   1.695   0.834   4.209
 7354SOL    HW222962   1.746   0.685   4.166
 7355SOL     OW22963   6.913   1.932   6.415
 7355SOL    HW122964   6.875   1.879   6.491
 7355SOL    HW222965   6.874   2.024   6.416
 7356SOL     OW22966   3.767   4.322   6.288
 7356SOL    HW122967   3.803   4.359   6.202
 7356SOL    HW222968   3.687   4.266   6.268
 7357SOL     OW22969   3.632   5.996   2.190
 7357SOL    HW122970   3.719   5.958   2.221
 7357SOL    HW222971   3.646   6.046   2.104
 7358SOL     OW22972   5.980   2.991   2.341
 7358SOL    HW122973   6.018   3.059   2.279
 7358SOL    HW222974   6.013   2.900   2.314
 7359SOL     OW22975   4.396   2.240   5.966
 7359SOL    HW122976   4.349   2.152   5.972
 7359SOL    HW222977   4.349   2.307   6.024
 7360SOL     OW22978   2.259   3.549   5.261
 7360SOL    HW122979   2.316   3.469   5.280
 7360SOL    HW222980   2.310   3.632   5.284
 7361SOL     OW22981   5.139   0.533   2.734
 7361SOL    HW122982   5.040   0.545   2.738
 7361SOL    HW222983   5.182   0.618   2.703
 7362SOL     OW22984   3.964   5.312   5.990
 7362SOL    HW122985   3.994   5.396   6.035
 7362SOL    HW222986   3.883   5.330   5.935
 7363SOL     OW22987   4.194   1.109   1.548
 7363SOL    HW122988   4.258   1.087   1.621
 7363SOL    HW222989   4.177   1.028   1.492
 7364SOL     OW22990   4.195   6.951   1.664
 7364SOL    HW122991   4.100   6.980   1.682
 7364SOL    HW222992   4.257   7.010   1.715
 7365SOL     OW22993   6.115   5.779   2.523
 7365SOL    HW122994   6.141   5.874   2.506
 7365SOL    HW222995   6.103   5.765   2.622
 7366SOL     OW22996   2.315   0.291   4.434
 7366SOL    HW122997   2.330   0.331   4.343
 7366SOL    HW222998   2.247   0.345   4.483
 7367SOL     OW22999   4.339   2.149   0.431
 7367SOL    HW123000   4.387   2.114   0.350
 7367SOL    HW223001   4.330   2.075   0.498
 7368SOL     OW23002   3.518   3.297   2.920
 7368SOL    HW123003   3.421   3.307   2.941
 7368SOL    HW223004   3.529   3.267   2.825
 7369SOL     OW23005   3.555   2.412   0.968
 7369SOL    HW123006   3.602   2.476   1.029
 7369SOL    HW223007   3.553   2.322   1.011
 7370SOL     OW23008   2.527   2.596   5.319
 7370SOL    HW123009   2.464   2.610   5.243
 7370SOL    HW223010   2.528   2.499   5.344
 7371SOL     OW23011   3.068   6.746   4.101
 7371SOL    HW123012   3.114   6.709   4.182
 7371SOL    HW223013   3.069   6.678   4.028
 7372SOL     OW23014   3.940   6.827   4.801
 7372SOL    HW123015   3.951   6.876   4.714
 7372SOL    HW223016   3.846   6.795   4.809
 7373SOL     OW23017   4.875   1.615   4.809
 7373SOL    HW123018   4.927   1.590   4.890
 7373SOL    HW223019   4.834   1.706   4.822
 7374SOL     OW23020   1.527   1.614   5.373
 7374SOL    HW123021   1.479   1.702   5.366
 7374SOL    HW223022   1.468   1.541   5.340
 7375SOL     OW23023   2.167   2.951   2.416
 7375SOL    HW123024   2.073   2.917   2.421
 7375SOL    HW223025   2.207   2.924   2.328
 7376SOL     OW23026   1.589   3.507   1.190
 7376SOL    HW123027   1.532   3.429   1.164
 7376SOL    HW223028   1.685   3.488   1.169
 7377SOL     OW23029   3.668   5.330   0.488
 7377SOL    HW123030   3.659   5.413   0.432
 7377SOL    HW223031   3.695   5.254   0.430
 7378SOL     OW23032   1.673   6.891   3.987
 7378SOL    HW123033   1.634   6.941   4.064
 7378SOL    HW223034   1.752   6.941   3.951
 7379SOL     OW23035   3.337   0.079   1.399
 7379SOL    HW123036   3.307   0.166   1.438
 7379SOL    HW223037   3.258   0.028   1.365
 7380SOL     OW23038   6.518   4.293   3.640
 7380SOL    HW123039   6.451   4.359   3.606
 7380SOL    HW223040   6.482   4.201   3.629
 7381SOL     OW23041   4.100   2.627   0.877
 7381SOL    HW123042   4.128   2.533   0.894
 7381SOL    HW223043   4.179   2.682   0.849
 7382SOL     OW23044   6.176   1.887   5.872
 7382SOL    HW123045   6.217   1.978   5.866
 7382SOL    HW223046   6.206   1.843   5.957
 7383SOL     OW23047   1.540   6.131   2.149
 7383SOL    HW123048   1.497   6.219   2.168
 7383SOL    HW223049   1.484   6.080   2.083
 7384SOL     OW23050   6.960   6.715   1.081
 7384SOL    HW123051   6.900   6.744   1.155
 7384SOL    HW223052   6.913   6.725   0.994
 7385SOL     OW23053   3.241   5.035   2.699
 7385SOL    HW123054   3.256   5.012   2.603
 7385SOL    HW223055   3.324   5.074   2.737
 7386SOL     OW23056   0.158   3.293   6.455
 7386SOL    HW123057   0.109   3.372   6.490
 7386SOL    HW223058   0.216   3.320   6.378
 7387SOL     OW23059   5.918   4.714   5.923
 7387SOL    HW123060   5.843   4.759   5.971
 7387SOL    HW223061   5.940   4.628   5.968
 7388SOL     OW23062   1.140   5.539   2.536
 7388SOL    HW123063   1.175   5.580   2.620
 7388SOL    HW223064   1.076   5.602   2.492
 7389SOL     OW23065   0.130   3.157   0.277
 7389SOL    HW123066   0.057   3.224   0.290
 7389SOL    HW223067   0.127   3.123   0.183
 7390SOL     OW23068   3.213   2.151   2.325
 7390SOL    HW123069   3.240   2.120   2.234
 7390SOL    HW223070   3.165   2.238   2.319
 7391SOL     OW23071   3.882   3.742   2.576
 7391SOL    HW123072   3.874   3.824   2.633
 7391SOL    HW223073   3.795   3.692   2.579
 7392SOL     OW23074   4.231   6.522   6.485
 7392SOL    HW123075   4.235   6.483   6.577
 7392SOL    HW223076   4.138   6.515   6.449
 7393SOL     OW23077   6.580   5.013   3.961
 7393SOL    HW123078   6.529   5.047   3.882
 7393SOL    HW223079   6.532   5.038   4.045
 7394SOL     OW23080   2.339   3.016   6.395
 7394SOL    HW123081   2.401   3.091   6.419
 7394SOL    HW223082   2.266   3.049   6.337
 7395SOL     OW23083   2.281   3.195   1.165
 7395SOL    HW123084   2.259   3.187   1.262
 7395SOL    HW223085   2.360   3.256   1.154
 7396SOL     OW23086   2.358   5.771   1.768
 7396SOL    HW123087   2.368   5.833   1.846
 7396SOL    HW223088   2.286   5.805   1.708
 7397SOL     OW23089   5.100   4.003   4.711
 7397SOL    HW123090   5.035   3.927   4.714
 7397SOL    HW223091   5.170   3.990   4.781
 7398SOL     OW23092   1.652   4.889   3.323
 7398SOL    HW123093   1.716   4.885   3.401
 7398SOL    HW223094   1.618   4.982   3.313
 7399SOL     OW23095   6.090   2.948   4.429
 7399SOL    HW123096   6.032   2.879   4.471
 7399SOL    HW223097   6.037   3.032   4.414
 7400SOL     OW23098   5.604   1.971   5.302
 7400SOL    HW123099   5.556   1.884   5.308
 7400SOL    HW223100   5.669   1.968   5.225
 7401SOL     OW23101   1.533   2.806   3.079
 7401SOL    HW123102   1.579   2.878   3.027
 7401SOL    HW223103   1.437   2.832   3.095
 7402SOL     OW23104   2.704   5.251   5.124
 7402SOL    HW123105   2.793   5.294   5.106
 7402SOL    HW223106   2.713   5.184   5.197
 7403SOL     OW23107   2.209   3.146   3.400
 7403SOL    HW123108   2.241   3.061   3.357
 7403SOL    HW223109   2.154   3.198   3.334
 7404SOL     OW23110   3.183   4.173   1.302
 7404SOL    HW123111   3.198   4.215   1.391
 7404SOL    HW223112   3.088   4.142   1.295
 7405SOL     OW23113   2.915   5.465   5.340
 7405SOL    HW123114   2.926   5.442   5.243
 7405SOL    HW223115   2.823   5.500   5.356
 7406SOL     OW23116   0.334   1.607   5.369
 7406SOL    HW123117   0.256   1.566   5.321
 7406SOL    HW223118   0.374   1.539   5.430
 7407SOL     OW23119   0.634   6.236   6.694
 7407SOL    HW123120   0.673   6.154   6.652
 7407SOL    HW223121   0.601   6.214   6.786
 7408SOL     OW23122   3.306   4.124   5.372
 7408SOL    HW123123   3.298   4.218   5.406
 7408SOL    HW223124   3.343   4.125   5.279
 7409SOL     OW23125   5.423   4.245   0.121
 7409SOL    HW123126   5.465   4.208   0.038
 7409SOL    HW223127   5.398   4.170   0.182
 7410SOL     OW23128   0.053   1.054   0.467
 7410SOL    HW123129   0.146   1.075   0.498
 7410SOL    HW223130   7.017   1.125   0.500
 7411SOL     OW23131   1.008   1.718   6.046
 7411SOL    HW123132   0.977   1.803   6.003
 7411SOL    HW223133   1.096   1.733   6.090
 7412SOL     OW23134   3.673   6.945   0.377
 7412SOL    HW123135   3.661   6.930   0.278
 7412SOL    HW223136   3.767   6.973   0.395
 7413SOL     OW23137   4.624   4.921   3.433
 7413SOL    HW123138   4.677   4.905   3.350
 7413SOL    HW223139   4.556   4.993   3.416
 7414SOL     OW23140   2.097   2.056   4.327
 7414SOL    HW123141   2.156   1.982   4.294
 7414SOL    HW223142   2.148   2.142   4.323
 7415SOL     OW23143   3.629   6.695   6.334
 7415SOL    HW123144   3.557   6.762   6.347
 7415SOL    HW223145   3.648   6.685   6.236
 7416SOL     OW23146   1.015   1.232   2.308
 7416SOL    HW123147   1.006   1.238   2.407
 7416SOL    HW223148   1.106   1.263   2.281
 7417SOL     OW23149   1.046   2.496   3.580
 7417SOL    HW123150   0.958   2.467   3.619
 7417SOL    HW223151   1.096   2.416   3.548
 7418SOL     OW23152   1.968   4.654   6.421
 7418SOL    HW123153   1.908   4.574   6.421
 7418SOL    HW223154   2.046   4.637   6.480
 7419SOL     OW23155   6.315   3.812   3.571
 7419SOL    HW123156   6.266   3.737   3.526
 7419SOL    HW223157   6.363   3.777   3.651
 7420SOL     OW23158   0.006   6.172   1.843
 7420SOL    HW123159   6.979   6.232   1.903
 7420SOL    HW223160   7.005   6.189   1.748
 7421SOL     OW23161   4.572   3.328   1.663
 7421SOL    HW123162   4.534   3.237   1.680
 7421SOL    HW223163   4.513   3.377   1.598
 7422SOL     OW23164   6.105   3.166   2.130
 7422SOL    HW123165   6.055   3.241   2.086
 7422SOL    HW223166   6.123   3.094   2.063
 7423SOL     OW23167   5.873   1.978   5.889
 7423SOL    HW123168   5.806   1.925   5.836
 7423SOL    HW223169   5.964   1.966   5.849
 7424SOL     OW23170   6.784   0.989   5.242
 7424SOL    HW123171   6.751   0.991   5.148
 7424SOL    HW223172   6.795   0.894   5.272
 7425SOL     OW23173   5.230   0.312   0.043
 7425SOL    HW123174   5.316   0.325   0.091
 7425SOL    HW223175   5.183   0.232   0.081
 7426SOL     OW23176   3.458   2.707   6.242
 7426SOL    HW123177   3.479   2.786   6.184
 7426SOL    HW223178   3.535   2.688   6.302
 7427SOL     OW23179   3.741   1.214   4.211
 7427SOL    HW123180   3.646   1.188   4.230
 7427SOL    HW223181   3.802   1.160   4.269
 7428SOL     OW23182   3.822   6.357   5.929
 7428SOL    HW123183   3.730   6.353   5.966
 7428SOL    HW223184   3.833   6.441   5.875
 7429SOL     OW23185   1.248   6.935   2.910
 7429SOL    HW123186   1.263   6.853   2.855
 7429SOL    HW223187   1.214   7.009   2.851
 7430SOL     OW23188   6.841   4.710   2.479
 7430SOL    HW123189   6.901   4.679   2.552
 7430SOL    HW223190   6.757   4.747   2.517
 7431SOL     OW23191   2.379   2.472   4.574
 7431SOL    HW123192   2.280   2.481   4.575
 7431SOL    HW223193   2.404   2.379   4.550
 7432SOL     OW23194   1.907   0.492   3.369
 7432SOL    HW123195   1.932   0.413   3.312
 7432SOL    HW223196   1.978   0.562   3.360
 7433SOL     OW23197   3.131   6.530   6.863
 7433SOL    HW123198   3.196   6.497   6.932
 7433SOL    HW223199   3.049   6.473   6.865
 7434SOL     OW23200   4.927   6.292   6.048
 7434SOL    HW123201   4.852   6.278   6.113
 7434SOL    HW223202   4.974   6.377   6.070
 7435SOL     OW23203   4.967   6.439   2.012
 7435SOL    HW123204   5.032   6.468   2.082
 7435SOL    HW223205   4.980   6.494   1.930
 7436SOL     OW23206   5.158   4.004   6.278
 7436SOL    HW123207   5.175   4.071   6.351
 7436SOL    HW223208   5.153   3.912   6.317
 7437SOL     OW23209   2.938   5.658   1.251
 7437SOL    HW123210   2.939   5.676   1.152
 7437SOL    HW223211   3.025   5.687   1.291
 7438SOL     OW23212   2.037   1.027   0.387
 7438SOL    HW123213   1.983   1.102   0.426
 7438SOL    HW223214   1.998   1.000   0.299
 7439SOL     OW23215   1.833   5.527   6.256
 7439SOL    HW123216   1.821   5.458   6.185
 7439SOL    HW223217   1.827   5.484   6.346
 7440SOL     OW23218   5.107   3.013   4.177
 7440SOL    HW123219   5.205   3.024   4.198
 7440SOL    HW223220   5.055   3.011   4.262
 7441SOL     OW23221   5.710   6.319   2.347
 7441SOL    HW123222   5.798   6.364   2.364
 7441SOL    HW223223   5.651   6.330   2.427
 7442SOL     OW23224   5.752   0.888   6.216
 7442SOL    HW123225   5.704   0.925   6.296
 7442SOL    HW223226   5.697   0.905   6.134
 7443SOL     OW23227   0.029   5.734   2.083
 7443SOL    HW123228   6.967   5.694   2.111
 7443SOL    HW223229   0.062   5.688   2.001
 7444SOL     OW23230   0.104   0.523   5.960
 7444SOL    HW123231   0.061   0.583   6.029
 7444SOL    HW223232   0.038   0.505   5.887
 7445SOL     OW23233   4.009   6.957   2.164
 7445SOL    HW123234   4.009   6.859   2.181
 7445SOL    HW223235   3.960   7.004   2.237
 7446SOL     OW23236   4.825   2.921   0.564
 7446SOL    HW123237   4.923   2.937   0.556
 7446SOL    HW223238   4.804   2.827   0.537
 7447SOL     OW23239   0.875   4.157   0.243
 7447SOL    HW123240   0.812   4.162   0.166
 7447SOL    HW223241   0.823   4.162   0.329
 7448SOL     OW23242   5.239   6.083   6.770
 7448SOL    HW123243   5.169   6.055   6.835
 7448SOL    HW223244   5.305   6.009   6.758
 7449SOL     OW23245   0.403   4.490   0.429
 7449SOL    HW123246   0.447   4.424   0.490
 7449SOL    HW223247   0.348   4.440   0.361
 7450SOL     OW23248   5.289   2.265   5.621
 7450SOL    HW123249   5.292   2.292   5.718
 7450SOL    HW223250   5.199   2.225   5.601
 7451SOL     OW23251   5.728   5.426   2.311
 7451SOL    HW123252   5.799   5.441   2.380
 7451SOL    HW223253   5.716   5.509   2.256
 7452SOL     OW23254   5.581   6.504   5.184
 7452SOL    HW123255   5.664   6.491   5.130
 7452SOL    HW223256   5.546   6.596   5.169
 7453SOL     OW23257   5.245   5.604   6.555
 7453SOL    HW123258   5.283   5.511   6.557
 7453SOL    HW223259   5.167   5.608   6.618
 7454SOL     OW23260   3.340   1.838   0.871
 7454SOL    HW123261   3.391   1.916   0.907
 7454SOL    HW223262   3.322   1.852   0.774
 7455SOL     OW23263   6.387   2.965   2.725
 7455SOL    HW123264   6.432   3.051   2.747
 7455SOL    HW223265   6.431   2.890   2.775
 7456SOL     OW23266   2.677   2.416   4.921
 7456SOL    HW123267   2.617   2.480   4.872
 7456SOL    HW223268   2.705   2.456   5.008
 7457SOL     OW23269   2.274   6.980   3.838
 7457SOL    HW123270   2.344   6.963   3.769
 7457SOL    HW223271   2.263   0.053   3.852
 7458SOL     OW23272   1.077   6.659   4.389
 7458SOL    HW123273   1.073   6.659   4.289
 7458SOL    HW223274   0.989   6.628   4.425
 7459SOL     OW23275   6.693   1.401   2.605
 7459SOL    HW123276   6.728   1.448   2.524
 7459SOL    HW223277   6.749   1.320   2.623
 7460SOL     OW23278   1.434   6.730   0.237
 7460SOL    HW123279   1.465   6.767   0.325
 7460SOL    HW223280   1.429   6.631   0.242
 7461SOL     OW23281   0.459   5.920   6.173
 7461SOL    HW123282   0.495   5.944   6.083
 7461SOL    HW223283   0.478   5.824   6.192
 7462SOL     OW23284   1.068   5.552   1.062
 7462SOL    HW123285   1.141   5.578   1.000
 7462SOL    HW223286   1.104   5.543   1.155
 7463SOL     OW23287   3.682   4.750   0.122
 7463SOL    HW123288   3.626   4.692   0.181
 7463SOL    HW223289   3.746   4.694   0.070
 7464SOL     OW23290   0.271   5.308   4.709
 7464SOL    HW123291   0.309   5.291   4.618
 7464SOL    HW223292   0.175   5.334   4.701
 7465SOL     OW23293   2.402   5.021   0.154
 7465SOL    HW123294   2.387   5.001   0.058
 7465SOL    HW223295   2.411   5.120   0.167
 7466SOL     OW23296   0.516   0.595   5.172
 7466SOL    HW123297   0.525   0.615   5.270
 7466SOL    HW223298   0.601   0.557   5.138
 7467SOL     OW23299   0.170   2.959   5.953
 7467SOL    HW123300   0.077   2.972   5.918
 7467SOL    HW223301   0.228   3.034   5.920
 7468SOL     OW23302   5.778   2.624   5.159
 7468SOL    HW123303   5.872   2.618   5.192
 7468SOL    HW223304   5.719   2.658   5.233
 7469SOL     OW23305   6.554   2.032   0.626
 7469SOL    HW123306   6.618   1.957   0.610
 7469SOL    HW223307   6.561   2.062   0.721
 7470SOL     OW23308   5.963   3.754   3.651
 7470SOL    HW123309   6.009   3.670   3.621
 7470SOL    HW223310   5.980   3.768   3.748
 7471SOL     OW23311   5.701   5.859   6.217
 7471SOL    HW123312   5.690   5.764   6.186
 7471SOL    HW223313   5.616   5.890   6.258
 7472SOL     OW23314   6.726   0.021   5.246
 7472SOL    HW123315   6.811   7.007   5.211
 7472SOL    HW223316   6.659   6.974   5.259
 7473SOL     OW23317   4.334   6.878   3.980
 7473SOL    HW123318   4.370   6.934   4.054
 7473SOL    HW223319   4.234   6.882   3.979
 7474SOL     OW23320   5.586   2.469   6.407
 7474SOL    HW123321   5.540   2.386   6.439
 7474SOL    HW223322   5.575   2.542   6.475
 7475SOL     OW23323   4.633   1.868   1.917
 7475SOL    HW123324   4.587   1.897   2.001
 7475SOL    HW223325   4.634   1.943   1.852
 7476SOL     OW23326   2.073   1.982   2.918
 7476SOL    HW123327   1.985   1.992   2.965
 7476SOL    HW223328   2.145   1.965   2.986
 7477SOL     OW23329   0.569   3.756   4.832
 7477SOL    HW123330   0.582   3.854   4.816
 7477SOL    HW223331   0.473   3.733   4.819
 7478SOL     OW23332   6.312   1.996   5.123
 7478SOL    HW123333   6.384   2.039   5.177
 7478SOL    HW223334   6.223   2.031   5.151
 7479SOL     OW23335   5.758   3.215   0.075
 7479SOL    HW123336   5.845   3.259   0.099
 7479SOL    HW223337   5.756   3.123   0.113
 7480SOL     OW23338   3.111   5.206   2.200
 7480SOL    HW123339   3.192   5.230   2.253
 7480SOL    HW223340   3.106   5.106   2.190
 7481SOL     OW23341   6.359   4.329   6.491
 7481SOL    HW123342   6.436   4.268   6.511
 7481SOL    HW223343   6.380   4.384   6.410
 7482SOL     OW23344   4.149   2.234   2.825
 7482SOL    HW123345   4.083   2.211   2.754
 7482SOL    HW223346   4.224   2.288   2.786
 7483SOL     OW23347   4.697   2.254   5.239
 7483SOL    HW123348   4.742   2.310   5.169
 7483SOL    HW223349   4.598   2.267   5.233
 7484SOL     OW23350   2.527   6.418   4.825
 7484SOL    HW123351   2.505   6.510   4.856
 7484SOL    HW223352   2.570   6.367   4.899
 7485SOL     OW23353   2.611   6.909   3.996
 7485SOL    HW123354   2.573   6.881   4.085
 7485SOL    HW223355   2.580   6.846   3.925
 7486SOL     OW23356   0.633   6.111   0.609
 7486SOL    HW123357   0.570   6.076   0.539
 7486SOL    HW223358   0.708   6.046   0.621
 7487SOL     OW23359   4.907   7.018   3.450
 7487SOL    HW123360   4.931   7.002   3.354
 7487SOL    HW223361   4.915   0.090   3.471
 7488SOL     OW23362   0.685   5.899   4.195
 7488SOL    HW123363   0.697   5.871   4.100
 7488SOL    HW223364   0.631   5.983   4.199
 7489SOL     OW23365   6.195   3.837   6.880
 7489SOL    HW123366   6.246   3.800   6.957
 7489SOL    HW223367   6.238   3.921   6.848
 7490SOL     OW23368   1.339   2.222   2.752
 7490SOL    HW123369   1.271   2.192   2.818
 7490SOL    HW223370   1.294   2.273   2.678
 7491SOL     OW23371   4.490   2.955   0.769
 7491SOL    HW123372   4.458   2.954   0.675
 7491SOL    HW223373   4.573   2.900   0.777
 7492SOL     OW23374   1.625   0.552   4.033
 7492SOL    HW123375   1.615   0.493   4.114
 7492SOL    HW223376   1.549   0.617   4.030
 7493SOL     OW23377   6.580   3.957   5.681
 7493SOL    HW123378   6.592   4.038   5.738
 7493SOL    HW223379   6.621   3.974   5.591
 7494SOL     OW23380   6.200   0.923   3.000
 7494SOL    HW123381   6.249   1.007   2.977
 7494SOL    HW223382   6.196   0.912   3.100
 7495SOL     OW23383   2.348   2.820   4.873
 7495SOL    HW123384   2.340   2.905   4.925
 7495SOL    HW223385   2.265   2.807   4.818
 7496SOL     OW23386   5.979   3.696   3.323
 7496SOL    HW123387   5.895   3.647   3.300
 7496SOL    HW223388   5.956   3.782   3.369
 7497SOL     OW23389   0.793   6.586   0.708
 7497SOL    HW123390   0.772   6.631   0.621
 7497SOL    HW223391   0.716   6.598   0.771
 7498SOL     OW23392   3.457   0.360   3.132
 7498SOL    HW123393   3.437   0.297   3.057
 7498SOL    HW223394   3.469   0.452   3.095
 7499SOL     OW23395   3.876   2.163   3.966
 7499SOL    HW123396   3.886   2.206   4.056
 7499SOL    HW223397   3.812   2.086   3.973
 7500SOL     OW23398   4.241   0.052   3.485
 7500SOL    HW123399   4.145   0.053   3.458
 7500SOL    HW223400   4.251   0.002   3.571
 7501SOL     OW23401   5.692   2.715   4.323
 7501SOL    HW123402   5.736   2.635   4.281
 7501SOL    HW223403   5.694   2.791   4.258
 7502SOL     OW23404   3.160   0.208   4.754
 7502SOL    HW123405   3.225   0.133   4.752
 7502SOL    HW223406   3.114   0.215   4.665
 7503SOL     OW23407   2.117   5.963   1.105
 7503SOL    HW123408   2.175   5.889   1.071
 7503SOL    HW223409   2.138   5.980   1.201
 7504SOL     OW23410   0.104   6.235   2.637
 7504SOL    HW123411   0.154   6.155   2.604
 7504SOL    HW223412   0.063   6.215   2.726
 7505SOL     OW23413   7.023   0.875   5.027
 7505SOL    HW123414   7.004   0.859   4.930
 7505SOL    HW223415   7.025   0.973   5.045
 7506SOL     OW23416   3.441   1.702   3.016
 7506SOL    HW123417   3.368   1.662   2.961
 7506SOL    HW223418   3.474   1.634   3.082
 7507SOL     OW23419   6.553   3.326   4.416
 7507SOL    HW123420   6.511   3.236   4.431
 7507SOL    HW223421   6.591   3.330   4.323
 7508SOL     OW23422   1.622   5.951   0.292
 7508SOL    HW123423   1.711   5.988   0.267
 7508SOL    HW223424   1.561   6.025   0.321
 7509SOL     OW23425   5.242   3.917   0.084
 7509SOL    HW123426   5.213   4.008   0.055
 7509SOL    HW223427   5.220   3.851   0.012
 7510SOL     OW23428   4.180   3.520   4.166
 7510SOL    HW123429   4.115   3.572   4.221
 7510SOL    HW223430   4.178   3.553   4.072
 7511SOL     OW23431   3.487   5.734   2.823
 7511SOL    HW123432   3.555   5.802   2.794
 7511SOL    HW223433   3.397   5.759   2.786
 7512SOL     OW23434   2.842   6.889   0.116
 7512SOL    HW123435   2.765   6.844   0.162
 7512SOL    HW223436   2.926   6.837   0.130
 7513SOL     OW23437   1.927   2.513   3.507
 7513SOL    HW123438   1.913   2.611   3.515
 7513SOL    HW223439   1.908   2.470   3.596
 7514SOL     OW23440   2.208   4.688   3.142
 7514SOL    HW123441   2.286   4.638   3.180
 7514SOL    HW223442   2.151   4.625   3.089
 7515SOL     OW23443   0.078   4.452   5.096
 7515SOL    HW123444   0.123   4.436   5.184
 7515SOL    HW223445   7.006   4.435   5.105
 7516SOL     OW23446   1.168   5.390   5.630
 7516SOL    HW123447   1.105   5.327   5.585
 7516SOL    HW223448   1.207   5.452   5.562
 7517SOL     OW23449   1.051   2.417   0.015
 7517SOL    HW123450   1.076   2.478   6.965
 7517SOL    HW223451   1.059   2.322   7.010
 7518SOL     OW23452   4.764   2.921   4.216
 7518SOL    HW123453   4.841   2.944   4.276
 7518SOL    HW223454   4.761   2.987   4.140
 7519SOL     OW23455   4.259   0.025   4.496
 7519SOL    HW123456   4.251   6.962   4.451
 7519SOL    HW223457   4.355   0.043   4.517
 7520SOL     OW23458   1.795   1.564   2.166
 7520SOL    HW123459   1.767   1.479   2.211
 7520SOL    HW223460   1.760   1.642   2.218
 7521SOL     OW23461   5.391   1.511   4.449
 7521SOL    HW123462   5.407   1.464   4.536
 7521SOL    HW223463   5.292   1.520   4.435
 7522SOL     OW23464   1.393   6.063   3.982
 7522SOL    HW123465   1.480   6.112   3.980
 7522SOL    HW223466   1.407   5.970   4.016
 7523SOL     OW23467   5.408   1.342   6.243
 7523SOL    HW123468   5.495   1.369   6.201
 7523SOL    HW223469   5.332   1.384   6.193
 7524SOL     OW23470   0.106   2.548   4.259
 7524SOL    HW123471   0.075   2.629   4.209
 7524SOL    HW223472   0.192   2.568   4.305
 7525SOL     OW23473   4.556   6.290   6.520
 7525SOL    HW123474   4.638   6.301   6.576
 7525SOL    HW223475   4.538   6.375   6.470
 7526SOL     OW23476   2.018   3.444   1.822
 7526SOL    HW123477   2.065   3.449   1.734
 7526SOL    HW223478   2.071   3.494   1.891
 7527SOL     OW23479   4.299   5.964   3.772
 7527SOL    HW123480   4.237   5.895   3.734
 7527SOL    HW223481   4.394   5.931   3.765
 7528SOL     OW23482   5.708   2.441   6.928
 7528SOL    HW123483   5.734   2.474   7.019
 7528SOL    HW223484   5.734   2.345   6.918
 7529SOL     OW23485   5.795   1.835   3.575
 7529SOL    HW123486   5.722   1.828   3.507
 7529SOL    HW223487   5.884   1.833   3.528
 7530SOL     OW23488   0.156   1.474   2.056
 7530SOL    HW123489   0.100   1.555   2.039
 7530SOL    HW223490   0.106   1.393   2.027
 7531SOL     OW23491   4.339   2.393   3.732
 7531SOL    HW123492   4.305   2.362   3.644
 7531SOL    HW223493   4.273   2.371   3.803
 7532SOL     OW23494   5.014   6.117   6.958
 7532SOL    HW123495   5.051   6.202   6.921
 7532SOL    HW223496   4.995   6.128   0.030
 7533SOL     OW23497   4.381   3.116   1.741
 7533SOL    HW123498   4.471   3.113   1.785
 7533SOL    HW223499   4.359   3.025   1.704
 7534SOL     OW23500   4.917   6.859   4.553
 7534SOL    HW123501   4.920   6.825   4.459
 7534SOL    HW223502   5.002   6.834   4.600
 7535SOL     OW23503   1.148   6.405   4.107
 7535SOL    HW123504   1.068   6.368   4.154
 7535SOL    HW223505   1.148   6.376   4.011
 7536SOL     OW23506   5.453   5.958   4.824
 7536SOL    HW123507   5.515   6.036   4.814
 7536SOL    HW223508   5.370   5.987   4.870
 7537SOL     OW23509   2.358   5.864   2.194
 7537SOL    HW123510   2.450   5.845   2.228
 7537SOL    HW223511   2.300   5.894   2.271
 7538SOL     OW23512   0.893   3.353   1.576
 7538SOL    HW123513   0.937   3.277   1.623
 7538SOL    HW223514   0.961   3.425   1.558
 7539SOL     OW23515   1.121   5.333   3.824
 7539SOL    HW123516   1.150   5.414   3.874
 7539SOL    HW223517   1.051   5.284   3.877
 7540SOL     OW23518   5.368   5.514   4.331
 7540SOL    HW123519   5.436   5.479   4.266
 7540SOL    HW223520   5.303   5.573   4.284
 7541SOL     OW23521   1.223   3.795   6.707
 7541SOL    HW123522   1.139   3.755   6.668
 7541SOL    HW223523   1.227   3.773   6.804
 7542SOL     OW23524   5.902   6.427   6.069
 7542SOL    HW123525   5.843   6.497   6.028
 7542SOL    HW223526   5.949   6.377   5.996
 7543SOL     OW23527   2.950   0.674   5.430
 7543SOL    HW123528   3.020   0.701   5.364
 7543SOL    HW223529   2.903   0.755   5.464
 7544SOL     OW23530   0.011   2.891   3.898
 7544SOL    HW123531   6.995   2.931   3.817
 7544SOL    HW223532   0.081   2.825   3.871
 7545SOL     OW23533   0.731   5.833   6.685
 7545SOL    HW123534   0.821   5.851   6.725
 7545SOL    HW223535   0.713   5.900   6.613
 7546SOL     OW23536   3.342   2.861   1.893
 7546SOL    HW123537   3.323   2.856   1.991
 7546SOL    HW223538   3.342   2.768   1.855
 7547SOL     OW23539   4.533   0.230   1.638
 7547SOL    HW123540   4.526   0.327   1.661
 7547SOL    HW223541   4.616   0.192   1.679
 7548SOL     OW23542   4.581   2.340   6.237
 7548SOL    HW123543   4.512   2.312   6.304
 7548SOL    HW223544   4.550   2.316   6.145
 7549SOL     OW23545   4.371   2.404   5.596
 7549SOL    HW123546   4.286   2.419   5.646
 7549SOL    HW223547   4.434   2.350   5.652
 7550SOL     OW23548   1.521   4.157   3.795
 7550SOL    HW123549   1.616   4.189   3.783
 7550SOL    HW223550   1.466   4.232   3.832
 7551SOL     OW23551   5.411   2.072   5.082
 7551SOL    HW123552   5.473   2.027   5.145
 7551SOL    HW223553   5.365   2.148   5.128
 7552SOL     OW23554   2.225   6.318   4.208
 7552SOL    HW123555   2.244   6.262   4.127
 7552SOL    HW223556   2.136   6.364   4.196
 7553SOL     OW23557   5.892   5.986   6.077
 7553SOL    HW123558   5.827   5.940   6.138
 7553SOL    HW223559   5.909   5.929   5.997
 7554SOL     OW23560   5.421   1.243   0.230
 7554SOL    HW123561   5.416   1.320   0.295
 7554SOL    HW223562   5.414   1.157   0.280
 7555SOL     OW23563   3.217   6.578   6.591
 7555SOL    HW123564   3.137   6.580   6.530
 7555SOL    HW223565   3.187   6.568   6.685
 7556SOL     OW23566   1.080   1.140   0.392
 7556SOL    HW123567   1.161   1.193   0.364
 7556SOL    HW223568   1.052   1.081   0.317
 7557SOL     OW23569   5.123   0.575   0.050
 7557SOL    HW123570   5.216   0.611   0.057
 7557SOL    HW223571   5.127   0.478   0.024
 7558SOL     OW23572   1.302   2.721   4.469
 7558SOL    HW123573   1.397   2.697   4.446
 7558SOL    HW223574   1.275   2.801   4.416
 7559SOL     OW23575   3.616   1.837   4.823
 7559SOL    HW123576   3.580   1.839   4.917
 7559SOL    HW223577   3.680   1.761   4.814
 7560SOL     OW23578   6.830   0.458   6.522
 7560SOL    HW123579   6.768   0.413   6.457
 7560SOL    HW223580   6.825   0.411   6.610
 7561SOL     OW23581   5.199   2.014   5.349
 7561SOL    HW123582   5.240   2.099   5.316
 7561SOL    HW223583   5.106   2.006   5.311
 7562SOL     OW23584   1.024   5.215   4.896
 7562SOL    HW123585   0.944   5.209   4.956
 7562SOL    HW223586   1.090   5.280   4.934
 7563SOL     OW23587   2.814   6.692   2.273
 7563SOL    HW123588   2.725   6.729   2.301
 7563SOL    HW223589   2.801   6.621   2.205
 7564SOL     OW23590   4.724   0.772   4.793
 7564SOL    HW123591   4.780   0.736   4.867
 7564SOL    HW223592   4.632   0.792   4.827
 7565SOL     OW23593   5.537   3.364   6.284
 7565SOL    HW123594   5.636   3.372   6.289
 7565SOL    HW223595   5.503   3.318   6.366
 7566SOL     OW23596   4.649   4.742   2.170
 7566SOL    HW123597   4.674   4.772   2.262
 7566SOL    HW223598   4.668   4.815   2.105
 7567SOL     OW23599   0.330   0.845   3.975
 7567SOL    HW123600   0.260   0.906   4.013
 7567SOL    HW223601   0.301   0.814   3.884
 7568SOL     OW23602   6.317   5.441   1.449
 7568SOL    HW123603   6.300   5.378   1.373
 7568SOL    HW223604   6.255   5.519   1.442
 7569SOL     OW23605   3.881   4.524   6.464
 7569SOL    HW123606   3.858   4.450   6.400
 7569SOL    HW223607   3.809   4.593   6.462
 7570SOL     OW23608   6.886   2.998   3.144
 7570SOL    HW123609   6.950   2.938   3.096
 7570SOL    HW223610   6.800   3.002   3.094
 7571SOL     OW23611   5.617   3.465   2.953
 7571SOL    HW123612   5.566   3.536   2.904
 7571SOL    HW223613   5.705   3.501   2.982
 7572SOL     OW23614   4.934   6.546   2.654
 7572SOL    HW123615   4.977   6.500   2.576
 7572SOL    HW223616   4.889   6.630   2.622
 7573SOL     OW23617   5.646   6.506   5.812
 7573SOL    HW123618   5.695   6.593   5.811
 7573SOL    HW223619   5.555   6.518   5.850
 7574SOL     OW23620   6.254   0.976   4.220
 7574SOL    HW123621   6.325   1.032   4.262
 7574SOL    HW223622   6.211   1.027   4.145
 7575SOL     OW23623   6.316   6.446   0.725
 7575SOL    HW123624   6.217   6.451   0.709
 7575SOL    HW223625   6.349   6.356   0.699
 7576SOL     OW23626   5.380   3.058   0.859
 7576SOL    HW123627   5.349   3.137   0.911
 7576SOL    HW223628   5.439   3.001   0.916
 7577SOL     OW23629   0.496   0.071   0.273
 7577SOL    HW123630   0.409   0.036   0.239
 7577SOL    HW223631   0.484   0.105   0.366
 7578SOL     OW23632   0.395   5.573   3.278
 7578SOL    HW123633   0.464   5.592   3.348
 7578SOL    HW223634   0.357   5.659   3.244
 7579SOL     OW23635   6.720   2.017   1.594
 7579SOL    HW123636   6.749   2.069   1.513
 7579SOL    HW223637   6.799   1.971   1.634
 7580SOL     OW23638   1.987   4.236   3.204
 7580SOL    HW123639   2.084   4.231   3.230
 7580SOL    HW223640   1.959   4.332   3.200
 7581SOL     OW23641   0.565   0.789   1.580
 7581SOL    HW123642   0.526   0.806   1.671
 7581SOL    HW223643   0.563   0.873   1.527
 7582SOL     OW23644   4.152   1.491   4.407
 7582SOL    HW123645   4.209   1.432   4.351
 7582SOL    HW223646   4.209   1.558   4.454
 7583SOL     OW23647   4.924   3.265   3.626
 7583SOL    HW123648   5.019   3.251   3.653
 7583SOL    HW223649   4.874   3.179   3.634
 7584SOL     OW23650   1.285   0.865   2.674
 7584SOL    HW123651   1.190   0.865   2.703
 7584SOL    HW223652   1.308   0.953   2.632
 7585SOL     OW23653   1.057   2.321   6.440
 7585SOL    HW123654   0.995   2.355   6.370
 7585SOL    HW223655   1.108   2.243   6.405
 7586SOL     OW23656   1.408   0.759   2.289
 7586SOL    HW123657   1.349   0.677   2.287
 7586SOL    HW223658   1.473   0.752   2.365
 7587SOL     OW23659   3.366   0.906   0.779
 7587SOL    HW123660   3.448   0.863   0.741
 7587SOL    HW223661   3.380   0.926   0.875
 7588SOL     OW23662   1.355   3.072   4.582
 7588SOL    HW123663   1.358   2.992   4.640
 7588SOL    HW223664   1.422   3.139   4.614
 7589SOL     OW23665   0.697   0.672   2.877
 7589SOL    HW123666   0.742   0.750   2.921
 7589SOL    HW223667   0.722   0.670   2.780
 7590SOL     OW23668   0.421   1.698   0.340
 7590SOL    HW123669   0.436   1.783   0.290
 7590SOL    HW223670   0.509   1.662   0.372
 7591SOL     OW23671   4.540   3.148   6.788
 7591SOL    HW123672   4.496   3.088   6.854
 7591SOL    HW223673   4.564   3.096   6.706
 7592SOL     OW23674   6.110   5.430   5.193
 7592SOL    HW123675   6.160   5.517   5.198
 7592SOL    HW223676   6.022   5.439   5.240
 7593SOL     OW23677   6.989   1.636   5.514
 7593SOL    HW123678   0.002   1.684   5.593
 7593SOL    HW223679   7.000   1.537   5.527
 7594SOL     OW23680   0.422   4.362   1.271
 7594SOL    HW123681   0.511   4.345   1.315
 7594SOL    HW223682   0.417   4.457   1.242
 7595SOL     OW23683   6.036   2.835   6.097
 7595SOL    HW123684   5.987   2.771   6.156
 7595SOL    HW223685   6.134   2.817   6.102
 7596SOL     OW23686   3.215   0.507   5.219
 7596SOL    HW123687   3.174   0.556   5.296
 7596SOL    HW223688   3.212   0.564   5.137
 7597SOL     OW23689   2.196   5.888   2.750
 7597SOL    HW123690   2.125   5.958   2.762
 7597SOL    HW223691   2.152   5.800   2.730
 7598SOL     OW23692   5.866   0.835   2.604
 7598SOL    HW123693   5.833   0.761   2.545
 7598SOL    HW223694   5.832   0.821   2.697
 7599SOL     OW23695   4.109   3.367   0.798
 7599SOL    HW123696   4.171   3.431   0.844
 7599SOL    HW223697   4.030   3.349   0.857
 7600SOL     OW23698   1.459   1.201   3.990
 7600SOL    HW123699   1.412   1.267   4.049
 7600SOL    HW223700   1.403   1.119   3.980
 7601SOL     OW23701   3.948   5.447   2.219
 7601SOL    HW123702   4.024   5.383   2.206
 7601SOL    HW223703   3.884   5.439   2.142
 7602SOL     OW23704   0.328   2.101   0.521
 7602SOL    HW123705   0.290   2.012   0.496
 7602SOL    HW223706   0.271   2.142   0.592
 7603SOL     OW23707   2.618   7.004   5.995
 7603SOL    HW123708   2.581   0.015   6.081
 7603SOL    HW223709   2.654   0.054   5.940
 7604SOL     OW23710   1.376   2.116   5.196
 7604SOL    HW123711   1.443   2.181   5.161
 7604SOL    HW223712   1.379   2.032   5.141
 7605SOL     OW23713   2.266   0.092   6.868
 7605SOL    HW123714   2.204   0.147   6.813
 7605SOL    HW223715   2.336   0.150   6.908
 7606SOL     OW23716   6.209   1.499   4.287
 7606SOL    HW123717   6.180   1.514   4.381
 7606SOL    HW223718   6.187   1.405   4.260
 7607SOL     OW23719   3.364   6.159   6.603
 7607SOL    HW123720   3.365   6.084   6.670
 7607SOL    HW223721   3.380   6.246   6.651
 7608SOL     OW23722   5.262   2.357   6.249
 7608SOL    HW123723   5.273   2.341   6.347
 7608SOL    HW223724   5.239   2.453   6.233
 7609SOL     OW23725   0.565   2.812   3.810
 7609SOL    HW123726   0.633   2.790   3.880
 7609SOL    HW223727   0.603   2.792   3.719
 7610SOL     OW23728   3.588   5.092   6.455
 7610SOL    HW123729   3.631   5.155   6.520
 7610SOL    HW223730   3.620   5.112   6.363
 7611SOL     OW23731   4.706   3.256   1.257
 7611SOL    HW123732   4.754   3.283   1.340
 7611SOL    HW223733   4.742   3.309   1.179
 7612SOL     OW23734   3.192   2.007   3.341
 7612SOL    HW123735   3.249   1.979   3.417
 7612SOL    HW223736   3.226   1.965   3.256
 7613SOL     OW23737   1.275   1.332   2.416
 7613SOL    HW123738   1.318   1.268   2.479
 7613SOL    HW223739   1.345   1.372   2.356
 7614SOL     OW23740   5.027   3.237   0.948
 7614SOL    HW123741   5.044   3.152   0.898
 7614SOL    HW223742   5.089   3.308   0.915
 7615SOL     OW23743   5.427   3.221   5.068
 7615SOL    HW123744   5.370   3.177   5.138
 7615SOL    HW223745   5.523   3.198   5.084
 7616SOL     OW23746   5.860   6.729   3.527
 7616SOL    HW123747   5.956   6.707   3.511
 7616SOL    HW223748   5.822   6.774   3.446
 7617SOL     OW23749   5.003   5.083   3.313
 7617SOL    HW123750   5.014   5.055   3.409
 7617SOL    HW223751   5.092   5.086   3.269
 7618SOL     OW23752   2.640   2.080   0.373
 7618SOL    HW123753   2.728   2.096   0.417
 7618SOL    HW223754   2.654   2.038   0.284
 7619SOL     OW23755   1.045   2.117   4.499
 7619SOL    HW123756   1.057   2.210   4.533
 7619SOL    HW223757   1.026   2.119   4.401
 7620SOL     OW23758   3.545   4.639   1.054
 7620SOL    HW123759   3.594   4.552   1.065
 7620SOL    HW223760   3.450   4.619   1.027
 7621SOL     OW23761   0.106   5.699   0.997
 7621SOL    HW123762   0.174   5.632   0.968
 7621SOL    HW223763   0.061   5.738   0.917
 7622SOL     OW23764   4.376   4.525   0.711
 7622SOL    HW123765   4.420   4.444   0.671
 7622SOL    HW223766   4.331   4.577   0.638
 7623SOL     OW23767   4.376   4.926   1.427
 7623SOL    HW123768   4.335   4.985   1.358
 7623SOL    HW223769   4.363   4.830   1.400
 7624SOL     OW23770   0.544   2.366   1.920
 7624SOL    HW123771   0.455   2.370   1.875
 7624SOL    HW223772   0.590   2.280   1.896
 7625SOL     OW23773   5.087   1.759   0.207
 7625SOL    HW123774   4.988   1.753   0.195
 7625SOL    HW223775   5.108   1.816   0.286
 7626SOL     OW23776   5.673   0.289   5.890
 7626SOL    HW123777   5.690   0.314   5.985
 7626SOL    HW223778   5.587   0.330   5.859
 7627SOL     OW23779   3.129   2.404   0.220
 7627SOL    HW123780   3.172   2.393   0.130
 7627SOL    HW223781   3.104   2.500   0.233
 7628SOL     OW23782   3.450   2.193   0.535
 7628SOL    HW123783   3.359   2.211   0.499
 7628SOL    HW223784   3.488   2.277   0.574
 7629SOL     OW23785   5.699   3.248   3.920
 7629SOL    HW123786   5.774   3.287   3.974
 7629SOL    HW223787   5.697   3.293   3.830
 7630SOL     OW23788   1.319   0.509   5.029
 7630SOL    HW123789   1.296   0.430   4.972
 7630SOL    HW223790   1.405   0.549   4.998
 7631SOL     OW23791   2.072   0.140   4.993
 7631SOL    HW123792   2.122   0.220   5.027
 7631SOL    HW223793   2.132   0.088   4.931
 7632SOL     OW23794   4.911   5.803   1.050
 7632SOL    HW123795   4.820   5.833   1.078
 7632SOL    HW223796   4.936   5.850   0.964
 7633SOL     OW23797   5.603   0.945   0.928
 7633SOL    HW123798   5.562   0.953   1.019
 7633SOL    HW223799   5.548   0.881   0.873
 7634SOL     OW23800   1.442   2.243   0.945
 7634SOL    HW123801   1.522   2.261   1.003
 7634SOL    HW223802   1.470   2.197   0.861
 7635SOL     OW23803   2.822   5.067   4.938
 7635SOL    HW123804   2.745   5.104   4.991
 7635SOL    HW223805   2.834   5.122   4.855
 7636SOL     OW23806   0.711   4.901   4.622
 7636SOL    HW123807   0.777   4.968   4.654
 7636SOL    HW223808   0.752   4.809   4.624
 7637SOL     OW23809   0.418   6.578   4.341
 7637SOL    HW123810   0.432   6.480   4.352
 7637SOL    HW223811   0.442   6.605   4.247
 7638SOL     OW23812   0.849   4.912   1.822
 7638SOL    HW123813   0.755   4.943   1.836
 7638SOL    HW223814   0.911   4.990   1.831
 7639SOL     OW23815   0.900   0.973   0.225
 7639SOL    HW123816   0.825   0.952   0.287
 7639SOL    HW223817   0.865   0.978   0.131
 7640SOL     OW23818   3.120   0.828   6.681
 7640SOL    HW123819   3.032   0.848   6.637
 7640SOL    HW223820   3.131   0.887   6.761
 7641SOL     OW23821   6.689   4.048   2.903
 7641SOL    HW123822   6.733   4.101   2.831
 7641SOL    HW223823   6.623   3.985   2.861
 7642SOL     OW23824   5.668   1.547   3.407
 7642SOL    HW123825   5.568   1.544   3.406
 7642SOL    HW223826   5.701   1.611   3.338
 7643SOL     OW23827   5.049   2.637   2.967
 7643SOL    HW123828   5.064   2.735   2.955
 7643SOL    HW223829   5.134   2.594   2.996
 7644SOL     OW23830   4.579   3.089   1.459
 7644SOL    HW123831   4.529   3.017   1.412
 7644SOL    HW223832   4.625   3.147   1.392
 7645SOL     OW23833   3.289   3.992   6.083
 7645SOL    HW123834   3.306   3.919   6.018
 7645SOL    HW223835   3.291   3.955   6.176
 7646SOL     OW23836   1.275   2.718   2.873
 7646SOL    HW123837   1.361   2.670   2.893
 7646SOL    HW223838   1.232   2.677   2.793
 7647SOL     OW23839   6.948   3.172   4.937
 7647SOL    HW123840   7.009   3.251   4.947
 7647SOL    HW223841   6.858   3.195   4.975
 7648SOL     OW23842   1.965   2.274   3.119
 7648SOL    HW123843   1.997   2.182   3.143
 7648SOL    HW223844   1.873   2.288   3.155
 7649SOL     OW23845   6.547   0.879   4.380
 7649SOL    HW123846   6.509   0.967   4.350
 7649SOL    HW223847   6.542   0.873   4.480
 7650SOL     OW23848   4.061   0.807   1.500
 7650SOL    HW123849   3.991   0.866   1.460
 7650SOL    HW223850   4.025   0.765   1.584
 7651SOL     OW23851   2.352   5.209   4.721
 7651SOL    HW123852   2.408   5.140   4.767
 7651SOL    HW223853   2.405   5.294   4.713
 7652SOL     OW23854   6.261   1.560   4.565
 7652SOL    HW123855   6.198   1.567   4.642
 7652SOL    HW223856   6.349   1.523   4.597
 7653SOL     OW23857   0.506   2.137   6.824
 7653SOL    HW123858   0.577   2.156   6.756
 7653SOL    HW223859   0.417   2.165   6.788
 7654SOL     OW23860   6.253   3.496   5.179
 7654SOL    HW123861   6.189   3.570   5.157
 7654SOL    HW223862   6.286   3.506   5.273
 7655SOL     OW23863   3.022   0.771   3.692
 7655SOL    HW123864   3.024   0.749   3.594
 7655SOL    HW223865   2.952   0.841   3.708
 7656SOL     OW23866   6.795   3.955   6.429
 7656SOL    HW123867   6.796   3.927   6.333
 7656SOL    HW223868   6.879   3.925   6.474
 7657SOL     OW23869   1.296   4.163   4.949
 7657SOL    HW123870   1.369   4.157   5.018
 7657SOL    HW223871   1.301   4.251   4.903
 7658SOL     OW23872   2.281   0.565   0.588
 7658SOL    HW123873   2.272   0.654   0.542
 7658SOL    HW223874   2.270   0.577   0.687
 7659SOL     OW23875   4.748   3.982   5.139
 7659SOL    HW123876   4.765   3.920   5.063
 7659SOL    HW223877   4.741   4.076   5.106
 7660SOL     OW23878   6.953   5.121   4.531
 7660SOL    HW123879   6.981   5.204   4.580
 7660SOL    HW223880   6.967   5.042   4.590
 7661SOL     OW23881   4.610   2.176   5.673
 7661SOL    HW123882   4.671   2.176   5.594
 7661SOL    HW223883   4.663   2.193   5.756
 7662SOL     OW23884   1.268   1.803   2.503
 7662SOL    HW123885   1.359   1.766   2.525
 7662SOL    HW223886   1.245   1.875   2.569
 7663SOL     OW23887   6.106   4.996   5.714
 7663SOL    HW123888   6.032   4.947   5.667
 7663SOL    HW223889   6.117   4.958   5.806
 7664SOL     OW23890   4.065   1.226   2.871
 7664SOL    HW123891   3.996   1.295   2.894
 7664SOL    HW223892   4.070   1.216   2.771
 7665SOL     OW23893   4.434   2.329   4.108
 7665SOL    HW123894   4.381   2.345   4.025
 7665SOL    HW223895   4.445   2.415   4.157
 7666SOL     OW23896   6.252   5.240   3.397
 7666SOL    HW123897   6.290   5.298   3.469
 7666SOL    HW223898   6.165   5.202   3.428
 7667SOL     OW23899   5.078   5.965   2.135
 7667SOL    HW123900   5.044   6.056   2.156
 7667SOL    HW223901   5.001   5.903   2.118
 7668SOL     OW23902   2.038   5.134   0.735
 7668SOL    HW123903   2.100   5.150   0.812
 7668SOL    HW223904   1.951   5.099   0.769
 7669SOL     OW23905   3.250   6.346   5.913
 7669SOL    HW123906   3.212   6.393   5.833
 7669SOL    HW223907   3.249   6.409   5.991
 7670SOL     OW23908   0.418   6.235   0.136
 7670SOL    HW123909   0.360   6.314   0.157
 7670SOL    HW223910   0.363   6.152   0.138
 7671SOL     OW23911   5.221   0.607   1.808
 7671SOL    HW123912   5.240   0.705   1.806
 7671SOL    HW223913   5.268   0.566   1.887
 7672SOL     OW23914   5.405   4.644   3.046
 7672SOL    HW123915   5.421   4.742   3.056
 7672SOL    HW223916   5.312   4.622   3.075
 7673SOL     OW23917   1.014   5.561   3.507
 7673SOL    HW123918   1.001   5.590   3.602
 7673SOL    HW223919   1.024   5.461   3.504
 7674SOL     OW23920   3.544   0.135   4.251
 7674SOL    HW123921   3.569   0.222   4.208
 7674SOL    HW223922   3.452   0.142   4.289
 7675SOL     OW23923   3.732   6.695   2.932
 7675SOL    HW123924   3.657   6.710   2.868
 7675SOL    HW223925   3.790   6.621   2.898
 7676SOL     OW23926   2.970   3.248   5.736
 7676SOL    HW123927   3.029   3.180   5.692
 7676SOL    HW223928   2.967   3.331   5.680
 7677SOL     OW23929   5.984   4.187   1.516
 7677SOL    HW123930   5.950   4.184   1.610
 7677SOL    HW223931   5.911   4.162   1.453
 7678SOL     OW23932   1.616   1.690   5.795
 7678SOL    HW123933   1.560   1.760   5.750
 7678SOL    HW223934   1.602   1.602   5.750
 7679SOL     OW23935   2.193   5.702   4.660
 7679SOL    HW123936   2.249   5.652   4.593
 7679SOL    HW223937   2.105   5.726   4.618
 7680SOL     OW23938   1.930   0.560   4.972
 7680SOL    HW123939   1.966   0.472   4.940
 7680SOL    HW223940   2.003   0.610   5.020
 7681SOL     OW23941   3.211   2.906   6.335
 7681SOL    HW123942   3.268   2.964   6.278
 7681SOL    HW223943   3.213   2.812   6.299
 7682SOL     OW23944   2.878   1.583   3.067
 7682SOL    HW123945   2.960   1.528   3.083
 7682SOL    HW223946   2.833   1.603   3.154
 7683SOL     OW23947   0.050   1.422   4.475
 7683SOL    HW123948   6.985   1.426   4.516
 7683SOL    HW223949   0.055   1.343   4.413
 7684SOL     OW23950   4.157   2.619   1.641
 7684SOL    HW123951   4.082   2.557   1.617
 7684SOL    HW223952   4.122   2.692   1.700
 7685SOL     OW23953   3.289   0.583   0.282
 7685SOL    HW123954   3.205   0.635   0.294
 7685SOL    HW223955   3.367   0.641   0.307
 7686SOL     OW23956   4.496   0.241   4.603
 7686SOL    HW123957   4.529   0.336   4.598
 7686SOL    HW223958   4.532   0.190   4.525
 7687SOL     OW23959   5.544   5.042   4.546
 7687SOL    HW123960   5.592   5.059   4.460
 7687SOL    HW223961   5.484   5.120   4.567
 7688SOL     OW23962   0.717   4.939   6.301
 7688SOL    HW123963   0.794   4.978   6.352
 7688SOL    HW223964   0.675   4.866   6.355
 7689SOL     OW23965   4.602   0.513   1.674
 7689SOL    HW123966   4.629   0.608   1.692
 7689SOL    HW223967   4.503   0.506   1.673
 7690SOL     OW23968   6.482   5.234   0.520
 7690SOL    HW123969   6.501   5.136   0.521
 7690SOL    HW223970   6.392   5.251   0.560
 7691SOL     OW23971   4.424   4.522   3.512
 7691SOL    HW123972   4.509   4.548   3.558
 7691SOL    HW223973   4.357   4.493   3.580
 7692SOL     OW23974   0.957   6.432   2.298
 7692SOL    HW123975   0.963   6.357   2.233
 7692SOL    HW223976   0.939   6.517   2.250
 7693SOL     OW23977   2.500   1.083   0.836
 7693SOL    HW123978   2.455   1.151   0.779
 7693SOL    HW223979   2.572   1.127   0.891
 7694SOL     OW23980   6.037   2.603   4.643
 7694SOL    HW123981   6.122   2.634   4.684
 7694SOL    HW223982   5.985   2.682   4.610
 7695SOL     OW23983   6.293   0.408   3.253
 7695SOL    HW123984   6.326   0.498   3.225
 7695SOL    HW223985   6.357   0.338   3.221
 7696SOL     OW23986   0.568   2.442   6.517
 7696SOL    HW123987   0.584   2.520   6.578
 7696SOL    HW223988   0.478   2.451   6.474
 7697SOL     OW23989   3.734   0.097   2.827
 7697SOL    HW123990   3.727   0.196   2.844
 7697SOL    HW223991   3.825   0.066   2.853
 7698SOL     OW23992   6.439   1.986   6.707
 7698SOL    HW123993   6.345   2.007   6.680
 7698SOL    HW223994   6.440   1.952   6.801
 7699SOL     OW23995   3.428   5.600   6.652
 7699SOL    HW123996   3.378   5.661   6.713
 7699SOL    HW223997   3.496   5.548   6.704
 7700SOL     OW23998   4.776   6.130   2.712
 7700SOL    HW123999   4.825   6.100   2.794
 7700SOL    HW224000   4.712   6.059   2.684
 7701SOL     OW24001   0.259   2.791   6.155
 7701SOL    HW124002   0.239   2.834   6.066
 7701SOL    HW224003   0.261   2.862   6.226
 7702SOL     OW24004   4.519   6.969   5.181
 7702SOL    HW124005   4.422   6.990   5.185
 7702SOL    HW224006   4.569   0.002   5.244
 7703SOL     OW24007   6.314   6.624   4.273
 7703SOL    HW124008   6.375   6.690   4.317
 7703SOL    HW224009   6.223   6.632   4.311
 7704SOL     OW24010   6.275   1.484   3.922
 7704SOL    HW124011   6.247   1.577   3.943
 7704SOL    HW224012   6.321   1.482   3.833
 7705SOL     OW24013   2.186   4.708   0.446
 7705SOL    HW124014   2.170   4.749   0.536
 7705SOL    HW224015   2.184   4.609   0.454
 7706SOL     OW24016   3.672   2.932   2.709
 7706SOL    HW124017   3.755   2.921   2.764
 7706SOL    HW224018   3.696   2.966   2.619
 7707SOL     OW24019   6.885   5.965   6.869
 7707SOL    HW124020   6.860   5.929   6.958
 7707SOL    HW224021   6.946   6.043   6.880
 7708SOL     OW24022   2.740   6.465   4.393
 7708SOL    HW124023   2.732   6.514   4.306
 7708SOL    HW224024   2.668   6.496   4.455
 7709SOL     OW24025   6.693   4.530   0.958
 7709SOL    HW124026   6.707   4.567   0.866
 7709SOL    HW224027   6.681   4.606   1.023
 7710SOL     OW24028   1.709   3.227   0.714
 7710SOL    HW124029   1.774   3.151   0.707
 7710SOL    HW224030   1.742   3.305   0.661
 7711SOL     OW24031   6.692   4.799   5.622
 7711SOL    HW124032   6.631   4.720   5.632
 7711SOL    HW224033   6.641   4.883   5.640
 7712SOL     OW24034   6.540   4.844   6.090
 7712SOL    HW124035   6.621   4.894   6.063
 7712SOL    HW224036   6.463   4.907   6.100
 7713SOL     OW24037   1.848   4.822   0.648
 7713SOL    HW124038   1.808   4.893   0.707
 7713SOL    HW224039   1.933   4.789   0.690
 7714SOL     OW24040   6.661   0.945   4.138
 7714SOL    HW124041   6.678   0.897   4.224
 7714SOL    HW224042   6.562   0.946   4.119
 7715SOL     OW24043   1.918   2.669   6.352
 7715SOL    HW124044   2.007   2.712   6.369
 7715SOL    HW224045   1.861   2.680   6.433
 7716SOL     OW24046   0.535   5.705   6.322
 7716SOL    HW124047   0.633   5.715   6.342
 7716SOL    HW224048   0.513   5.608   6.310
 7717SOL     OW24049   1.405   1.865   6.594
 7717SOL    HW124050   1.455   1.846   6.679
 7717SOL    HW224051   1.357   1.952   6.603
 7718SOL     OW24052   1.584   4.352   2.713
 7718SOL    HW124053   1.646   4.303   2.774
 7718SOL    HW224054   1.489   4.333   2.740
 7719SOL     OW24055   1.731   4.143   4.548
 7719SOL    HW124056   1.764   4.085   4.622
 7719SOL    HW224057   1.788   4.128   4.467
 7720SOL     OW24058   6.340   1.807   6.454
 7720SOL    HW124059   6.431   1.765   6.465
 7720SOL    HW224060   6.308   1.840   6.542
 7721SOL     OW24061   1.176   0.133   2.691
 7721SOL    HW124062   1.166   0.202   2.763
 7721SOL    HW224063   1.252   0.158   2.631
 7722SOL     OW24064   2.591   5.316   4.027
 7722SOL    HW124065   2.525   5.379   3.986
 7722SOL    HW224066   2.547   5.264   4.100
 7723SOL     OW24067   5.046   3.062   6.923
 7723SOL    HW124068   5.019   3.156   6.945
 7723SOL    HW224069   4.971   3.000   6.946
 7724SOL     OW24070   2.791   4.143   1.613
 7724SOL    HW124071   2.746   4.160   1.526
 7724SOL    HW224072   2.795   4.045   1.631
 7725SOL     OW24073   5.701   2.688   2.612
 7725SOL    HW124074   5.800   2.693   2.598
 7725SOL    HW224075   5.681   2.673   2.709
 7726SOL     OW24076   0.688   3.282   5.920
 7726SOL    HW124077   0.759   3.308   5.985
 7726SOL    HW224078   0.697   3.185   5.898
 7727SOL     OW24079   4.965   2.639   2.225
 7727SOL    HW124080   4.881   2.691   2.209
 7727SOL    HW224081   4.963   2.600   2.317
 7728SOL     OW24082   2.185   3.142   4.857
 7728SOL    HW124083   2.248   3.117   4.931
 7728SOL    HW224084   2.097   3.096   4.871
 7729SOL     OW24085   6.343   2.275   3.026
 7729SOL    HW124086   6.302   2.289   3.116
 7729SOL    HW224087   6.271   2.259   2.959
 7730SOL     OW24088   5.890   4.766   5.312
 7730SOL    HW124089   5.975   4.808   5.343
 7730SOL    HW224090   5.831   4.748   5.391
 7731SOL     OW24091   5.751   7.019   0.609
 7731SOL    HW124092   5.822   0.063   0.613
 7731SOL    HW224093   5.701   0.002   0.523
 7732SOL     OW24094   4.544   0.603   6.314
 7732SOL    HW124095   4.555   0.619   6.412
 7732SOL    HW224096   4.454   0.562   6.297
 7733SOL     OW24097   6.612   6.059   2.271
 7733SOL    HW124098   6.624   6.077   2.173
 7733SOL    HW224099   6.648   5.968   2.292
 7734SOL     OW24100   2.839   4.135   5.308
 7734SOL    HW124101   2.848   4.044   5.268
 7734SOL    HW224102   2.921   4.189   5.286
 7735SOL     OW24103   6.404   6.377   0.089
 7735SOL    HW124104   6.335   6.449   0.082
 7735SOL    HW224105   6.358   6.288   0.088
 7736SOL     OW24106   3.077   2.913   0.474
 7736SOL    HW124107   3.169   2.890   0.445
 7736SOL    HW224108   3.074   3.010   0.500
 7737SOL     OW24109   4.420   5.515   1.050
 7737SOL    HW124110   4.417   5.419   1.077
 7737SOL    HW224111   4.508   5.535   1.006
 7738SOL     OW24112   2.839   6.114   6.753
 7738SOL    HW124113   2.846   6.036   6.815
 7738SOL    HW224114   2.745   6.148   6.754
 7739SOL     OW24115   1.357   2.673   1.690
 7739SOL    HW124116   1.284   2.605   1.688
 7739SOL    HW224117   1.375   2.706   1.597
 7740SOL     OW24118   0.991   1.066   3.899
 7740SOL    HW124119   0.944   1.150   3.927
 7740SOL    HW224120   0.972   0.993   3.965
 7741SOL     OW24121   1.823   5.072   6.137
 7741SOL    HW124122   1.822   4.975   6.160
 7741SOL    HW224123   1.909   5.095   6.093
 7742SOL     OW24124   3.748   1.448   4.060
 7742SOL    HW124125   3.761   1.517   4.131
 7742SOL    HW224126   3.742   1.358   4.102
 7743SOL     OW24127   5.219   1.009   6.699
 7743SOL    HW124128   5.198   1.051   6.612
 7743SOL    HW224129   5.155   1.043   6.769
 7744SOL     OW24130   0.754   5.730   4.713
 7744SOL    HW124131   0.753   5.752   4.811
 7744SOL    HW224132   0.701   5.646   4.698
 7745SOL     OW24133   1.618   6.305   0.234
 7745SOL    HW124134   1.696   6.366   0.250
 7745SOL    HW224135   1.611   6.240   0.309
 7746SOL     OW24136   0.923   6.368   1.077
 7746SOL    HW124137   0.975   6.286   1.057
 7746SOL    HW224138   0.936   6.394   1.173
 7747SOL     OW24139   0.036   6.424   0.843
 7747SOL    HW124140   0.109   6.487   0.870
 7747SOL    HW224141   0.007   6.444   0.749
 7748SOL     OW24142   3.980   2.824   6.007
 7748SOL    HW124143   3.930   2.864   5.931
 7748SOL    HW224144   4.056   2.884   6.033
 7749SOL     OW24145   3.655   3.802   3.850
 7749SOL    HW124146   3.627   3.855   3.931
 7749SOL    HW224147   3.592   3.820   3.775
 7750SOL     OW24148   5.957   4.482   6.039
 7750SOL    HW124149   6.031   4.507   6.100
 7750SOL    HW224150   5.879   4.449   6.093
 7751SOL     OW24151   6.933   1.654   4.873
 7751SOL    HW124152   6.870   1.703   4.814
 7751SOL    HW224153   6.908   1.557   4.875
 7752SOL     OW24154   5.785   5.372   5.025
 7752SOL    HW124155   5.728   5.333   4.952
 7752SOL    HW224156   5.858   5.427   4.984
 7753SOL     OW24157   2.443   0.493   4.077
 7753SOL    HW124158   2.382   0.564   4.041
 7753SOL    HW224159   2.518   0.536   4.127
 7754SOL     OW24160   5.846   0.439   1.309
 7754SOL    HW124161   5.800   0.437   1.220
 7754SOL    HW224162   5.854   0.534   1.340
 7755SOL     OW24163   0.028   6.271   5.337
 7755SOL    HW124164   0.040   6.201   5.266
 7755SOL    HW224165   0.003   6.358   5.295
 7756SOL     OW24166   2.825   4.725   2.489
 7756SOL    HW124167   2.759   4.760   2.423
 7756SOL    HW224168   2.918   4.748   2.460
 7757SOL     OW24169   4.549   6.400   5.519
 7757SOL    HW124170   4.480   6.332   5.544
 7757SOL    HW224171   4.510   6.491   5.525
 7758SOL     OW24172   2.368   2.616   6.278
 7758SOL    HW124173   2.282   2.605   6.229
 7758SOL    HW224174   2.434   2.665   6.221
 7759SOL     OW24175   2.220   0.549   4.294
 7759SOL    HW124176   2.131   0.594   4.290
 7759SOL    HW224177   2.267   0.559   4.206
 7760SOL     OW24178   5.335   3.005   2.131
 7760SOL    HW124179   5.423   2.957   2.130
 7760SOL    HW224180   5.351   3.103   2.140
 7761SOL     OW24181   3.436   6.866   6.416
 7761SOL    HW124182   3.469   6.960   6.413
 7761SOL    HW224183   3.434   6.834   6.511
 7762SOL     OW24184   4.125   1.245   0.514
 7762SOL    HW124185   4.121   1.341   0.488
 7762SOL    HW224186   4.133   1.188   0.432
 7763SOL     OW24187   1.156   1.647   0.978
 7763SOL    HW124188   1.166   1.720   1.046
 7763SOL    HW224189   1.199   1.675   0.892
 7764SOL     OW24190   3.997   3.457   2.537
 7764SOL    HW124191   4.021   3.429   2.630
 7764SOL    HW224192   4.066   3.521   2.502
 7765SOL     OW24193   6.323   3.390   3.555
 7765SOL    HW124194   6.275   3.426   3.474
 7765SOL    HW224195   6.389   3.458   3.586
 7766SOL     OW24196   6.088   1.556   0.032
 7766SOL    HW124197   6.055   1.513   0.116
 7766SOL    HW224198   6.063   1.653   0.031
 7767SOL     OW24199   4.064   6.301   3.961
 7767SOL    HW124200   4.161   6.316   3.942
 7767SOL    HW224201   4.037   6.212   3.923
 7768SOL     OW24202   3.345   4.932   2.457
 7768SOL    HW124203   3.440   4.930   2.486
 7768SOL    HW224204   3.340   4.945   2.358
 7769SOL     OW24205   4.502   2.161   0.924
 7769SOL    HW124206   4.525   2.078   0.873
 7769SOL    HW224207   4.467   2.137   1.014
 7770SOL     OW24208   3.084   4.916   1.853
 7770SOL    HW124209   3.152   4.902   1.924
 7770SOL    HW224210   2.994   4.931   1.895
 7771SOL     OW24211   2.633   1.968   4.895
 7771SOL    HW124212   2.658   1.876   4.925
 7771SOL    HW224213   2.647   2.033   4.970
 7772SOL     OW24214   4.816   0.993   4.192
 7772SOL    HW124215   4.888   1.057   4.167
 7772SOL    HW224216   4.823   0.972   4.290
 7773SOL     OW24217   4.157   4.087   6.023
 7773SOL    HW124218   4.133   3.990   6.034
 7773SOL    HW224219   4.240   4.094   5.967
 7774SOL     OW24220   5.351   1.269   5.888
 7774SOL    HW124221   5.275   1.278   5.953
 7774SOL    HW224222   5.410   1.349   5.894
 7775SOL     OW24223   3.751   6.718   3.194
 7775SOL    HW124224   3.665   6.757   3.227
 7775SOL    HW224225   3.744   6.703   3.095
 7776SOL     OW24226   3.651   3.194   6.025
 7776SOL    HW124227   3.660   3.293   6.034
 7776SOL    HW224228   3.557   3.167   6.048
 7777SOL     OW24229   2.114   1.031   6.533
 7777SOL    HW124230   2.080   0.986   6.451
 7777SOL    HW224231   2.043   1.093   6.568
 7778SOL     OW24232   5.519   0.404   0.518
 7778SOL    HW124233   5.553   0.322   0.473
 7778SOL    HW224234   5.561   0.413   0.608
 7779SOL     OW24235   3.203   2.154   0.939
 7779SOL    HW124236   3.214   2.109   1.028
 7779SOL    HW224237   3.226   2.251   0.948
 7780SOL     OW24238   1.093   6.095   4.093
 7780SOL    HW124239   1.069   5.998   4.093
 7780SOL    HW224240   1.189   6.105   4.064
 7781SOL     OW24241   1.675   3.571   5.830
 7781SOL    HW124242   1.763   3.591   5.786
 7781SOL    HW224243   1.674   3.612   5.922
 7782SOL     OW24244   2.422   4.040   6.532
 7782SOL    HW124245   2.384   4.106   6.469
 7782SOL    HW224246   2.514   4.068   6.559
 7783SOL     OW24247   2.426   6.379   6.511
 7783SOL    HW124248   2.461   6.471   6.529
 7783SOL    HW224249   2.359   6.382   6.437
 7784SOL     OW24250   0.840   2.586   6.961
 7784SOL    HW124251   0.750   2.596   7.004
 7784SOL    HW224252   0.906   2.554   0.003
 7785SOL     OW24253   2.444   6.730   3.487
 7785SOL    HW124254   2.516   6.714   3.419
 7785SOL    HW224255   2.400   6.818   3.469
 7786SOL     OW24256   3.119   4.569   5.317
 7786SOL    HW124257   3.096   4.641   5.383
 7786SOL    HW224258   3.035   4.530   5.280
 7787SOL     OW24259   2.203   2.831   5.130
 7787SOL    HW124260   2.259   2.905   5.092
 7787SOL    HW224261   2.237   2.743   5.098
 7788SOL     OW24262   1.546   1.912   1.604
 7788SOL    HW124263   1.469   1.852   1.582
 7788SOL    HW224264   1.600   1.927   1.521
 7789SOL     OW24265   3.031   0.551   0.955
 7789SOL    HW124266   2.990   0.471   0.999
 7789SOL    HW224267   2.959   0.606   0.913
 7790SOL     OW24268   6.710   4.290   3.026
 7790SOL    HW124269   6.680   4.206   2.981
 7790SOL    HW224270   6.760   4.267   3.110
 7791SOL     OW24271   2.464   6.001   4.733
 7791SOL    HW124272   2.486   6.098   4.723
 7791SOL    HW224273   2.365   5.989   4.741
 7792SOL     OW24274   1.638   6.029   6.405
 7792SOL    HW124275   1.681   6.112   6.439
 7792SOL    HW224276   1.644   6.026   6.305
 7793SOL     OW24277   1.603   1.177   5.444
 7793SOL    HW124278   1.607   1.229   5.359
 7793SOL    HW224279   1.682   1.199   5.501
 7794SOL     OW24280   4.955   5.042   4.276
 7794SOL    HW124281   4.949   4.944   4.289
 7794SOL    HW224282   5.022   5.081   4.339
 7795SOL     OW24283   1.940   4.102   5.636
 7795SOL    HW124284   1.906   4.195   5.648
 7795SOL    HW224285   2.034   4.105   5.602
 7796SOL     OW24286   3.931   3.880   3.694
 7796SOL    HW124287   3.874   3.801   3.717
 7796SOL    HW224288   3.991   3.901   3.771
 7797SOL     OW24289   0.297   6.300   3.044
 7797SOL    HW124290   0.289   6.387   2.994
 7797SOL    HW224291   0.309   6.319   3.141
 7798SOL     OW24292   3.059   5.613   0.053
 7798SOL    HW124293   3.124   5.540   0.033
 7798SOL    HW224294   3.017   5.645   6.993
 7799SOL     OW24295   6.668   5.765   1.232
 7799SOL    HW124296   6.651   5.816   1.148
 7799SOL    HW224297   6.759   5.724   1.228
 7800SOL     OW24298   0.441   5.079   1.351
 7800SOL    HW124299   0.381   5.013   1.396
 7800SOL    HW224300   0.524   5.091   1.405
 7801SOL     OW24301   2.290   1.080   0.049
 7801SOL    HW124302   2.248   1.143   0.115
 7801SOL    HW224303   2.222   1.053   7.007
 7802SOL     OW24304   5.922   2.771   2.033
 7802SOL    HW124305   5.970   2.710   2.096
 7802SOL    HW224306   5.877   2.717   1.962
 7803SOL     OW24307   4.359   3.907   5.783
 7803SOL    HW124308   4.431   3.960   5.738
 7803SOL    HW224309   4.383   3.894   5.879
 7804SOL     OW24310   5.645   1.529   4.350
 7804SOL    HW124311   5.562   1.541   4.404
 7804SOL    HW224312   5.621   1.528   4.253
 7805SOL     OW24313   5.528   2.052   1.639
 7805SOL    HW124314   5.451   2.023   1.582
 7805SOL    HW224315   5.516   2.148   1.665
 7806SOL     OW24316   5.337   3.025   6.195
 7806SOL    HW124317   5.303   3.013   6.288
 7806SOL    HW224318   5.267   2.996   6.130
 7807SOL     OW24319   0.216   4.662   6.330
 7807SOL    HW124320   0.188   4.651   6.234
 7807SOL    HW224321   0.314   4.646   6.338
 7808SOL     OW24322   0.615   1.489   5.029
 7808SOL    HW124323   0.689   1.498   5.096
 7808SOL    HW224324   0.630   1.407   4.974
 7809SOL     OW24325   2.083   5.461   4.453
 7809SOL    HW124326   2.081   5.494   4.359
 7809SOL    HW224327   2.128   5.371   4.456
 7810SOL     OW24328   3.250   0.962   5.481
 7810SOL    HW124329   3.279   0.964   5.576
 7810SOL    HW224330   3.200   1.046   5.459
 7811SOL     OW24331   5.703   4.840   4.006
 7811SOL    HW124332   5.613   4.881   3.988
 7811SOL    HW224333   5.758   4.844   3.922
 7812SOL     OW24334   1.621   1.968   4.580
 7812SOL    HW124335   1.592   2.054   4.539
 7812SOL    HW224336   1.550   1.935   4.642
 7813SOL     OW24337   5.498   2.981   0.037
 7813SOL    HW124338   5.427   3.049   0.019
 7813SOL    HW224339   5.573   2.993   6.997
 7814SOL     OW24340   0.029   2.759   3.407
 7814SOL    HW124341   7.001   2.799   3.482
 7814SOL    HW224342   0.114   2.721   3.443
 7815SOL     OW24343   5.257   1.672   6.861
 7815SOL    HW124344   5.306   1.630   6.938
 7815SOL    HW224345   5.233   1.766   6.884
 7816SOL     OW24346   0.711   3.735   5.799
 7816SOL    HW124347   0.731   3.833   5.788
 7816SOL    HW224348   0.768   3.682   5.737
 7817SOL     OW24349   5.802   4.081   4.347
 7817SOL    HW124350   5.718   4.117   4.305
 7817SOL    HW224351   5.806   4.107   4.443
 7818SOL     OW24352   5.964   6.710   1.199
 7818SOL    HW124353   6.044   6.755   1.237
 7818SOL    HW224354   5.892   6.777   1.183
 7819SOL     OW24355   0.114   2.779   1.186
 7819SOL    HW124356   0.213   2.791   1.200
 7819SOL    HW224357   0.098   2.750   1.091
 7820SOL     OW24358   2.134   1.793   5.422
 7820SOL    HW124359   2.132   1.734   5.341
 7820SOL    HW224360   2.047   1.843   5.428
 7821SOL     OW24361   4.168   5.594   0.908
 7821SOL    HW124362   4.244   5.556   0.960
 7821SOL    HW224363   4.105   5.641   0.970
 7822SOL     OW24364   0.789   6.287   5.254
 7822SOL    HW124365   0.838   6.233   5.187
 7822SOL    HW224366   0.851   6.354   5.295
 7823SOL     OW24367   2.319   4.375   4.726
 7823SOL    HW124368   2.384   4.451   4.726
 7823SOL    HW224369   2.302   4.345   4.632
 7824SOL     OW24370   6.945   2.551   5.211
 7824SOL    HW124371   6.961   2.486   5.137
 7824SOL    HW224372   6.848   2.552   5.235
 7825SOL     OW24373   2.320   3.018   6.710
 7825SOL    HW124374   2.244   3.052   6.655
 7825SOL    HW224375   2.285   2.955   6.780
 7826SOL     OW24376   6.618   2.031   0.328
 7826SOL    HW124377   6.597   2.021   0.425
 7826SOL    HW224378   6.590   1.948   0.279
 7827SOL     OW24379   0.213   5.960   2.867
 7827SOL    HW124380   0.224   5.976   2.769
 7827SOL    HW224381   0.147   6.025   2.904
 7828SOL     OW24382   0.028   3.844   6.471
 7828SOL    HW124383   0.086   3.881   6.399
 7828SOL    HW224384   0.059   3.752   6.495
 7829SOL     OW24385   3.422   3.017   1.263
 7829SOL    HW124386   3.352   3.036   1.332
 7829SOL    HW224387   3.396   2.936   1.210
 7830SOL     OW24388   3.243   5.402   4.831
 7830SOL    HW124389   3.255   5.451   4.745
 7830SOL    HW224390   3.207   5.311   4.812
 7831SOL     OW24391   2.042   1.759   1.086
 7831SOL    HW124392   2.043   1.821   1.164
 7831SOL    HW224393   1.950   1.720   1.075
 7832SOL     OW24394   5.537   0.546   4.869
 7832SOL    HW124395   5.566   0.639   4.892
 7832SOL    HW224396   5.457   0.551   4.809
 7833SOL     OW24397   1.275   0.106   3.971
 7833SOL    HW124398   1.296   0.112   4.069
 7833SOL    HW224399   1.203   0.171   3.948
 7834SOL     OW24400   6.296   2.253   4.269
 7834SOL    HW124401   6.284   2.275   4.173
 7834SOL    HW224402   6.262   2.160   4.286
 7835SOL     OW24403   4.284   1.517   5.421
 7835SOL    HW124404   4.350   1.590   5.405
 7835SOL    HW224405   4.251   1.482   5.333
 7836SOL     OW24406   3.985   3.994   5.420
 7836SOL    HW124407   3.923   3.947   5.357
 7836SOL    HW224408   4.079   3.987   5.386
 7837SOL     OW24409   5.920   6.757   0.402
 7837SOL    HW124410   6.006   6.706   0.406
 7837SOL    HW224411   5.940   6.855   0.394
 7838SOL     OW24412   5.733   5.604   1.254
 7838SOL    HW124413   5.769   5.681   1.202
 7838SOL    HW224414   5.793   5.586   1.333
 7839SOL     OW24415   6.359   4.611   4.451
 7839SOL    HW124416   6.457   4.618   4.434
 7839SOL    HW224417   6.337   4.519   4.482
 7840SOL     OW24418   1.342   4.349   3.548
 7840SOL    HW124419   1.394   4.434   3.553
 7840SOL    HW224420   1.277   4.345   3.624
 7841SOL     OW24421   5.061   1.978   6.475
 7841SOL    HW124422   5.055   1.896   6.531
 7841SOL    HW224423   4.975   1.992   6.426
 7842SOL     OW24424   2.103   1.247   2.632
 7842SOL    HW124425   2.180   1.194   2.598
 7842SOL    HW224426   2.104   1.248   2.732
 7843SOL     OW24427   6.670   6.671   4.174
 7843SOL    HW124428   6.689   6.691   4.270
 7843SOL    HW224429   6.701   6.579   4.152
 7844SOL     OW24430   3.471   1.246   2.652
 7844SOL    HW124431   3.473   1.146   2.652
 7844SOL    HW224432   3.527   1.281   2.727
 7845SOL     OW24433   5.953   1.790   1.925
 7845SOL    HW124434   5.985   1.746   1.841
 7845SOL    HW224435   5.853   1.787   1.927
 7846SOL     OW24436   1.478   2.739   0.433
 7846SOL    HW124437   1.537   2.791   0.371
 7846SOL    HW224438   1.427   2.671   0.381
 7847SOL     OW24439   6.121   2.425   3.724
 7847SOL    HW124440   6.164   2.497   3.778
 7847SOL    HW224441   6.045   2.385   3.775
 7848SOL     OW24442   2.576   4.439   1.090
 7848SOL    HW124443   2.672   4.419   1.110
 7848SOL    HW224444   2.530   4.356   1.060
 7849SOL     OW24445   5.473   3.246   6.043
 7849SOL    HW124446   5.402   3.198   6.095
 7849SOL    HW224447   5.485   3.338   6.079
 7850SOL     OW24448   6.878   1.346   3.439
 7850SOL    HW124449   6.956   1.301   3.482
 7850SOL    HW224450   6.800   1.346   3.501
 7851SOL     OW24451   1.243   3.820   1.321
 7851SOL    HW124452   1.276   3.858   1.234
 7851SOL    HW224453   1.257   3.886   1.394
 7852SOL     OW24454   3.095   1.671   0.293
 7852SOL    HW124455   3.048   1.607   0.354
 7852SOL    HW224456   3.086   1.764   0.328
 7853SOL     OW24457   3.868   3.105   1.693
 7853SOL    HW124458   3.849   3.023   1.639
 7853SOL    HW224459   3.956   3.143   1.666
 7854SOL     OW24460   4.598   1.832   5.916
 7854SOL    HW124461   4.525   1.863   5.854
 7854SOL    HW224462   4.652   1.761   5.870
 7855SOL     OW24463   5.086   6.708   4.709
 7855SOL    HW124464   5.062   6.620   4.668
 7855SOL    HW224465   5.086   6.699   4.809
 7856SOL     OW24466   1.672   4.834   4.716
 7856SOL    HW124467   1.705   4.806   4.626
 7856SOL    HW224468   1.745   4.825   4.784
 7857SOL     OW24469   5.522   3.786   0.331
 7857SOL    HW124470   5.505   3.738   0.417
 7857SOL    HW224471   5.510   3.884   0.345
 7858SOL     OW24472   0.192   5.482   5.819
 7858SOL    HW124473   0.240   5.464   5.734
 7858SOL    HW224474   0.181   5.397   5.870
 7859SOL     OW24475   5.209   3.035   6.451
 7859SOL    HW124476   5.117   3.075   6.453
 7859SOL    HW224477   5.203   2.936   6.468
 7860SOL     OW24478   3.129   1.193   4.585
 7860SOL    HW124479   3.094   1.127   4.518
 7860SOL    HW224480   3.086   1.175   4.674
 7861SOL     OW24481   2.614   5.747   1.658
 7861SOL    HW124482   2.517   5.738   1.679
 7861SOL    HW224483   2.630   5.832   1.609
 7862SOL     OW24484   3.015   5.888   1.851
 7862SOL    HW124485   3.068   5.810   1.885
 7862SOL    HW224486   2.920   5.860   1.837
 7863SOL     OW24487   6.769   4.284   3.556
 7863SOL    HW124488   6.805   4.373   3.585
 7863SOL    HW224489   6.676   4.273   3.591
 7864SOL     OW24490   2.189   5.874   6.143
 7864SOL    HW124491   2.276   5.899   6.100
 7864SOL    HW224492   2.119   5.941   6.119
 7865SOL     OW24493   5.921   6.104   4.139
 7865SOL    HW124494   5.889   6.170   4.071
 7865SOL    HW224495   5.921   6.147   4.229
 7866SOL     OW24496   1.906   0.742   6.051
 7866SOL    HW124497   1.888   0.764   6.147
 7866SOL    HW224498   1.913   0.827   5.999
 7867SOL     OW24499   5.641   0.649   3.951
 7867SOL    HW124500   5.635   0.682   3.856
 7867SOL    HW224501   5.687   0.560   3.951
 7868SOL     OW24502   4.105   5.939   0.914
 7868SOL    HW124503   4.181   5.922   0.977
 7868SOL    HW224504   4.071   6.032   0.929
 7869SOL     OW24505   6.003   4.391   5.736
 7869SOL    HW124506   6.003   4.396   5.836
 7869SOL    HW224507   6.005   4.483   5.698
 7870SOL     OW24508   4.354   6.438   5.239
 7870SOL    HW124509   4.438   6.464   5.190
 7870SOL    HW224510   4.275   6.473   5.190
 7871SOL     OW24511   5.323   1.449   2.314
 7871SOL    HW124512   5.387   1.447   2.390
 7871SOL    HW224513   5.262   1.527   2.323
 7872SOL     OW24514   1.885   4.969   2.546
 7872SOL    HW124515   1.966   4.957   2.603
 7872SOL    HW224516   1.852   5.063   2.554
 7873SOL     OW24517   6.719   1.183   0.718
 7873SOL    HW124518   6.708   1.147   0.625
 7873SOL    HW224519   6.767   1.271   0.714
 7874SOL     OW24520   5.702   2.543   1.234
 7874SOL    HW124521   5.637   2.493   1.177
 7874SOL    HW224522   5.653   2.602   1.298
 7875SOL     OW24523   3.821   4.298   6.902
 7875SOL    HW124524   3.739   4.284   6.847
 7875SOL    HW224525   3.902   4.271   6.849
 7876SOL     OW24526   0.637   0.140   2.491
 7876SOL    HW124527   0.670   0.149   2.585
 7876SOL    HW224528   0.543   0.173   2.486
 7877SOL     OW24529   6.428   1.765   3.045
 7877SOL    HW124530   6.441   1.856   3.006
 7877SOL    HW224531   6.331   1.749   3.062
 7878SOL     OW24532   4.699   4.307   3.629
 7878SOL    HW124533   4.753   4.374   3.577
 7878SOL    HW224534   4.640   4.356   3.694
 7879SOL     OW24535   2.996   5.188   3.692
 7879SOL    HW124536   2.996   5.127   3.613
 7879SOL    HW224537   2.928   5.260   3.679
 7880SOL     OW24538   2.479   3.913   1.654
 7880SOL    HW124539   2.424   3.922   1.737
 7880SOL    HW224540   2.426   3.947   1.576
 7881SOL     OW24541   5.022   3.636   4.612
 7881SOL    HW124542   4.951   3.707   4.613
 7881SOL    HW224543   4.981   3.547   4.596
 7882SOL     OW24544   2.438   3.486   1.326
 7882SOL    HW124545   2.518   3.429   1.347
 7882SOL    HW224546   2.387   3.504   1.410
 7883SOL     OW24547   0.674   1.063   5.264
 7883SOL    HW124548   0.605   1.129   5.233
 7883SOL    HW224549   0.683   0.989   5.197
 7884SOL     OW24550   0.631   3.043   4.837
 7884SOL    HW124551   0.647   3.137   4.808
 7884SOL    HW224552   0.559   3.041   4.906
 7885SOL     OW24553   5.885   5.371   0.482
 7885SOL    HW124554   5.924   5.448   0.532
 7885SOL    HW224555   5.929   5.363   0.392
 7886SOL     OW24556   4.833   5.544   0.211
 7886SOL    HW124557   4.829   5.445   0.199
 7886SOL    HW224558   4.875   5.585   0.130
 7887SOL     OW24559   4.607   1.860   6.879
 7887SOL    HW124560   4.704   1.838   6.864
 7887SOL    HW224561   4.583   1.941   6.825
 7888SOL     OW24562   5.055   0.419   4.718
 7888SOL    HW124563   5.120   0.495   4.718
 7888SOL    HW224564   4.991   0.431   4.643
 7889SOL     OW24565   0.465   5.518   2.209
 7889SOL    HW124566   0.458   5.486   2.114
 7889SOL    HW224567   0.388   5.579   2.229
 7890SOL     OW24568   2.206   3.972   2.123
 7890SOL    HW124569   2.185   4.070   2.131
 7890SOL    HW224570   2.278   3.949   2.189
 7891SOL     OW24571   2.498   4.566   2.333
 7891SOL    HW124572   2.530   4.542   2.242
 7891SOL    HW224573   2.450   4.654   2.331
 7892SOL     OW24574   1.944   2.624   5.389
 7892SOL    HW124575   2.023   2.656   5.441
 7892SOL    HW224576   1.962   2.532   5.353
 7893SOL     OW24577   5.880   6.443   0.812
 7893SOL    HW124578   5.931   6.473   0.893
 7893SOL    HW224579   5.793   6.492   0.807
 7894SOL     OW24580   2.270   6.263   2.199
 7894SOL    HW124581   2.203   6.325   2.240
 7894SOL    HW224582   2.333   6.231   2.270
 7895SOL     OW24583   6.072   0.868   4.914
 7895SOL    HW124584   6.112   0.908   4.997
 7895SOL    HW224585   6.144   0.826   4.859
 7896SOL     OW24586   5.250   3.927   5.655
 7896SOL    HW124587   5.262   3.948   5.558
 7896SOL    HW224588   5.161   3.960   5.685
 7897SOL     OW24589   2.237   3.879   6.620
 7897SOL    HW124590   2.274   3.797   6.663
 7897SOL    HW224591   2.311   3.944   6.600
 7898SOL     OW24592   4.152   2.316   3.946
 7898SOL    HW124593   4.056   2.291   3.958
 7898SOL    HW224594   4.207   2.272   4.017
 7899SOL     OW24595   5.704   2.529   2.179
 7899SOL    HW124596   5.630   2.558   2.119
 7899SOL    HW224597   5.680   2.442   2.223
 7900SOL     OW24598   1.698   5.614   1.202
 7900SOL    HW124599   1.619   5.626   1.143
 7900SOL    HW224600   1.770   5.679   1.176
 7901SOL     OW24601   6.668   6.504   6.151
 7901SOL    HW124602   6.656   6.597   6.116
 7901SOL    HW224603   6.681   6.441   6.074
 7902SOL     OW24604   4.667   4.470   0.959
 7902SOL    HW124605   4.607   4.404   0.913
 7902SOL    HW224606   4.686   4.437   1.052
 7903SOL     OW24607   6.528   1.795   0.227
 7903SOL    HW124608   6.583   1.718   0.260
 7903SOL    HW224609   6.431   1.772   0.234
 7904SOL     OW24610   0.361   1.444   2.601
 7904SOL    HW124611   0.344   1.534   2.561
 7904SOL    HW224612   0.361   1.375   2.529
 7905SOL     OW24613   4.088   1.221   1.259
 7905SOL    HW124614   4.077   1.208   1.358
 7905SOL    HW224615   4.140   1.144   1.222
 7906SOL     OW24616   5.712   5.682   6.791
 7906SOL    HW124617   5.613   5.667   6.793
 7906SOL    HW224618   5.730   5.778   6.766
 7907SOL     OW24619   6.735   2.638   3.990
 7907SOL    HW124620   6.664   2.568   3.988
 7907SOL    HW224621   6.695   2.727   4.013
 7908SOL     OW24622   7.000   1.517   3.890
 7908SOL    HW124623   7.002   1.579   3.812
 7908SOL    HW224624   0.044   1.545   3.956
 7909SOL     OW24625   4.752   4.349   4.650
 7909SOL    HW124626   4.785   4.259   4.677
 7909SOL    HW224627   4.683   4.380   4.716
 7910SOL     OW24628   4.593   3.517   5.634
 7910SOL    HW124629   4.520   3.586   5.632
 7910SOL    HW224630   4.662   3.543   5.702
 7911SOL     OW24631   6.678   4.711   0.738
 7911SOL    HW124632   6.720   4.677   0.654
 7911SOL    HW224633   6.685   4.811   0.741
 7912SOL     OW24634   6.193   4.563   6.180
 7912SOL    HW124635   6.273   4.567   6.120
 7912SOL    HW224636   6.213   4.613   6.265
 7913SOL     OW24637   6.990   5.445   6.823
 7913SOL    HW124638   6.991   5.501   6.906
 7913SOL    HW224639   0.051   5.457   6.774
 7914SOL     OW24640   5.936   3.808   1.022
 7914SOL    HW124641   6.017   3.818   1.079
 7914SOL    HW224642   5.951   3.736   0.954
 7915SOL     OW24643   4.197   1.946   3.479
 7915SOL    HW124644   4.151   1.948   3.567
 7915SOL    HW224645   4.129   1.945   3.405
 7916SOL     OW24646   5.238   3.077   5.689
 7916SOL    HW124647   5.285   2.998   5.649
 7916SOL    HW224648   5.200   3.133   5.615
 7917SOL     OW24649   4.086   3.451   4.930
 7917SOL    HW124650   4.008   3.444   4.992
 7917SOL    HW224651   4.156   3.508   4.971
 7918SOL     OW24652   6.477   1.124   2.610
 7918SOL    HW124653   6.398   1.080   2.653
 7918SOL    HW224654   6.555   1.062   2.612
 7919SOL     OW24655   5.565   4.978   2.130
 7919SOL    HW124656   5.537   4.939   2.041
 7919SOL    HW224657   5.552   4.909   2.201
 7920SOL     OW24658   0.259   5.271   1.256
 7920SOL    HW124659   0.248   5.274   1.157
 7920SOL    HW224660   0.332   5.207   1.280
 7921SOL     OW24661   2.747   6.767   1.696
 7921SOL    HW124662   2.705   6.753   1.786
 7921SOL    HW224663   2.846   6.755   1.703
 7922SOL     OW24664   1.041   5.395   6.727
 7922SOL    HW124665   0.964   5.451   6.757
 7922SOL    HW224666   1.127   5.439   6.757
 7923SOL     OW24667   1.282   1.092   3.585
 7923SOL    HW124668   1.335   1.008   3.576
 7923SOL    HW224669   1.197   1.072   3.634
 7924SOL     OW24670   3.226   7.023   3.570
 7924SOL    HW124671   3.166   0.024   3.646
 7924SOL    HW224672   3.209   6.928   3.546
 7925SOL     OW24673   6.144   1.611   6.374
 7925SOL    HW124674   6.113   1.547   6.444
 7925SOL    HW224675   6.208   1.676   6.414
 7926SOL     OW24676   3.123   0.556   2.587
 7926SOL    HW124677   3.033   0.512   2.582
 7926SOL    HW224678   3.155   0.576   2.494
 7927SOL     OW24679   3.816   5.288   5.422
 7927SOL    HW124680   3.868   5.327   5.498
 7927SOL    HW224681   3.876   5.274   5.344
 7928SOL     OW24682   2.184   5.393   3.076
 7928SOL    HW124683   2.087   5.371   3.084
 7928SOL    HW224684   2.232   5.320   3.029
 7929SOL     OW24685   4.027   3.615   4.686
 7929SOL    HW124686   4.074   3.591   4.601
 7929SOL    HW224687   4.023   3.536   4.746
 7930SOL     OW24688   4.370   5.448   3.341
 7930SOL    HW124689   4.302   5.381   3.371
 7930SOL    HW224690   4.441   5.401   3.288
 7931SOL     OW24691   2.196   2.368   0.253
 7931SOL    HW124692   2.168   2.372   0.157
 7931SOL    HW224693   2.294   2.346   0.258
 7932SOL     OW24694   1.812   6.956   0.156
 7932SOL    HW124695   1.721   6.925   0.128
 7932SOL    HW224696   1.850   6.892   0.222
 7933SOL     OW24697   1.101   0.211   6.611
 7933SOL    HW124698   1.189   0.182   6.649
 7933SOL    HW224699   1.054   0.131   6.573
 7934SOL     OW24700   2.937   3.892   0.414
 7934SOL    HW124701   2.884   3.819   0.457
 7934SOL    HW224702   2.961   3.960   0.483
 7935SOL     OW24703   5.127   6.124   0.839
 7935SOL    HW124704   5.168   6.213   0.821
 7935SOL    HW224705   5.169   6.084   0.921
 7936SOL     OW24706   4.197   6.335   3.159
 7936SOL    HW124707   4.180   6.304   3.066
 7936SOL    HW224708   4.296   6.347   3.173
 7937SOL     OW24709   5.890   6.233   5.516
 7937SOL    HW124710   5.877   6.164   5.446
 7937SOL    HW224711   5.803   6.254   5.560
 7938SOL     OW24712   4.079   5.416   4.846
 7938SOL    HW124713   4.169   5.394   4.885
 7938SOL    HW224714   4.021   5.456   4.917
 7939SOL     OW24715   0.489   1.443   5.494
 7939SOL    HW124716   0.457   1.357   5.452
 7939SOL    HW224717   0.565   1.423   5.556
 7940SOL     OW24718   2.140   5.429   1.480
 7940SOL    HW124719   2.167   5.340   1.517
 7940SOL    HW224720   2.193   5.501   1.524
 7941SOL     OW24721   0.294   1.093   0.584
 7941SOL    HW124722   0.233   1.075   0.662
 7941SOL    HW224723   0.388   1.074   0.611
 7942SOL     OW24724   0.508   6.956   1.929
 7942SOL    HW124725   0.606   6.971   1.915
 7942SOL    HW224726   0.482   6.989   2.019
 7943SOL     OW24727   5.468   2.291   0.805
 7943SOL    HW124728   5.372   2.308   0.779
 7943SOL    HW224729   5.523   2.280   0.722
 7944SOL     OW24730   0.324   3.524   1.279
 7944SOL    HW124731   0.276   3.610   1.297
 7944SOL    HW224732   0.283   3.478   1.201
 7945SOL     OW24733   5.159   6.708   2.875
 7945SOL    HW124734   5.123   6.618   2.849
 7945SOL    HW224735   5.258   6.704   2.881
 7946SOL     OW24736   1.780   2.538   6.137
 7946SOL    HW124737   1.813   2.587   6.217
 7946SOL    HW224738   1.725   2.600   6.081
 7947SOL     OW24739   4.259   3.053   6.419
 7947SOL    HW124740   4.258   2.955   6.397
 7947SOL    HW224741   4.337   3.097   6.374
 7948SOL     OW24742   6.648   6.762   0.461
 7948SOL    HW124743   6.621   6.856   0.480
 7948SOL    HW224744   6.717   6.760   0.389
 7949SOL     OW24745   5.183   4.886   3.774
 7949SOL    HW124746   5.268   4.848   3.740
 7949SOL    HW224747   5.157   4.840   3.859
 7950SOL     OW24748   4.207   4.742   4.151
 7950SOL    HW124749   4.170   4.761   4.242
 7950SOL    HW224750   4.163   4.803   4.084
 7951SOL     OW24751   3.267   3.576   0.389
 7951SOL    HW124752   3.211   3.516   0.446
 7951SOL    HW224753   3.213   3.608   0.311
 7952SOL     OW24754   6.362   2.615   0.297
 7952SOL    HW124755   6.322   2.645   0.211
 7952SOL    HW224756   6.442   2.671   0.318
 7953SOL     OW24757   2.370   2.708   3.098
 7953SOL    HW124758   2.392   2.611   3.102
 7953SOL    HW224759   2.343   2.733   3.005
 7954SOL     OW24760   4.431   5.191   5.336
 7954SOL    HW124761   4.519   5.211   5.380
 7954SOL    HW224762   4.447   5.145   5.249
 7955SOL     OW24763   6.909   6.538   6.681
 7955SOL    HW124764   6.910   6.443   6.650
 7955SOL    HW224765   6.870   6.596   6.609
 7956SOL     OW24766   6.758   6.085   3.448
 7956SOL    HW124767   6.750   6.184   3.437
 7956SOL    HW224768   6.853   6.061   3.468
 7957SOL     OW24769   1.252   1.480   0.535
 7957SOL    HW124770   1.264   1.383   0.516
 7957SOL    HW224771   1.155   1.501   0.540
 7958SOL     OW24772   3.062   5.477   3.967
 7958SOL    HW124773   3.153   5.502   3.933
 7958SOL    HW224774   2.993   5.504   3.900
 7959SOL     OW24775   6.338   4.962   0.407
 7959SOL    HW124776   6.437   4.967   0.412
 7959SOL    HW224777   6.300   4.959   0.500
 7960SOL     OW24778   2.675   0.810   1.360
 7960SOL    HW124779   2.669   0.910   1.351
 7960SOL    HW224780   2.755   0.787   1.416
 7961SOL     OW24781   1.287   5.789   5.815
 7961SOL    HW124782   1.220   5.816   5.746
 7961SOL    HW224783   1.324   5.871   5.859
 7962SOL     OW24784   2.217   0.956   1.848
 7962SOL    HW124785   2.284   1.014   1.801
 7962SOL    HW224786   2.133   0.950   1.793
 7963SOL     OW24787   0.664   0.954   5.738
 7963SOL    HW124788   0.754   0.960   5.694
 7963SOL    HW224789   0.673   0.904   5.824
 7964SOL     OW24790   5.195   5.223   2.832
 7964SOL    HW124791   5.153   5.194   2.918
 7964SOL    HW224792   5.146   5.302   2.795
 7965SOL     OW24793   5.108   2.670   0.555
 7965SOL    HW124794   5.207   2.664   0.557
 7965SOL    HW224795   5.073   2.615   0.479
 7966SOL     OW24796   0.795   5.279   4.186
 7966SOL    HW124797   0.723   5.322   4.241
 7966SOL    HW224798   0.862   5.237   4.247
 7967SOL     OW24799   3.291   6.216   2.845
 7967SOL    HW124800   3.241   6.299   2.870
 7967SOL    HW224801   3.352   6.190   2.920
 7968SOL     OW24802   2.315   2.364   3.942
 7968SOL    HW124803   2.385   2.333   3.877
 7968SOL    HW224804   2.352   2.439   3.997
 7969SOL     OW24805   4.194   0.875   3.342
 7969SOL    HW124806   4.216   0.961   3.294
 7969SOL    HW224807   4.190   0.800   3.275
 7970SOL     OW24808   0.153   4.103   3.004
 7970SOL    HW124809   0.074   4.164   3.011
 7970SOL    HW224810   0.189   4.084   3.095
 7971SOL     OW24811   3.509   0.749   1.790
 7971SOL    HW124812   3.565   0.708   1.862
 7971SOL    HW224813   3.429   0.692   1.773
 7972SOL     OW24814   6.820   4.345   1.368
 7972SOL    HW124815   6.766   4.410   1.421
 7972SOL    HW224816   6.769   4.317   1.287
 7973SOL     OW24817   4.891   3.313   3.905
 7973SOL    HW124818   4.886   3.411   3.922
 7973SOL    HW224819   4.867   3.294   3.810
 7974SOL     OW24820   5.197   0.785   4.381
 7974SOL    HW124821   5.293   0.799   4.404
 7974SOL    HW224822   5.183   0.794   4.283
 7975SOL     OW24823   3.569   0.739   4.877
 7975SOL    HW124824   3.484   0.690   4.898
 7975SOL    HW224825   3.547   0.827   4.836
 7976SOL     OW24826   0.939   6.186   5.055
 7976SOL    HW124827   0.943   6.088   5.072
 7976SOL    HW224828   0.907   6.203   4.962
 7977SOL     OW24829   5.154   6.236   1.795
 7977SOL    HW124830   5.116   6.265   1.883
 7977SOL    HW224831   5.142   6.137   1.785
 7978SOL     OW24832   4.661   3.586   5.952
 7978SOL    HW124833   4.753   3.548   5.955
 7978SOL    HW224834   4.664   3.675   5.905
 7979SOL     OW24835   2.829   0.336   4.371
 7979SOL    HW124836   2.734   0.354   4.397
 7979SOL    HW224837   2.833   0.254   4.315
 7980SOL     OW24838   3.841   6.065   0.396
 7980SOL    HW124839   3.928   6.070   0.444
 7980SOL    HW224840   3.836   6.138   0.327
 7981SOL     OW24841   1.175   4.958   2.060
 7981SOL    HW124842   1.183   4.948   1.961
 7981SOL    HW224843   1.266   4.969   2.100
 7982SOL     OW24844   6.395   2.572   0.982
 7982SOL    HW124845   6.349   2.556   1.070
 7982SOL    HW224846   6.333   2.550   0.907
 7983SOL     OW24847   5.439   1.618   2.772
 7983SOL    HW124848   5.451   1.532   2.722
 7983SOL    HW224849   5.343   1.645   2.770
 7984SOL     OW24850   0.814   2.611   2.200
 7984SOL    HW124851   0.802   2.530   2.142
 7984SOL    HW224852   0.911   2.629   2.213
 7985SOL     OW24853   1.408   0.378   2.273
 7985SOL    HW124854   1.454   0.382   2.184
 7985SOL    HW224855   1.328   0.437   2.273
 7986SOL     OW24856   3.952   1.209   6.248
 7986SOL    HW124857   3.898   1.280   6.293
 7986SOL    HW224858   3.948   1.222   6.149
 7987SOL     OW24859   0.570   2.810   5.281
 7987SOL    HW124860   0.649   2.754   5.258
 7987SOL    HW224861   0.487   2.755   5.275
 7988SOL     OW24862   2.975   2.241   4.111
 7988SOL    HW124863   3.039   2.217   4.038
 7988SOL    HW224864   3.001   2.194   4.196
 7989SOL     OW24865   3.221   2.224   5.412
 7989SOL    HW124866   3.136   2.206   5.461
 7989SOL    HW224867   3.200   2.260   5.321
 7990SOL     OW24868   1.022   2.891   4.106
 7990SOL    HW124869   1.062   2.831   4.175
 7990SOL    HW224870   1.081   2.893   4.025
 7991SOL     OW24871   0.245   2.694   5.710
 7991SOL    HW124872   0.216   2.790   5.701
 7991SOL    HW224873   0.272   2.658   5.621
 7992SOL     OW24874   1.586   0.169   0.635
 7992SOL    HW124875   1.536   0.221   0.705
 7992SOL    HW224876   1.677   0.146   0.669
 7993SOL     OW24877   1.716   5.436   6.803
 7993SOL    HW124878   1.784   5.509   6.811
 7993SOL    HW224879   1.750   5.354   6.849
 7994SOL     OW24880   4.843   0.614   3.895
 7994SOL    HW124881   4.834   0.549   3.820
 7994SOL    HW224882   4.925   0.669   3.882
 7995SOL     OW24883   3.475   5.182   3.688
 7995SOL    HW124884   3.572   5.208   3.679
 7995SOL    HW224885   3.435   5.230   3.766
 7996SOL     OW24886   3.296   0.097   4.398
 7996SOL    HW124887   3.240   0.159   4.343
 7996SOL    HW224888   3.250   0.009   4.407
 7997SOL     OW24889   6.312   2.306   1.195
 7997SOL    HW124890   6.343   2.385   1.247
 7997SOL    HW224891   6.212   2.301   1.198
 7998SOL     OW24892   6.024   4.776   0.634
 7998SOL    HW124893   6.000   4.805   0.541
 7998SOL    HW224894   5.950   4.721   0.672
 7999SOL     OW24895   1.641   0.260   5.182
 7999SOL    HW124896   1.614   0.198   5.255
 7999SOL    HW224897   1.684   0.208   5.107
 8000SOL     OW24898   6.759   0.241   5.863
 8000SOL    HW124899   6.732   0.247   5.767
 8000SOL    HW224900   6.848   0.286   5.875
 8001SOL     OW24901   1.477   6.411   1.657
 8001SOL    HW124902   1.509   6.506   1.648
 8001SOL    HW224903   1.514   6.372   1.741
 8002SOL     OW24904   6.921   3.798   5.193
 8002SOL    HW124905   6.990   3.746   5.142
 8002SOL    HW224906   6.864   3.849   5.129
 8003SOL     OW24907   3.704   5.024   3.215
 8003SOL    HW124908   3.783   4.964   3.203
 8003SOL    HW224909   3.662   5.007   3.304
 8004SOL     OW24910   2.308   4.296   3.170
 8004SOL    HW124911   2.271   4.214   3.126
 8004SOL    HW224912   2.322   4.367   3.101
 8005SOL     OW24913   3.465   0.588   2.129
 8005SOL    HW124914   3.557   0.607   2.094
 8005SOL    HW224915   3.456   0.490   2.147
 8006SOL     OW24916   2.694   5.807   0.531
 8006SOL    HW124917   2.731   5.737   0.592
 8006SOL    HW224918   2.649   5.762   0.453
 8007SOL     OW24919   0.286   0.569   4.051
 8007SOL    HW124920   0.211   0.583   3.987
 8007SOL    HW224921   0.373   0.567   4.000
 8008SOL     OW24922   6.423   6.667   6.874
 8008SOL    HW124923   6.442   6.589   6.814
 8008SOL    HW224924   6.324   6.677   6.884
 8009SOL     OW24925   6.693   0.586   3.264
 8009SOL    HW124926   6.751   0.516   3.221
 8009SOL    HW224927   6.696   0.574   3.363
 8010SOL     OW24928   2.407   1.871   6.932
 8010SOL    HW124929   2.377   1.950   6.879
 8010SOL    HW224930   2.359   1.870   7.020
 8011SOL     OW24931   2.817   2.511   1.120
 8011SOL    HW124932   2.777   2.501   1.211
 8011SOL    HW224933   2.909   2.473   1.119
 8012SOL     OW24934   2.061   6.650   1.459
 8012SOL    HW124935   2.124   6.728   1.459
 8012SOL    HW224936   2.113   6.565   1.462
 8013SOL     OW24937   5.906   5.251   4.190
 8013SOL    HW124938   5.973   5.310   4.146
 8013SOL    HW224939   5.931   5.155   4.175
 8014SOL     OW24940   1.723   6.303   6.311
 8014SOL    HW124941   1.676   6.334   6.393
 8014SOL    HW224942   1.678   6.341   6.230
 8015SOL     OW24943   2.811   2.847   0.673
 8015SOL    HW124944   2.756   2.912   0.620
 8015SOL    HW224945   2.762   2.760   0.680
 8016SOL     OW24946   4.531   0.121   0.736
 8016SOL    HW124947   4.626   0.093   0.749
 8016SOL    HW224948   4.529   0.217   0.708
 8017SOL     OW24949   6.884   4.732   4.781
 8017SOL    HW124950   6.951   4.688   4.840
 8017SOL    HW224951   6.839   4.663   4.724
 8018SOL     OW24952   4.675   1.867   5.594
 8018SOL    HW124953   4.705   1.779   5.629
 8018SOL    HW224954   4.691   1.938   5.663
 8019SOL     OW24955   1.913   5.603   0.392
 8019SOL    HW124956   1.986   5.535   0.392
 8019SOL    HW224957   1.837   5.568   0.448
 8020SOL     OW24958   5.460   5.584   6.850
 8020SOL    HW124959   5.479   5.489   6.823
 8020SOL    HW224960   5.433   5.587   6.946
 8021SOL     OW24961   1.201   1.856   1.224
 8021SOL    HW124962   1.194   1.936   1.282
 8021SOL    HW224963   1.292   1.852   1.182
 8022SOL     OW24964   4.674   6.812   3.113
 8022SOL    HW124965   4.771   6.789   3.116
 8022SOL    HW224966   4.643   6.837   3.205
 8023SOL     OW24967   6.324   6.092   2.300
 8023SOL    HW124968   6.404   6.100   2.359
 8023SOL    HW224969   6.250   6.048   2.350
 8024SOL     OW24970   4.579   5.755   5.847
 8024SOL    HW124971   4.525   5.672   5.831
 8024SOL    HW224972   4.553   5.826   5.782
 8025SOL     OW24973   3.645   6.123   6.762
 8025SOL    HW124974   3.642   6.223   6.756
 8025SOL    HW224975   3.554   6.088   6.782
 8026SOL     OW24976   1.460   3.576   6.628
 8026SOL    HW124977   1.548   3.537   6.601
 8026SOL    HW224978   1.418   3.620   6.548
 8027SOL     OW24979   4.409   2.107   5.310
 8027SOL    HW124980   4.463   2.023   5.304
 8027SOL    HW224981   4.383   2.137   5.218
 8028SOL     OW24982   4.880   5.067   6.013
 8028SOL    HW124983   4.864   5.158   6.051
 8028SOL    HW224984   4.971   5.063   5.972
 8029SOL     OW24985   4.256   4.650   0.298
 8029SOL    HW124986   4.334   4.676   0.354
 8029SOL    HW224987   4.267   4.687   0.205
 8030SOL     OW24988   5.671   4.654   5.540
 8030SOL    HW124989   5.656   4.570   5.488
 8030SOL    HW224990   5.641   4.640   5.635
 8031SOL     OW24991   4.413   5.271   1.619
 8031SOL    HW124992   4.508   5.282   1.646
 8031SOL    HW224993   4.387   5.175   1.630
 8032SOL     OW24994   5.909   3.948   4.887
 8032SOL    HW124995   5.901   3.996   4.800
 8032SOL    HW224996   5.892   4.011   4.962
 8033SOL     OW24997   5.514   2.503   0.256
 8033SOL    HW124998   5.604   2.514   0.213
 8033SOL    HW224999   5.453   2.577   0.226
 8034SOL     OW25000   5.075   6.910   5.053
 8034SOL    HW125001   5.119   6.993   5.020
 8034SOL    HW225002   4.978   6.912   5.030
 8035SOL     OW25003   5.741   6.165   6.438
 8035SOL    HW125004   5.798   6.090   6.471
 8035SOL    HW225005   5.656   6.128   6.399
 8036SOL     OW25006   2.242   3.914   1.834
 8036SOL    HW125007   2.247   3.936   1.931
 8036SOL    HW225008   2.188   3.984   1.787
 8037SOL     OW25009   2.077   3.207   0.897
 8037SOL    HW125010   2.035   3.237   0.982
 8037SOL    HW225011   2.015   3.145   0.849
 8038SOL     OW25012   6.980   1.861   3.489
 8038SOL    HW125013   0.035   1.903   3.446
 8038SOL    HW225014   6.930   1.931   3.540
 8039SOL     OW25015   2.497   0.222   2.959
 8039SOL    HW125016   2.530   0.130   2.936
 8039SOL    HW225017   2.450   0.261   2.880
 8040SOL     OW25018   0.611   5.385   1.092
 8040SOL    HW125019   0.597   5.484   1.098
 8040SOL    HW225020   0.611   5.345   1.184
 8041SOL     OW25021   4.041   1.546   0.891
 8041SOL    HW125022   3.970   1.599   0.845
 8041SOL    HW225023   4.045   1.573   0.987
 8042SOL     OW25024   3.317   2.924   2.468
 8042SOL    HW125025   3.415   2.931   2.488
 8042SOL    HW225026   3.274   2.860   2.533
 8043SOL     OW25027   2.514   0.520   0.963
 8043SOL    HW125028   2.471   0.598   0.918
 8043SOL    HW225029   2.448   0.445   0.970
 8044SOL     OW25030   3.038   3.125   1.316
 8044SOL    HW125031   3.125   3.159   1.352
 8044SOL    HW225032   2.967   3.193   1.332
 8045SOL     OW25033   6.640   2.414   2.702
 8045SOL    HW125034   6.682   2.350   2.637
 8045SOL    HW225035   6.625   2.369   2.789
 8046SOL     OW25036   5.657   4.465   5.346
 8046SOL    HW125037   5.755   4.481   5.341
 8046SOL    HW225038   5.616   4.482   5.256
 8047SOL     OW25039   3.524   5.839   4.707
 8047SOL    HW125040   3.465   5.858   4.629
 8047SOL    HW225041   3.473   5.854   4.792
 8048SOL     OW25042   6.451   0.222   5.597
 8048SOL    HW125043   6.392   0.148   5.565
 8048SOL    HW225044   6.395   0.293   5.640
 8049SOL     OW25045   0.972   6.685   1.493
 8049SOL    HW125046   1.003   6.746   1.420
 8049SOL    HW225047   1.049   6.660   1.552
 8050SOL     OW25048   1.713   3.701   0.829
 8050SOL    HW125049   1.652   3.629   0.862
 8050SOL    HW225050   1.807   3.667   0.828
 8051SOL     OW25051   3.934   0.956   2.996
 8051SOL    HW125052   3.910   0.866   3.032
 8051SOL    HW225053   3.967   0.946   2.902
 8052SOL     OW25054   2.838   1.422   2.832
 8052SOL    HW125055   2.935   1.411   2.813
 8052SOL    HW225056   2.821   1.513   2.868
 8053SOL     OW25057   3.725   4.077   3.152
 8053SOL    HW125058   3.816   4.100   3.117
 8053SOL    HW225059   3.716   4.110   3.246
 8054SOL     OW25060   5.004   6.489   4.577
 8054SOL    HW125061   4.987   6.561   4.509
 8054SOL    HW225062   5.001   6.400   4.532
 8055SOL     OW25063   1.278   6.890   5.809
 8055SOL    HW125064   1.354   6.943   5.770
 8055SOL    HW225065   1.291   6.881   5.907
 8056SOL     OW25066   4.895   1.683   2.956
 8056SOL    HW125067   4.972   1.638   2.911
 8056SOL    HW225068   4.918   1.697   3.053
 8057SOL     OW25069   2.835   0.046   3.239
 8057SOL    HW125070   2.917   0.103   3.247
 8057SOL    HW225071   2.826   0.014   3.144
 8058SOL     OW25072   2.568   0.519   2.256
 8058SOL    HW125073   2.482   0.555   2.292
 8058SOL    HW225074   2.605   0.584   2.189
 8059SOL     OW25075   3.245   2.055   4.832
 8059SOL    HW125076   3.316   1.999   4.876
 8059SOL    HW225077   3.251   2.148   4.866
 8060SOL     OW25078   6.858   1.130   4.451
 8060SOL    HW125079   6.794   1.140   4.528
 8060SOL    HW225080   6.942   1.087   4.484
 8061SOL     OW25081   6.503   5.656   2.261
 8061SOL    HW125082   6.591   5.697   2.284
 8061SOL    HW225083   6.515   5.585   2.193
 8062SOL     OW25084   1.593   3.906   4.435
 8062SOL    HW125085   1.581   3.927   4.532
 8062SOL    HW225086   1.575   3.987   4.380
 8063SOL     OW25087   3.403   3.288   6.700
 8063SOL    HW125088   3.330   3.222   6.716
 8063SOL    HW225089   3.395   3.365   6.763
 8064SOL     OW25090   0.419   4.089   0.371
 8064SOL    HW125091   0.453   4.033   0.295
 8064SOL    HW225092   0.405   4.183   0.339
 8065SOL     OW25093   4.718   6.783   4.727
 8065SOL    HW125094   4.797   6.764   4.669
 8065SOL    HW225095   4.658   6.850   4.682
 8066SOL     OW25096   1.620   1.558   0.723
 8066SOL    HW125097   1.587   1.606   0.804
 8066SOL    HW225098   1.574   1.469   0.716
 8067SOL     OW25099   4.263   2.900   1.559
 8067SOL    HW125100   4.358   2.896   1.529
 8067SOL    HW225101   4.230   2.808   1.580
 8068SOL     OW25102   0.480   4.561   4.691
 8068SOL    HW125103   0.469   4.468   4.656
 8068SOL    HW225104   0.523   4.618   4.622
 8069SOL     OW25105   1.306   6.243   1.183
 8069SOL    HW125106   1.311   6.302   1.263
 8069SOL    HW225107   1.249   6.164   1.202
 8070SOL     OW25108   3.604   6.123   1.961
 8070SOL    HW125109   3.698   6.151   1.942
 8070SOL    HW225110   3.554   6.198   2.004
 8071SOL     OW25111   3.869   6.658   5.517
 8071SOL    HW125112   3.806   6.729   5.485
 8071SOL    HW225113   3.873   6.584   5.450
 8072SOL     OW25114   4.451   1.461   0.347
 8072SOL    HW125115   4.543   1.479   0.312
 8072SOL    HW225116   4.388   1.446   0.270
 8073SOL     OW25117   4.557   6.606   5.944
 8073SOL    HW125118   4.490   6.588   5.872
 8073SOL    HW225119   4.567   6.525   6.001
 8074SOL     OW25120   3.379   3.777   0.540
 8074SOL    HW125121   3.428   3.756   0.625
 8074SOL    HW225122   3.342   3.693   0.500
 8075SOL     OW25123   0.009   1.165   2.369
 8075SOL    HW125124   0.051   1.089   2.319
 8075SOL    HW225125   6.938   1.145   2.386
 8076SOL     OW25126   5.505   2.420   5.107
 8076SOL    HW125127   5.564   2.492   5.144
 8076SOL    HW225128   5.463   2.451   5.022
 8077SOL     OW25129   0.868   0.007   1.376
 8077SOL    HW125130   0.811   0.003   1.458
 8077SOL    HW225131   0.817   7.001   1.297
 8078SOL     OW25132   6.635   2.414   0.918
 8078SOL    HW125133   6.593   2.336   0.873
 8078SOL    HW225134   6.564   2.477   0.949
 8079SOL     OW25135   6.939   2.055   3.094
 8079SOL    HW125136   6.907   2.123   3.161
 8079SOL    HW225137   6.971   2.102   3.012
 8080SOL     OW25138   2.447   3.897   0.479
 8080SOL    HW125139   2.500   3.980   0.493
 8080SOL    HW225140   2.495   3.837   0.415
 8081SOL     OW25141   6.065   0.682   5.219
 8081SOL    HW125142   6.126   0.614   5.177
 8081SOL    HW225143   5.973   0.644   5.227
 8082SOL     OW25144   6.527   2.468   3.633
 8082SOL    HW125145   6.524   2.554   3.685
 8082SOL    HW225146   6.617   2.458   3.590
 8083SOL     OW25147   4.619   2.621   2.753
 8083SOL    HW125148   4.629   2.667   2.665
 8083SOL    HW225149   4.663   2.675   2.825
 8084SOL     OW25150   6.564   6.261   1.230
 8084SOL    HW125151   6.571   6.267   1.330
 8084SOL    HW225152   6.632   6.196   1.196
 8085SOL     OW25153   5.359   0.500   0.796
 8085SOL    HW125154   5.315   0.504   0.706
 8085SOL    HW225155   5.432   0.432   0.795
 8086SOL     OW25156   3.673   0.330   4.646
 8086SOL    HW125157   3.619   0.248   4.625
 8086SOL    HW225158   3.618   0.393   4.701
 8087SOL     OW25159   2.729   2.825   0.974
 8087SOL    HW125160   2.787   2.744   0.987
 8087SOL    HW225161   2.721   2.845   0.877
 8088SOL     OW25162   5.748   1.245   2.066
 8088SOL    HW125163   5.719   1.173   2.003
 8088SOL    HW225164   5.697   1.329   2.047
 8089SOL     OW25165   5.014   2.735   0.795
 8089SOL    HW125166   5.048   2.726   0.701
 8089SOL    HW225167   5.046   2.821   0.833
 8090SOL     OW25168   5.162   1.981   6.186
 8090SOL    HW125169   5.123   1.989   6.278
 8090SOL    HW225170   5.237   1.915   6.187
 8091SOL     OW25171   3.390   4.956   6.861
 8091SOL    HW125172   3.440   4.982   6.944
 8091SOL    HW225173   3.393   4.857   6.849
 8092SOL     OW25174   1.578   1.243   4.907
 8092SOL    HW125175   1.651   1.177   4.895
 8092SOL    HW225176   1.493   1.195   4.931
 8093SOL     OW25177   5.887   5.828   1.481
 8093SOL    HW125178   5.891   5.763   1.557
 8093SOL    HW225179   5.979   5.848   1.449
 8094SOL     OW25180   1.532   3.916   6.446
 8094SOL    HW125181   1.629   3.939   6.438
 8094SOL    HW225182   1.500   3.938   6.538
 8095SOL     OW25183   5.868   3.311   4.752
 8095SOL    HW125184   5.881   3.241   4.822
 8095SOL    HW225185   5.821   3.272   4.673
 8096SOL     OW25186   3.212   6.080   1.821
 8096SOL    HW125187   3.196   6.119   1.730
 8096SOL    HW225188   3.131   6.026   1.848
 8097SOL     OW25189   5.067   1.092   3.717
 8097SOL    HW125190   5.163   1.068   3.726
 8097SOL    HW225191   5.059   1.181   3.671
 8098SOL     OW25192   3.047   5.912   4.349
 8098SOL    HW125193   3.076   5.970   4.272
 8098SOL    HW225194   2.952   5.932   4.372
 8099SOL     OW25195   5.206   6.269   4.763
 8099SOL    HW125196   5.233   6.223   4.848
 8099SOL    HW225197   5.114   6.305   4.773
 8100SOL     OW25198   6.936   6.636   0.330
 8100SOL    HW125199   6.977   6.667   0.415
 8100SOL    HW225200   6.989   6.670   0.253
 8101SOL     OW25201   1.666   6.245   3.876
 8101SOL    HW125202   1.607   6.241   3.796
 8101SOL    HW225203   1.741   6.308   3.859
 8102SOL     OW25204   6.976   5.500   5.575
 8102SOL    HW125205   6.967   5.528   5.670
 8102SOL    HW225206   6.954   5.577   5.515
 8103SOL     OW25207   3.425   1.445   2.138
 8103SOL    HW125208   3.440   1.375   2.207
 8103SOL    HW225209   3.504   1.505   2.133
 8104SOL     OW25210   2.901   0.005   5.714
 8104SOL    HW125211   2.826   0.054   5.758
 8104SOL    HW225212   2.940   6.964   5.777
 8105SOL     OW25213   2.322   2.245   3.680
 8105SOL    HW125214   2.239   2.191   3.671
 8105SOL    HW225215   2.317   2.325   3.619
 8106SOL     OW25216   0.992   4.126   3.388
 8106SOL    HW125217   0.948   4.112   3.300
 8106SOL    HW225218   0.967   4.051   3.450
 8107SOL     OW25219   1.993   6.441   5.769
 8107SOL    HW125220   2.015   6.438   5.867
 8107SOL    HW225221   1.969   6.350   5.737
 8108SOL     OW25222   0.314   3.843   4.439
 8108SOL    HW125223   0.295   3.897   4.522
 8108SOL    HW225224   0.239   3.856   4.374
 8109SOL     OW25225   1.696   4.335   5.121
 8109SOL    HW125226   1.611   4.285   5.133
 8109SOL    HW225227   1.699   4.375   5.029
 8110SOL     OW25228   1.799   6.213   0.718
 8110SOL    HW125229   1.780   6.234   0.814
 8110SOL    HW225230   1.898   6.207   0.704
 8111SOL     OW25231   2.702   5.890   4.864
 8111SOL    HW125232   2.654   5.947   4.798
 8111SOL    HW225233   2.793   5.866   4.828
 8112SOL     OW25234   2.533   0.437   5.644
 8112SOL    HW125235   2.457   0.412   5.583
 8112SOL    HW225236   2.617   0.446   5.590
 8113SOL     OW25237   3.970   2.555   6.450
 8113SOL    HW125238   3.946   2.610   6.530
 8113SOL    HW225239   3.941   2.460   6.466
 8114SOL     OW25240   2.166   2.903   2.692
 8114SOL    HW125241   2.246   2.874   2.745
 8114SOL    HW225242   2.186   2.893   2.594
 8115SOL     OW25243   3.364   1.579   1.490
 8115SOL    HW125244   3.325   1.630   1.567
 8115SOL    HW225245   3.352   1.481   1.506
 8116SOL     OW25246   5.934   6.707   5.051
 8116SOL    HW125247   5.893   6.790   5.091
 8116SOL    HW225248   6.024   6.691   5.091
 8117SOL     OW25249   1.279   1.624   5.007
 8117SOL    HW125250   1.342   1.559   4.964
 8117SOL    HW225251   1.242   1.584   5.091
 8118SOL     OW25252   1.174   3.985   5.464
 8118SOL    HW125253   1.161   3.886   5.455
 8118SOL    HW225254   1.264   4.004   5.502
 8119SOL     OW25255   0.725   6.209   3.115
 8119SOL    HW125256   0.654   6.256   3.061
 8119SOL    HW225257   0.689   6.186   3.205
 8120SOL     OW25258   4.198   4.323   1.083
 8120SOL    HW125259   4.101   4.325   1.105
 8120SOL    HW225260   4.251   4.314   1.168
 8121SOL     OW25261   6.792   0.378   2.650
 8121SOL    HW125262   6.712   0.409   2.702
 8121SOL    HW225263   6.767   0.369   2.553
 8122SOL     OW25264   6.879   6.297   2.043
 8122SOL    HW125265   6.875   6.385   2.090
 8122SOL    HW225266   6.786   6.269   2.018
 8123SOL     OW25267   1.292   6.454   6.039
 8123SOL    HW125268   1.375   6.503   6.010
 8123SOL    HW225269   1.245   6.507   6.109
 8124SOL     OW25270   0.984   5.419   1.780
 8124SOL    HW125271   0.956   5.449   1.689
 8124SOL    HW225272   1.016   5.324   1.776
 8125SOL     OW25273   5.946   4.279   3.159
 8125SOL    HW125274   5.882   4.278   3.082
 8125SOL    HW225275   6.004   4.360   3.153
 8126SOL     OW25276   5.763   4.240   2.906
 8126SOL    HW125277   5.715   4.160   2.942
 8126SOL    HW225278   5.697   4.305   2.868
 8127SOL     OW25279   2.102   4.943   0.228
 8127SOL    HW125280   2.019   4.909   0.271
 8127SOL    HW225281   2.079   4.990   0.143
 8128SOL     OW25282   3.309   2.816   5.774
 8128SOL    HW125283   3.275   2.766   5.853
 8128SOL    HW225284   3.332   2.752   5.701
 8129SOL     OW25285   5.846   0.610   6.561
 8129SOL    HW125286   5.820   0.514   6.570
 8129SOL    HW225287   5.884   0.625   6.470
 8130SOL     OW25288   1.161   5.164   6.826
 8130SOL    HW125289   1.080   5.118   6.864
 8130SOL    HW225290   1.131   5.243   6.772
 8131SOL     OW25291   3.011   0.623   0.310
 8131SOL    HW125292   3.018   0.691   0.383
 8131SOL    HW225293   3.010   0.531   0.350
 8132SOL     OW25294   5.807   5.628   4.248
 8132SOL    HW125295   5.890   5.668   4.209
 8132SOL    HW225296   5.831   5.551   4.307
 8133SOL     OW25297   2.629   5.298   3.060
 8133SOL    HW125298   2.628   5.227   3.129
 8133SOL    HW225299   2.570   5.374   3.089
 8134SOL     OW25300   2.041   2.322   3.772
 8134SOL    HW125301   2.133   2.360   3.783
 8134SOL    HW225302   2.047   2.225   3.749
 8135SOL     OW25303   3.946   5.403   2.623
 8135SOL    HW125304   3.849   5.417   2.644
 8135SOL    HW225305   3.982   5.483   2.575
 8136SOL     OW25306   4.233   5.797   2.769
 8136SOL    HW125307   4.135   5.785   2.786
 8136SOL    HW225308   4.273   5.710   2.742
 8137SOL     OW25309   2.134   3.831   4.959
 8137SOL    HW125310   2.120   3.831   4.860
 8137SOL    HW225311   2.201   3.902   4.983
 8138SOL     OW25312   5.484   1.421   2.568
 8138SOL    HW125313   5.405   1.370   2.601
 8138SOL    HW225314   5.556   1.357   2.541
 8139SOL     OW25315   1.746   3.023   2.978
 8139SOL    HW125316   1.773   3.078   3.057
 8139SOL    HW225317   1.818   2.956   2.958
 8140SOL     OW25318   4.976   0.731   0.501
 8140SOL    HW125319   4.928   0.649   0.531
 8140SOL    HW225320   4.987   0.793   0.578
 8141SOL     OW25321   4.820   1.625   5.690
 8141SOL    HW125322   4.783   1.575   5.768
 8141SOL    HW225323   4.901   1.677   5.719
 8142SOL     OW25324   1.867   6.076   0.249
 8142SOL    HW125325   1.863   6.154   0.312
 8142SOL    HW225326   1.930   6.097   0.174
 8143SOL     OW25327   5.762   4.643   0.673
 8143SOL    HW125328   5.705   4.692   0.740
 8143SOL    HW225329   5.711   4.565   0.637
 8144SOL     OW25330   6.921   4.759   6.090
 8144SOL    HW125331   6.970   4.692   6.036
 8144SOL    HW225332   6.985   4.828   6.125
 8145SOL     OW25333   5.810   5.712   0.036
 8145SOL    HW125334   5.824   5.631   0.093
 8145SOL    HW225335   5.768   5.685   6.975
 8146SOL     OW25336   5.755   0.356   4.494
 8146SOL    HW125337   5.817   0.287   4.457
 8146SOL    HW225338   5.753   0.349   4.593
 8147SOL     OW25339   1.086   1.076   5.675
 8147SOL    HW125340   1.033   1.079   5.760
 8147SOL    HW225341   1.184   1.072   5.697
 8148SOL     OW25342   3.996   4.829   0.199
 8148SOL    HW125343   4.005   4.792   0.291
 8148SOL    HW225344   3.927   4.776   0.149
 8149SOL     OW25345   1.494   6.202   4.350
 8149SOL    HW125346   1.556   6.166   4.281
 8149SOL    HW225347   1.546   6.232   4.430
 8150SOL     OW25348   1.418   3.107   0.944
 8150SOL    HW125349   1.518   3.103   0.931
 8150SOL    HW225350   1.397   3.089   1.040
 8151SOL     OW25351   6.023   4.558   4.008
 8151SOL    HW125352   6.069   4.644   3.987
 8151SOL    HW225353   5.975   4.524   3.926
 8152SOL     OW25354   4.675   2.277   3.144
 8152SOL    HW125355   4.741   2.247   3.075
 8152SOL    HW225356   4.606   2.206   3.158
 8153SOL     OW25357   6.880   1.932   3.805
 8153SOL    HW125358   6.857   1.998   3.733
 8153SOL    HW225359   6.887   1.980   3.892
 8154SOL     OW25360   1.901   1.708   3.674
 8154SOL    HW125361   1.882   1.752   3.761
 8154SOL    HW225362   1.967   1.634   3.687
 8155SOL     OW25363   1.730   4.989   1.765
 8155SOL    HW125364   1.766   5.078   1.795
 8155SOL    HW225365   1.703   4.936   1.845
 8156SOL     OW25366   5.901   5.009   1.910
 8156SOL    HW125367   5.911   4.920   1.864
 8156SOL    HW225368   5.952   5.078   1.860
 8157SOL     OW25369   6.725   3.192   6.524
 8157SOL    HW125370   6.707   3.223   6.431
 8157SOL    HW225371   6.814   3.146   6.527
 8158SOL     OW25372   5.443   4.613   6.149
 8158SOL    HW125373   5.407   4.704   6.167
 8158SOL    HW225374   5.417   4.584   6.057
 8159SOL     OW25375   3.563   5.911   5.766
 8159SOL    HW125376   3.577   5.812   5.764
 8159SOL    HW225377   3.644   5.956   5.803
 8160SOL     OW25378   5.110   1.168   3.311
 8160SOL    HW125379   5.028   1.224   3.314
 8160SOL    HW225380   5.097   1.087   3.368
 8161SOL     OW25381   5.762   3.300   0.754
 8161SOL    HW125382   5.735   3.211   0.792
 8161SOL    HW225383   5.792   3.288   0.659
 8162SOL     OW25384   0.481   5.023   6.557
 8162SOL    HW125385   0.531   4.937   6.548
 8162SOL    HW225386   0.507   5.067   6.643
 8163SOL     OW25387   4.316   4.650   5.394
 8163SOL    HW125388   4.220   4.672   5.380
 8163SOL    HW225389   4.338   4.653   5.491
 8164SOL     OW25390   5.629   1.219   0.035
 8164SOL    HW125391   5.606   1.285   6.990
 8164SOL    HW225392   5.554   1.213   0.101
 8165SOL     OW25393   0.074   1.864   6.227
 8165SOL    HW125394   7.022   1.870   6.290
 8165SOL    HW225395   0.076   1.946   6.169
 8166SOL     OW25396   1.688   2.439   4.390
 8166SOL    HW125397   1.687   2.535   4.363
 8166SOL    HW225398   1.728   2.431   4.481
 8167SOL     OW25399   6.571   2.266   4.349
 8167SOL    HW125400   6.613   2.353   4.326
 8167SOL    HW225401   6.476   2.264   4.316
 8168SOL     OW25402   2.526   0.704   1.579
 8168SOL    HW125403   2.595   0.667   1.641
 8168SOL    HW225404   2.572   0.745   1.500
 8169SOL     OW25405   5.219   2.024   0.905
 8169SOL    HW125406   5.233   2.123   0.901
 8169SOL    HW225407   5.289   1.984   0.965
 8170SOL     OW25408   6.584   4.561   2.480
 8170SOL    HW125409   6.679   4.582   2.454
 8170SOL    HW225410   6.584   4.485   2.545
 8171SOL     OW25411   1.807   1.219   0.316
 8171SOL    HW125412   1.739   1.174   0.257
 8171SOL    HW225413   1.806   1.317   0.299
 8172SOL     OW25414   0.702   2.712   1.662
 8172SOL    HW125415   0.645   2.666   1.730
 8172SOL    HW225416   0.694   2.811   1.675
 8173SOL     OW25417   5.333   1.984   2.151
 8173SOL    HW125418   5.338   2.059   2.216
 8173SOL    HW225419   5.378   2.011   2.066
 8174SOL     OW25420   2.050   5.645   2.627
 8174SOL    HW125421   1.967   5.701   2.622
 8174SOL    HW225422   2.069   5.605   2.537
 8175SOL     OW25423   0.636   2.569   4.727
 8175SOL    HW125424   0.655   2.476   4.758
 8175SOL    HW225425   0.540   2.576   4.702
 8176SOL     OW25426   1.730   4.481   0.834
 8176SOL    HW125427   1.811   4.423   0.844
 8176SOL    HW225428   1.710   4.494   0.737
 8177SOL     OW25429   3.211   1.621   2.895
 8177SOL    HW125430   3.148   1.694   2.869
 8177SOL    HW225431   3.183   1.536   2.850
 8178SOL     OW25432   1.933   6.231   1.344
 8178SOL    HW125433   1.843   6.260   1.375
 8178SOL    HW225434   1.938   6.236   1.245
 8179SOL     OW25435   5.353   1.097   3.741
 8179SOL    HW125436   5.418   1.159   3.696
 8179SOL    HW225437   5.367   1.100   3.840
 8180SOL     OW25438   5.503   6.686   0.229
 8180SOL    HW125439   5.509   6.587   0.246
 8180SOL    HW225440   5.544   6.707   0.140
 8181SOL     OW25441   0.754   1.188   1.342
 8181SOL    HW125442   0.766   1.284   1.369
 8181SOL    HW225443   0.841   1.140   1.350
 8182SOL     OW25444   2.909   3.683   4.780
 8182SOL    HW125445   2.866   3.649   4.697
 8182SOL    HW225446   3.007   3.663   4.777
 8183SOL     OW25447   6.701   0.016   4.841
 8183SOL    HW125448   6.686   0.083   4.913
 8183SOL    HW225449   6.613   7.018   4.800
 8184SOL     OW25450   0.655   6.590   6.895
 8184SOL    HW125451   0.731   6.606   6.831
 8184SOL    HW225452   0.569   6.588   6.845
 8185SOL     OW25453   0.845   0.387   0.343
 8185SOL    HW125454   0.842   0.372   0.244
 8185SOL    HW225455   0.753   0.402   0.377
 8186SOL     OW25456   1.225   5.020   6.319
 8186SOL    HW125457   1.232   5.013   6.418
 8186SOL    HW225458   1.311   5.055   6.282
 8187SOL     OW25459   1.670   1.517   5.587
 8187SOL    HW125460   1.623   1.565   5.513
 8187SOL    HW225461   1.763   1.494   5.557
 8188SOL     OW25462   3.224   1.756   3.895
 8188SOL    HW125463   3.211   1.808   3.810
 8188SOL    HW225464   3.153   1.782   3.961
 8189SOL     OW25465   4.477   4.863   4.104
 8189SOL    HW125466   4.449   4.897   4.194
 8189SOL    HW225467   4.404   4.806   4.066
 8190SOL     OW25468   5.475   3.245   3.048
 8190SOL    HW125469   5.399   3.251   2.983
 8190SOL    HW225470   5.529   3.329   3.044
 8191SOL     OW25471   4.183   5.205   1.870
 8191SOL    HW125472   4.243   5.149   1.813
 8191SOL    HW225473   4.228   5.225   1.957
 8192SOL     OW25474   1.792   5.099   3.553
 8192SOL    HW125475   1.732   5.038   3.604
 8192SOL    HW225476   1.869   5.046   3.516
 8193SOL     OW25477   6.949   4.900   5.137
 8193SOL    HW125478   0.009   4.849   5.144
 8193SOL    HW225479   6.963   4.979   5.077
 8194SOL     OW25480   4.398   6.435   1.681
 8194SOL    HW125481   4.348   6.518   1.707
 8194SOL    HW225482   4.400   6.428   1.581
 8195SOL     OW25483   5.548   0.024   3.340
 8195SOL    HW125484   5.461   0.023   3.390
 8195SOL    HW225485   5.621   0.056   3.400
 8196SOL     OW25486   4.619   0.302   6.742
 8196SOL    HW125487   4.616   0.389   6.792
 8196SOL    HW225488   4.662   0.233   6.799
 8197SOL     OW25489   5.192   1.770   1.379
 8197SOL    HW125490   5.182   1.717   1.294
 8197SOL    HW225491   5.106   1.815   1.401
 8198SOL     OW25492   2.214   6.786   1.782
 8198SOL    HW125493   2.226   6.820   1.688
 8198SOL    HW225494   2.143   6.840   1.827
 8199SOL     OW25495   5.282   2.674   6.147
 8199SOL    HW125496   5.227   2.657   6.065
 8199SOL    HW225497   5.366   2.621   6.142
 8200SOL     OW25498   4.969   3.441   1.364
 8200SOL    HW125499   4.898   3.507   1.340
 8200SOL    HW225500   4.938   3.384   1.440
 8201SOL     OW25501   0.188   0.099   5.116
 8201SOL    HW125502   0.270   0.118   5.062
 8201SOL    HW225503   0.191   0.154   5.200
 8202SOL     OW25504   0.261   6.361   2.199
 8202SOL    HW125505   0.285   6.340   2.104
 8202SOL    HW225506   0.181   6.421   2.201
 8203SOL     OW25507   1.932   3.048   0.716
 8203SOL    HW125508   1.946   3.003   0.627
 8203SOL    HW225509   1.862   3.000   0.768
 8204SOL     OW25510   4.475   3.527   1.214
 8204SOL    HW125511   4.483   3.428   1.201
 8204SOL    HW225512   4.456   3.571   1.127
 8205SOL     OW25513   1.142   3.220   0.716
 8205SOL    HW125514   1.085   3.208   0.797
 8205SOL    HW225515   1.130   3.142   0.655
 8206SOL     OW25516   3.848   1.561   0.063
 8206SOL    HW125517   3.788   1.484   0.084
 8206SOL    HW225518   3.811   1.644   0.106
 8207SOL     OW25519   3.673   3.029   4.228
 8207SOL    HW125520   3.586   2.980   4.234
 8207SOL    HW225521   3.660   3.115   4.179
 8208SOL     OW25522   0.913   1.075   0.620
 8208SOL    HW125523   0.960   1.101   0.535
 8208SOL    HW225524   0.958   1.120   0.698
 8209SOL     OW25525   6.470   1.043   5.253
 8209SOL    HW125526   6.481   1.140   5.271
 8209SOL    HW225527   6.479   1.025   5.155
 8210SOL     OW25528   2.005   2.722   0.319
 8210SOL    HW125529   2.095   2.682   0.303
 8210SOL    HW225530   1.959   2.739   0.232
 8211SOL     OW25531   3.214   3.589   1.347
 8211SOL    HW125532   3.249   3.680   1.372
 8211SOL    HW225533   3.277   3.545   1.284
 8212SOL     OW25534   1.532   2.580   2.891
 8212SOL    HW125535   1.563   2.639   2.965
 8212SOL    HW225536   1.521   2.486   2.925
 8213SOL     OW25537   0.625   5.135   1.527
 8213SOL    HW125538   0.596   5.093   1.613
 8213SOL    HW225539   0.722   5.119   1.512
 8214SOL     OW25540   5.609   4.373   3.415
 8214SOL    HW125541   5.531   4.345   3.360
 8214SOL    HW225542   5.688   4.390   3.356
 8215SOL     OW25543   3.932   4.953   4.797
 8215SOL    HW125544   3.986   5.025   4.753
 8215SOL    HW225545   3.857   4.995   4.849
 8216SOL     OW25546   5.313   4.449   4.099
 8216SOL    HW125547   5.259   4.384   4.151
 8216SOL    HW225548   5.272   4.463   4.009
 8217SOL     OW25549   1.523   5.956   0.877
 8217SOL    HW125550   1.549   5.998   0.964
 8217SOL    HW225551   1.602   5.953   0.816
 8218SOL     OW25552   0.635   1.781   7.006
 8218SOL    HW125553   0.651   1.683   7.015
 8218SOL    HW225554   0.602   1.802   6.914
 8219SOL     OW25555   4.722   1.983   0.094
 8219SOL    HW125556   4.711   1.921   0.016
 8219SOL    HW225557   4.783   1.941   0.162
 8220SOL     OW25558   3.666   3.625   2.701
 8220SOL    HW125559   3.728   3.581   2.766
 8220SOL    HW225560   3.603   3.557   2.663
 8221SOL     OW25561   4.810   6.323   4.245
 8221SOL    HW125562   4.728   6.355   4.292
 8221SOL    HW225563   4.820   6.370   4.157
 8222SOL     OW25564   5.480   1.953   1.897
 8222SOL    HW125565   5.553   1.888   1.921
 8222SOL    HW225566   5.499   1.992   1.807
 8223SOL     OW25567   0.497   4.421   5.812
 8223SOL    HW125568   0.527   4.456   5.901
 8223SOL    HW225569   0.528   4.326   5.802
 8224SOL     OW25570   0.679   2.563   2.620
 8224SOL    HW125571   0.699   2.602   2.711
 8224SOL    HW225572   0.588   2.521   2.622
 8225SOL     OW25573   4.649   1.303   6.505
 8225SOL    HW125574   4.552   1.295   6.484
 8225SOL    HW225575   4.662   1.322   6.602
 8226SOL     OW25576   5.352   0.960   1.608
 8226SOL    HW125577   5.318   0.898   1.537
 8226SOL    HW225578   5.452   0.963   1.604
 8227SOL     OW25579   6.744   3.117   3.943
 8227SOL    HW125580   6.672   3.184   3.927
 8227SOL    HW225581   6.827   3.145   3.896
 8228SOL     OW25582   0.345   2.408   5.177
 8228SOL    HW125583   0.306   2.420   5.269
 8228SOL    HW225584   0.302   2.329   5.133
 8229SOL     OW25585   2.689   5.546   0.293
 8229SOL    HW125586   2.719   5.465   0.243
 8229SOL    HW225587   2.650   5.517   0.381
 8230SOL     OW25588   5.485   0.412   5.401
 8230SOL    HW125589   5.519   0.438   5.311
 8230SOL    HW225590   5.454   0.493   5.450
 8231SOL     OW25591   5.109   5.973   1.661
 8231SOL    HW125592   5.203   5.939   1.673
 8231SOL    HW225593   5.104   6.026   1.576
 8232SOL     OW25594   4.047   1.530   0.462
 8232SOL    HW125595   3.968   1.471   0.443
 8232SOL    HW225596   4.092   1.555   0.376
 8233SOL     OW25597   0.224   5.255   5.999
 8233SOL    HW125598   0.320   5.283   5.994
 8233SOL    HW225599   0.190   5.269   6.092
 8234SOL     OW25600   2.994   2.892   0.062
 8234SOL    HW125601   3.019   2.975   0.112
 8234SOL    HW225602   2.904   2.903   0.021
 8235SOL     OW25603   2.965   3.851   0.882
 8235SOL    HW125604   3.022   3.832   0.802
 8235SOL    HW225605   2.881   3.797   0.877
 8236SOL     OW25606   0.123   3.507   6.830
 8236SOL    HW125607   0.071   3.586   6.863
 8236SOL    HW225608   0.170   3.463   6.906
 8237SOL     OW25609   4.694   5.703   5.344
 8237SOL    HW125610   4.766   5.705   5.413
 8237SOL    HW225611   4.691   5.791   5.297
 8238SOL     OW25612   1.555   4.007   6.917
 8238SOL    HW125613   1.555   3.909   6.898
 8238SOL    HW225614   1.596   4.024   7.007
 8239SOL     OW25615   6.386   2.020   5.529
 8239SOL    HW125616   6.294   1.984   5.546
 8239SOL    HW225617   6.429   1.968   5.455
 8240SOL     OW25618   3.309   3.804   2.996
 8240SOL    HW125619   3.290   3.756   2.911
 8240SOL    HW225620   3.243   3.878   3.008
 8241SOL     OW25621   3.110   6.610   0.870
 8241SOL    HW125622   3.051   6.652   0.801
 8241SOL    HW225623   3.062   6.609   0.958
 8242SOL     OW25624   0.746   4.250   5.470
 8242SOL    HW125625   0.735   4.176   5.537
 8242SOL    HW225626   0.656   4.290   5.450
 8243SOL     OW25627   0.210   3.234   5.758
 8243SOL    HW125628   0.122   3.253   5.714
 8243SOL    HW225629   0.283   3.283   5.709
 8244SOL     OW25630   0.146   0.221   4.104
 8244SOL    HW125631   0.132   0.123   4.113
 8244SOL    HW225632   0.171   0.243   4.010
 8245SOL     OW25633   4.496   1.630   1.872
 8245SOL    HW125634   4.462   1.633   1.778
 8245SOL    HW225635   4.546   1.714   1.892
 8246SOL     OW25636   6.589   4.122   5.921
 8246SOL    HW125637   6.674   4.155   5.963
 8246SOL    HW225638   6.522   4.103   5.992
 8247SOL     OW25639   0.850   0.915   1.719
 8247SOL    HW125640   0.873   0.839   1.658
 8247SOL    HW225641   0.758   0.948   1.698
 8248SOL     OW25642   5.838   4.835   3.766
 8248SOL    HW125643   5.785   4.871   3.690
 8248SOL    HW225644   5.860   4.739   3.749
 8249SOL     OW25645   1.821   4.445   4.280
 8249SOL    HW125646   1.867   4.406   4.200
 8249SOL    HW225647   1.807   4.543   4.266
 8250SOL     OW25648   3.414   4.136   3.239
 8250SOL    HW125649   3.419   4.036   3.243
 8250SOL    HW225650   3.479   4.170   3.171
 8251SOL     OW25651   5.422   1.923   4.838
 8251SOL    HW125652   5.430   1.955   4.933
 8251SOL    HW225653   5.450   1.996   4.776
 8252SOL     OW25654   3.393   3.835   6.318
 8252SOL    HW125655   3.353   3.747   6.294
 8252SOL    HW225656   3.349   3.871   6.400
 8253SOL     OW25657   3.722   2.771   5.227
 8253SOL    HW125658   3.820   2.768   5.246
 8253SOL    HW225659   3.703   2.850   5.168
 8254SOL     OW25660   4.343   4.701   4.767
 8254SOL    HW125661   4.353   4.634   4.840
 8254SOL    HW225662   4.401   4.676   4.689
 8255SOL     OW25663   3.902   6.136   4.404
 8255SOL    HW125664   3.837   6.212   4.396
 8255SOL    HW225665   3.869   6.071   4.473
 8256SOL     OW25666   6.258   0.701   3.868
 8256SOL    HW125667   6.284   0.753   3.949
 8256SOL    HW225668   6.259   0.761   3.788
 8257SOL     OW25669   6.132   4.909   3.002
 8257SOL    HW125670   6.064   4.968   3.045
 8257SOL    HW225671   6.096   4.873   2.917
 8258SOL     OW25672   4.671   1.485   0.551
 8258SOL    HW125673   4.707   1.571   0.516
 8258SOL    HW225674   4.679   1.414   0.481
 8259SOL     OW25675   4.273   1.450   3.389
 8259SOL    HW125676   4.318   1.538   3.395
 8259SOL    HW225677   4.214   1.436   3.469
 8260SOL     OW25678   2.367   6.793   2.065
 8260SOL    HW125679   2.307   6.813   1.988
 8260SOL    HW225680   2.313   6.752   2.139
 8261SOL     OW25681   5.686   0.974   1.334
 8261SOL    HW125682   5.617   0.989   1.263
 8261SOL    HW225683   5.768   1.026   1.312
 8262SOL     OW25684   1.167   2.330   1.383
 8262SOL    HW125685   1.222   2.350   1.464
 8262SOL    HW225686   1.145   2.416   1.336
 8263SOL     OW25687   0.218   1.661   1.269
 8263SOL    HW125688   0.277   1.733   1.306
 8263SOL    HW225689   0.232   1.577   1.320
 8264SOL     OW25690   1.127   5.783   2.300
 8264SOL    HW125691   1.087   5.868   2.333
 8264SOL    HW225692   1.226   5.784   2.314
 8265SOL     OW25693   1.543   0.238   1.267
 8265SOL    HW125694   1.475   0.173   1.301
 8265SOL    HW225695   1.613   0.254   1.337
 8266SOL     OW25696   1.831   6.674   2.638
 8266SOL    HW125697   1.860   6.587   2.596
 8266SOL    HW225698   1.759   6.715   2.581
 8267SOL     OW25699   2.166   3.776   1.158
 8267SOL    HW125700   2.208   3.801   1.071
 8267SOL    HW225701   2.066   3.776   1.148
 8268SOL     OW25702   2.043   6.379   6.039
 8268SOL    HW125703   1.965   6.432   6.071
 8268SOL    HW225704   2.112   6.376   6.111
 8269SOL     OW25705   6.062   1.528   1.145
 8269SOL    HW125706   5.981   1.553   1.092
 8269SOL    HW225707   6.103   1.611   1.183
 8270SOL     OW25708   2.783   6.921   4.493
 8270SOL    HW125709   2.848   6.978   4.443
 8270SOL    HW225710   2.712   6.888   4.430
 8271SOL     OW25711   6.848   1.181   2.689
 8271SOL    HW125712   6.788   1.112   2.647
 8271SOL    HW225713   6.884   1.146   2.775
 8272SOL     OW25714   5.014   0.895   1.976
 8272SOL    HW125715   5.093   0.872   1.919
 8272SOL    HW225716   4.965   0.972   1.936
 8273SOL     OW25717   2.209   6.394   1.064
 8273SOL    HW125718   2.239   6.418   1.156
 8273SOL    HW225719   2.191   6.478   1.012
 8274SOL     OW25720   4.707   4.914   2.733
 8274SOL    HW125721   4.665   5.004   2.745
 8274SOL    HW225722   4.697   4.861   2.817
 8275SOL     OW25723   4.686   2.194   5.941
 8275SOL    HW125724   4.587   2.189   5.952
 8275SOL    HW225725   4.730   2.190   6.030
 8276SOL     OW25726   0.951   1.770   3.878
 8276SOL    HW125727   0.912   1.726   3.797
 8276SOL    HW225728   1.051   1.764   3.874
 8277SOL     OW25729   0.097   0.889   6.643
 8277SOL    HW125730   0.194   0.914   6.645
 8277SOL    HW225731   0.042   0.968   6.670
 8278SOL     OW25732   2.233   2.320   6.663
 8278SOL    HW125733   2.312   2.321   6.601
 8278SOL    HW225734   2.158   2.373   6.623
 8279SOL     OW25735   0.576   6.220   4.501
 8279SOL    HW125736   0.650   6.200   4.566
 8279SOL    HW225737   0.589   6.165   4.419
 8280SOL     OW25738   2.839   3.504   6.960
 8280SOL    HW125739   2.830   3.482   0.031
 8280SOL    HW225740   2.750   3.529   6.922
 8281SOL     OW25741   0.825   5.528   1.572
 8281SOL    HW125742   0.849   5.607   1.516
 8281SOL    HW225743   0.769   5.465   1.519
 8282SOL     OW25744   5.942   2.685   6.306
 8282SOL    HW125745   5.966   2.593   6.276
 8282SOL    HW225746   5.842   2.693   6.310
 8283SOL     OW25747   1.517   4.590   6.241
 8283SOL    HW125748   1.581   4.519   6.272
 8283SOL    HW225749   1.550   4.627   6.154
 8284SOL     OW25750   0.536   4.188   1.882
 8284SOL    HW125751   0.480   4.187   1.799
 8284SOL    HW225752   0.478   4.171   1.962
 8285SOL     OW25753   3.876   3.150   5.306
 8285SOL    HW125754   3.875   3.079   5.236
 8285SOL    HW225755   3.952   3.213   5.289
 8286SOL     OW25756   5.535   2.537   6.101
 8286SOL    HW125757   5.582   2.514   6.186
 8286SOL    HW225758   5.601   2.535   6.026
 8287SOL     OW25759   1.424   5.679   4.664
 8287SOL    HW125760   1.324   5.682   4.670
 8287SOL    HW225761   1.459   5.603   4.718
 8288SOL     OW25762   2.646   2.375   3.052
 8288SOL    HW125763   2.551   2.397   3.031
 8288SOL    HW225764   2.700   2.375   2.969
 8289SOL     OW25765   0.588   6.930   0.581
 8289SOL    HW125766   0.677   6.921   0.626
 8289SOL    HW225767   0.579   7.023   0.545
 8290SOL     OW25768   6.517   1.454   0.198
 8290SOL    HW125769   6.573   1.376   0.228
 8290SOL    HW225770   6.535   1.473   0.101
 8291SOL     OW25771   5.026   0.000   6.920
 8291SOL    HW125772   4.987   6.955   6.862
 8291SOL    HW225773   5.084   6.984   6.989
 8292SOL     OW25774   2.550   6.350   0.397
 8292SOL    HW125775   2.567   6.407   0.317
 8292SOL    HW225776   2.551   6.254   0.371
 8293SOL     OW25777   4.052   6.715   6.771
 8293SOL    HW125778   4.137   6.712   6.718
 8293SOL    HW225779   3.998   6.794   6.743
 8294SOL     OW25780   5.832   3.555   5.804
 8294SOL    HW125781   5.824   3.556   5.903
 8294SOL    HW225782   5.847   3.462   5.772
 8295SOL     OW25783   5.452   4.959   1.736
 8295SOL    HW125784   5.463   4.873   1.787
 8295SOL    HW225785   5.358   4.992   1.748
 8296SOL     OW25786   1.470   6.674   6.009
 8296SOL    HW125787   1.423   6.761   6.022
 8296SOL    HW225788   1.534   6.681   5.933
 8297SOL     OW25789   6.369   2.663   3.116
 8297SOL    HW125790   6.408   2.579   3.154
 8297SOL    HW225791   6.304   2.640   3.044
 8298SOL     OW25792   5.516   1.398   1.433
 8298SOL    HW125793   5.444   1.343   1.474
 8298SOL    HW225794   5.597   1.397   1.492
 8299SOL     OW25795   0.532   2.637   1.896
 8299SOL    HW125796   0.437   2.645   1.928
 8299SOL    HW225797   0.557   2.540   1.892
 8300SOL     OW25798   0.383   5.028   5.419
 8300SOL    HW125799   0.451   5.055   5.350
 8300SOL    HW225800   0.350   5.109   5.467
 8301SOL     OW25801   4.318   1.928   1.561
 8301SOL    HW125802   4.279   1.959   1.647
 8301SOL    HW225803   4.248   1.880   1.507
 8302SOL     OW25804   6.167   6.078   6.090
 8302SOL    HW125805   6.076   6.049   6.060
 8302SOL    HW225806   6.158   6.160   6.147
 8303SOL     OW25807   6.880   0.614   4.241
 8303SOL    HW125808   6.956   0.677   4.224
 8303SOL    HW225809   6.911   0.520   4.227
 8304SOL     OW25810   1.736   3.590   6.507
 8304SOL    HW125811   1.749   3.668   6.568
 8304SOL    HW225812   1.763   3.617   6.414
 8305SOL     OW25813   3.922   5.224   3.978
 8305SOL    HW125814   3.919   5.168   4.061
 8305SOL    HW225815   3.961   5.171   3.903
 8306SOL     OW25816   0.225   3.196   4.807
 8306SOL    HW125817   0.308   3.241   4.843
 8306SOL    HW225818   0.181   3.145   4.881
 8307SOL     OW25819   3.885   5.326   1.797
 8307SOL    HW125820   3.785   5.318   1.804
 8307SOL    HW225821   3.911   5.324   1.701
 8308SOL     OW25822   4.508   6.481   1.262
 8308SOL    HW125823   4.491   6.457   1.166
 8308SOL    HW225824   4.511   6.581   1.270
 8309SOL     OW25825   5.534   5.564   2.994
 8309SOL    HW125826   5.518   5.467   2.977
 8309SOL    HW225827   5.528   5.615   2.908
 8310SOL     OW25828   1.076   4.448   0.624
 8310SOL    HW125829   1.163   4.441   0.576
 8310SOL    HW225830   1.017   4.371   0.596
 8311SOL     OW25831   0.426   1.098   5.819
 8311SOL    HW125832   0.376   1.014   5.842
 8311SOL    HW225833   0.524   1.077   5.812
 8312SOL     OW25834   5.083   6.406   1.583
 8312SOL    HW125835   5.132   6.326   1.619
 8312SOL    HW225836   4.991   6.379   1.558
 8313SOL     OW25837   3.794   1.706   2.381
 8313SOL    HW125838   3.881   1.657   2.384
 8313SOL    HW225839   3.762   1.721   2.475
 8314SOL     OW25840   4.998   6.495   0.620
 8314SOL    HW125841   5.017   6.587   0.583
 8314SOL    HW225842   4.904   6.469   0.595
 8315SOL     OW25843   4.171   3.077   1.029
 8315SOL    HW125844   4.179   3.073   1.128
 8315SOL    HW225845   4.246   3.132   0.992
 8316SOL     OW25846   0.438   3.423   1.533
 8316SOL    HW125847   0.367   3.486   1.502
 8316SOL    HW225848   0.443   3.345   1.470
 8317SOL     OW25849   2.028   3.234   2.468
 8317SOL    HW125850   2.098   3.163   2.470
 8317SOL    HW225851   2.045   3.294   2.389
 8318SOL     OW25852   4.789   2.165   4.859
 8318SOL    HW125853   4.741   2.221   4.927
 8318SOL    HW225854   4.772   2.068   4.879
 8319SOL     OW25855   3.051   1.922   5.798
 8319SOL    HW125856   3.009   1.937   5.708
 8319SOL    HW225857   3.066   2.010   5.842
 8320SOL     OW25858   3.569   4.861   1.323
 8320SOL    HW125859   3.501   4.833   1.256
 8320SOL    HW225860   3.647   4.902   1.277
 8321SOL     OW25861   0.468   1.152   6.173
 8321SOL    HW125862   0.397   1.104   6.122
 8321SOL    HW225863   0.554   1.147   6.124
 8322SOL     OW25864   6.901   0.218   0.098
 8322SOL    HW125865   6.900   0.317   0.083
 8322SOL    HW225866   6.902   0.172   0.009
 8323SOL     OW25867   6.887   6.954   2.457
 8323SOL    HW125868   6.903   0.021   2.423
 8323SOL    HW225869   6.971   6.900   2.446
 8324SOL     OW25870   6.357   0.421   2.510
 8324SOL    HW125871   6.327   0.411   2.605
 8324SOL    HW225872   6.315   0.350   2.454
 8325SOL     OW25873   3.880   3.083   4.393
 8325SOL    HW125874   3.940   3.145   4.343
 8325SOL    HW225875   3.810   3.047   4.331
 8326SOL     OW25876   4.355   3.669   5.621
 8326SOL    HW125877   4.364   3.705   5.527
 8326SOL    HW225878   4.355   3.746   5.685
 8327SOL     OW25879   4.824   2.361   5.555
 8327SOL    HW125880   4.876   2.278   5.535
 8327SOL    HW225881   4.843   2.430   5.485
 8328SOL     OW25882   2.340   3.762   6.207
 8328SOL    HW125883   2.296   3.848   6.234
 8328SOL    HW225884   2.439   3.774   6.206
 8329SOL     OW25885   6.963   3.225   5.631
 8329SOL    HW125886   6.915   3.192   5.550
 8329SOL    HW225887   6.942   3.166   5.709
 8330SOL     OW25888   1.933   0.170   0.425
 8330SOL    HW125889   1.915   0.236   0.497
 8330SOL    HW225890   2.031   0.159   0.414
 8331SOL     OW25891   2.961   6.861   0.864
 8331SOL    HW125892   3.024   6.885   0.938
 8331SOL    HW225893   2.963   6.932   0.794
 8332SOL     OW25894   4.439   5.218   2.552
 8332SOL    HW125895   4.418   5.122   2.533
 8332SOL    HW225896   4.377   5.277   2.500
 8333SOL     OW25897   0.172   6.049   6.936
 8333SOL    HW125898   0.141   6.016   0.000
 8333SOL    HW225899   0.113   6.124   6.907
 8334SOL     OW25900   5.802   1.382   4.085
 8334SOL    HW125901   5.856   1.343   4.010
 8334SOL    HW225902   5.825   1.479   4.095
 8335SOL     OW25903   6.259   5.224   5.615
 8335SOL    HW125904   6.176   5.197   5.662
 8335SOL    HW225905   6.339   5.199   5.670
 8336SOL     OW25906   6.707   0.986   2.578
 8336SOL    HW125907   6.745   1.003   2.487
 8336SOL    HW225908   6.676   0.891   2.584
 8337SOL     OW25909   0.557   6.927   4.040
 8337SOL    HW125910   0.561   6.987   3.959
 8337SOL    HW225911   0.464   6.892   4.050
 8338SOL     OW25912   2.291   4.994   1.766
 8338SOL    HW125913   2.349   4.914   1.754
 8338SOL    HW225914   2.265   5.003   1.862
 8339SOL     OW25915   6.231   1.113   2.203
 8339SOL    HW125916   6.260   1.189   2.261
 8339SOL    HW225917   6.288   1.109   2.121
 8340SOL     OW25918   4.802   3.886   1.099
 8340SOL    HW125919   4.720   3.829   1.088
 8340SOL    HW225920   4.875   3.851   1.041
 8341SOL     OW25921   2.320   6.431   0.214
 8341SOL    HW125922   2.309   6.338   0.250
 8341SOL    HW225923   2.264   6.442   0.132
 8342SOL     OW25924   3.630   6.675   1.316
 8342SOL    HW125925   3.612   6.703   1.222
 8342SOL    HW225926   3.584   6.588   1.335
 8343SOL     OW25927   1.493   5.426   6.016
 8343SOL    HW125928   1.499   5.516   6.059
 8343SOL    HW225929   1.442   5.364   6.076
 8344SOL     OW25930   4.763   6.721   5.690
 8344SOL    HW125931   4.678   6.669   5.698
 8344SOL    HW225932   4.835   6.674   5.741
 8345SOL     OW25933   5.354   1.821   3.498
 8345SOL    HW125934   5.268   1.795   3.541
 8345SOL    HW225935   5.375   1.917   3.518
 8346SOL     OW25936   2.491   4.769   0.397
 8346SOL    HW125937   2.502   4.753   0.495
 8346SOL    HW225938   2.513   4.686   0.346
 8347SOL     OW25939   2.928   0.069   5.069
 8347SOL    HW125940   3.021   0.105   5.068
 8347SOL    HW225941   2.878   0.103   4.989
 8348SOL     OW25942   1.527   6.769   1.236
 8348SOL    HW125943   1.579   6.779   1.151
 8348SOL    HW225944   1.472   6.852   1.251
 8349SOL     OW25945   5.667   3.792   1.138
 8349SOL    HW125946   5.622   3.704   1.156
 8349SOL    HW225947   5.759   3.776   1.104
 8350SOL     OW25948   5.422   1.021   4.745
 8350SOL    HW125949   5.417   1.057   4.838
 8350SOL    HW225950   5.517   0.998   4.724
 8351SOL     OW25951   3.695   5.364   4.301
 8351SOL    HW125952   3.779   5.334   4.347
 8351SOL    HW225953   3.679   5.306   4.221
 8352SOL     OW25954   6.653   0.302   1.792
 8352SOL    HW125955   6.739   0.252   1.802
 8352SOL    HW225956   6.600   0.293   1.877
 8353SOL     OW25957   5.450   3.773   2.403
 8353SOL    HW125958   5.455   3.867   2.369
 8353SOL    HW225959   5.412   3.773   2.495
 8354SOL     OW25960   3.169   1.220   6.738
 8354SOL    HW125961   3.214   1.154   6.677
 8354SOL    HW225962   3.193   1.313   6.711
 8355SOL     OW25963   2.685   0.666   6.920
 8355SOL    HW125964   2.739   0.750   6.908
 8355SOL    HW225965   2.640   0.667   7.009
 8356SOL     OW25966   1.034   6.544   0.538
 8356SOL    HW125967   0.964   6.573   0.604
 8356SOL    HW225968   1.071   6.456   0.566
 8357SOL     OW25969   3.764   5.633   5.750
 8357SOL    HW125970   3.823   5.712   5.730
 8357SOL    HW225971   3.793   5.590   5.835
 8358SOL     OW25972   2.156   2.736   5.536
 8358SOL    HW125973   2.137   2.797   5.613
 8358SOL    HW225974   2.220   2.781   5.473
 8359SOL     OW25975   3.787   5.961   4.922
 8359SOL    HW125976   3.854   6.026   4.884
 8359SOL    HW225977   3.797   5.873   4.876
 8360SOL     OW25978   3.618   0.072   2.581
 8360SOL    HW125979   3.623   0.170   2.563
 8360SOL    HW225980   3.647   0.054   2.675
 8361SOL     OW25981   1.644   1.064   1.946
 8361SOL    HW125982   1.742   1.075   1.936
 8361SOL    HW225983   1.618   1.080   2.042
 8362SOL     OW25984   2.717   2.408   0.297
 8362SOL    HW125985   2.765   2.472   0.357
 8362SOL    HW225986   2.771   2.323   0.290
 8363SOL     OW25987   0.979   2.762   0.403
 8363SOL    HW125988   1.011   2.699   0.474
 8363SOL    HW225989   0.911   2.824   0.442
 8364SOL     OW25990   0.295   3.544   2.705
 8364SOL    HW125991   0.229   3.498   2.645
 8364SOL    HW225992   0.324   3.630   2.663
 8365SOL     OW25993   1.832   3.948   0.837
 8365SOL    HW125994   1.779   4.010   0.894
 8365SOL    HW225995   1.787   3.859   0.832
 8366SOL     OW25996   4.651   5.907   2.021
 8366SOL    HW125997   4.576   5.916   1.955
 8366SOL    HW225998   4.732   5.955   1.986
 8367SOL     OW25999   4.554   6.338   4.366
 8367SOL    HW126000   4.564   6.251   4.413
 8367SOL    HW226001   4.464   6.341   4.321
 8368SOL     OW26002   2.803   5.845   6.481
 8368SOL    HW126003   2.846   5.933   6.503
 8368SOL    HW226004   2.778   5.843   6.385
 8369SOL     OW26005   1.864   1.170   6.570
 8369SOL    HW126006   1.827   1.080   6.594
 8369SOL    HW226007   1.823   1.202   6.485
 8370SOL     OW26008   2.951   2.337   5.760
 8370SOL    HW126009   2.993   2.268   5.819
 8370SOL    HW226010   2.902   2.403   5.817
 8371SOL     OW26011   1.719   3.613   0.372
 8371SOL    HW126012   1.620   3.608   0.383
 8371SOL    HW226013   1.741   3.684   0.304
 8372SOL     OW26014   0.858   6.534   2.960
 8372SOL    HW126015   0.875   6.454   2.902
 8372SOL    HW226016   0.759   6.550   2.965
 8373SOL     OW26017   0.876   6.730   4.986
 8373SOL    HW126018   0.788   6.768   5.015
 8373SOL    HW226019   0.892   6.642   5.031
 8374SOL     OW26020   0.158   1.118   6.796
 8374SOL    HW126021   0.071   1.096   6.840
 8374SOL    HW226022   0.202   1.193   6.845
 8375SOL     OW26023   3.456   5.898   6.014
 8375SOL    HW126024   3.384   5.966   6.028
 8375SOL    HW226025   3.494   5.908   5.922
 8376SOL     OW26026   2.259   0.606   4.781
 8376SOL    HW126027   2.211   0.523   4.811
 8376SOL    HW226028   2.285   0.596   4.685
 8377SOL     OW26029   6.073   5.745   1.662
 8377SOL    HW126030   6.041   5.830   1.703
 8377SOL    HW226031   6.161   5.761   1.616
 8378SOL     OW26032   4.827   3.881   3.317
 8378SOL    HW126033   4.885   3.960   3.337
 8378SOL    HW226034   4.745   3.885   3.373
 8379SOL     OW26035   6.743   3.460   1.369
 8379SOL    HW126036   6.713   3.364   1.369
 8379SOL    HW226037   6.828   3.468   1.422
 8380SOL     OW26038   6.524   0.744   1.973
 8380SOL    HW126039   6.426   0.743   1.995
 8380SOL    HW226040   6.574   0.693   2.043
 8381SOL     OW26041   0.837   5.116   4.694
 8381SOL    HW126042   0.748   5.146   4.727
 8381SOL    HW226043   0.908   5.147   4.758
 8382SOL     OW26044   1.470   1.394   2.246
 8382SOL    HW126045   1.503   1.468   2.186
 8382SOL    HW226046   1.538   1.379   2.318
 8383SOL     OW26047   3.039   2.087   6.605
 8383SOL    HW126048   2.984   2.024   6.662
 8383SOL    HW226049   3.006   2.180   6.618
 8384SOL     OW26050   0.063   6.749   0.743
 8384SOL    HW126051   0.030   6.697   0.822
 8384SOL    HW226052   0.156   6.720   0.720
 8385SOL     OW26053   5.814   2.581   1.855
 8385SOL    HW126054   5.721   2.553   1.833
 8385SOL    HW226055   5.868   2.500   1.877
 8386SOL     OW26056   1.015   4.190   2.497
 8386SOL    HW126057   0.969   4.115   2.545
 8386SOL    HW226058   0.984   4.193   2.402
 8387SOL     OW26059   1.335   1.211   0.867
 8387SOL    HW126060   1.334   1.122   0.821
 8387SOL    HW226061   1.254   1.263   0.841
 8388SOL     OW26062   2.327   6.230   1.668
 8388SOL    HW126063   2.426   6.220   1.669
 8388SOL    HW226064   2.290   6.208   1.758
 8389SOL     OW26065   5.133   3.518   2.149
 8389SOL    HW126066   5.166   3.459   2.076
 8389SOL    HW226067   5.041   3.550   2.127
 8390SOL     OW26068   3.962   1.889   6.372
 8390SOL    HW126069   3.864   1.869   6.368
 8390SOL    HW226070   4.006   1.856   6.288
 8391SOL     OW26071   6.130   6.755   0.939
 8391SOL    HW126072   6.135   6.722   0.845
 8391SOL    HW226073   6.121   6.678   1.002
 8392SOL     OW26074   6.495   3.795   3.774
 8392SOL    HW126075   6.577   3.843   3.740
 8392SOL    HW226076   6.470   3.834   3.863
 8393SOL     OW26077   5.283   0.397   2.481
 8393SOL    HW126078   5.333   0.310   2.492
 8393SOL    HW226079   5.326   0.467   2.539
 8394SOL     OW26080   5.732   3.686   2.285
 8394SOL    HW126081   5.709   3.685   2.382
 8394SOL    HW226082   5.692   3.768   2.243
 8395SOL     OW26083   2.244   0.476   5.396
 8395SOL    HW126084   2.155   0.430   5.389
 8395SOL    HW226085   2.242   0.539   5.474
 8396SOL     OW26086   4.084   4.916   4.380
 8396SOL    HW126087   4.106   5.013   4.378
 8396SOL    HW226088   4.108   4.878   4.470
 8397SOL     OW26089   6.917   1.745   4.165
 8397SOL    HW126090   6.859   1.763   4.245
 8397SOL    HW226091   6.863   1.700   4.094
 8398SOL     OW26092   4.900   1.850   6.078
 8398SOL    HW126093   4.959   1.930   6.091
 8398SOL    HW226094   4.805   1.875   6.096
 8399SOL     OW26095   6.931   6.280   6.600
 8399SOL    HW126096   6.860   6.217   6.568
 8399SOL    HW226097   7.004   6.284   6.532
 8400SOL     OW26098   1.756   2.683   4.303
 8400SOL    HW126099   1.840   2.728   4.335
 8400SOL    HW226100   1.695   2.751   4.264
 8401SOL     OW26101   2.410   0.395   5.177
 8401SOL    HW126102   2.507   0.417   5.161
 8401SOL    HW226103   2.381   0.436   5.263
 8402SOL     OW26104   4.565   0.568   6.573
 8402SOL    HW126105   4.640   0.584   6.636
 8402SOL    HW226106   4.528   0.476   6.587
 8403SOL     OW26107   6.838   4.905   3.953
 8403SOL    HW126108   6.832   4.806   3.966
 8403SOL    HW226109   6.755   4.949   3.989
 8404SOL     OW26110   2.748   1.717   6.190
 8404SOL    HW126111   2.766   1.626   6.151
 8404SOL    HW226112   2.817   1.781   6.157
 8405SOL     OW26113   3.661   1.587   6.114
 8405SOL    HW126114   3.607   1.530   6.053
 8405SOL    HW226115   3.602   1.623   6.187
 8406SOL     OW26116   4.724   0.738   0.043
 8406SOL    HW126117   4.721   0.836   0.027
 8406SOL    HW226118   4.754   0.720   0.137
 8407SOL     OW26119   4.272   6.128   3.539
 8407SOL    HW126120   4.299   6.085   3.625
 8407SOL    HW226121   4.304   6.223   3.538
 8408SOL     OW26122   5.449   6.899   0.954
 8408SOL    HW126123   5.505   6.831   1.001
 8408SOL    HW226124   5.508   6.963   0.905
 8409SOL     OW26125   4.500   2.413   2.025
 8409SOL    HW126126   4.478   2.360   1.943
 8409SOL    HW226127   4.463   2.505   2.017
 8410SOL     OW26128   6.450   1.753   1.514
 8410SOL    HW126129   6.493   1.725   1.600
 8410SOL    HW226130   6.511   1.814   1.464
 8411SOL     OW26131   6.988   6.205   1.575
 8411SOL    HW126132   6.982   6.303   1.556
 8411SOL    HW226133   0.008   6.159   1.498
 8412SOL     OW26134   3.474   3.332   0.642
 8412SOL    HW126135   3.505   3.237   0.637
 8412SOL    HW226136   3.554   3.393   0.648
 8413SOL     OW26137   4.337   5.746   6.391
 8413SOL    HW126138   4.415   5.808   6.391
 8413SOL    HW226139   4.276   5.769   6.467
 8414SOL     OW26140   1.829   1.198   2.405
 8414SOL    HW126141   1.901   1.250   2.360
 8414SOL    HW226142   1.840   1.101   2.384
 8415SOL     OW26143   3.204   0.007   4.013
 8415SOL    HW126144   3.123   0.056   3.980
 8415SOL    HW226145   3.220   6.952   3.955
 8416SOL     OW26146   5.638   1.603   4.835
 8416SOL    HW126147   5.541   1.626   4.838
 8416SOL    HW226148   5.662   1.553   4.918
 8417SOL     OW26149   1.461   3.364   5.237
 8417SOL    HW126150   1.422   3.282   5.280
 8417SOL    HW226151   1.560   3.360   5.242
 8418SOL     OW26152   0.830   5.534   2.471
 8418SOL    HW126153   0.801   5.456   2.526
 8418SOL    HW226154   0.754   5.599   2.462
 8419SOL     OW26155   5.842   1.020   3.089
 8419SOL    HW126156   5.899   1.093   3.050
 8419SOL    HW226157   5.892   0.974   3.162
 8420SOL     OW26158   3.450   6.893   2.087
 8420SOL    HW126159   3.350   6.893   2.083
 8420SOL    HW226160   3.488   6.836   2.015
 8421SOL     OW26161   3.377   6.493   6.377
 8421SOL    HW126162   3.466   6.475   6.418
 8421SOL    HW226163   3.307   6.496   6.449
 8422SOL     OW26164   4.624   2.710   2.467
 8422SOL    HW126165   4.594   2.616   2.450
 8422SOL    HW226166   4.637   2.757   2.380
 8423SOL     OW26167   5.051   4.595   5.595
 8423SOL    HW126168   5.151   4.597   5.592
 8423SOL    HW226169   5.018   4.653   5.669
 8424SOL     OW26170   2.088   0.334   3.501
 8424SOL    HW126171   2.122   0.342   3.595
 8424SOL    HW226172   1.997   0.376   3.494
 8425SOL     OW26173   3.471   4.162   3.866
 8425SOL    HW126174   3.450   4.260   3.861
 8425SOL    HW226175   3.396   4.114   3.913
 8426SOL     OW26176   3.744   3.370   2.440
 8426SOL    HW126177   3.716   3.410   2.352
 8426SOL    HW226178   3.806   3.433   2.486
 8427SOL     OW26179   2.885   3.345   3.503
 8427SOL    HW126180   2.885   3.439   3.470
 8427SOL    HW226181   2.808   3.331   3.564
 8428SOL     OW26182   0.239   0.276   0.961
 8428SOL    HW126183   0.145   0.310   0.956
 8428SOL    HW226184   0.253   0.230   1.048
 8429SOL     OW26185   1.888   5.815   6.213
 8429SOL    HW126186   1.856   5.736   6.265
 8429SOL    HW226187   1.892   5.895   6.272
 8430SOL     OW26188   4.100   5.151   4.722
 8430SOL    HW126189   4.069   5.245   4.715
 8430SOL    HW226190   4.188   5.141   4.675
 8431SOL     OW26191   3.113   3.438   6.628
 8431SOL    HW126192   3.070   3.361   6.676
 8431SOL    HW226193   3.177   3.403   6.559
 8432SOL     OW26194   6.716   5.611   6.322
 8432SOL    HW126195   6.646   5.619   6.393
 8432SOL    HW226196   6.770   5.695   6.318
 8433SOL     OW26197   4.418   2.765   1.097
 8433SOL    HW126198   4.388   2.695   1.163
 8433SOL    HW226199   4.436   2.721   1.009
 8434SOL     OW26200   1.863   5.555   4.597
 8434SOL    HW126201   1.942   5.527   4.542
 8434SOL    HW226202   1.781   5.556   4.540
 8435SOL     OW26203   5.344   1.039   2.733
 8435SOL    HW126204   5.361   1.013   2.638
 8435SOL    HW226205   5.417   1.003   2.792
 8436SOL     OW26206   2.824   6.142   3.435
 8436SOL    HW126207   2.839   6.159   3.532
 8436SOL    HW226208   2.889   6.074   3.402
 8437SOL     OW26209   2.106   3.164   2.717
 8437SOL    HW126210   2.088   3.190   2.622
 8437SOL    HW226211   2.139   3.070   2.720
 8438SOL     OW26212   1.566   3.600   3.316
 8438SOL    HW126213   1.568   3.682   3.259
 8438SOL    HW226214   1.649   3.546   3.300
 8439SOL     OW26215   5.998   5.583   3.871
 8439SOL    HW126216   5.979   5.583   3.773
 8439SOL    HW226217   5.948   5.657   3.914
 8440SOL     OW26218   2.314   1.582   3.704
 8440SOL    HW126219   2.263   1.601   3.788
 8440SOL    HW226220   2.272   1.505   3.656
 8441SOL     OW26221   5.278   5.648   5.363
 8441SOL    HW126222   5.239   5.740   5.365
 8441SOL    HW226223   5.372   5.652   5.329
 8442SOL     OW26224   3.794   0.939   5.362
 8442SOL    HW126225   3.797   0.853   5.311
 8442SOL    HW226226   3.886   0.964   5.390
 8443SOL     OW26227   1.821   4.818   3.520
 8443SOL    HW126228   1.864   4.743   3.470
 8443SOL    HW226229   1.838   4.808   3.617
 8444SOL     OW26230   4.519   6.564   3.074
 8444SOL    HW126231   4.568   6.651   3.079
 8444SOL    HW226232   4.488   6.537   3.165
 8445SOL     OW26233   2.632   6.856   6.839
 8445SOL    HW126234   2.638   6.923   6.912
 8445SOL    HW226235   2.608   6.767   6.877
 8446SOL     OW26236   0.121   6.527   5.014
 8446SOL    HW126237   0.124   6.430   4.989
 8446SOL    HW226238   0.203   6.550   5.068
 8447SOL     OW26239   4.457   1.674   2.463
 8447SOL    HW126240   4.458   1.587   2.512
 8447SOL    HW226241   4.551   1.708   2.452
 8448SOL     OW26242   4.653   6.315   3.735
 8448SOL    HW126243   4.698   6.245   3.790
 8448SOL    HW226244   4.690   6.405   3.759
 8449SOL     OW26245   1.797   3.045   3.310
 8449SOL    HW126246   1.699   3.042   3.293
 8449SOL    HW226247   1.824   3.139   3.333
 8450SOL     OW26248   0.503   0.825   6.878
 8450SOL    HW126249   0.547   0.910   6.908
 8450SOL    HW226250   0.538   0.748   6.933
 8451SOL     OW26251   3.632   1.116   1.126
 8451SOL    HW126252   3.664   1.023   1.146
 8451SOL    HW226253   3.710   1.174   1.105
 8452SOL     OW26254   5.533   1.829   4.362
 8452SOL    HW126255   5.451   1.772   4.364
 8452SOL    HW226256   5.574   1.826   4.270
 8453SOL     OW26257   0.913   5.407   0.025
 8453SOL    HW126258   0.871   5.473   6.987
 8453SOL    HW226259   0.933   5.453   0.111
 8454SOL     OW26260   0.737   4.186   6.841
 8454SOL    HW126261   0.791   4.261   6.880
 8454SOL    HW226262   0.794   4.104   6.835
 8455SOL     OW26263   0.876   0.361   2.513
 8455SOL    HW126264   0.861   0.316   2.601
 8455SOL    HW226265   0.915   0.296   2.448
 8456SOL     OW26266   5.173   0.337   3.334
 8456SOL    HW126267   5.075   0.357   3.327
 8456SOL    HW226268   5.226   0.417   3.305
 8457SOL     OW26269   6.099   6.687   4.830
 8457SOL    HW126270   6.050   6.739   4.900
 8457SOL    HW226271   6.191   6.667   4.862
 8458SOL     OW26272   0.745   6.934   0.293
 8458SOL    HW126273   0.817   6.994   0.325
 8458SOL    HW226274   0.660   6.986   0.281
 8459SOL     OW26275   1.486   5.705   3.049
 8459SOL    HW126276   1.387   5.715   3.039
 8459SOL    HW226277   1.529   5.796   3.048
 8460SOL     OW26278   4.244   3.968   5.344
 8460SOL    HW126279   4.317   3.900   5.346
 8460SOL    HW226280   4.284   4.059   5.346
 8461SOL     OW26281   6.954   3.048   4.664
 8461SOL    HW126282   6.939   3.091   4.753
 8461SOL    HW226283   6.946   2.949   4.674
 8462SOL     OW26284   2.839   1.822   1.088
 8462SOL    HW126285   2.781   1.830   1.169
 8462SOL    HW226286   2.823   1.734   1.044
 8463SOL     OW26287   5.935   0.538   2.180
 8463SOL    HW126288   5.932   0.490   2.093
 8463SOL    HW226289   5.920   0.636   2.165
 8464SOL     OW26290   5.977   3.199   4.434
 8464SOL    HW126291   6.034   3.279   4.454
 8464SOL    HW226292   5.883   3.229   4.417
 8465SOL     OW26293   1.581   2.071   0.570
 8465SOL    HW126294   1.483   2.063   0.585
 8465SOL    HW226295   1.629   1.999   0.622
 8466SOL     OW26296   1.046   5.523   3.167
 8466SOL    HW126297   0.977   5.581   3.209
 8466SOL    HW226298   1.034   5.429   3.198
 8467SOL     OW26299   2.663   5.582   0.906
 8467SOL    HW126300   2.700   5.629   0.986
 8467SOL    HW226301   2.732   5.578   0.834
 8468SOL     OW26302   3.928   2.294   0.207
 8468SOL    HW126303   3.836   2.266   0.237
 8468SOL    HW226304   3.975   2.216   0.167
 8469SOL     OW26305   3.335   2.847   6.570
 8469SOL    HW126306   3.391   2.766   6.553
 8469SOL    HW226307   3.293   2.877   6.485
 8470SOL     OW26308   2.191   2.449   0.892
 8470SOL    HW126309   2.199   2.482   0.798
 8470SOL    HW226310   2.281   2.445   0.935
 8471SOL     OW26311   3.257   0.578   4.278
 8471SOL    HW126312   3.317   0.608   4.352
 8471SOL    HW226313   3.163   0.576   4.310
 8472SOL     OW26314   0.583   6.734   4.519
 8472SOL    HW126315   0.525   6.699   4.446
 8472SOL    HW226316   0.570   6.833   4.527
 8473SOL     OW26317   6.887   5.517   0.281
 8473SOL    HW126318   6.906   5.608   0.316
 8473SOL    HW226319   6.828   5.468   0.345
 8474SOL     OW26320   3.276   2.972   1.655
 8474SOL    HW126321   3.180   2.945   1.643
 8474SOL    HW226322   3.304   2.951   1.749
 8475SOL     OW26323   6.167   1.680   2.829
 8475SOL    HW126324   6.168   1.606   2.896
 8475SOL    HW226325   6.201   1.645   2.741
 8476SOL     OW26326   5.453   0.081   1.946
 8476SOL    HW126327   5.474   7.010   1.951
 8476SOL    HW226328   5.357   0.094   1.918
 8477SOL     OW26329   2.759   6.725   0.995
 8477SOL    HW126330   2.833   6.772   0.947
 8477SOL    HW226331   2.748   6.633   0.957
 8478SOL     OW26332   1.817   0.808   5.204
 8478SOL    HW126333   1.730   0.759   5.210
 8478SOL    HW226334   1.872   0.769   5.131
 8479SOL     OW26335   5.967   1.116   0.344
 8479SOL    HW126336   6.065   1.112   0.325
 8479SOL    HW226337   5.952   1.161   0.432
 8480SOL     OW26338   3.237   0.423   1.201
 8480SOL    HW126339   3.156   0.434   1.260
 8480SOL    HW226340   3.243   0.501   1.139
 8481SOL     OW26341   3.912   1.706   4.596
 8481SOL    HW126342   3.921   1.682   4.499
 8481SOL    HW226343   3.923   1.805   4.607
 8482SOL     OW26344   1.727   0.087   2.034
 8482SOL    HW126345   1.725   0.015   2.104
 8482SOL    HW226346   1.745   0.175   2.079
 8483SOL     OW26347   3.198   5.848   2.235
 8483SOL    HW126348   3.169   5.861   2.330
 8483SOL    HW226349   3.201   5.937   2.189
 8484SOL     OW26350   0.359   4.717   4.136
 8484SOL    HW126351   0.459   4.716   4.144
 8484SOL    HW226352   0.328   4.635   4.089
 8485SOL     OW26353   2.444   4.220   0.182
 8485SOL    HW126354   2.362   4.246   0.131
 8485SOL    HW226355   2.482   4.301   0.228
 8486SOL     OW26356   5.682   1.226   2.501
 8486SOL    HW126357   5.727   1.140   2.478
 8486SOL    HW226358   5.727   1.301   2.452
 8487SOL     OW26359   5.238   0.337   1.368
 8487SOL    HW126360   5.314   0.335   1.433
 8487SOL    HW226361   5.228   0.430   1.331
 8488SOL     OW26362   5.346   4.564   4.453
 8488SOL    HW126363   5.396   4.521   4.529
 8488SOL    HW226364   5.369   4.662   4.450
 8489SOL     OW26365   5.360   4.425   1.444
 8489SOL    HW126366   5.281   4.485   1.433
 8489SOL    HW226367   5.444   4.480   1.438
 8490SOL     OW26368   4.433   5.806   2.953
 8490SOL    HW126369   4.485   5.727   2.920
 8490SOL    HW226370   4.356   5.823   2.891
 8491SOL     OW26371   2.595   0.735   2.062
 8491SOL    HW126372   2.680   0.785   2.079
 8491SOL    HW226373   2.517   0.797   2.072
 8492SOL     OW26374   5.702   3.192   5.600
 8492SOL    HW126375   5.611   3.197   5.642
 8492SOL    HW226376   5.699   3.238   5.510
 8493SOL     OW26377   4.058   1.947   6.900
 8493SOL    HW126378   4.101   1.930   6.988
 8493SOL    HW226379   4.117   1.913   6.826
 8494SOL     OW26380   2.818   5.837   6.887
 8494SOL    HW126381   2.723   5.833   6.856
 8494SOL    HW226382   2.820   5.842   6.987
 8495SOL     OW26383   6.840   2.491   0.555
 8495SOL    HW126384   6.742   2.488   0.535
 8495SOL    HW226385   6.889   2.526   0.475
 8496SOL     OW26386   0.501   2.158   3.534
 8496SOL    HW126387   0.454   2.205   3.460
 8496SOL    HW226388   0.516   2.062   3.509
 8497SOL     OW26389   5.823   5.416   4.391
 8497SOL    HW126390   5.866   5.379   4.309
 8497SOL    HW226391   5.826   5.348   4.464
 8498SOL     OW26392   0.257   0.224   1.227
 8498SOL    HW126393   0.293   0.151   1.286
 8498SOL    HW226394   0.333   0.280   1.193
 8499SOL     OW26395   3.145   4.918   6.453
 8499SOL    HW126396   3.127   5.015   6.440
 8499SOL    HW226397   3.227   4.907   6.509
 8500SOL     OW26398   2.183   6.667   5.874
 8500SOL    HW126399   2.151   6.603   5.804
 8500SOL    HW226400   2.256   6.624   5.928
 8501SOL     OW26401   1.857   3.357   6.625
 8501SOL    HW126402   1.798   3.435   6.603
 8501SOL    HW226403   1.949   3.375   6.592
 8502SOL     OW26404   6.822   6.160   1.197
 8502SOL    HW126405   6.869   6.246   1.176
 8502SOL    HW226406   6.843   6.093   1.125
 8503SOL     OW26407   2.157   5.087   3.596
 8503SOL    HW126408   2.196   5.132   3.516
 8503SOL    HW226409   2.230   5.046   3.650
 8504SOL     OW26410   1.751   6.094   3.266
 8504SOL    HW126411   1.704   6.177   3.297
 8504SOL    HW226412   1.849   6.104   3.280
 8505SOL     OW26413   5.555   4.283   3.903
 8505SOL    HW126414   5.527   4.222   3.977
 8505SOL    HW226415   5.600   4.364   3.941
 8506SOL     OW26416   1.211   6.340   0.638
 8506SOL    HW126417   1.208   6.276   0.715
 8506SOL    HW226418   1.306   6.361   0.616
 8507SOL     OW26419   2.323   0.799   6.191
 8507SOL    HW126420   2.243   0.858   6.203
 8507SOL    HW226421   2.376   0.798   6.276
 8508SOL     OW26422   6.683   2.534   5.249
 8508SOL    HW126423   6.632   2.462   5.201
 8508SOL    HW226424   6.643   2.623   5.228
 8509SOL     OW26425   5.981   1.372   4.683
 8509SOL    HW126426   5.932   1.451   4.645
 8509SOL    HW226427   5.918   1.296   4.695
 8510SOL     OW26428   5.783   5.804   3.133
 8510SOL    HW126429   5.722   5.754   3.194
 8510SOL    HW226430   5.734   5.880   3.091
 8511SOL     OW26431   6.568   4.343   0.825
 8511SOL    HW126432   6.550   4.380   0.734
 8511SOL    HW226433   6.583   4.418   0.889
 8512SOL     OW26434   4.057   2.290   6.923
 8512SOL    HW126435   4.082   2.202   6.883
 8512SOL    HW226436   4.080   2.291   7.020
 8513SOL     OW26437   5.497   3.633   0.578
 8513SOL    HW126438   5.439   3.556   0.549
 8513SOL    HW226439   5.521   3.622   0.674
 8514SOL     OW26440   2.590   1.615   4.550
 8514SOL    HW126441   2.513   1.556   4.524
 8514SOL    HW226442   2.555   1.706   4.572
 8515SOL     OW26443   0.322   1.380   6.579
 8515SOL    HW126444   0.400   1.339   6.627
 8515SOL    HW226445   0.331   1.480   6.582
 8516SOL     OW26446   5.645   2.994   2.649
 8516SOL    HW126447   5.571   3.061   2.660
 8516SOL    HW226448   5.657   2.943   2.734
 8517SOL     OW26449   2.250   2.486   5.938
 8517SOL    HW126450   2.273   2.583   5.948
 8517SOL    HW226451   2.246   2.463   5.841
 8518SOL     OW26452   4.946   4.672   6.709
 8518SOL    HW126453   4.995   4.596   6.668
 8518SOL    HW226454   4.974   4.758   6.667
 8519SOL     OW26455   1.410   4.735   0.634
 8519SOL    HW126456   1.431   4.651   0.584
 8519SOL    HW226457   1.315   4.731   0.668
 8520SOL     OW26458   4.191   3.649   5.086
 8520SOL    HW126459   4.124   3.700   5.033
 8520SOL    HW226460   4.214   3.699   5.169
 8521SOL     OW26461   1.475   6.546   5.608
 8521SOL    HW126462   1.550   6.610   5.625
 8521SOL    HW226463   1.394   6.575   5.659
 8522SOL     OW26464   0.978   0.086   0.351
 8522SOL    HW126465   1.058   0.134   0.314
 8522SOL    HW226466   0.919   0.152   0.397
 8523SOL     OW26467   2.827   6.731   6.300
 8523SOL    HW126468   2.795   6.817   6.339
 8523SOL    HW226469   2.825   6.737   6.200
 8524SOL     OW26470   1.322   4.993   4.893
 8524SOL    HW126471   1.283   5.045   4.818
 8524SOL    HW226472   1.422   5.001   4.891
 8525SOL     OW26473   6.421   4.704   0.849
 8525SOL    HW126474   6.417   4.614   0.894
 8525SOL    HW226475   6.513   4.720   0.814
 8526SOL     OW26476   2.590   6.919   1.048
 8526SOL    HW126477   2.654   6.845   1.025
 8526SOL    HW226478   2.555   6.906   1.140
 8527SOL     OW26479   3.359   0.119   6.705
 8527SOL    HW126480   3.315   0.207   6.722
 8527SOL    HW226481   3.297   0.045   6.729
 8528SOL     OW26482   4.594   1.761   1.281
 8528SOL    HW126483   4.577   1.827   1.354
 8528SOL    HW226484   4.507   1.736   1.237
 8529SOL     OW26485   0.904   6.493   6.950
 8529SOL    HW126486   0.910   6.461   6.855
 8529SOL    HW226487   0.807   6.497   6.977
 8530SOL     OW26488   2.909   3.404   3.983
 8530SOL    HW126489   2.947   3.489   3.948
 8530SOL    HW226490   2.948   3.327   3.932
 8531SOL     OW26491   6.649   5.664   3.588
 8531SOL    HW126492   6.651   5.568   3.560
 8531SOL    HW226493   6.662   5.723   3.509
 8532SOL     OW26494   3.260   6.410   3.870
 8532SOL    HW126495   3.260   6.321   3.825
 8532SOL    HW226496   3.276   6.398   3.968
 8533SOL     OW26497   0.656   6.089   6.956
 8533SOL    HW126498   0.585   6.021   6.968
 8533SOL    HW226499   0.720   6.085   0.007
 8534SOL     OW26500   4.721   2.275   4.117
 8534SOL    HW126501   4.628   2.284   4.151
 8534SOL    HW226502   4.734   2.334   4.037
 8535SOL     OW26503   5.373   1.074   4.054
 8535SOL    HW126504   5.429   1.154   4.076
 8535SOL    HW226505   5.427   0.991   4.067
 8536SOL     OW26506   0.519   1.622   4.811
 8536SOL    HW126507   0.607   1.665   4.789
 8536SOL    HW226508   0.522   1.588   4.905
 8537SOL     OW26509   5.936   1.099   3.425
 8537SOL    HW126510   5.853   1.153   3.442
 8537SOL    HW226511   6.014   1.161   3.416
 8538SOL     OW26512   1.552   1.381   0.057
 8538SOL    HW126513   1.459   1.397   0.023
 8538SOL    HW226514   1.612   1.453   0.024
 8539SOL     OW26515   6.194   2.604   2.895
 8539SOL    HW126516   6.141   2.686   2.917
 8539SOL    HW226517   6.227   2.610   2.801
 8540SOL     OW26518   4.520   7.010   6.864
 8540SOL    HW126519   4.494   7.018   6.767
 8540SOL    HW226520   4.600   0.041   6.882
 8541SOL     OW26521   2.605   2.235   3.910
 8541SOL    HW126522   2.613   2.256   4.008
 8541SOL    HW226523   2.605   2.320   3.858
 8542SOL     OW26524   3.527   4.517   6.526
 8542SOL    HW126525   3.569   4.603   6.497
 8542SOL    HW226526   3.438   4.507   6.482
 8543SOL     OW26527   1.919   2.311   0.299
 8543SOL    HW126528   1.892   2.255   0.377
 8543SOL    HW226529   2.019   2.321   0.299
 8544SOL     OW26530   5.327   2.411   4.446
 8544SOL    HW126531   5.239   2.453   4.470
 8544SOL    HW226532   5.402   2.472   4.471
 8545SOL     OW26533   4.992   6.640   5.817
 8545SOL    HW126534   5.067   6.674   5.760
 8545SOL    HW226535   5.025   6.561   5.870
 8546SOL     OW26536   6.026   1.618   3.644
 8546SOL    HW126537   6.117   1.602   3.607
 8546SOL    HW226538   6.005   1.716   3.642
 8547SOL     OW26539   1.740   5.401   5.060
 8547SOL    HW126540   1.725   5.309   5.096
 8547SOL    HW226541   1.780   5.396   4.969
 8548SOL     OW26542   5.906   1.460   5.850
 8548SOL    HW126543   5.986   1.444   5.908
 8548SOL    HW226544   5.910   1.552   5.812
 8549SOL     OW26545   6.501   4.056   3.541
 8549SOL    HW126546   6.558   4.034   3.619
 8549SOL    HW226547   6.446   3.976   3.516
 8550SOL     OW26548   1.527   5.302   6.533
 8550SOL    HW126549   1.538   5.203   6.542
 8550SOL    HW226550   1.477   5.322   6.449
 8551SOL     OW26551   3.214   4.571   6.945
 8551SOL    HW126552   3.293   4.573   6.884
 8551SOL    HW226553   3.228   4.500   7.014
 8552SOL     OW26554   3.129   5.661   3.359
 8552SOL    HW126555   3.226   5.684   3.345
 8552SOL    HW226556   3.082   5.661   3.271
 8553SOL     OW26557   5.199   6.562   6.990
 8553SOL    HW126558   5.248   6.644   6.960
 8553SOL    HW226559   5.101   6.581   6.996
 8554SOL     OW26560   0.294   4.371   0.219
 8554SOL    HW126561   0.215   4.339   0.165
 8554SOL    HW226562   0.342   4.443   0.168
 8555SOL     OW26563   0.615   0.626   3.274
 8555SOL    HW126564   0.519   0.599   3.272
 8555SOL    HW226565   0.625   0.713   3.322
 8556SOL     OW26566   0.086   0.822   3.270
 8556SOL    HW126567   7.023   0.847   3.231
 8556SOL    HW226568   0.085   0.726   3.298
 8557SOL     OW26569   6.936   6.565   1.702
 8557SOL    HW126570   6.892   6.654   1.693
 8557SOL    HW226571   7.004   6.554   1.629
 8558SOL     OW26572   2.418   5.528   2.373
 8558SOL    HW126573   2.319   5.535   2.364
 8558SOL    HW226574   2.452   5.457   2.311
 8559SOL     OW26575   0.970   1.174   1.840
 8559SOL    HW126576   1.012   1.196   1.929
 8559SOL    HW226577   0.954   1.076   1.835
 8560SOL     OW26578   6.891   1.568   0.433
 8560SOL    HW126579   6.987   1.590   0.416
 8560SOL    HW226580   6.867   1.594   0.527
 8561SOL     OW26581   4.716   6.092   2.221
 8561SOL    HW126582   4.684   6.009   2.176
 8561SOL    HW226583   4.645   6.161   2.219
 8562SOL     OW26584   3.820   6.688   4.335
 8562SOL    HW126585   3.728   6.707   4.302
 8562SOL    HW226586   3.815   6.628   4.415
 8563SOL     OW26587   2.811   3.165   0.046
 8563SOL    HW126588   2.775   3.088   7.018
 8563SOL    HW226589   2.873   3.219   7.016
 8564SOL     OW26590   0.874   0.188   3.780
 8564SOL    HW126591   0.937   0.114   3.759
 8564SOL    HW226592   0.797   0.187   3.715
 8565SOL     OW26593   3.824   0.128   0.830
 8565SOL    HW126594   3.920   0.103   0.825
 8565SOL    HW226595   3.813   0.224   0.804
 8566SOL     OW26596   1.160   2.434   3.101
 8566SOL    HW126597   1.209   2.365   3.046
 8566SOL    HW226598   1.067   2.403   3.118
 8567SOL     OW26599   5.616   1.660   1.134
 8567SOL    HW126600   5.536   1.600   1.132
 8567SOL    HW226601   5.647   1.669   1.229
 8568SOL     OW26602   4.774   2.002   0.396
 8568SOL    HW126603   4.871   1.981   0.391
 8568SOL    HW226604   4.762   2.101   0.397
 8569SOL     OW26605   5.014   0.644   4.525
 8569SOL    HW126606   4.966   0.719   4.572
 8569SOL    HW226607   5.069   0.682   4.451
 8570SOL     OW26608   1.299   4.149   6.408
 8570SOL    HW126609   1.376   4.097   6.443
 8570SOL    HW226610   1.256   4.099   6.332
 8571SOL     OW26611   6.957   4.455   4.497
 8571SOL    HW126612   0.009   4.439   4.558
 8571SOL    HW226613   6.973   4.537   4.442
 8572SOL     OW26614   1.787   4.880   5.428
 8572SOL    HW126615   1.716   4.924   5.373
 8572SOL    HW226616   1.868   4.866   5.371
 8573SOL     OW26617   4.446   6.358   6.872
 8573SOL    HW126618   4.464   6.425   6.800
 8573SOL    HW226619   4.405   6.276   6.833
 8574SOL     OW26620   0.898   4.014   6.132
 8574SOL    HW126621   0.800   3.993   6.140
 8574SOL    HW226622   0.909   4.109   6.100
 8575SOL     OW26623   3.081   3.250   6.980
 8575SOL    HW126624   3.087   3.210   0.046
 8575SOL    HW226625   3.128   3.338   6.979
 8576SOL     OW26626   1.215   6.926   1.677
 8576SOL    HW126627   1.206   6.942   1.775
 8576SOL    HW226628   1.260   6.838   1.662
 8577SOL     OW26629   6.457   5.595   3.112
 8577SOL    HW126630   6.374   5.569   3.161
 8577SOL    HW226631   6.444   5.579   3.015
 8578SOL     OW26632   4.856   0.220   4.094
 8578SOL    HW126633   4.819   0.313   4.097
 8578SOL    HW226634   4.921   0.206   4.169
 8579SOL     OW26635   1.085   4.906   3.510
 8579SOL    HW126636   1.179   4.907   3.543
 8579SOL    HW226637   1.069   4.825   3.455
 8580SOL     OW26638   1.269   6.303   1.928
 8580SOL    HW126639   1.364   6.316   1.901
 8580SOL    HW226640   1.215   6.383   1.902
 8581SOL     OW26641   3.009   1.898   1.286
 8581SOL    HW126642   3.046   1.826   1.345
 8581SOL    HW226643   2.971   1.857   1.203
 8582SOL     OW26644   4.333   4.612   2.385
 8582SOL    HW126645   4.404   4.602   2.455
 8582SOL    HW226646   4.366   4.573   2.299
 8583SOL     OW26647   6.735   0.315   6.333
 8583SOL    HW126648   6.713   0.328   6.236
 8583SOL    HW226649   6.776   0.225   6.346
 8584SOL     OW26650   6.925   4.555   0.622
 8584SOL    HW126651   6.961   4.463   0.640
 8584SOL    HW226652   6.885   4.557   0.530
 8585SOL     OW26653   0.416   0.741   0.549
 8585SOL    HW126654   0.344   0.703   0.490
 8585SOL    HW226655   0.502   0.743   0.498
 8586SOL     OW26656   3.870   6.247   3.123
 8586SOL    HW126657   3.833   6.173   3.067
 8586SOL    HW226658   3.959   6.221   3.158
 8587SOL     OW26659   0.356   2.193   2.603
 8587SOL    HW126660   0.421   2.269   2.596
 8587SOL    HW226661   0.351   2.161   2.697
 8588SOL     OW26662   3.833   2.343   0.609
 8588SOL    HW126663   3.932   2.342   0.616
 8588SOL    HW226664   3.803   2.429   0.566
 8589SOL     OW26665   3.798   0.821   4.998
 8589SOL    HW126666   3.728   0.786   4.936
 8589SOL    HW226667   3.785   0.920   5.009
 8590SOL     OW26668   6.393   5.290   4.173
 8590SOL    HW126669   6.340   5.208   4.153
 8590SOL    HW226670   6.453   5.272   4.252
 8591SOL     OW26671   1.162   3.499   6.223
 8591SOL    HW126672   1.197   3.513   6.130
 8591SOL    HW226673   1.232   3.454   6.279
 8592SOL     OW26674   6.996   4.190   1.114
 8592SOL    HW126675   6.991   4.098   1.074
 8592SOL    HW226676   6.904   4.228   1.122
 8593SOL     OW26677   1.461   6.836   2.203
 8593SOL    HW126678   1.407   6.918   2.224
 8593SOL    HW226679   1.418   6.786   2.128
 8594SOL     OW26680   3.182   3.770   4.126
 8594SOL    HW126681   3.203   3.681   4.167
 8594SOL    HW226682   3.101   3.808   4.171
 8595SOL     OW26683   1.917   2.030   2.473
 8595SOL    HW126684   1.922   2.012   2.375
 8595SOL    HW226685   1.907   2.128   2.489
 8596SOL     OW26686   5.511   4.900   1.464
 8596SOL    HW126687   5.488   4.921   1.559
 8596SOL    HW226688   5.438   4.845   1.424
 8597SOL     OW26689   2.759   1.552   0.671
 8597SOL    HW126690   2.721   1.632   0.625
 8597SOL    HW226691   2.787   1.578   0.764
 8598SOL     OW26692   6.209   3.841   0.854
 8598SOL    HW126693   6.168   3.841   0.945
 8598SOL    HW226694   6.298   3.794   0.858
 8599SOL     OW26695   0.663   2.713   3.565
 8599SOL    HW126696   0.761   2.706   3.584
 8599SOL    HW226697   0.649   2.728   3.467
 8600SOL     OW26698   6.520   4.591   6.715
 8600SOL    HW126699   6.456   4.667   6.700
 8600SOL    HW226700   6.524   4.569   6.812
 8601SOL     OW26701   0.130   1.067   4.011
 8601SOL    HW126702   0.041   1.020   4.007
 8601SOL    HW226703   0.118   1.162   3.983
 8602SOL     OW26704   2.890   6.061   2.554
 8602SOL    HW126705   2.904   6.070   2.653
 8602SOL    HW226706   2.817   5.994   2.537
 8603SOL     OW26707   3.771   3.629   0.397
 8603SOL    HW126708   3.826   3.695   0.346
 8603SOL    HW226709   3.727   3.673   0.475
 8604SOL     OW26710   5.619   3.092   3.556
 8604SOL    HW126711   5.680   3.021   3.592
 8604SOL    HW226712   5.641   3.180   3.598
 8605SOL     OW26713   3.347   5.586   3.863
 8605SOL    HW126714   3.312   5.646   3.791
 8605SOL    HW226715   3.439   5.613   3.888
 8606SOL     OW26716   2.839   4.772   6.102
 8606SOL    HW126717   2.918   4.824   6.069
 8606SOL    HW226718   2.790   4.733   6.025
 8607SOL     OW26719   3.904   5.645   1.904
 8607SOL    HW126720   3.871   5.575   1.967
 8607SOL    HW226721   3.925   5.729   1.954
 8608SOL     OW26722   4.201   4.831   3.004
 8608SOL    HW126723   4.210   4.867   2.911
 8608SOL    HW226724   4.287   4.788   3.032
 8609SOL     OW26725   3.482   0.344   5.012
 8609SOL    HW126726   3.414   0.341   4.939
 8609SOL    HW226727   3.548   0.270   5.000
 8610SOL     OW26728   0.736   6.677   3.509
 8610SOL    HW126729   0.657   6.617   3.496
 8610SOL    HW226730   0.790   6.680   3.425
 8611SOL     OW26731   1.393   2.037   4.768
 8611SOL    HW126732   1.312   1.986   4.739
 8611SOL    HW226733   1.364   2.122   4.812
 8612SOL     OW26734   3.204   3.139   6.753
 8612SOL    HW126735   3.240   3.083   6.827
 8612SOL    HW226736   3.113   3.106   6.727
 8613SOL     OW26737   1.728   1.597   1.095
 8613SOL    HW126738   1.723   1.499   1.076
 8613SOL    HW226739   1.695   1.648   1.016
 8614SOL     OW26740   0.754   3.669   3.098
 8614SOL    HW126741   0.719   3.656   3.191
 8614SOL    HW226742   0.853   3.656   3.098
 8615SOL     OW26743   4.213   2.006   6.008
 8615SOL    HW126744   4.196   1.922   6.060
 8615SOL    HW226745   4.126   2.048   5.982
 8616SOL     OW26746   1.069   4.845   6.962
 8616SOL    HW126747   1.115   4.756   6.963
 8616SOL    HW226748   1.086   4.892   0.023
 8617SOL     OW26749   6.496   2.158   0.867
 8617SOL    HW126750   6.410   2.173   0.817
 8617SOL    HW226751   6.480   2.096   0.944
 8618SOL     OW26752   4.844   0.121   2.299
 8618SOL    HW126753   4.824   0.218   2.309
 8618SOL    HW226754   4.845   0.097   2.201
 8619SOL     OW26755   4.625   4.886   6.918
 8619SOL    HW126756   4.544   4.943   6.903
 8619SOL    HW226757   4.597   4.796   6.952
 8620SOL     OW26758   5.600   6.834   2.477
 8620SOL    HW126759   5.529   6.765   2.466
 8620SOL    HW226760   5.557   6.923   2.495
 8621SOL     OW26761   6.094   1.124   4.054
 8621SOL    HW126762   6.056   1.037   4.021
 8621SOL    HW226763   6.086   1.193   3.982
 8622SOL     OW26764   4.927   4.758   0.208
 8622SOL    HW126765   5.024   4.740   0.190
 8622SOL    HW226766   4.914   4.779   0.305
 8623SOL     OW26767   0.980   4.125   2.946
 8623SOL    HW126768   0.928   4.122   3.032
 8623SOL    HW226769   0.944   4.056   2.883
 8624SOL     OW26770   1.297   4.272   3.291
 8624SOL    HW126771   1.250   4.184   3.292
 8624SOL    HW226772   1.347   4.285   3.377
 8625SOL     OW26773   4.727   0.755   4.506
 8625SOL    HW126774   4.813   0.796   4.475
 8625SOL    HW226775   4.730   0.743   4.605
 8626SOL     OW26776   3.219   3.425   3.953
 8626SOL    HW126777   3.182   3.476   3.875
 8626SOL    HW226778   3.236   3.331   3.927
 8627SOL     OW26779   0.963   0.534   1.124
 8627SOL    HW126780   0.975   0.469   1.049
 8627SOL    HW226781   0.891   0.502   1.186
 8628SOL     OW26782   6.588   1.118   0.012
 8628SOL    HW126783   6.577   1.185   6.964
 8628SOL    HW226784   6.538   1.035   7.013
 8629SOL     OW26785   0.980   4.926   3.948
 8629SOL    HW126786   0.960   4.852   3.883
 8629SOL    HW226787   1.079   4.942   3.950
 8630SOL     OW26788   5.729   3.534   4.144
 8630SOL    HW126789   5.636   3.529   4.106
 8630SOL    HW226790   5.737   3.618   4.199
 8631SOL     OW26791   4.070   5.643   5.365
 8631SOL    HW126792   4.125   5.705   5.420
 8631SOL    HW226793   4.127   5.601   5.294
 8632SOL     OW26794   3.931   0.150   3.665
 8632SOL    HW126795   3.889   0.198   3.588
 8632SOL    HW226796   3.884   0.064   3.681
 8633SOL     OW26797   5.546   1.268   4.047
 8633SOL    HW126798   5.625   1.311   4.092
 8633SOL    HW226799   5.532   1.310   3.957
 8634SOL     OW26800   6.518   4.107   1.953
 8634SOL    HW126801   6.477   4.016   1.962
 8634SOL    HW226802   6.475   4.155   1.876
 8635SOL     OW26803   6.277   3.816   6.138
 8635SOL    HW126804   6.185   3.825   6.100
 8635SOL    HW226805   6.299   3.719   6.150
 8636SOL     OW26806   6.081   5.715   0.377
 8636SOL    HW126807   6.039   5.678   0.459
 8636SOL    HW226808   6.016   5.775   0.330
 8637SOL     OW26809   1.503   1.065   0.371
 8637SOL    HW126810   1.505   0.965   0.376
 8637SOL    HW226811   1.548   1.094   0.287
 8638SOL     OW26812   2.211   4.547   0.095
 8638SOL    HW126813   2.301   4.587   0.112
 8638SOL    HW226814   2.220   4.449   0.077
 8639SOL     OW26815   5.078   2.996   2.212
 8639SOL    HW126816   5.045   2.949   2.130
 8639SOL    HW226817   5.176   3.009   2.206
 8640SOL     OW26818   4.406   4.272   0.603
 8640SOL    HW126819   4.358   4.261   0.690
 8640SOL    HW226820   4.504   4.255   0.617
 8641SOL     OW26821   0.347   4.313   3.364
 8641SOL    HW126822   0.321   4.399   3.407
 8641SOL    HW226823   0.444   4.295   3.380
 8642SOL     OW26824   4.959   1.145   1.824
 8642SOL    HW126825   5.003   1.201   1.754
 8642SOL    HW226826   4.878   1.101   1.785
 8643SOL     OW26827   4.341   0.234   0.051
 8643SOL    HW126828   4.368   0.138   0.041
 8643SOL    HW226829   4.422   0.290   0.068
 8644SOL     OW26830   5.689   2.220   4.999
 8644SOL    HW126831   5.597   2.238   5.034
 8644SOL    HW226832   5.736   2.307   4.984
 8645SOL     OW26833   6.518   4.112   1.079
 8645SOL    HW126834   6.536   4.039   1.014
 8645SOL    HW226835   6.438   4.165   1.050
 8646SOL     OW26836   4.898   1.275   0.783
 8646SOL    HW126837   4.841   1.231   0.713
 8646SOL    HW226838   4.949   1.351   0.742
 8647SOL     OW26839   4.000   4.968   6.845
 8647SOL    HW126840   3.905   4.939   6.847
 8647SOL    HW226841   4.023   5.012   6.932
 8648SOL     OW26842   5.669   0.593   4.418
 8648SOL    HW126843   5.716   0.509   4.447
 8648SOL    HW226844   5.736   0.655   4.375
 8649SOL     OW26845   6.463   4.221   5.490
 8649SOL    HW126846   6.532   4.242   5.560
 8649SOL    HW226847   6.383   4.180   5.534
 8650SOL     OW26848   1.713   5.015   4.245
 8650SOL    HW126849   1.619   4.992   4.270
 8650SOL    HW226850   1.765   5.036   4.328
 8651SOL     OW26851   3.687   1.539   0.344
 8651SOL    HW126852   3.637   1.471   0.290
 8651SOL    HW226853   3.664   1.631   0.314
 8652SOL     OW26854   2.246   4.072   3.579
 8652SOL    HW126855   2.240   4.115   3.669
 8652SOL    HW226856   2.280   4.139   3.513
 8653SOL     OW26857   7.002   2.365   6.009
 8653SOL    HW126858   0.016   2.273   6.006
 8653SOL    HW226859   0.027   2.425   5.947
 8654SOL     OW26860   6.994   6.526   3.184
 8654SOL    HW126861   6.948   6.610   3.215
 8654SOL    HW226862   6.943   6.446   3.217
 8655SOL     OW26863   5.849   6.854   3.815
 8655SOL    HW126864   5.816   6.809   3.732
 8655SOL    HW226865   5.786   6.927   3.842
 8656SOL     OW26866   6.321   0.897   1.051
 8656SOL    HW126867   6.247   0.957   1.079
 8656SOL    HW226868   6.408   0.945   1.058
 8657SOL     OW26869   5.011   5.111   6.304
 8657SOL    HW126870   4.914   5.133   6.305
 8657SOL    HW226871   5.025   5.019   6.267
 8658SOL     OW26872   5.325   4.745   0.130
 8658SOL    HW126873   5.354   4.803   0.207
 8658SOL    HW226874   5.248   4.688   0.159
 8659SOL     OW26875   4.597   0.701   3.586
 8659SOL    HW126876   4.559   0.793   3.590
 8659SOL    HW226877   4.697   0.707   3.578
 8660SOL     OW26878   6.474   3.900   0.255
 8660SOL    HW126879   6.570   3.872   0.245
 8660SOL    HW226880   6.461   3.990   0.213
 8661SOL     OW26881   6.167   3.998   2.089
 8661SOL    HW126882   6.090   3.957   2.041
 8661SOL    HW226883   6.197   4.080   2.041
 8662SOL     OW26884   5.877   6.321   1.198
 8662SOL    HW126885   5.787   6.362   1.216
 8662SOL    HW226886   5.942   6.394   1.177
 8663SOL     OW26887   1.961   5.416   0.690
 8663SOL    HW126888   2.040   5.458   0.646
 8663SOL    HW226889   1.986   5.325   0.724
 8664SOL     OW26890   4.828   5.612   6.953
 8664SOL    HW126891   4.867   5.703   6.970
 8664SOL    HW226892   4.868   5.575   6.869
 8665SOL     OW26893   4.742   5.952   5.609
 8665SOL    HW126894   4.805   6.003   5.669
 8665SOL    HW226895   4.787   5.868   5.578
 8666SOL     OW26896   4.719   1.989   5.323
 8666SOL    HW126897   4.713   2.088   5.324
 8666SOL    HW226898   4.696   1.953   5.414
 8667SOL     OW26899   5.064   1.722   3.213
 8667SOL    HW126900   5.135   1.674   3.160
 8667SOL    HW226901   5.074   1.821   3.198
 8668SOL     OW26902   5.336   2.539   4.150
 8668SOL    HW126903   5.355   2.472   4.222
 8668SOL    HW226904   5.342   2.496   4.061
 8669SOL     OW26905   4.223   0.880   6.287
 8669SOL    HW126906   4.232   0.825   6.204
 8669SOL    HW226907   4.217   0.977   6.262
 8670SOL     OW26908   3.527   5.565   4.824
 8670SOL    HW126909   3.553   5.646   4.772
 8670SOL    HW226910   3.442   5.526   4.786
 8671SOL     OW26911   6.064   6.998   3.656
 8671SOL    HW126912   6.149   6.992   3.708
 8671SOL    HW226913   5.987   6.973   3.715
 8672SOL     OW26914   2.704   5.586   4.479
 8672SOL    HW126915   2.785   5.529   4.491
 8672SOL    HW226916   2.728   5.682   4.490
 8673SOL     OW26917   0.293   2.269   0.260
 8673SOL    HW126918   0.331   2.246   0.350
 8673SOL    HW226919   0.326   2.203   0.193
 8674SOL     OW26920   6.951   6.564   2.804
 8674SOL    HW126921   0.011   6.575   2.854
 8674SOL    HW226922   6.968   6.577   2.706
 8675SOL     OW26923   2.669   2.020   4.175
 8675SOL    HW126924   2.639   2.115   4.181
 8675SOL    HW226925   2.649   1.984   4.083
 8676SOL     OW26926   3.443   0.377   2.374
 8676SOL    HW126927   3.394   0.312   2.432
 8676SOL    HW226928   3.425   0.470   2.404
 8677SOL     OW26929   2.675   5.519   6.316
 8677SOL    HW126930   2.598   5.570   6.352
 8677SOL    HW226931   2.654   5.421   6.318
 8678SOL     OW26932   1.295   0.538   6.942
 8678SOL    HW126933   1.360   0.548   7.018
 8678SOL    HW226934   1.266   0.442   6.935
 8679SOL     OW26935   5.962   1.714   5.068
 8679SOL    HW126936   5.981   1.656   4.989
 8679SOL    HW226937   5.932   1.656   5.144
 8680SOL     OW26938   2.046   3.854   0.686
 8680SOL    HW126939   1.996   3.840   0.600
 8680SOL    HW226940   1.987   3.901   0.751
 8681SOL     OW26941   4.789   4.143   0.023
 8681SOL    HW126942   4.871   4.138   0.080
 8681SOL    HW226943   4.708   4.155   0.081
 8682SOL     OW26944   3.248   6.669   2.785
 8682SOL    HW126945   3.301   6.687   2.703
 8682SOL    HW226946   3.209   6.755   2.819
 8683SOL     OW26947   1.430   3.225   1.493
 8683SOL    HW126948   1.401   3.129   1.493
 8683SOL    HW226949   1.394   3.271   1.575
 8684SOL     OW26950   6.348   3.078   5.044
 8684SOL    HW126951   6.397   3.016   4.983
 8684SOL    HW226952   6.317   3.027   5.125
 8685SOL     OW26953   1.405   2.143   6.227
 8685SOL    HW126954   1.498   2.110   6.239
 8685SOL    HW226955   1.370   2.114   6.138
 8686SOL     OW26956   6.873   1.880   2.050
 8686SOL    HW126957   6.898   1.975   2.031
 8686SOL    HW226958   6.841   1.872   2.145
 8687SOL     OW26959   3.724   6.510   2.609
 8687SOL    HW126960   3.718   6.608   2.626
 8687SOL    HW226961   3.681   6.489   2.521
 8688SOL     OW26962   2.572   0.048   0.787
 8688SOL    HW126963   2.662   0.018   0.754
 8688SOL    HW226964   2.558   0.011   0.879
 8689SOL     OW26965   4.249   5.946   6.998
 8689SOL    HW126966   4.182   5.956   0.046
 8689SOL    HW226967   4.341   5.966   0.009
 8690SOL     OW26968   1.212   1.895   3.934
 8690SOL    HW126969   1.209   1.977   3.877
 8690SOL    HW226970   1.298   1.846   3.918
 8691SOL     OW26971   4.699   2.824   6.421
 8691SOL    HW126972   4.621   2.774   6.383
 8691SOL    HW226973   4.666   2.898   6.480
 8692SOL     OW26974   3.339   1.957   3.671
 8692SOL    HW126975   3.364   1.880   3.612
 8692SOL    HW226976   3.412   2.025   3.670
 8693SOL     OW26977   5.712   2.660   0.879
 8693SOL    HW126978   5.632   2.609   0.909
 8693SOL    HW226979   5.795   2.616   0.915
 8694SOL     OW26980   4.983   0.244   6.439
 8694SOL    HW126981   5.006   0.234   6.536
 8694SOL    HW226982   4.908   0.309   6.430
 8695SOL     OW26983   4.435   2.793   5.784
 8695SOL    HW126984   4.439   2.848   5.867
 8695SOL    HW226985   4.503   2.826   5.718
 8696SOL     OW26986   3.519   5.667   1.025
 8696SOL    HW126987   3.446   5.635   0.964
 8696SOL    HW226988   3.510   5.621   1.113
 8697SOL     OW26989   6.403   3.443   0.441
 8697SOL    HW126990   6.364   3.446   0.349
 8697SOL    HW226991   6.470   3.516   0.452
 8698SOL     OW26992   5.396   5.725   3.933
 8698SOL    HW126993   5.359   5.730   4.026
 8698SOL    HW226994   5.486   5.681   3.936
 8699SOL     OW26995   1.382   2.703   5.439
 8699SOL    HW126996   1.352   2.684   5.346
 8699SOL    HW226997   1.335   2.642   5.503
 8700SOL     OW26998   2.166   0.930   4.567
 8700SOL    HW126999   2.224   0.947   4.648
 8700SOL    HW227000   2.076   0.971   4.582
 8701SOL     OW27001   0.872   1.655   5.729
 8701SOL    HW127002   0.794   1.694   5.681
 8701SOL    HW227003   0.840   1.604   5.809
 8702SOL     OW27004   5.579   4.637   0.259
 8702SOL    HW127005   5.531   4.585   0.188
 8702SOL    HW227006   5.669   4.596   0.276
 8703SOL     OW27007   3.188   5.871   1.251
 8703SOL    HW127008   3.279   5.859   1.292
 8703SOL    HW227009   3.198   5.884   1.152
 8704SOL     OW27010   6.571   4.339   2.628
 8704SOL    HW127011   6.479   4.318   2.663
 8704SOL    HW227012   6.640   4.302   2.690
 8705SOL     OW27013   4.941   1.120   6.521
 8705SOL    HW127014   4.926   1.124   6.620
 8705SOL    HW227015   4.888   1.192   6.476
 8706SOL     OW27016   4.483   2.078   6.748
 8706SOL    HW127017   4.440   2.165   6.772
 8706SOL    HW227018   4.566   2.095   6.696
 8707SOL     OW27019   3.795   3.009   0.179
 8707SOL    HW127020   3.858   3.085   0.162
 8707SOL    HW227021   3.728   3.037   0.248
 8708SOL     OW27022   3.704   0.679   1.972
 8708SOL    HW127023   3.786   0.700   2.025
 8708SOL    HW227024   3.730   0.627   1.891
 8709SOL     OW27025   6.881   4.485   0.089
 8709SOL    HW127026   6.793   4.491   0.043
 8709SOL    HW227027   6.950   4.450   0.025
 8710SOL     OW27028   1.450   3.209   3.126
 8710SOL    HW127029   1.443   3.154   3.210
 8710SOL    HW227030   1.375   3.185   3.064
 8711SOL     OW27031   0.372   0.194   2.545
 8711SOL    HW127032   0.308   0.118   2.533
 8711SOL    HW227033   0.374   0.221   2.641
 8712SOL     OW27034   3.693   1.956   4.077
 8712SOL    HW127035   3.636   1.883   4.039
 8712SOL    HW227036   3.744   1.921   4.156
 8713SOL     OW27037   6.925   4.106   3.665
 8713SOL    HW127038   6.909   4.008   3.657
 8713SOL    HW227039   6.855   4.156   3.615
 8714SOL     OW27040   1.414   0.911   5.654
 8714SOL    HW127041   1.493   0.947   5.703
 8714SOL    HW227042   1.407   0.955   5.564
 8715SOL     OW27043   5.876   0.541   0.907
 8715SOL    HW127044   5.825   0.609   0.959
 8715SOL    HW227045   5.860   0.450   0.946
 8716SOL     OW27046   0.759   1.435   1.478
 8716SOL    HW127047   0.741   1.404   1.571
 8716SOL    HW227048   0.857   1.435   1.461
 8717SOL     OW27049   4.069   3.754   2.375
 8717SOL    HW127050   4.026   3.763   2.465
 8717SOL    HW227051   4.084   3.845   2.337
 8718SOL     OW27052   0.062   2.758   4.934
 8718SOL    HW127053   0.123   2.682   4.959
 8718SOL    HW227054   0.077   2.783   4.838
 8719SOL     OW27055   1.198   0.607   5.650
 8719SOL    HW127056   1.135   0.534   5.624
 8719SOL    HW227057   1.171   0.692   5.604
 8720SOL     OW27058   6.501   4.807   5.150
 8720SOL    HW127059   6.525   4.869   5.225
 8720SOL    HW227060   6.463   4.860   5.074
 8721SOL     OW27061   6.091   2.409   4.384
 8721SOL    HW127062   6.163   2.345   4.359
 8721SOL    HW227063   6.112   2.450   4.473
 8722SOL     OW27064   3.339   1.463   0.254
 8722SOL    HW127065   3.377   1.543   0.209
 8722SOL    HW227066   3.247   1.445   0.219
 8723SOL     OW27067   6.082   5.415   0.787
 8723SOL    HW127068   6.066   5.376   0.877
 8723SOL    HW227069   6.098   5.514   0.795
 8724SOL     OW27070   5.997   0.099   5.848
 8724SOL    HW127071   5.957   0.059   5.930
 8724SOL    HW227072   5.969   0.195   5.840
 8725SOL     OW27073   1.976   0.420   0.091
 8725SOL    HW127074   1.980   0.323   0.116
 8725SOL    HW227075   2.047   0.471   0.140
 8726SOL     OW27076   6.080   0.138   1.335
 8726SOL    HW127077   5.987   0.159   1.366
 8726SOL    HW227078   6.143   0.205   1.375
 8727SOL     OW27079   6.534   6.473   1.982
 8727SOL    HW127080   6.487   6.389   2.009
 8727SOL    HW227081   6.475   6.552   1.999
 8728SOL     OW27082   3.252   7.024   5.308
 8728SOL    HW127083   3.207   6.991   5.224
 8728SOL    HW227084   3.336   0.046   5.283
 8729SOL     OW27085   4.462   5.575   2.572
 8729SOL    HW127086   4.454   5.520   2.655
 8729SOL    HW227087   4.557   5.603   2.560
 8730SOL     OW27088   7.003   5.769   2.514
 8730SOL    HW127089   6.933   5.804   2.576
 8730SOL    HW227090   6.989   5.806   2.422
 8731SOL     OW27091   1.593   1.977   3.240
 8731SOL    HW127092   1.589   1.881   3.267
 8731SOL    HW227093   1.524   2.028   3.291
 8732SOL     OW27094   5.125   4.551   1.975
 8732SOL    HW127095   5.030   4.582   1.976
 8732SOL    HW227096   5.165   4.569   1.885
 8733SOL     OW27097   0.901   6.032   2.848
 8733SOL    HW127098   0.809   6.011   2.816
 8733SOL    HW227099   0.917   5.987   2.936
 8734SOL     OW27100   0.786   4.818   1.459
 8734SOL    HW127101   0.792   4.761   1.541
 8734SOL    HW227102   0.705   4.791   1.406
 8735SOL     OW27103   0.878   1.890   0.038
 8735SOL    HW127104   0.928   1.823   0.093
 8735SOL    HW227105   0.792   1.849   0.006
 8736SOL     OW27106   0.987   6.347   0.289
 8736SOL    HW127107   1.032   6.401   0.218
 8736SOL    HW227108   0.917   6.288   0.248
 8737SOL     OW27109   3.997   6.030   6.277
 8737SOL    HW127110   3.960   6.030   6.370
 8737SOL    HW227111   4.023   5.937   6.251
 8738SOL     OW27112   1.412   3.747   4.726
 8738SOL    HW127113   1.317   3.755   4.757
 8738SOL    HW227114   1.445   3.837   4.696
 8739SOL     OW27115   6.800   4.217   6.027
 8739SOL    HW127116   6.779   4.266   6.111
 8739SOL    HW227117   6.897   4.191   6.027
 8740SOL     OW27118   3.670   0.726   5.965
 8740SOL    HW127119   3.709   0.706   5.875
 8740SOL    HW227120   3.720   0.674   6.035
 8741SOL     OW27121   1.611   2.218   2.228
 8741SOL    HW127122   1.563   2.144   2.276
 8741SOL    HW227123   1.685   2.253   2.286
 8742SOL     OW27124   5.047   6.074   1.433
 8742SOL    HW127125   5.079   6.000   1.374
 8742SOL    HW227126   4.990   6.137   1.379
 8743SOL     OW27127   2.111   5.194   2.543
 8743SOL    HW127128   2.099   5.133   2.622
 8743SOL    HW227129   2.021   5.223   2.510
 8744SOL     OW27130   4.246   2.798   6.295
 8744SOL    HW127131   4.240   2.820   6.198
 8744SOL    HW227132   4.323   2.736   6.311
 8745SOL     OW27133   6.181   1.600   5.391
 8745SOL    HW127134   6.155   1.554   5.306
 8745SOL    HW227135   6.120   1.679   5.406
 8746SOL     OW27136   4.674   4.088   5.798
 8746SOL    HW127137   4.727   4.115   5.878
 8746SOL    HW227138   4.590   4.142   5.794
 8747SOL     OW27139   0.950   2.745   3.571
 8747SOL    HW127140   0.940   2.745   3.472
 8747SOL    HW227141   1.013   2.672   3.599
 8748SOL     OW27142   0.830   0.332   0.062
 8748SOL    HW127143   0.741   0.295   0.034
 8748SOL    HW227144   0.876   0.371   7.008
 8749SOL     OW27145   3.240   0.895   4.252
 8749SOL    HW127146   3.265   0.945   4.169
 8749SOL    HW227147   3.270   0.800   4.244
 8750SOL     OW27148   2.154   2.471   5.565
 8750SOL    HW127149   2.219   2.408   5.522
 8750SOL    HW227150   2.184   2.565   5.550
 8751SOL     OW27151   0.072   0.207   2.393
 8751SOL    HW127152   0.145   0.147   2.361
 8751SOL    HW227153   0.110   0.298   2.414
 8752SOL     OW27154   2.938   4.269   6.643
 8752SOL    HW127155   2.939   4.352   6.699
 8752SOL    HW227156   2.969   4.290   6.551
 8753SOL     OW27157   5.100   1.734   4.436
 8753SOL    HW127158   5.146   1.799   4.497
 8753SOL    HW227159   5.084   1.649   4.485
 8754SOL     OW27160   0.533   2.065   5.800
 8754SOL    HW127161   0.529   2.060   5.900
 8754SOL    HW227162   0.612   2.120   5.772
 8755SOL     OW27163   2.077   1.046   6.907
 8755SOL    HW127164   2.086   0.964   6.850
 8755SOL    HW227165   2.107   1.126   6.856
 8756SOL     OW27166   2.134   3.065   3.682
 8756SOL    HW127167   2.076   3.011   3.621
 8756SOL    HW227168   2.203   3.112   3.628
 8757SOL     OW27169   4.682   6.279   5.220
 8757SOL    HW127170   4.669   6.361   5.164
 8757SOL    HW227171   4.613   6.278   5.293
 8758SOL     OW27172   5.625   6.401   1.797
 8758SOL    HW127173   5.530   6.380   1.819
 8758SOL    HW227174   5.685   6.339   1.847
 8759SOL     OW27175   5.062   1.184   5.990
 8759SOL    HW127176   5.070   1.255   6.059
 8759SOL    HW227177   5.071   1.224   5.899
 8760SOL     OW27178   1.978   1.559   4.394
 8760SOL    HW127179   1.988   1.551   4.493
 8760SOL    HW227180   1.923   1.482   4.361
 8761SOL     OW27181   5.267   0.541   0.553
 8761SOL    HW127182   5.198   0.589   0.499
 8761SOL    HW227183   5.332   0.497   0.491
 8762SOL     OW27184   1.393   3.455   2.235
 8762SOL    HW127185   1.460   3.529   2.233
 8762SOL    HW227186   1.400   3.405   2.322
 8763SOL     OW27187   6.683   5.878   5.349
 8763SOL    HW127188   6.656   5.929   5.268
 8763SOL    HW227189   6.668   5.934   5.430
 8764SOL     OW27190   5.125   1.920   3.760
 8764SOL    HW127191   5.036   1.900   3.801
 8764SOL    HW227192   5.159   2.008   3.795
 8765SOL     OW27193   5.551   6.729   4.563
 8765SOL    HW127194   5.469   6.771   4.603
 8765SOL    HW227195   5.627   6.737   4.628
 8766SOL     OW27196   3.102   4.894   3.607
 8766SOL    HW127197   3.145   4.903   3.517
 8766SOL    HW227198   3.169   4.913   3.679
 8767SOL     OW27199   4.255   0.962   2.846
 8767SOL    HW127200   4.274   0.899   2.922
 8767SOL    HW227201   4.186   1.029   2.875
 8768SOL     OW27202   1.866   2.850   0.506
 8768SOL    HW127203   1.766   2.856   0.508
 8768SOL    HW227204   1.895   2.795   0.428
 8769SOL     OW27205   0.568   0.266   5.262
 8769SOL    HW127206   0.493   0.302   5.206
 8769SOL    HW227207   0.571   0.315   5.349
 8770SOL     OW27208   5.220   4.295   1.952
 8770SOL    HW127209   5.180   4.385   1.934
 8770SOL    HW227210   5.223   4.279   2.050
 8771SOL     OW27211   1.566   1.667   6.847
 8771SOL    HW127212   1.505   1.717   6.908
 8771SOL    HW227213   1.511   1.604   6.791
 8772SOL     OW27214   6.584   1.311   6.809
 8772SOL    HW127215   6.535   1.239   6.760
 8772SOL    HW227216   6.667   1.335   6.758
 8773SOL     OW27217   3.605   1.994   3.291
 8773SOL    HW127218   3.675   2.044   3.239
 8773SOL    HW227219   3.615   2.015   3.388
 8774SOL     OW27220   0.833   1.380   0.746
 8774SOL    HW127221   0.755   1.342   0.697
 8774SOL    HW227222   0.876   1.452   0.690
 8775SOL     OW27223   5.667   6.769   3.319
 8775SOL    HW127224   5.621   6.708   3.256
 8775SOL    HW227225   5.604   6.841   3.348
 8776SOL     OW27226   3.343   3.298   4.956
 8776SOL    HW127227   3.326   3.364   5.029
 8776SOL    HW227228   3.307   3.335   4.870
 8777SOL     OW27229   6.463   4.860   1.508
 8777SOL    HW127230   6.501   4.953   1.502
 8777SOL    HW227231   6.497   4.815   1.590
 8778SOL     OW27232   0.332   2.256   3.342
 8778SOL    HW127233   0.352   2.354   3.343
 8778SOL    HW227234   0.242   2.241   3.300
 8779SOL     OW27235   1.878   4.555   1.924
 8779SOL    HW127236   1.816   4.584   1.850
 8779SOL    HW227237   1.825   4.542   2.008
 8780SOL     OW27238   1.485   5.845   4.264
 8780SOL    HW127239   1.562   5.902   4.294
 8780SOL    HW227240   1.399   5.886   4.296
 8781SOL     OW27241   0.612   1.405   2.729
 8781SOL    HW127242   0.535   1.441   2.677
 8781SOL    HW227243   0.690   1.467   2.723
 8782SOL     OW27244   4.837   1.235   2.351
 8782SOL    HW127245   4.778   1.292   2.294
 8782SOL    HW227246   4.895   1.178   2.294
 8783SOL     OW27247   6.016   3.720   4.184
 8783SOL    HW127248   6.053   3.802   4.228
 8783SOL    HW227249   5.916   3.724   4.186
 8784SOL     OW27250   5.593   5.485   5.503
 8784SOL    HW127251   5.655   5.407   5.504
 8784SOL    HW227252   5.560   5.501   5.410
 8785SOL     OW27253   5.554   4.139   6.917
 8785SOL    HW127254   5.635   4.160   6.971
 8785SOL    HW227255   5.547   4.041   6.903
 8786SOL     OW27256   1.186   6.566   6.602
 8786SOL    HW127257   1.266   6.532   6.553
 8786SOL    HW227258   1.215   6.607   6.688
 8787SOL     OW27259   2.182   3.202   1.816
 8787SOL    HW127260   2.238   3.279   1.847
 8787SOL    HW227261   2.101   3.237   1.769
 8788SOL     OW27262   6.807   1.879   5.345
 8788SOL    HW127263   6.880   1.947   5.351
 8788SOL    HW227264   6.841   1.798   5.298
 8789SOL     OW27265   6.735   0.708   6.132
 8789SOL    HW127266   6.709   0.613   6.114
 8789SOL    HW227267   6.734   0.724   6.231
 8790SOL     OW27268   6.907   1.659   7.016
 8790SOL    HW127269   6.877   1.601   0.066
 8790SOL    HW227270   6.975   1.611   6.961
 8791SOL     OW27271   5.131   0.091   5.601
 8791SOL    HW127272   5.149   0.030   5.524
 8791SOL    HW227273   5.203   0.160   5.605
 8792SOL     OW27274   4.428   6.998   3.079
 8792SOL    HW127275   4.466   6.983   3.170
 8792SOL    HW227276   4.331   7.021   3.086
 8793SOL     OW27277   2.770   6.027   4.103
 8793SOL    HW127278   2.755   6.006   4.199
 8793SOL    HW227279   2.852   6.085   4.093
 8794SOL     OW27280   2.505   6.627   2.656
 8794SOL    HW127281   2.540   6.719   2.635
 8794SOL    HW227282   2.563   6.559   2.612
 8795SOL     OW27283   1.442   6.899   5.454
 8795SOL    HW127284   1.466   6.941   5.542
 8795SOL    HW227285   1.378   6.824   5.470
 8796SOL     OW27286   4.502   1.706   5.383
 8796SOL    HW127287   4.514   1.785   5.442
 8796SOL    HW227288   4.562   1.632   5.414
 8797SOL     OW27289   0.972   6.794   6.107
 8797SOL    HW127290   0.975   6.825   6.012
 8797SOL    HW227291   0.876   6.788   6.137
 8798SOL     OW27292   6.075   3.711   5.189
 8798SOL    HW127293   5.976   3.718   5.201
 8798SOL    HW227294   6.116   3.802   5.199
 8799SOL     OW27295   2.660   4.720   3.089
 8799SOL    HW127296   2.667   4.695   2.993
 8799SOL    HW227297   2.740   4.772   3.116
 8800SOL     OW27298   4.160   4.279   5.729
 8800SOL    HW127299   4.063   4.280   5.754
 8800SOL    HW227300   4.170   4.303   5.632
 8801SOL     OW27301   2.076   1.347   4.104
 8801SOL    HW127302   2.065   1.280   4.031
 8801SOL    HW227303   1.988   1.362   4.149
 8802SOL     OW27304   1.203   6.567   2.432
 8802SOL    HW127305   1.238   6.594   2.522
 8802SOL    HW227306   1.104   6.557   2.436
 8803SOL     OW27307   2.054   5.420   6.947
 8803SOL    HW127308   1.986   5.462   6.888
 8803SOL    HW227309   2.118   5.367   6.892
 8804SOL     OW27310   3.749   0.596   1.505
 8804SOL    HW127311   3.681   0.624   1.437
 8804SOL    HW227312   3.746   0.496   1.516
 8805SOL     OW27313   0.989   6.853   3.503
 8805SOL    HW127314   0.969   6.779   3.567
 8805SOL    HW227315   0.987   6.816   3.409
 8806SOL     OW27316   1.349   5.326   0.249
 8806SOL    HW127317   1.253   5.348   0.231
 8806SOL    HW227318   1.366   5.230   0.228
 8807SOL     OW27319   6.346   5.976   5.895
 8807SOL    HW127320   6.297   6.024   5.969
 8807SOL    HW227321   6.370   6.042   5.823
 8808SOL     OW27322   5.482   1.316   0.704
 8808SOL    HW127323   5.462   1.336   0.608
 8808SOL    HW227324   5.399   1.283   0.749
 8809SOL     OW27325   5.439   3.586   1.848
 8809SOL    HW127326   5.536   3.604   1.864
 8809SOL    HW227327   5.429   3.495   1.808
 8810SOL     OW27328   5.344   1.949   4.137
 8810SOL    HW127329   5.413   1.984   4.074
 8810SOL    HW227330   5.301   2.025   4.187
 8811SOL     OW27331   2.144   1.563   3.912
 8811SOL    HW127332   2.156   1.635   3.980
 8811SOL    HW227333   2.055   1.519   3.925
 8812SOL     OW27334   0.526   1.099   0.788
 8812SOL    HW127335   0.560   1.176   0.734
 8812SOL    HW227336   0.469   1.133   0.862
 8813SOL     OW27337   0.994   6.098   1.860
 8813SOL    HW127338   0.919   6.032   1.868
 8813SOL    HW227339   1.066   6.076   1.925
 8814SOL     OW27340   6.795   0.813   6.799
 8814SOL    HW127341   6.740   0.786   6.878
 8814SOL    HW227342   6.882   0.763   6.801
 8815SOL     OW27343   6.939   5.481   1.613
 8815SOL    HW127344   7.023   5.530   1.589
 8815SOL    HW227345   6.930   5.476   1.712
 8816SOL     OW27346   1.000   6.099   1.102
 8816SOL    HW127347   0.923   6.065   1.048
 8816SOL    HW227348   1.077   6.036   1.093
 8817SOL     OW27349   1.360   5.743   5.196
 8817SOL    HW127350   1.366   5.645   5.215
 8817SOL    HW227351   1.438   5.770   5.139
 8818SOL     OW27352   0.154   4.069   3.812
 8818SOL    HW127353   0.089   4.109   3.746
 8818SOL    HW227354   0.115   4.075   3.904
 8819SOL     OW27355   4.501   6.630   4.450
 8819SOL    HW127356   4.488   6.535   4.423
 8819SOL    HW227357   4.483   6.689   4.371
 8820SOL     OW27358   1.876   2.870   4.625
 8820SOL    HW127359   1.921   2.951   4.664
 8820SOL    HW227360   1.780   2.891   4.607
 8821SOL     OW27361   2.215   0.246   6.240
 8821SOL    HW127362   2.246   0.320   6.299
 8821SOL    HW227363   2.161   0.181   6.293
 8822SOL     OW27364   0.902   0.816   3.023
 8822SOL    HW127365   0.932   0.905   3.058
 8822SOL    HW227366   0.891   0.752   3.099
 8823SOL     OW27367   1.882   0.114   0.779
 8823SOL    HW127368   1.892   0.014   0.772
 8823SOL    HW227369   1.860   0.138   0.874
 8824SOL     OW27370   2.540   3.901   1.061
 8824SOL    HW127371   2.630   3.916   1.020
 8824SOL    HW227372   2.543   3.819   1.118
 8825SOL     OW27373   1.902   0.975   2.045
 8825SOL    HW127374   1.945   1.058   2.081
 8825SOL    HW227375   1.930   0.897   2.100
 8826SOL     OW27376   5.902   1.272   6.815
 8826SOL    HW127377   5.960   1.220   6.879
 8826SOL    HW227378   5.834   1.323   6.867
 8827SOL     OW27379   2.207   1.559   3.366
 8827SOL    HW127380   2.207   1.515   3.456
 8827SOL    HW227381   2.297   1.549   3.324
 8828SOL     OW27382   3.242   6.169   3.701
 8828SOL    HW127383   3.181   6.102   3.660
 8828SOL    HW227384   3.333   6.129   3.712
 8829SOL     OW27385   0.440   3.099   6.562
 8829SOL    HW127386   0.507   3.085   6.488
 8829SOL    HW227387   0.464   3.041   6.640
 8830SOL     OW27388   0.457   1.102   6.900
 8830SOL    HW127389   0.462   1.178   6.835
 8830SOL    HW227390   0.405   1.131   6.981
 8831SOL     OW27391   5.930   0.541   3.103
 8831SOL    HW127392   5.979   0.455   3.116
 8831SOL    HW227393   5.832   0.525   3.109
 8832SOL     OW27394   0.479   0.064   2.237
 8832SOL    HW127395   0.560   0.081   2.180
 8832SOL    HW227396   0.497   7.014   2.299
 8833SOL     OW27397   2.548   5.892   4.485
 8833SOL    HW127398   2.547   5.863   4.581
 8833SOL    HW227399   2.468   5.949   4.467
 8834SOL     OW27400   6.216   3.100   4.671
 8834SOL    HW127401   6.220   3.200   4.677
 8834SOL    HW227402   6.149   3.075   4.600
 8835SOL     OW27403   6.777   6.726   5.449
 8835SOL    HW127404   6.809   6.743   5.542
 8835SOL    HW227405   6.698   6.785   5.429
 8836SOL     OW27406   3.770   1.081   0.880
 8836SOL    HW127407   3.754   1.124   0.969
 8836SOL    HW227408   3.796   0.985   0.894
 8837SOL     OW27409   0.460   0.907   1.850
 8837SOL    HW127410   0.441   0.867   1.939
 8837SOL    HW227411   0.483   1.004   1.861
 8838SOL     OW27412   2.731   5.010   3.647
 8838SOL    HW127413   2.776   5.050   3.568
 8838SOL    HW227414   2.691   5.083   3.703
 8839SOL     OW27415   6.208   6.177   2.927
 8839SOL    HW127416   6.305   6.196   2.935
 8839SOL    HW227417   6.158   6.225   2.999
 8840SOL     OW27418   5.530   2.311   2.288
 8840SOL    HW127419   5.553   2.359   2.373
 8840SOL    HW227420   5.434   2.282   2.292
 8841SOL     OW27421   0.977   1.951   5.408
 8841SOL    HW127422   0.954   2.026   5.470
 8841SOL    HW227423   1.022   1.988   5.327
 8842SOL     OW27424   2.754   2.755   1.506
 8842SOL    HW127425   2.670   2.800   1.536
 8842SOL    HW227426   2.742   2.721   1.413
 8843SOL     OW27427   1.280   2.998   5.000
 8843SOL    HW127428   1.350   2.995   5.072
 8843SOL    HW227429   1.284   3.087   4.954
 8844SOL     OW27430   5.973   1.184   6.382
 8844SOL    HW127431   6.042   1.221   6.445
 8844SOL    HW227432   6.002   1.093   6.351
 8845SOL     OW27433   4.514   3.615   0.104
 8845SOL    HW127434   4.611   3.596   0.119
 8845SOL    HW227435   4.495   3.615   0.006
 8846SOL     OW27436   1.955   5.051   4.025
 8846SOL    HW127437   1.963   5.065   4.124
 8846SOL    HW227438   1.965   4.953   4.005
 8847SOL     OW27439   2.741   0.339   2.728
 8847SOL    HW127440   2.767   0.381   2.641
 8847SOL    HW227441   2.656   0.380   2.761
 8848SOL     OW27442   1.946   0.813   1.548
 8848SOL    HW127443   1.962   0.855   1.637
 8848SOL    HW227444   1.948   0.883   1.477
 8849SOL     OW27445   1.633   6.138   2.435
 8849SOL    HW127446   1.592   6.225   2.460
 8849SOL    HW227447   1.604   6.112   2.343
 8850SOL     OW27448   3.161   2.563   6.548
 8850SOL    HW127449   3.135   2.625   6.622
 8850SOL    HW227450   3.109   2.478   6.556
 8851SOL     OW27451   1.774   4.449   2.395
 8851SOL    HW127452   1.818   4.537   2.411
 8851SOL    HW227453   1.843   4.377   2.391
 8852SOL     OW27454   1.361   1.650   5.617
 8852SOL    HW127455   1.283   1.697   5.659
 8852SOL    HW227456   1.378   1.689   5.526
 8853SOL     OW27457   3.247   0.999   1.286
 8853SOL    HW127458   3.155   1.032   1.266
 8853SOL    HW227459   3.268   1.015   1.382
 8854SOL     OW27460   1.608   3.006   4.893
 8854SOL    HW127461   1.615   3.078   4.824
 8854SOL    HW227462   1.520   2.959   4.884
 8855SOL     OW27463   6.007   4.943   1.573
 8855SOL    HW127464   6.078   5.013   1.561
 8855SOL    HW227465   5.930   4.964   1.513
 8856SOL     OW27466   0.159   5.324   6.257
 8856SOL    HW127467   0.073   5.335   6.308
 8856SOL    HW227468   0.234   5.307   6.321
 8857SOL     OW27469   6.448   1.313   5.375
 8857SOL    HW127470   6.523   1.358   5.423
 8857SOL    HW227471   6.408   1.376   5.308
 8858SOL     OW27472   6.068   4.931   5.370
 8858SOL    HW127473   6.168   4.930   5.371
 8858SOL    HW227474   6.035   4.988   5.445
 8859SOL     OW27475   0.675   0.642   3.645
 8859SOL    HW127476   0.642   0.693   3.566
 8859SOL    HW227477   0.755   0.688   3.683
 8860SOL     OW27478   6.615   2.537   1.589
 8860SOL    HW127479   6.686   2.600   1.555
 8860SOL    HW227480   6.645   2.495   1.674
 8861SOL     OW27481   4.206   1.734   1.376
 8861SOL    HW127482   4.193   1.640   1.345
 8861SOL    HW227483   4.119   1.770   1.411
 8862SOL     OW27484   4.587   5.495   5.224
 8862SOL    HW127485   4.596   5.418   5.287
 8862SOL    HW227486   4.631   5.576   5.263
 8863SOL     OW27487   2.146   4.328   3.680
 8863SOL    HW127488   2.186   4.346   3.590
 8863SOL    HW227489   2.048   4.350   3.678
 8864SOL     OW27490   5.295   2.368   6.508
 8864SOL    HW127491   5.360   2.296   6.532
 8864SOL    HW227492   5.202   2.339   6.533
 8865SOL     OW27493   2.763   1.627   6.482
 8865SOL    HW127494   2.714   1.540   6.477
 8865SOL    HW227495   2.752   1.677   6.396
 8866SOL     OW27496   5.548   6.178   2.190
 8866SOL    HW127497   5.586   6.197   2.099
 8866SOL    HW227498   5.597   6.232   2.258
 8867SOL     OW27499   6.391   3.497   2.665
 8867SOL    HW127500   6.379   3.527   2.759
 8867SOL    HW227501   6.399   3.576   2.605
 8868SOL     OW27502   6.910   3.618   3.256
 8868SOL    HW127503   6.853   3.649   3.180
 8868SOL    HW227504   7.005   3.609   3.225
 8869SOL     OW27505   3.575   5.900   3.709
 8869SOL    HW127506   3.578   5.817   3.765
 8869SOL    HW227507   3.552   5.978   3.767
 8870SOL     OW27508   1.804   0.172   1.795
 8870SOL    HW127509   1.767   0.147   1.885
 8870SOL    HW227510   1.886   0.228   1.808
 8871SOL     OW27511   1.499   0.688   2.558
 8871SOL    HW127512   1.431   0.754   2.589
 8871SOL    HW227513   1.487   0.602   2.607
 8872SOL     OW27514   0.529   4.361   5.357
 8872SOL    HW127515   0.598   4.401   5.297
 8872SOL    HW227516   0.455   4.322   5.302
 8873SOL     OW27517   1.552   0.425   1.989
 8873SOL    HW127518   1.647   0.400   2.007
 8873SOL    HW227519   1.519   0.374   1.910
 8874SOL     OW27520   2.121   5.440   0.388
 8874SOL    HW127521   2.099   5.342   0.395
 8874SOL    HW227522   2.132   5.464   0.292
 8875SOL     OW27523   0.409   2.928   3.386
 8875SOL    HW127524   0.502   2.956   3.364
 8875SOL    HW227525   0.399   2.922   3.486
 8876SOL     OW27526   3.764   0.549   6.155
 8876SOL    HW127527   3.858   0.552   6.121
 8876SOL    HW227528   3.762   0.578   6.250
 8877SOL     OW27529   1.965   3.749   1.438
 8877SOL    HW127530   2.013   3.836   1.448
 8877SOL    HW227531   2.009   3.695   1.366
 8878SOL     OW27532   4.082   4.991   0.699
 8878SOL    HW127533   4.049   5.014   0.608
 8878SOL    HW227534   4.005   4.974   0.760
 8879SOL     OW27535   6.261   4.652   3.088
 8879SOL    HW127536   6.232   4.746   3.068
 8879SOL    HW227537   6.298   4.647   3.180
 8880SOL     OW27538   4.705   6.620   3.774
 8880SOL    HW127539   4.760   6.672   3.708
 8880SOL    HW227540   4.642   6.682   3.820
 8881SOL     OW27541   3.896   5.009   4.130
 8881SOL    HW127542   3.817   4.964   4.088
 8881SOL    HW227543   3.895   4.993   4.228
 8882SOL     OW27544   3.721   0.576   1.094
 8882SOL    HW127545   3.767   0.518   1.160
 8882SOL    HW227546   3.647   0.525   1.050
 8883SOL     OW27547   0.326   6.120   5.442
 8883SOL    HW127548   0.397   6.078   5.499
 8883SOL    HW227549   0.247   6.143   5.499
 8884SOL     OW27550   5.605   3.784   4.869
 8884SOL    HW127551   5.605   3.717   4.944
 8884SOL    HW227552   5.669   3.755   4.798
 8885SOL     OW27553   5.515   5.235   0.382
 8885SOL    HW127554   5.597   5.184   0.407
 8885SOL    HW227555   5.522   5.266   0.287
 8886SOL     OW27556   2.826   5.791   0.178
 8886SOL    HW127557   2.911   5.743   0.156
 8886SOL    HW227558   2.767   5.732   0.233
 8887SOL     OW27559   4.711   1.711   1.010
 8887SOL    HW127560   4.683   1.739   1.101
 8887SOL    HW227561   4.631   1.680   0.958
 8888SOL     OW27562   2.061   1.832   3.463
 8888SOL    HW127563   2.060   1.815   3.364
 8888SOL    HW227564   1.974   1.802   3.503
 8889SOL     OW27565   6.898   6.860   6.447
 8889SOL    HW127566   6.963   6.918   6.397
 8889SOL    HW227567   6.895   6.769   6.406
 8890SOL     OW27568   7.008   0.100   6.867
 8890SOL    HW127569   6.949   0.156   6.808
 8890SOL    HW227570   0.067   0.078   6.819
 8891SOL     OW27571   5.834   4.734   6.662
 8891SOL    HW127572   5.763   4.688   6.714
 8891SOL    HW227573   5.875   4.671   6.596
 8892SOL     OW27574   3.388   4.964   3.507
 8892SOL    HW127575   3.365   5.035   3.573
 8892SOL    HW227576   3.314   4.954   3.441
 8893SOL     OW27577   1.228   5.135   4.699
 8893SOL    HW127578   1.138   5.169   4.725
 8893SOL    HW227579   1.229   5.115   4.601
 8894SOL     OW27580   4.087   2.551   0.460
 8894SOL    HW127581   4.042   2.547   0.371
 8894SOL    HW227582   4.051   2.479   0.519
 8895SOL     OW27583   0.677   3.611   0.853
 8895SOL    HW127584   0.622   3.570   0.926
 8895SOL    HW227585   0.617   3.647   0.782
 8896SOL     OW27586   0.229   2.319   4.126
 8896SOL    HW127587   0.325   2.347   4.130
 8896SOL    HW227588   0.176   2.376   4.190
 8897SOL     OW27589   1.822   3.881   3.685
 8897SOL    HW127590   1.730   3.852   3.660
 8897SOL    HW227591   1.853   3.954   3.623
 8898SOL     OW27592   5.000   3.596   2.667
 8898SOL    HW127593   4.929   3.615   2.598
 8898SOL    HW227594   5.090   3.610   2.626
 8899SOL     OW27595   0.258   3.930   5.986
 8899SOL    HW127596   0.229   3.986   6.064
 8899SOL    HW227597   0.181   3.920   5.922
 8900SOL     OW27598   5.753   2.495   3.747
 8900SOL    HW127599   5.711   2.571   3.796
 8900SOL    HW227600   5.821   2.451   3.806
 8901SOL     OW27601   0.900   2.068   4.231
 8901SOL    HW127602   0.840   2.060   4.311
 8901SOL    HW227603   0.846   2.054   4.148
 8902SOL     OW27604   1.076   4.451   6.790
 8902SOL    HW127605   1.142   4.380   6.768
 8902SOL    HW227606   1.067   4.513   6.712
 8903SOL     OW27607   1.513   0.935   4.557
 8903SOL    HW127608   1.415   0.925   4.578
 8903SOL    HW227609   1.539   1.031   4.563
 8904SOL     OW27610   0.918   1.078   2.824
 8904SOL    HW127611   0.823   1.073   2.794
 8904SOL    HW227612   0.967   0.997   2.790
 8905SOL     OW27613   1.453   3.361   1.959
 8905SOL    HW127614   1.389   3.348   2.035
 8905SOL    HW227615   1.545   3.377   1.995
 8906SOL     OW27616   7.002   6.969   0.543
 8906SOL    HW127617   6.930   7.018   0.592
 8906SOL    HW227618   0.029   6.914   0.608
 8907SOL     OW27619   3.616   3.015   5.098
 8907SOL    HW127620   3.650   3.105   5.071
 8907SOL    HW227621   3.516   3.014   5.089
 8908SOL     OW27622   1.203   5.884   0.632
 8908SOL    HW127623   1.176   5.787   0.635
 8908SOL    HW227624   1.222   5.910   0.538
 8909SOL     OW27625   2.659   1.176   6.645
 8909SOL    HW127626   2.753   1.207   6.663
 8909SOL    HW227627   2.600   1.206   6.720
 8910SOL     OW27628   1.374   2.829   4.717
 8910SOL    HW127629   1.416   2.769   4.785
 8910SOL    HW227630   1.315   2.775   4.657
 8911SOL     OW27631   4.859   2.058   3.967
 8911SOL    HW127632   4.883   1.980   4.025
 8911SOL    HW227633   4.801   2.121   4.018
 8912SOL     OW27634   3.879   3.829   5.191
 8912SOL    HW127635   3.931   3.759   5.239
 8912SOL    HW227636   3.928   3.857   5.108
 8913SOL     OW27637   5.344   5.830   6.776
 8913SOL    HW127638   5.339   5.873   6.866
 8913SOL    HW227639   5.382   5.738   6.784
 8914SOL     OW27640   5.281   6.323   5.553
 8914SOL    HW127641   5.202   6.344   5.496
 8914SOL    HW227642   5.307   6.228   5.540
 8915SOL     OW27643   0.682   1.418   3.644
 8915SOL    HW127644   0.616   1.355   3.603
 8915SOL    HW227645   0.648   1.450   3.732
 8916SOL     OW27646   5.270   1.481   6.676
 8916SOL    HW127647   5.262   1.566   6.727
 8916SOL    HW227648   5.187   1.426   6.691
 8917SOL     OW27649   5.718   1.786   0.388
 8917SOL    HW127650   5.815   1.787   0.412
 8917SOL    HW227651   5.680   1.696   0.407
 8918SOL     OW27652   1.565   5.057   1.566
 8918SOL    HW127653   1.496   5.101   1.624
 8918SOL    HW227654   1.629   5.005   1.623
 8919SOL     OW27655   5.788   4.278   6.661
 8919SOL    HW127656   5.692   4.248   6.655
 8919SOL    HW227657   5.814   4.324   6.576
 8920SOL     OW27658   0.024   1.400   6.581
 8920SOL    HW127659   7.011   1.414   6.490
 8920SOL    HW227660   0.119   1.372   6.573
 8921SOL     OW27661   1.722   2.643   0.997
 8921SOL    HW127662   1.636   2.605   1.032
 8921SOL    HW227663   1.750   2.591   0.917
 8922SOL     OW27664   3.807   0.534   3.645
 8922SOL    HW127665   3.836   0.438   3.649
 8922SOL    HW227666   3.854   0.586   3.717
 8923SOL     OW27667   2.015   1.871   5.804
 8923SOL    HW127668   1.976   1.958   5.773
 8923SOL    HW227669   2.017   1.870   5.904
 8924SOL     OW27670   5.416   4.772   4.896
 8924SOL    HW127671   5.327   4.791   4.857
 8924SOL    HW227672   5.418   4.801   4.992
 8925SOL     OW27673   1.008   0.827   2.740
 8925SOL    HW127674   1.018   0.765   2.819
 8925SOL    HW227675   0.923   0.804   2.692
 8926SOL     OW27676   6.742   3.968   5.474
 8926SOL    HW127677   6.778   3.876   5.455
 8926SOL    HW227678   6.795   4.036   5.423
 8927SOL     OW27679   6.571   2.014   5.858
 8927SOL    HW127680   6.598   1.937   5.915
 8927SOL    HW227681   6.627   2.017   5.776
 8928SOL     OW27682   2.168   6.950   5.251
 8928SOL    HW127683   2.131   0.016   5.265
 8928SOL    HW227684   2.138   6.890   5.324
 8929SOL     OW27685   6.614   2.220   5.178
 8929SOL    HW127686   6.520   2.234   5.147
 8929SOL    HW227687   6.650   2.136   5.139
 8930SOL     OW27688   1.284   3.967   3.318
 8930SOL    HW127689   1.186   3.944   3.315
 8930SOL    HW227690   1.324   3.955   3.227
 8931SOL     OW27691   3.584   2.941   1.649
 8931SOL    HW127692   3.601   2.875   1.723
 8931SOL    HW227693   3.489   2.936   1.620
 8932SOL     OW27694   0.045   2.224   2.908
 8932SOL    HW127695   0.022   2.252   2.815
 8932SOL    HW227696   0.033   2.301   2.970
 8933SOL     OW27697   3.716   2.184   6.116
 8933SOL    HW127698   3.634   2.210   6.064
 8933SOL    HW227699   3.764   2.266   6.146
 8934SOL     OW27700   3.843   5.501   3.820
 8934SOL    HW127701   3.847   5.464   3.913
 8934SOL    HW227702   3.928   5.549   3.800
 8935SOL     OW27703   7.004   5.122   0.838
 8935SOL    HW127704   6.946   5.082   0.909
 8935SOL    HW227705   6.948   5.157   0.764
 8936SOL     OW27706   2.067   3.624   0.263
 8936SOL    HW127707   2.142   3.660   0.319
 8936SOL    HW227708   1.980   3.642   0.309
 8937SOL     OW27709   7.025   6.612   5.367
 8937SOL    HW127710   6.945   6.668   5.388
 8937SOL    HW227711   0.079   6.647   5.416
 8938SOL     OW27712   6.541   5.111   1.624
 8938SOL    HW127713   6.552   5.109   1.723
 8938SOL    HW227714   6.477   5.184   1.599
 8939SOL     OW27715   4.970   2.078   4.523
 8939SOL    HW127716   5.064   2.114   4.519
 8939SOL    HW227717   4.920   2.124   4.596
 8940SOL     OW27718   6.589   0.783   3.840
 8940SOL    HW127719   6.648   0.786   3.921
 8940SOL    HW227720   6.505   0.835   3.858
 8941SOL     OW27721   5.642   1.884   5.752
 8941SOL    HW127722   5.608   1.921   5.838
 8941SOL    HW227723   5.583   1.912   5.677
 8942SOL     OW27724   0.351   2.675   5.232
 8942SOL    HW127725   0.344   2.576   5.217
 8942SOL    HW227726   0.264   2.710   5.267
 8943SOL     OW27727   4.748   3.613   1.287
 8943SOL    HW127728   4.673   3.593   1.223
 8943SOL    HW227729   4.714   3.668   1.363
 8944SOL     OW27730   5.338   5.614   0.070
 8944SOL    HW127731   5.391   5.626   0.154
 8944SOL    HW227732   5.246   5.649   0.084
 8945SOL     OW27733   2.905   0.509   5.028
 8945SOL    HW127734   2.943   0.417   5.034
 8945SOL    HW227735   2.810   0.508   5.059
 8946SOL     OW27736   3.264   1.673   5.275
 8946SOL    HW127737   3.268   1.577   5.304
 8946SOL    HW227738   3.243   1.678   5.178
 8947SOL     OW27739   3.503   3.636   5.832
 8947SOL    HW127740   3.464   3.583   5.757
 8947SOL    HW227741   3.431   3.694   5.872
 8948SOL     OW27742   5.406   4.869   3.410
 8948SOL    HW127743   5.479   4.804   3.432
 8948SOL    HW227744   5.403   4.939   3.481
 8949SOL     OW27745   1.599   6.729   6.798
 8949SOL    HW127746   1.673   6.662   6.800
 8949SOL    HW227747   1.596   6.779   6.884
 8950SOL     OW27748   4.971   3.026   5.100
 8950SOL    HW127749   4.986   2.973   5.184
 8950SOL    HW227750   4.874   3.046   5.090
 8951SOL     OW27751   1.789   2.865   5.504
 8951SOL    HW127752   1.854   2.789   5.506
 8951SOL    HW227753   1.818   2.936   5.568
 8952SOL     OW27754   1.443   0.930   3.219
 8952SOL    HW127755   1.418   0.927   3.122
 8952SOL    HW227756   1.529   0.981   3.229
 8953SOL     OW27757   1.634   3.396   6.914
 8953SOL    HW127758   1.686   3.481   6.907
 8953SOL    HW227759   1.648   3.355   7.004
 8954SOL     OW27760   0.860   5.952   6.326
 8954SOL    HW127761   0.917   5.957   6.243
 8954SOL    HW227762   0.839   5.856   6.345
 8955SOL     OW27763   6.899   4.534   3.604
 8955SOL    HW127764   6.944   4.542   3.515
 8955SOL    HW227765   6.968   4.526   3.676
 8956SOL     OW27766   0.901   1.129   5.894
 8956SOL    HW127767   0.880   1.203   5.830
 8956SOL    HW227768   0.848   1.142   5.978
 8957SOL     OW27769   2.694   4.842   1.890
 8957SOL    HW127770   2.741   4.758   1.919
 8957SOL    HW227771   2.753   4.921   1.909
 8958SOL     OW27772   0.991   0.174   4.023
 8958SOL    HW127773   1.015   0.085   4.063
 8958SOL    HW227774   0.949   0.160   3.933
 8959SOL     OW27775   1.232   4.927   0.860
 8959SOL    HW127776   1.198   4.833   0.859
 8959SOL    HW227777   1.284   4.943   0.944
 8960SOL     OW27778   4.316   5.644   2.192
 8960SOL    HW127779   4.300   5.741   2.211
 8960SOL    HW227780   4.296   5.626   2.096
 8961SOL     OW27781   1.078   1.642   4.472
 8961SOL    HW127782   1.110   1.731   4.441
 8961SOL    HW227783   1.133   1.611   4.549
 8962SOL     OW27784   5.554   0.132   2.557
 8962SOL    HW127785   5.565   0.151   2.654
 8962SOL    HW227786   5.615   0.191   2.504
 8963SOL     OW27787   5.299   0.049   4.553
 8963SOL    HW127788   5.303   0.006   4.463
 8963SOL    HW227789   5.362   0.127   4.556
 8964SOL     OW27790   5.108   5.155   2.047
 8964SOL    HW127791   5.138   5.059   2.046
 8964SOL    HW227792   5.009   5.158   2.061
 8965SOL     OW27793   1.361   5.329   1.326
 8965SOL    HW127794   1.430   5.378   1.380
 8965SOL    HW227795   1.326   5.252   1.380
 8966SOL     OW27796   1.618   2.700   5.991
 8966SOL    HW127797   1.620   2.796   6.018
 8966SOL    HW227798   1.524   2.675   5.965
 8967SOL     OW27799   3.784   6.856   1.459
 8967SOL    HW127800   3.716   6.929   1.469
 8967SOL    HW227801   3.742   6.779   1.409
 8968SOL     OW27802   5.378   5.769   1.673
 8968SOL    HW127803   5.404   5.865   1.689
 8968SOL    HW227804   5.419   5.738   1.588
 8969SOL     OW27805   5.753   0.599   3.337
 8969SOL    HW127806   5.762   0.692   3.371
 8969SOL    HW227807   5.831   0.544   3.366
 8970SOL     OW27808   3.289   2.400   1.022
 8970SOL    HW127809   3.202   2.442   1.047
 8970SOL    HW227810   3.354   2.470   0.993
 8971SOL     OW27811   3.702   6.174   2.412
 8971SOL    HW127812   3.785   6.149   2.462
 8971SOL    HW227813   3.688   6.111   2.336
 8972SOL     OW27814   4.967   6.348   6.426
 8972SOL    HW127815   5.012   6.263   6.456
 8972SOL    HW227816   5.037   6.413   6.396
 8973SOL     OW27817   1.231   4.253   1.048
 8973SOL    HW127818   1.264   4.272   0.956
 8973SOL    HW227819   1.169   4.176   1.047
 8974SOL     OW27820   1.215   4.232   6.715
 8974SOL    HW127821   1.237   4.136   6.701
 8974SOL    HW227822   1.196   4.275   6.626
 8975SOL     OW27823   2.733   0.258   0.536
 8975SOL    HW127824   2.680   0.334   0.499
 8975SOL    HW227825   2.745   0.188   0.465
 8976SOL     OW27826   1.439   5.340   4.697
 8976SOL    HW127827   1.350   5.326   4.654
 8976SOL    HW227828   1.495   5.258   4.685
 8977SOL     OW27829   6.227   0.978   5.784
 8977SOL    HW127830   6.184   1.006   5.698
 8977SOL    HW227831   6.264   1.059   5.830
 8978SOL     OW27832   5.906   5.864   0.242
 8978SOL    HW127833   5.940   5.957   0.246
 8978SOL    HW227834   5.879   5.841   0.149
 8979SOL     OW27835   1.950   4.126   4.907
 8979SOL    HW127836   1.933   4.089   4.998
 8979SOL    HW227837   2.048   4.143   4.895
 8980SOL     OW27838   3.236   3.537   5.420
 8980SOL    HW127839   3.299   3.614   5.408
 8980SOL    HW227840   3.145   3.562   5.388
 8981SOL     OW27841   3.779   1.529   5.538
 8981SOL    HW127842   3.781   1.440   5.583
 8981SOL    HW227843   3.829   1.524   5.452
 8982SOL     OW27844   2.052   3.667   7.000
 8982SOL    HW127845   2.065   3.761   6.967
 8982SOL    HW227846   2.051   3.667   0.075
 8983SOL     OW27847   3.622   6.244   0.008
 8983SOL    HW127848   3.618   6.148   7.005
 8983SOL    HW227849   3.538   6.268   0.056
 8984SOL     OW27850   2.357   6.093   3.172
 8984SOL    HW127851   2.367   6.020   3.105
 8984SOL    HW227852   2.448   6.130   3.194
 8985SOL     OW27853   3.352   2.484   0.399
 8985SOL    HW127854   3.321   2.540   0.476
 8985SOL    HW227855   3.274   2.460   0.341
 8986SOL     OW27856   3.248   5.031   3.094
 8986SOL    HW127857   3.189   5.032   3.014
 8986SOL    HW227858   3.340   5.001   3.067
 8987SOL     OW27859   5.064   6.179   3.158
 8987SOL    HW127860   5.075   6.168   3.059
 8987SOL    HW227861   4.971   6.210   3.177
 8988SOL     OW27862   0.497   6.086   3.500
 8988SOL    HW127863   0.569   6.136   3.549
 8988SOL    HW227864   0.509   6.098   3.402
 8989SOL     OW27865   4.781   3.256   6.224
 8989SOL    HW127866   4.835   3.185   6.267
 8989SOL    HW227867   4.757   3.228   6.131
 8990SOL     OW27868   0.800   5.194   3.621
 8990SOL    HW127869   0.779   5.181   3.718
 8990SOL    HW227870   0.768   5.284   3.591
 8991SOL     OW27871   1.569   3.208   4.685
 8991SOL    HW127872   1.622   3.189   4.603
 8991SOL    HW227873   1.560   3.307   4.697
 8992SOL     OW27874   5.051   1.443   0.588
 8992SOL    HW127875   5.098   1.523   0.626
 8992SOL    HW227876   4.982   1.473   0.522
 8993SOL     OW27877   4.382   3.480   6.525
 8993SOL    HW127878   4.320   3.490   6.447
 8993SOL    HW227879   4.463   3.537   6.511
 8994SOL     OW27880   2.047   4.596   4.377
 8994SOL    HW127881   2.001   4.524   4.327
 8994SOL    HW227882   2.026   4.589   4.474
 8995SOL     OW27883   6.245   1.570   1.505
 8995SOL    HW127884   6.323   1.628   1.527
 8995SOL    HW227885   6.188   1.614   1.436
 8996SOL     OW27886   5.798   3.746   6.468
 8996SOL    HW127887   5.830   3.765   6.560
 8996SOL    HW227888   5.835   3.659   6.437
 8997SOL     OW27889   4.768   1.157   5.960
 8997SOL    HW127890   4.764   1.240   6.015
 8997SOL    HW227891   4.863   1.128   5.949
 8998SOL     OW27892   6.069   3.844   3.907
 8998SOL    HW127893   6.131   3.918   3.880
 8998SOL    HW227894   6.120   3.771   3.952
 8999SOL     OW27895   4.672   6.942   6.266
 8999SOL    HW127896   4.681   6.869   6.198
 8999SOL    HW227897   4.588   6.993   6.248
 9000SOL     OW27898   1.661   3.208   1.672
 9000SOL    HW127899   1.597   3.219   1.595
 9000SOL    HW227900   1.672   3.295   1.719
 9001SOL     OW27901   0.217   4.804   1.764
 9001SOL    HW127902   0.136   4.862   1.770
 9001SOL    HW227903   0.189   4.709   1.746
 9002SOL     OW27904   1.412   4.818   5.259
 9002SOL    HW127905   1.411   4.918   5.250
 9002SOL    HW227906   1.330   4.789   5.308
 9003SOL     OW27907   5.111   3.233   1.574
 9003SOL    HW127908   5.062   3.252   1.659
 9003SOL    HW227909   5.161   3.147   1.583
 9004SOL     OW27910   4.510   4.882   1.101
 9004SOL    HW127911   4.439   4.888   1.030
 9004SOL    HW227912   4.490   4.805   1.162
 9005SOL     OW27913   5.727   1.272   5.962
 9005SOL    HW127914   5.799   1.326   5.920
 9005SOL    HW227915   5.741   1.268   6.061
 9006SOL     OW27916   2.714   6.404   0.927
 9006SOL    HW127917   2.643   6.404   0.997
 9006SOL    HW227918   2.675   6.370   0.841
 9007SOL     OW27919   2.265   1.232   2.057
 9007SOL    HW127920   2.283   1.138   2.030
 9007SOL    HW227921   2.243   1.287   1.977
 9008SOL     OW27922   0.208   4.896   3.094
 9008SOL    HW127923   0.120   4.851   3.079
 9008SOL    HW227924   0.212   4.981   3.043
 9009SOL     OW27925   3.425   5.088   0.977
 9009SOL    HW127926   3.475   5.110   1.061
 9009SOL    HW227927   3.485   5.099   0.898
 9010SOL     OW27928   2.493   6.630   4.475
 9010SOL    HW127929   2.412   6.572   4.464
 9010SOL    HW227930   2.479   6.694   4.551
 9011SOL     OW27931   3.734   1.092   2.054
 9011SOL    HW127932   3.726   1.082   2.153
 9011SOL    HW227933   3.761   1.186   2.032
 9012SOL     OW27934   2.159   5.822   0.257
 9012SOL    HW127935   2.242   5.876   0.240
 9012SOL    HW227936   2.161   5.787   0.351
 9013SOL     OW27937   0.826   0.599   4.669
 9013SOL    HW127938   0.806   0.571   4.575
 9013SOL    HW227939   0.905   0.549   4.703
 9014SOL     OW27940   6.054   2.921   1.313
 9014SOL    HW127941   6.044   2.973   1.228
 9014SOL    HW227942   6.131   2.957   1.366
 9015SOL     OW27943   4.947   2.592   1.119
 9015SOL    HW127944   4.855   2.629   1.104
 9015SOL    HW227945   4.940   2.499   1.155
 9016SOL     OW27946   5.549   5.093   6.395
 9016SOL    HW127947   5.564   5.075   6.492
 9016SOL    HW227948   5.585   5.184   6.372
 9017SOL     OW27949   4.070   0.886   4.836
 9017SOL    HW127950   4.067   0.845   4.927
 9017SOL    HW227951   4.160   0.927   4.821
 9018SOL     OW27952   3.901   3.837   6.328
 9018SOL    HW127953   3.810   3.849   6.366
 9018SOL    HW227954   3.896   3.833   6.228
 9019SOL     OW27955   1.152   4.322   2.869
 9019SOL    HW127956   1.109   4.234   2.891
 9019SOL    HW227957   1.245   4.324   2.906
 9020SOL     OW27958   6.743   4.270   1.092
 9020SOL    HW127959   6.746   4.339   1.021
 9020SOL    HW227960   6.659   4.216   1.083
 9021SOL     OW27961   6.850   0.810   3.666
 9021SOL    HW127962   6.846   0.810   3.766
 9021SOL    HW227963   6.847   0.904   3.632
 9022SOL     OW27964   3.433   1.976   0.025
 9022SOL    HW127965   3.395   1.884   0.014
 9022SOL    HW227966   3.473   2.006   6.964
 9023SOL     OW27967   4.131   3.163   1.623
 9023SOL    HW127968   4.170   3.090   1.569
 9023SOL    HW227969   4.203   3.212   1.672
 9024SOL     OW27970   0.780   4.656   5.368
 9024SOL    HW127971   0.719   4.697   5.300
 9024SOL    HW227972   0.860   4.715   5.382
 9025SOL     OW27973   6.577   5.844   0.562
 9025SOL    HW127974   6.609   5.750   0.573
 9025SOL    HW227975   6.649   5.908   0.590
 9026SOL     OW27976   3.179   2.036   0.637
 9026SOL    HW127977   3.192   2.083   0.725
 9026SOL    HW227978   3.186   2.102   0.563
 9027SOL     OW27979   0.952   3.768   3.964
 9027SOL    HW127980   0.996   3.858   3.969
 9027SOL    HW227981   0.876   3.772   3.900
 9028SOL     OW27982   3.990   2.771   5.288
 9028SOL    HW127983   4.047   2.697   5.252
 9028SOL    HW227984   4.047   2.852   5.304
 9029SOL     OW27985   4.309   0.677   5.039
 9029SOL    HW127986   4.312   0.631   4.950
 9029SOL    HW227987   4.347   0.617   5.109
 9030SOL     OW27988   2.186   2.683   4.130
 9030SOL    HW127989   2.108   2.634   4.169
 9030SOL    HW227990   2.229   2.740   4.200
 9031SOL     OW27991   4.133   0.246   4.651
 9031SOL    HW127992   4.198   0.203   4.588
 9031SOL    HW227993   4.147   0.211   4.743
 9032SOL     OW27994   4.546   4.077   0.930
 9032SOL    HW127995   4.522   3.980   0.937
 9032SOL    HW227996   4.587   4.107   1.016
 9033SOL     OW27997   0.545   4.682   2.821
 9033SOL    HW127998   0.446   4.689   2.815
 9033SOL    HW227999   0.577   4.728   2.904
 9034SOL     OW28000   3.667   6.213   4.652
 9034SOL    HW128001   3.700   6.118   4.650
 9034SOL    HW228002   3.710   6.265   4.579
 9035SOL     OW28003   1.536   6.231   7.004
 9035SOL    HW128004   1.533   6.131   7.004
 9035SOL    HW228005   1.570   6.263   0.067
 9036SOL     OW28006   1.499   4.003   5.519
 9036SOL    HW128007   1.493   3.941   5.441
 9036SOL    HW228008   1.562   3.964   5.587
 9037SOL     OW28009   1.213   2.950   4.369
 9037SOL    HW128010   1.236   3.005   4.450
 9037SOL    HW228011   1.170   3.009   4.300
 9038SOL     OW28012   4.366   3.370   6.777
 9038SOL    HW128013   4.432   3.295   6.780
 9038SOL    HW228014   4.354   3.400   6.682
 9039SOL     OW28015   3.076   4.821   0.358
 9039SOL    HW128016   3.083   4.742   0.419
 9039SOL    HW228017   3.127   4.802   0.274
 9040SOL     OW28018   2.960   2.143   2.209
 9040SOL    HW128019   2.924   2.224   2.162
 9040SOL    HW228020   2.927   2.061   2.164
 9041SOL     OW28021   1.020   2.673   1.048
 9041SOL    HW128022   1.083   2.740   1.008
 9041SOL    HW228023   0.980   2.617   0.975
 9042SOL     OW28024   3.710   6.249   5.162
 9042SOL    HW128025   3.690   6.277   5.256
 9042SOL    HW228026   3.673   6.157   5.146
 9043SOL     OW28027   2.297   1.441   6.355
 9043SOL    HW128028   2.378   1.395   6.321
 9043SOL    HW228029   2.324   1.515   6.417
 9044SOL     OW28030   0.753   0.948   6.449
 9044SOL    HW128031   0.838   0.901   6.426
 9044SOL    HW228032   0.685   0.881   6.479
 9045SOL     OW28033   4.200   0.593   3.267
 9045SOL    HW128034   4.176   0.506   3.224
 9045SOL    HW228035   4.256   0.575   3.348
 9046SOL     OW28036   3.868   3.974   2.708
 9046SOL    HW128037   3.780   4.019   2.720
 9046SOL    HW228038   3.905   3.949   2.798
 9047SOL     OW28039   1.190   4.197   5.283
 9047SOL    HW128040   1.205   4.261   5.358
 9047SOL    HW228041   1.201   4.103   5.316
 9048SOL     OW28042   6.245   2.588   6.106
 9048SOL    HW128043   6.239   2.545   6.196
 9048SOL    HW228044   6.337   2.573   6.069
 9049SOL     OW28045   3.527   6.566   5.545
 9049SOL    HW128046   3.500   6.547   5.640
 9049SOL    HW228047   3.541   6.664   5.533
 9050SOL     OW28048   0.803   4.129   1.542
 9050SOL    HW128049   0.717   4.153   1.496
 9050SOL    HW228050   0.783   4.085   1.629
 9051SOL     OW28051   2.436   0.295   1.651
 9051SOL    HW128052   2.493   0.222   1.690
 9051SOL    HW228053   2.372   0.255   1.585
 9052SOL     OW28054   1.818   3.359   4.092
 9052SOL    HW128055   1.885   3.297   4.133
 9052SOL    HW228056   1.783   3.319   4.007
 9053SOL     OW28057   2.333   1.246   0.691
 9053SOL    HW128058   2.240   1.279   0.708
 9053SOL    HW228059   2.386   1.317   0.646
 9054SOL     OW28060   2.105   5.526   4.196
 9054SOL    HW128061   2.041   5.565   4.131
 9054SOL    HW228062   2.126   5.431   4.169
 9055SOL     OW28063   6.748   4.534   4.638
 9055SOL    HW128064   6.820   4.512   4.572
 9055SOL    HW228065   6.721   4.452   4.688
 9056SOL     OW28066   6.837   1.921   2.336
 9056SOL    HW128067   6.896   2.001   2.328
 9056SOL    HW228068   6.793   1.920   2.425
 9057SOL     OW28069   4.543   2.039   4.334
 9057SOL    HW128070   4.639   2.011   4.326
 9057SOL    HW228071   4.538   2.132   4.371
 9058SOL     OW28072   1.632   0.529   6.830
 9058SOL    HW128073   1.560   0.593   6.856
 9058SOL    HW228074   1.615   0.440   6.873
 9059SOL     OW28075   1.151   2.595   2.594
 9059SOL    HW128076   1.098   2.677   2.571
 9059SOL    HW228077   1.100   2.514   2.565
 9060SOL     OW28078   5.694   3.120   5.123
 9060SOL    HW128079   5.741   3.199   5.163
 9060SOL    HW228080   5.731   3.102   5.031
 9061SOL     OW28081   3.999   5.157   2.693
 9061SOL    HW128082   4.045   5.111   2.617
 9061SOL    HW228083   3.973   5.249   2.666
 9062SOL     OW28084   1.028   5.157   1.716
 9062SOL    HW128085   1.075   5.073   1.744
 9062SOL    HW228086   0.972   5.138   1.635
 9063SOL     OW28087   2.984   1.314   3.528
 9063SOL    HW128088   2.915   1.349   3.591
 9063SOL    HW228089   2.948   1.316   3.435
 9064SOL     OW28090   6.683   3.416   6.690
 9064SOL    HW128091   6.700   3.324   6.654
 9064SOL    HW228092   6.588   3.442   6.671
 9065SOL     OW28093   3.531   0.230   0.142
 9065SOL    HW128094   3.521   0.135   0.112
 9065SOL    HW228095   3.455   0.285   0.107
 9066SOL     OW28096   5.768   0.295   0.224
 9066SOL    HW128097   5.751   0.381   0.175
 9066SOL    HW228098   5.862   0.295   0.258
 9067SOL     OW28099   1.638   0.211   3.201
 9067SOL    HW128100   1.609   0.115   3.206
 9067SOL    HW228101   1.569   0.264   3.154
 9068SOL     OW28102   1.324   6.083   5.120
 9068SOL    HW128103   1.254   6.105   5.188
 9068SOL    HW228104   1.293   6.006   5.064
 9069SOL     OW28105   1.320   2.919   6.489
 9069SOL    HW128106   1.352   3.006   6.527
 9069SOL    HW228107   1.220   2.919   6.488
 9070SOL     OW28108   1.908   3.966   4.320
 9070SOL    HW128109   1.950   4.052   4.349
 9070SOL    HW228110   1.977   3.893   4.321
 9071SOL     OW28111   6.397   6.675   0.532
 9071SOL    HW128112   6.425   6.590   0.577
 9071SOL    HW228113   6.469   6.706   0.470
 9072SOL     OW28114   0.180   3.673   0.644
 9072SOL    HW128115   0.186   3.580   0.608
 9072SOL    HW228116   0.244   3.732   0.593
 9073SOL     OW28117   1.982   1.034   1.411
 9073SOL    HW128118   2.005   1.122   1.452
 9073SOL    HW228119   2.064   0.993   1.371
 9074SOL     OW28120   1.606   6.815   2.598
 9074SOL    HW128121   1.575   6.775   2.684
 9074SOL    HW228122   1.572   6.909   2.590
 9075SOL     OW28123   6.697   0.729   2.303
 9075SOL    HW128124   6.601   0.735   2.331
 9075SOL    HW228125   6.719   0.634   2.279
 9076SOL     OW28126   6.723   1.416   6.053
 9076SOL    HW128127   6.652   1.450   6.114
 9076SOL    HW228128   6.811   1.458   6.078
 9077SOL     OW28129   4.664   6.678   2.249
 9077SOL    HW128130   4.701   6.585   2.247
 9077SOL    HW228131   4.573   6.677   2.291
 9078SOL     OW28132   3.848   3.430   5.116
 9078SOL    HW128133   3.917   3.376   5.163
 9078SOL    HW228134   3.764   3.376   5.107
 9079SOL     OW28135   3.142   6.479   4.537
 9079SOL    HW128136   3.172   6.433   4.620
 9079SOL    HW228137   3.055   6.525   4.553
 9080SOL     OW28138   5.411   2.746   0.176
 9080SOL    HW128139   5.426   2.817   0.108
 9080SOL    HW228140   5.428   2.782   0.267
 9081SOL     OW28141   5.368   6.451   2.668
 9081SOL    HW128142   5.296   6.391   2.633
 9081SOL    HW228143   5.375   6.441   2.767
 9082SOL     OW28144   2.517   0.714   3.596
 9082SOL    HW128145   2.522   0.758   3.686
 9082SOL    HW228146   2.545   0.778   3.526
 9083SOL     OW28147   4.615   4.586   5.301
 9083SOL    HW128148   4.543   4.593   5.370
 9083SOL    HW228149   4.701   4.621   5.338
 9084SOL     OW28150   3.235   3.551   3.192
 9084SOL    HW128151   3.305   3.583   3.129
 9084SOL    HW228152   3.148   3.596   3.171
 9085SOL     OW28153   2.421   1.563   1.154
 9085SOL    HW128154   2.514   1.592   1.176
 9085SOL    HW228155   2.423   1.471   1.115
 9086SOL     OW28156   0.539   3.972   1.212
 9086SOL    HW128157   0.568   3.880   1.183
 9086SOL    HW228158   0.613   4.037   1.196
 9087SOL     OW28159   4.872   3.608   2.046
 9087SOL    HW128160   4.797   3.661   2.085
 9087SOL    HW228161   4.845   3.573   1.956
 9088SOL     OW28162   6.725   0.896   6.547
 9088SOL    HW128163   6.782   0.847   6.481
 9088SOL    HW228164   6.748   0.866   6.639
 9089SOL     OW28165   4.669   0.132   5.697
 9089SOL    HW128166   4.751   0.170   5.652
 9089SOL    HW228167   4.697   0.062   5.763
 9090SOL     OW28168   5.655   0.142   4.876
 9090SOL    HW128169   5.607   0.166   4.960
 9090SOL    HW228170   5.708   0.221   4.844
 9091SOL     OW28171   3.269   3.802   0.178
 9091SOL    HW128172   3.176   3.767   0.167
 9091SOL    HW228173   3.308   3.769   0.264
 9092SOL     OW28174   0.137   2.010   0.081
 9092SOL    HW128175   0.095   2.010   7.016
 9092SOL    HW228176   0.227   2.054   0.076
 9093SOL     OW28177   1.403   6.854   5.194
 9093SOL    HW128178   1.450   6.766   5.186
 9093SOL    HW228179   1.429   6.899   5.279
 9094SOL     OW28180   0.375   3.034   2.038
 9094SOL    HW128181   0.395   3.121   1.994
 9094SOL    HW228182   0.455   3.003   2.089
 9095SOL     OW28183   5.259   5.594   5.740
 9095SOL    HW128184   5.278   5.525   5.670
 9095SOL    HW228185   5.168   5.578   5.778
 9096SOL     OW28186   6.695   5.345   2.768
 9096SOL    HW128187   6.634   5.342   2.847
 9096SOL    HW228188   6.641   5.335   2.684
 9097SOL     OW28189   0.177   2.970   5.639
 9097SOL    HW128190   0.257   2.963   5.579
 9097SOL    HW228191   0.191   3.044   5.704
 9098SOL     OW28192   2.112   2.463   4.600
 9098SOL    HW128193   2.016   2.491   4.591
 9098SOL    HW228194   2.116   2.377   4.651
 9099SOL     OW28195   2.144   3.317   6.470
 9099SOL    HW128196   2.140   3.407   6.426
 9099SOL    HW228197   2.157   3.329   6.569
 9100SOL     OW28198   1.505   4.497   2.474
 9100SOL    HW128199   1.496   4.436   2.553
 9100SOL    HW228200   1.596   4.484   2.434
 9101SOL     OW28201   2.137   1.442   1.871
 9101SOL    HW128202   2.189   1.518   1.910
 9101SOL    HW228203   2.077   1.478   1.799
 9102SOL     OW28204   4.418   6.228   2.716
 9102SOL    HW128205   4.438   6.320   2.683
 9102SOL    HW228206   4.490   6.166   2.685
 9103SOL     OW28207   6.272   1.691   0.325
 9103SOL    HW128208   6.240   1.714   0.417
 9103SOL    HW228209   6.280   1.592   0.317
 9104SOL     OW28210   6.894   0.992   0.114
 9104SOL    HW128211   6.805   0.985   0.159
 9104SOL    HW228212   6.966   0.978   0.182
 9105SOL     OW28213   1.787   0.081   6.196
 9105SOL    HW128214   1.837   0.155   6.152
 9105SOL    HW228215   1.851   0.013   6.231
 9106SOL     OW28216   0.919   4.927   6.496
 9106SOL    HW128217   0.902   4.884   6.584
 9106SOL    HW228218   0.971   4.864   6.438
 9107SOL     OW28219   2.524   0.935   0.113
 9107SOL    HW128220   2.593   0.993   0.070
 9107SOL    HW228221   2.434   0.953   0.072
 9108SOL     OW28222   5.591   5.360   5.795
 9108SOL    HW128223   5.544   5.328   5.877
 9108SOL    HW228224   5.631   5.450   5.812
 9109SOL     OW28225   5.256   2.205   2.295
 9109SOL    HW128226   5.254   2.165   2.387
 9109SOL    HW228227   5.214   2.296   2.298
 9110SOL     OW28228   1.739   5.725   4.752
 9110SOL    HW128229   1.667   5.665   4.787
 9110SOL    HW228230   1.809   5.670   4.707
 9111SOL     OW28231   4.658   2.654   4.897
 9111SOL    HW128232   4.627   2.715   4.969
 9111SOL    HW228233   4.712   2.705   4.830
 9112SOL     OW28234   2.204   5.047   2.335
 9112SOL    HW128235   2.203   5.127   2.274
 9112SOL    HW228236   2.182   5.076   2.428
 9113SOL     OW28237   4.639   2.060   3.440
 9113SOL    HW128238   4.732   2.093   3.427
 9113SOL    HW228239   4.641   1.966   3.473
 9114SOL     OW28240   1.437   6.220   4.922
 9114SOL    HW128241   1.391   6.153   4.981
 9114SOL    HW228242   1.390   6.223   4.834
 9115SOL     OW28243   5.583   4.602   3.932
 9115SOL    HW128244   5.637   4.681   3.959
 9115SOL    HW228245   5.633   4.548   3.864
 9116SOL     OW28246   0.540   7.010   3.773
 9116SOL    HW128247   0.562   0.081   3.764
 9116SOL    HW228248   0.620   6.954   3.749
 9117SOL     OW28249   3.893   1.228   0.254
 9117SOL    HW128250   3.806   1.202   0.211
 9117SOL    HW228251   3.878   1.247   0.351
 9118SOL     OW28252   5.809   4.032   0.657
 9118SOL    HW128253   5.848   3.959   0.601
 9118SOL    HW228254   5.710   4.033   0.646
 9119SOL     OW28255   3.569   6.749   0.889
 9119SOL    HW128256   3.641   6.700   0.840
 9119SOL    HW228257   3.556   6.839   0.848
 9120SOL     OW28258   5.418   2.612   5.692
 9120SOL    HW128259   5.337   2.612   5.751
 9120SOL    HW228260   5.398   2.562   5.608
 9121SOL     OW28261   3.245   0.467   5.498
 9121SOL    HW128262   3.225   0.383   5.447
 9121SOL    HW228263   3.295   0.443   5.582
 9122SOL     OW28264   2.273   4.397   2.325
 9122SOL    HW128265   2.289   4.306   2.362
 9122SOL    HW228266   2.359   4.448   2.322
 9123SOL     OW28267   0.883   0.816   3.642
 9123SOL    HW128268   0.838   0.905   3.635
 9123SOL    HW228269   0.981   0.828   3.626
 9124SOL     OW28270   3.444   5.634   1.559
 9124SOL    HW128271   3.444   5.598   1.652
 9124SOL    HW228272   3.483   5.566   1.496
 9125SOL     OW28273   4.454   6.401   0.455
 9125SOL    HW128274   4.504   6.482   0.425
 9125SOL    HW228275   4.390   6.426   0.528
 9126SOL     OW28276   3.679   4.991   0.612
 9126SOL    HW128277   3.652   4.899   0.642
 9126SOL    HW228278   3.732   5.035   0.684
 9127SOL     OW28279   0.170   3.901   5.029
 9127SOL    HW128280   0.143   3.812   5.065
 9127SOL    HW228281   0.270   3.906   5.023
 9128SOL     OW28282   5.812   3.753   5.103
 9128SOL    HW128283   5.808   3.807   5.019
 9128SOL    HW228284   5.720   3.738   5.138
 9129SOL     OW28285   1.303   1.756   0.595
 9129SOL    HW128286   1.270   1.663   0.615
 9129SOL    HW228287   1.284   1.778   0.500
 9130SOL     OW28288   2.738   3.870   5.252
 9130SOL    HW128289   2.659   3.923   5.221
 9130SOL    HW228290   2.747   3.879   5.352
 9131SOL     OW28291   5.932   2.536   0.961
 9131SOL    HW128292   5.982   2.563   1.043
 9131SOL    HW228293   5.955   2.441   0.938
 9132SOL     OW28294   0.587   4.218   3.927
 9132SOL    HW128295   0.639   4.300   3.949
 9132SOL    HW228296   0.635   4.166   3.856
 9133SOL     OW28297   4.432   0.756   1.034
 9133SOL    HW128298   4.462   0.688   0.966
 9133SOL    HW228299   4.405   0.840   0.987
 9134SOL     OW28300   4.548   5.612   0.778
 9134SOL    HW128301   4.646   5.611   0.802
 9134SOL    HW228302   4.505   5.691   0.822
 9135SOL     OW28303   0.476   6.474   2.679
 9135SOL    HW128304   0.569   6.498   2.654
 9135SOL    HW228305   0.413   6.503   2.607
 9136SOL     OW28306   6.466   4.788   6.416
 9136SOL    HW128307   6.447   4.721   6.344
 9136SOL    HW228308   6.563   4.813   6.414
 9137SOL     OW28309   4.802   6.376   6.697
 9137SOL    HW128310   4.854   6.396   6.614
 9137SOL    HW228311   4.859   6.322   6.759
 9138SOL     OW28312   3.073   3.264   1.047
 9138SOL    HW128313   3.087   3.202   0.969
 9138SOL    HW228314   3.100   3.217   1.131
 9139SOL     OW28315   6.908   0.439   1.468
 9139SOL    HW128316   6.951   0.443   1.558
 9139SOL    HW228317   6.905   0.531   1.428
 9140SOL     OW28318   0.760   4.177   2.733
 9140SOL    HW128319   0.782   4.223   2.647
 9140SOL    HW228320   0.828   4.201   2.802
 9141SOL     OW28321   6.473   5.768   5.771
 9141SOL    HW128322   6.396   5.706   5.752
 9141SOL    HW228323   6.445   5.837   5.837
 9142SOL     OW28324   1.032   3.932   3.598
 9142SOL    HW128325   1.130   3.911   3.599
 9142SOL    HW228326   0.980   3.849   3.619
 9143SOL     OW28327   6.522   3.287   2.510
 9143SOL    HW128328   6.487   3.355   2.575
 9143SOL    HW228329   6.493   3.312   2.418
 9144SOL     OW28330   2.607   4.265   5.354
 9144SOL    HW128331   2.537   4.198   5.379
 9144SOL    HW228332   2.690   4.217   5.324
 9145SOL     OW28333   1.140   6.371   5.844
 9145SOL    HW128334   1.195   6.312   5.784
 9145SOL    HW228335   1.180   6.371   5.935
 9146SOL     OW28336   6.194   3.157   3.081
 9146SOL    HW128337   6.275   3.213   3.063
 9146SOL    HW228338   6.135   3.156   3.000
 9147SOL     OW28339   4.588   0.112   4.394
 9147SOL    HW128340   4.686   0.092   4.395
 9147SOL    HW228341   4.549   0.082   4.307
 9148SOL     OW28342   6.213   6.518   1.708
 9148SOL    HW128343   6.170   6.602   1.675
 9148SOL    HW228344   6.278   6.484   1.639
 9149SOL     OW28345   6.969   3.529   1.505
 9149SOL    HW128346   6.935   3.601   1.566
 9149SOL    HW228347   0.017   3.565   1.448
 9150SOL     OW28348   2.988   2.743   0.907
 9150SOL    HW128349   3.001   2.794   0.992
 9150SOL    HW228350   2.933   2.797   0.843
 9151SOL     OW28351   1.919   3.223   3.769
 9151SOL    HW128352   1.971   3.298   3.810
 9151SOL    HW228353   1.983   3.156   3.729
 9152SOL     OW28354   2.429   4.748   3.584
 9152SOL    HW128355   2.494   4.758   3.660
 9152SOL    HW228356   2.478   4.723   3.501
 9153SOL     OW28357   6.677   3.421   0.122
 9153SOL    HW128358   6.689   3.481   0.043
 9153SOL    HW228359   6.581   3.398   0.132
 9154SOL     OW28360   5.719   4.514   3.017
 9154SOL    HW128361   5.719   4.612   3.001
 9154SOL    HW228362   5.814   4.481   3.023
 9155SOL     OW28363   0.566   6.571   2.937
 9155SOL    HW128364   0.520   6.529   2.859
 9155SOL    HW228365   0.517   6.548   3.021
 9156SOL     OW28366   6.971   3.737   6.851
 9156SOL    HW128367   6.923   3.788   6.922
 9156SOL    HW228368   6.913   3.732   6.769
 9157SOL     OW28369   2.200   5.268   6.119
 9157SOL    HW128370   2.175   5.220   6.203
 9157SOL    HW228371   2.299   5.265   6.107
 9158SOL     OW28372   6.612   3.361   4.682
 9158SOL    HW128373   6.571   3.433   4.737
 9158SOL    HW228374   6.588   3.373   4.586
 9159SOL     OW28375   4.007   1.203   3.745
 9159SOL    HW128376   3.911   1.229   3.750
 9159SOL    HW228377   4.045   1.196   3.837
 9160SOL     OW28378   0.071   4.322   0.890
 9160SOL    HW128379   0.038   4.265   0.965
 9160SOL    HW228380   0.025   4.295   0.805
 9161SOL     OW28381   6.187   3.973   1.357
 9161SOL    HW128382   6.119   4.046   1.371
 9161SOL    HW228383   6.263   3.987   1.420
 9162SOL     OW28384   4.610   2.374   1.504
 9162SOL    HW128385   4.701   2.333   1.497
 9162SOL    HW228386   4.620   2.472   1.520
 9163SOL     OW28387   1.556   2.650   3.346
 9163SOL    HW128388   1.458   2.665   3.339
 9163SOL    HW228389   1.604   2.715   3.287
 9164SOL     OW28390   2.356   0.497   6.988
 9164SOL    HW128391   2.397   0.562   6.924
 9164SOL    HW228392   2.256   0.501   6.981
 9165SOL     OW28393   5.106   1.680   6.034
 9165SOL    HW128394   5.172   1.725   6.094
 9165SOL    HW228395   5.025   1.738   6.025
 9166SOL     OW28396   5.219   5.552   1.747
 9166SOL    HW128397   5.281   5.629   1.742
 9166SOL    HW228398   5.255   5.476   1.692
 9167SOL     OW28399   1.664   1.176   4.558
 9167SOL    HW128400   1.730   1.135   4.495
 9167SOL    HW228401   1.646   1.270   4.531
 9168SOL     OW28402   6.300   6.035   4.299
 9168SOL    HW128403   6.315   6.126   4.337
 9168SOL    HW228404   6.203   6.024   4.275
 9169SOL     OW28405   6.333   6.222   0.605
 9169SOL    HW128406   6.296   6.131   0.624
 9169SOL    HW228407   6.354   6.229   0.507
 9170SOL     OW28408   1.395   1.384   5.579
 9170SOL    HW128409   1.379   1.482   5.584
 9170SOL    HW228410   1.490   1.366   5.554
 9171SOL     OW28411   3.390   4.896   0.285
 9171SOL    HW128412   3.465   4.844   0.327
 9171SOL    HW228413   3.330   4.833   0.236
 9172SOL     OW28414   4.693   1.514   4.450
 9172SOL    HW128415   4.750   1.560   4.382
 9172SOL    HW228416   4.622   1.577   4.482
 9173SOL     OW28417   5.464   3.007   4.215
 9173SOL    HW128418   5.433   2.925   4.167
 9173SOL    HW228419   5.471   3.083   4.151
 9174SOL     OW28420   6.986   4.370   0.324
 9174SOL    HW128421   6.917   4.306   0.359
 9174SOL    HW228422   6.954   4.410   0.238
 9175SOL     OW28423   1.505   6.563   6.597
 9175SOL    HW128424   1.499   6.488   6.664
 9175SOL    HW228425   1.503   6.650   6.646
 9176SOL     OW28426   1.883   1.516   2.515
 9176SOL    HW128427   1.956   1.454   2.487
 9176SOL    HW228428   1.923   1.602   2.548
 9177SOL     OW28429   0.801   3.745   4.175
 9177SOL    HW128430   0.716   3.694   4.168
 9177SOL    HW228431   0.850   3.741   4.088
 9178SOL     OW28432   2.075   6.189   0.652
 9178SOL    HW128433   2.152   6.212   0.711
 9178SOL    HW228434   2.081   6.092   0.627
 9179SOL     OW28435   3.572   5.730   5.377
 9179SOL    HW128436   3.653   5.676   5.396
 9179SOL    HW228437   3.589   5.826   5.400
 9180SOL     OW28438   0.059   0.951   4.517
 9180SOL    HW128439   0.036   0.857   4.540
 9180SOL    HW228440   0.156   0.959   4.496
 9181SOL     OW28441   3.565   2.123   3.905
 9181SOL    HW128442   3.493   2.182   3.941
 9181SOL    HW228443   3.604   2.068   3.980
 9182SOL     OW28444   1.389   1.107   2.575
 9182SOL    HW128445   1.486   1.107   2.598
 9182SOL    HW228446   1.338   1.159   2.643
 9183SOL     OW28447   6.955   2.591   5.661
 9183SOL    HW128448   6.872   2.582   5.717
 9183SOL    HW228449   0.006   2.547   5.707
 9184SOL     OW28450   3.238   3.079   0.836
 9184SOL    HW128451   3.302   3.137   0.887
 9184SOL    HW228452   3.289   3.022   0.771
 9185SOL     OW28453   1.368   0.738   6.638
 9185SOL    HW128454   1.459   0.778   6.625
 9185SOL    HW228455   1.357   0.712   6.733
 9186SOL     OW28456   5.323   1.171   6.441
 9186SOL    HW128457   5.275   1.102   6.386
 9186SOL    HW228458   5.340   1.252   6.385
 9187SOL     OW28459   4.756   2.104   0.786
 9187SOL    HW128460   4.841   2.064   0.751
 9187SOL    HW228461   4.689   2.032   0.800
 9188SOL     OW28462   1.280   0.136   1.335
 9188SOL    HW128463   1.313   0.117   1.428
 9188SOL    HW228464   1.245   0.230   1.331
 9189SOL     OW28465   4.148   0.882   4.231
 9189SOL    HW128466   4.154   0.950   4.304
 9189SOL    HW228467   4.241   0.853   4.207
 9190SOL     OW28468   6.075   3.284   5.462
 9190SOL    HW128469   5.985   3.307   5.424
 9190SOL    HW228470   6.128   3.367   5.477
 9191SOL     OW28471   5.678   6.345   0.356
 9191SOL    HW128472   5.579   6.361   0.348
 9191SOL    HW228473   5.727   6.419   0.309
 9192SOL     OW28474   6.005   4.905   4.708
 9192SOL    HW128475   5.959   4.957   4.779
 9192SOL    HW228476   5.955   4.915   4.622
 9193SOL     OW28477   3.769   3.288   3.821
 9193SOL    HW128478   3.690   3.282   3.882
 9193SOL    HW228479   3.790   3.197   3.784
 9194SOL     OW28480   3.139   5.911   2.476
 9194SOL    HW128481   3.059   5.967   2.497
 9194SOL    HW228482   3.180   5.878   2.561
 9195SOL     OW28483   6.377   3.678   2.984
 9195SOL    HW128484   6.291   3.628   2.984
 9195SOL    HW228485   6.408   3.692   3.079
 9196SOL     OW28486   4.571   0.004   3.605
 9196SOL    HW128487   4.499   7.021   3.674
 9196SOL    HW228488   4.639   0.071   3.635
 9197SOL     OW28489   3.461   3.205   6.287
 9197SOL    HW128490   3.397   3.241   6.355
 9197SOL    HW228491   3.512   3.281   6.246
 9198SOL     OW28492   5.397   2.702   5.107
 9198SOL    HW128493   5.410   2.689   5.009
 9198SOL    HW228494   5.299   2.713   5.126
 9199SOL     OW28495   1.399   4.008   6.678
 9199SOL    HW128496   1.453   4.025   6.760
 9199SOL    HW228497   1.338   3.930   6.693
 9200SOL     OW28498   6.334   0.576   0.054
 9200SOL    HW128499   6.305   0.546   0.145
 9200SOL    HW228500   6.254   0.594   7.023
 9201SOL     OW28501   1.486   4.066   3.500
 9201SOL    HW128502   1.418   4.053   3.428
 9201SOL    HW228503   1.445   4.115   3.577
 9202SOL     OW28504   3.225   5.318   4.433
 9202SOL    HW128505   3.141   5.357   4.469
 9202SOL    HW228506   3.215   5.218   4.426
 9203SOL     OW28507   5.105   0.346   6.225
 9203SOL    HW128508   5.064   0.315   6.310
 9203SOL    HW228509   5.090   0.278   6.153
 9204SOL     OW28510   4.642   4.329   2.276
 9204SOL    HW128511   4.652   4.239   2.319
 9204SOL    HW228512   4.588   4.319   2.192
 9205SOL     OW28513   5.075   2.910   2.933
 9205SOL    HW128514   5.004   2.961   2.983
 9205SOL    HW228515   5.069   2.933   2.836
 9206SOL     OW28516   0.555   0.259   3.790
 9206SOL    HW128517   0.602   0.265   3.878
 9206SOL    HW228518   0.609   0.304   3.719
 9207SOL     OW28519   4.260   0.042   0.300
 9207SOL    HW128520   4.224   0.130   0.332
 9207SOL    HW228521   4.198   0.004   0.232
 9208SOL     OW28522   4.948   4.759   2.310
 9208SOL    HW128523   4.973   4.684   2.372
 9208SOL    HW228524   4.983   4.740   2.219
 9209SOL     OW28525   4.076   1.147   2.598
 9209SOL    HW128526   4.067   1.053   2.631
 9209SOL    HW228527   4.049   1.152   2.502
 9210SOL     OW28528   1.339   0.071   1.086
 9210SOL    HW128529   1.399   7.020   1.065
 9210SOL    HW228530   1.326   0.077   1.185
 9211SOL     OW28531   5.015   0.986   6.909
 9211SOL    HW128532   5.056   1.017   6.995
 9211SOL    HW228533   4.985   0.891   6.917
 9212SOL     OW28534   6.086   3.732   4.923
 9212SOL    HW128535   6.090   3.705   5.019
 9212SOL    HW228536   6.014   3.799   4.909
 9213SOL     OW28537   6.042   0.063   2.759
 9213SOL    HW128538   6.013   0.158   2.751
 9213SOL    HW228539   6.141   0.057   2.755
 9214SOL     OW28540   1.916   2.355   5.572
 9214SOL    HW128541   2.010   2.381   5.550
 9214SOL    HW228542   1.913   2.257   5.595
 9215SOL     OW28543   1.004   3.139   2.842
 9215SOL    HW128544   1.043   3.085   2.769
 9215SOL    HW228545   0.954   3.217   2.803
 9216SOL     OW28546   2.444   5.943   5.046
 9216SOL    HW128547   2.443   5.862   5.105
 9216SOL    HW228548   2.504   5.926   4.967
 9217SOL     OW28549   4.650   0.876   6.637
 9217SOL    HW128550   4.716   0.811   6.598
 9217SOL    HW228551   4.558   0.852   6.604
 9218SOL     OW28552   5.936   5.504   6.377
 9218SOL    HW128553   5.990   5.531   6.297
 9218SOL    HW228554   5.924   5.405   6.378
 9219SOL     OW28555   3.615   2.901   5.545
 9219SOL    HW128556   3.562   2.985   5.558
 9219SOL    HW228557   3.616   2.877   5.448
 9220SOL     OW28558   1.143   6.195   3.518
 9220SOL    HW128559   1.197   6.165   3.597
 9220SOL    HW228560   1.063   6.135   3.508
 9221SOL     OW28561   2.443   0.894   0.563
 9221SOL    HW128562   2.372   0.959   0.536
 9221SOL    HW228563   2.530   0.943   0.574
 9222SOL     OW28564   1.325   3.642   3.409
 9222SOL    HW128565   1.285   3.551   3.408
 9222SOL    HW228566   1.422   3.636   3.384
 9223SOL     OW28567   0.784   3.609   4.938
 9223SOL    HW128568   0.722   3.670   4.889
 9223SOL    HW228569   0.873   3.608   4.893
 9224SOL     OW28570   1.913   4.474   3.624
 9224SOL    HW128571   1.879   4.474   3.530
 9224SOL    HW228572   1.885   4.558   3.670
 9225SOL     OW28573   4.785   6.677   6.687
 9225SOL    HW128574   4.804   6.579   6.695
 9225SOL    HW228575   4.741   6.696   6.600
 9226SOL     OW28576   0.919   0.795   1.090
 9226SOL    HW128577   0.947   0.699   1.089
 9226SOL    HW228578   0.846   0.809   1.023
 9227SOL     OW28579   2.380   5.391   0.725
 9227SOL    HW128580   2.374   5.424   0.819
 9227SOL    HW228581   2.392   5.291   0.726
 9228SOL     OW28582   3.075   3.056   5.546
 9228SOL    HW128583   3.158   3.000   5.547
 9228SOL    HW228584   2.995   2.997   5.550
 9229SOL     OW28585   0.385   4.572   0.049
 9229SOL    HW128586   0.339   4.581   6.987
 9229SOL    HW228587   0.462   4.508   0.040
 9230SOL     OW28588   4.792   1.849   4.837
 9230SOL    HW128589   4.716   1.879   4.778
 9230SOL    HW228590   4.759   1.837   4.930
 9231SOL     OW28591   6.690   5.821   3.802
 9231SOL    HW128592   6.699   5.770   3.717
 9231SOL    HW228593   6.780   5.845   3.837
 9232SOL     OW28594   1.382   5.051   1.864
 9232SOL    HW128595   1.448   4.988   1.906
 9232SOL    HW228596   1.423   5.141   1.854
 9233SOL     OW28597   0.809   6.539   0.251
 9233SOL    HW128598   0.854   6.459   0.292
 9233SOL    HW228599   0.742   6.508   0.183
 9234SOL     OW28600   2.238   4.419   0.387
 9234SOL    HW128601   2.300   4.374   0.452
 9234SOL    HW228602   2.292   4.475   0.323
 9235SOL     OW28603   1.765   2.102   3.838
 9235SOL    HW128604   1.823   2.022   3.827
 9235SOL    HW228605   1.768   2.133   3.933
 9236SOL     OW28606   2.574   3.290   6.688
 9236SOL    HW128607   2.502   3.285   6.757
 9236SOL    HW228608   2.552   3.230   6.611
 9237SOL     OW28609   5.451   4.920   3.127
 9237SOL    HW128610   5.437   4.904   3.225
 9237SOL    HW228611   5.547   4.903   3.104
 9238SOL     OW28612   1.944   2.768   5.154
 9238SOL    HW128613   1.938   2.730   5.246
 9238SOL    HW228614   2.019   2.834   5.149
 9239SOL     OW28615   0.821   4.831   6.730
 9239SOL    HW128616   0.756   4.754   6.731
 9239SOL    HW228617   0.831   4.867   6.822
 9240SOL     OW28618   4.369   2.388   2.700
 9240SOL    HW128619   4.361   2.428   2.791
 9240SOL    HW228620   4.435   2.441   2.646
 9241SOL     OW28621   5.777   6.922   1.116
 9241SOL    HW128622   5.860   6.909   1.062
 9241SOL    HW228623   5.706   6.859   1.083
 9242SOL     OW28624   1.916   2.529   0.506
 9242SOL    HW128625   1.968   2.604   0.464
 9242SOL    HW228626   1.881   2.469   0.435
 9243SOL     OW28627   0.781   0.635   0.048
 9243SOL    HW128628   0.857   0.581   0.085
 9243SOL    HW228629   0.818   0.719   0.007
 9244SOL     OW28630   3.934   6.371   5.453
 9244SOL    HW128631   3.953   6.313   5.374
 9244SOL    HW228632   3.986   6.339   5.532
 9245SOL     OW28633   1.148   4.518   3.237
 9245SOL    HW128634   1.202   4.440   3.267
 9245SOL    HW228635   1.096   4.493   3.155
 9246SOL     OW28636   6.286   0.394   5.743
 9246SOL    HW128637   6.253   0.477   5.697
 9246SOL    HW228638   6.274   0.404   5.842
 9247SOL     OW28639   4.007   6.817   3.207
 9247SOL    HW128640   3.916   6.778   3.200
 9247SOL    HW228641   4.072   6.746   3.234
 9248SOL     OW28642   2.456   1.016   6.004
 9248SOL    HW128643   2.403   0.942   6.046
 9248SOL    HW228644   2.401   1.099   6.000
 9249SOL     OW28645   3.545   5.376   1.480
 9249SOL    HW128646   3.632   5.344   1.443
 9249SOL    HW228647   3.489   5.297   1.506
 9250SOL     OW28648   0.519   3.019   4.239
 9250SOL    HW128649   0.604   3.055   4.201
 9250SOL    HW228650   0.535   2.927   4.276
 9251SOL     OW28651   3.359   2.772   1.169
 9251SOL    HW128652   3.304   2.711   1.225
 9251SOL    HW228653   3.378   2.728   1.081
 9252SOL     OW28654   4.864   1.995   5.787
 9252SOL    HW128655   4.836   1.997   5.883
 9252SOL    HW228656   4.921   1.914   5.771
 9253SOL     OW28657   1.017   5.218   5.498
 9253SOL    HW128658   0.931   5.228   5.547
 9253SOL    HW228659   1.066   5.136   5.531
 9254SOL     OW28660   0.004   5.309   2.581
 9254SOL    HW128661   6.940   5.307   2.536
 9254SOL    HW228662   0.065   5.244   2.536
 9255SOL     OW28663   0.171   4.020   0.907
 9255SOL    HW128664   0.241   4.067   0.961
 9255SOL    HW228665   0.203   3.929   0.883
 9256SOL     OW28666   1.839   6.242   2.059
 9256SOL    HW128667   1.887   6.264   2.144
 9256SOL    HW228668   1.822   6.143   2.055
 9257SOL     OW28669   6.471   5.920   4.153
 9257SOL    HW128670   6.474   5.963   4.062
 9257SOL    HW228671   6.417   5.977   4.215
 9258SOL     OW28672   3.548   5.197   1.227
 9258SOL    HW128673   3.486   5.173   1.302
 9258SOL    HW228674   3.631   5.239   1.264
 9259SOL     OW28675   2.006   1.498   6.698
 9259SOL    HW128676   2.073   1.545   6.756
 9259SOL    HW228677   1.941   1.564   6.661
 9260SOL     OW28678   6.285   3.922   4.890
 9260SOL    HW128679   6.283   3.959   4.797
 9260SOL    HW228680   6.221   3.846   4.897
 9261SOL     OW28681   3.605   2.545   1.675
 9261SOL    HW128682   3.649   2.624   1.717
 9261SOL    HW228683   3.622   2.464   1.731
 9262SOL     OW28684   5.991   6.093   4.395
 9262SOL    HW128685   6.031   6.180   4.423
 9262SOL    HW228686   5.898   6.087   4.430
 9263SOL     OW28687   1.469   3.915   3.939
 9263SOL    HW128688   1.477   4.000   3.887
 9263SOL    HW228689   1.554   3.898   3.990
 9264SOL     OW28690   4.412   3.618   0.364
 9264SOL    HW128691   4.442   3.613   0.268
 9264SOL    HW228692   4.397   3.526   0.399
 9265SOL     OW28693   5.361   1.577   0.077
 9265SOL    HW128694   5.453   1.544   0.097
 9265SOL    HW228695   5.301   1.559   0.155
 9266SOL     OW28696   0.904   4.515   1.466
 9266SOL    HW128697   0.880   4.575   1.542
 9266SOL    HW228698   0.900   4.566   1.380
 9267SOL     OW28699   6.640   1.078   4.723
 9267SOL    HW128700   6.611   1.151   4.661
 9267SOL    HW228701   6.630   0.989   4.678
 9268SOL     OW28702   0.764   7.008   2.052
 9268SOL    HW128703   0.800   6.931   2.104
 9268SOL    HW228704   0.837   0.022   1.996
 9269SOL     OW28705   4.151   1.051   0.940
 9269SOL    HW128706   4.234   1.089   0.899
 9269SOL    HW228707   4.167   1.031   1.037
 9270SOL     OW28708   1.955   0.570   5.824
 9270SOL    HW128709   1.863   0.562   5.785
 9270SOL    HW228710   1.953   0.633   5.901
 9271SOL     OW28711   1.323   0.068   4.599
 9271SOL    HW128712   1.421   0.090   4.594
 9271SOL    HW228713   1.309   7.018   4.662
 9272SOL     OW28714   6.606   0.035   6.011
 9272SOL    HW128715   6.650   0.083   5.936
 9272SOL    HW228716   6.639   0.071   6.098
 9273SOL     OW28717   5.016   5.037   4.698
 9273SOL    HW128718   5.066   5.052   4.613
 9273SOL    HW228719   4.965   4.951   4.692
 9274SOL     OW28720   1.332   2.759   6.995
 9274SOL    HW128721   1.292   2.763   0.060
 9274SOL    HW228722   1.306   2.673   6.951
 9275SOL     OW28723   0.145   0.638   0.036
 9275SOL    HW128724   0.194   0.654   0.122
 9275SOL    HW228725   0.047   0.653   0.051
 9276SOL     OW28726   2.773   5.306   0.132
 9276SOL    HW128727   2.726   5.319   0.045
 9276SOL    HW228728   2.866   5.273   0.115
 9277SOL     OW28729   5.271   5.839   1.999
 9277SOL    HW128730   5.323   5.889   1.930
 9277SOL    HW228731   5.185   5.887   2.018
 9278SOL     OW28732   0.607   0.906   5.037
 9278SOL    HW128733   0.610   0.965   4.956
 9278SOL    HW228734   0.654   0.820   5.017
 9279SOL     OW28735   4.831   6.359   1.554
 9279SOL    HW128736   4.803   6.338   1.648
 9279SOL    HW228737   4.756   6.341   1.492
 9280SOL     OW28738   1.637   6.979   2.971
 9280SOL    HW128739   1.561   6.975   3.037
 9280SOL    HW228740   1.658   6.886   2.940
 9281SOL     OW28741   2.588   5.148   6.798
 9281SOL    HW128742   2.578   5.195   6.710
 9281SOL    HW228743   2.681   5.161   6.832
 9282SOL     OW28744   2.972   6.818   5.013
 9282SOL    HW128745   2.959   6.916   5.027
 9282SOL    HW228746   3.060   6.802   4.968
 9283SOL     OW28747   4.722   6.233   0.277
 9283SOL    HW128748   4.720   6.305   0.208
 9283SOL    HW228749   4.687   6.148   0.238
 9284SOL     OW28750   3.431   4.060   5.136
 9284SOL    HW128751   3.459   4.085   5.043
 9284SOL    HW228752   3.450   3.963   5.150
 9285SOL     OW28753   0.368   4.907   2.664
 9285SOL    HW128754   0.380   4.838   2.593
 9285SOL    HW228755   0.417   4.990   2.640
 9286SOL     OW28756   5.050   5.833   1.281
 9286SOL    HW128757   4.982   5.841   1.208
 9286SOL    HW228758   5.025   5.757   1.342
 9287SOL     OW28759   3.458   4.873   6.300
 9287SOL    HW128760   3.508   4.920   6.372
 9287SOL    HW228761   3.389   4.934   6.261
 9288SOL     OW28762   4.054   2.213   3.068
 9288SOL    HW128763   4.077   2.208   2.971
 9288SOL    HW228764   4.129   2.254   3.119
 9289SOL     OW28765   4.967   6.601   0.083
 9289SOL    HW128766   4.939   6.583   0.177
 9289SOL    HW228767   4.888   6.634   0.031
 9290SOL     OW28768   5.003   0.757   4.111
 9290SOL    HW128769   5.046   0.734   4.023
 9290SOL    HW228770   5.016   0.854   4.131
 9291SOL     OW28771   1.023   4.984   5.860
 9291SOL    HW128772   1.051   5.003   5.954
 9291SOL    HW228773   0.924   4.973   5.857
 9292SOL     OW28774   2.054   1.625   6.370
 9292SOL    HW128775   1.955   1.609   6.371
 9292SOL    HW228776   2.102   1.538   6.359
 9293SOL     OW28777   5.313   2.941   4.699
 9293SOL    HW128778   5.320   3.032   4.740
 9293SOL    HW228779   5.217   2.917   4.688
 9294SOL     OW28780   4.308   1.402   0.140
 9294SOL    HW128781   4.238   1.473   0.134
 9294SOL    HW228782   4.273   1.317   0.102
 9295SOL     OW28783   0.477   1.241   5.166
 9295SOL    HW128784   0.381   1.268   5.162
 9295SOL    HW228785   0.521   1.260   5.079
 9296SOL     OW28786   1.405   4.813   0.284
 9296SOL    HW128787   1.492   4.783   0.246
 9296SOL    HW228788   1.421   4.873   0.362
 9297SOL     OW28789   5.804   5.607   2.666
 9297SOL    HW128790   5.821   5.704   2.648
 9297SOL    HW228791   5.712   5.583   2.636
 9298SOL     OW28792   1.236   5.362   6.410
 9298SOL    HW128793   1.249   5.458   6.434
 9298SOL    HW228794   1.171   5.320   6.474
 9299SOL     OW28795   2.171   2.246   4.761
 9299SOL    HW128796   2.105   2.194   4.815
 9299SOL    HW228797   2.262   2.237   4.802
 9300SOL     OW28798   1.468   5.384   5.744
 9300SOL    HW128799   1.481   5.384   5.844
 9300SOL    HW228800   1.371   5.368   5.724
 9301SOL     OW28801   6.986   4.225   4.899
 9301SOL    HW128802   6.920   4.250   4.970
 9301SOL    HW228803   0.053   4.246   4.930
 9302SOL     OW28804   2.073   3.720   5.186
 9302SOL    HW128805   2.149   3.660   5.211
 9302SOL    HW228806   2.092   3.763   5.098
 9303SOL     OW28807   2.212   4.812   0.715
 9303SOL    HW128808   2.172   4.807   0.806
 9303SOL    HW228809   2.231   4.908   0.692
 9304SOL     OW28810   4.745   5.305   0.159
 9304SOL    HW128811   4.777   5.219   0.198
 9304SOL    HW228812   4.734   5.296   0.060
 9305SOL     OW28813   2.080   1.944   1.289
 9305SOL    HW128814   2.175   1.955   1.316
 9305SOL    HW228815   2.029   2.028   1.310
 9306SOL     OW28816   6.524   4.907   4.559
 9306SOL    HW128817   6.535   4.830   4.621
 9306SOL    HW228818   6.481   4.983   4.608
 9307SOL     OW28819   2.494   3.065   1.572
 9307SOL    HW128820   2.557   3.052   1.495
 9307SOL    HW228821   2.515   2.997   1.643
 9308SOL     OW28822   2.133   3.705   2.161
 9308SOL    HW128823   2.157   3.794   2.122
 9308SOL    HW228824   2.158   3.633   2.097
 9309SOL     OW28825   5.203   5.490   6.052
 9309SOL    HW128826   5.297   5.517   6.030
 9309SOL    HW228827   5.159   5.563   6.104
 9310SOL     OW28828   5.675   6.356   0.029
 9310SOL    HW128829   5.723   6.287   6.999
 9310SOL    HW228830   5.728   6.374   0.111
 9311SOL     OW28831   4.433   3.510   1.484
 9311SOL    HW128832   4.425   3.520   1.385
 9311SOL    HW228833   4.472   3.594   1.523
 9312SOL     OW28834   0.661   2.839   2.080
 9312SOL    HW128835   0.733   2.785   2.123
 9312SOL    HW228836   0.622   2.789   2.002
 9313SOL     OW28837   0.434   6.904   2.655
 9313SOL    HW128838   0.459   6.888   2.750
 9313SOL    HW228839   0.356   6.966   2.651
 9314SOL     OW28840   4.818   3.134   0.243
 9314SOL    HW128841   4.849   3.183   0.162
 9314SOL    HW228842   4.749   3.066   0.217
 9315SOL     OW28843   5.505   1.073   6.166
 9315SOL    HW128844   5.503   1.168   6.197
 9315SOL    HW228845   5.426   1.056   6.105
 9316SOL     OW28846   4.411   0.835   5.421
 9316SOL    HW128847   4.507   0.849   5.444
 9316SOL    HW228848   4.399   0.842   5.322
 9317SOL     OW28849   4.108   6.565   3.253
 9317SOL    HW128850   4.160   6.544   3.336
 9317SOL    HW228851   4.107   6.486   3.193
 9318SOL     OW28852   4.832   6.731   1.183
 9318SOL    HW128853   4.848   6.673   1.103
 9318SOL    HW228854   4.821   6.674   1.265
 9319SOL     OW28855   2.802   4.041   6.850
 9319SOL    HW128856   2.780   4.056   6.946
 9319SOL    HW228857   2.900   4.050   6.835
 9320SOL     OW28858   6.490   6.234   6.814
 9320SOL    HW128859   6.542   6.160   6.772
 9320SOL    HW228860   6.520   6.322   6.777
 9321SOL     OW28861   0.820   3.768   4.660
 9321SOL    HW128862   0.911   3.750   4.621
 9321SOL    HW228863   0.753   3.707   4.617
 9322SOL     OW28864   6.125   3.490   5.965
 9322SOL    HW128865   6.134   3.403   6.014
 9322SOL    HW228866   6.034   3.528   5.982
 9323SOL     OW28867   1.819   2.527   4.621
 9323SOL    HW128868   1.812   2.483   4.711
 9323SOL    HW228869   1.743   2.592   4.610
 9324SOL     OW28870   0.494   4.555   1.646
 9324SOL    HW128871   0.395   4.553   1.631
 9324SOL    HW228872   0.537   4.605   1.570
 9325SOL     OW28873   1.059   4.909   2.892
 9325SOL    HW128874   1.010   4.863   2.965
 9325SOL    HW228875   1.065   5.007   2.911
 9326SOL     OW28876   4.149   4.658   1.216
 9326SOL    HW128877   4.131   4.599   1.137
 9326SOL    HW228878   4.079   4.643   1.286
 9327SOL     OW28879   4.034   0.008   4.156
 9327SOL    HW128880   3.966   0.077   4.179
 9327SOL    HW228881   4.031   7.015   4.058
 9328SOL     OW28882   2.699   0.078   4.668
 9328SOL    HW128883   2.740   0.016   4.601
 9328SOL    HW228884   2.769   0.109   4.732
 9329SOL     OW28885   0.223   5.254   6.766
 9329SOL    HW128886   0.233   5.350   6.740
 9329SOL    HW228887   0.146   5.214   6.715
 9330SOL     OW28888   6.139   5.209   6.751
 9330SOL    HW128889   6.175   5.267   6.825
 9330SOL    HW228890   6.121   5.117   6.787
 9331SOL     OW28891   1.574   2.648   4.643
 9331SOL    HW128892   1.538   2.631   4.735
 9331SOL    HW228893   1.573   2.746   4.623
 9332SOL     OW28894   4.834   5.402   0.893
 9332SOL    HW128895   4.836   5.303   0.881
 9332SOL    HW228896   4.813   5.423   0.988
 9333SOL     OW28897   3.768   4.794   0.993
 9333SOL    HW128898   3.683   4.745   1.012
 9333SOL    HW228899   3.834   4.732   0.950
 9334SOL     OW28900   5.853   5.802   5.623
 9334SOL    HW128901   5.891   5.783   5.533
 9334SOL    HW228902   5.789   5.878   5.616
 9335SOL     OW28903   1.759   2.788   1.355
 9335SOL    HW128904   1.772   2.877   1.311
 9335SOL    HW228905   1.751   2.801   1.454
 9336SOL     OW28906   6.441   6.729   5.513
 9336SOL    HW128907   6.490   6.696   5.593
 9336SOL    HW228908   6.407   6.650   5.461
 9337SOL     OW28909   2.685   0.268   6.727
 9337SOL    HW128910   2.726   0.273   6.636
 9337SOL    HW228911   2.722   0.341   6.784
 9338SOL     OW28912   5.959   6.935   0.038
 9338SOL    HW128913   6.052   6.973   0.039
 9338SOL    HW228914   5.892   7.009   0.031
 9339SOL     OW28915   6.756   4.386   5.352
 9339SOL    HW128916   6.787   4.400   5.258
 9339SOL    HW228917   6.658   4.364   5.351
 9340SOL     OW28918   4.371   5.906   1.950
 9340SOL    HW128919   4.306   5.956   1.894
 9340SOL    HW228920   4.363   5.808   1.931
 9341SOL     OW28921   5.166   3.758   6.897
 9341SOL    HW128922   5.254   3.750   6.850
 9341SOL    HW228923   5.104   3.815   6.843
 9342SOL     OW28924   3.100   0.393   4.006
 9342SOL    HW128925   3.071   0.489   4.009
 9342SOL    HW228926   3.148   0.375   3.920
 9343SOL     OW28927   4.568   4.714   1.765
 9343SOL    HW128928   4.481   4.691   1.809
 9343SOL    HW228929   4.613   4.630   1.736
 9344SOL     OW28930   5.761   5.697   4.865
 9344SOL    HW128931   5.840   5.649   4.902
 9344SOL    HW228932   5.677   5.648   4.888
 9345SOL     OW28933   6.828   6.431   1.022
 9345SOL    HW128934   6.907   6.401   0.969
 9345SOL    HW228935   6.759   6.471   0.962
 9346SOL     OW28936   5.965   5.905   0.907
 9346SOL    HW128937   5.989   5.978   0.972
 9346SOL    HW228938   5.888   5.936   0.851
 9347SOL     OW28939   3.675   5.344   0.938
 9347SOL    HW128940   3.712   5.402   0.865
 9347SOL    HW228941   3.663   5.399   1.021
 9348SOL     OW28942   1.787   6.053   1.814
 9348SOL    HW128943   1.805   6.125   1.746
 9348SOL    HW228944   1.703   6.005   1.790
 9349SOL     OW28945   6.245   5.539   1.806
 9349SOL    HW128946   6.186   5.595   1.748
 9349SOL    HW228947   6.243   5.444   1.775
 9350SOL     OW28948   0.184   0.257   5.377
 9350SOL    HW128949   0.166   0.194   5.453
 9350SOL    HW228950   0.122   0.335   5.383
 9351SOL     OW28951   3.018   1.555   6.512
 9351SOL    HW128952   2.927   1.575   6.478
 9351SOL    HW228953   3.040   1.619   6.586
 9352SOL     OW28954   3.705   2.049   6.550
 9352SOL    HW128955   3.637   2.118   6.525
 9352SOL    HW228956   3.659   1.969   6.588
 9353SOL     OW28957   1.849   3.492   1.071
 9353SOL    HW128958   1.879   3.573   1.122
 9353SOL    HW228959   1.919   3.422   1.076
 9354SOL     OW28960   4.878   2.332   1.234
 9354SOL    HW128961   4.793   2.279   1.242
 9354SOL    HW228962   4.902   2.370   1.323
 9355SOL     OW28963   6.822   6.985   3.404
 9355SOL    HW128964   6.731   6.965   3.441
 9355SOL    HW228965   6.812   0.011   3.318
 9356SOL     OW28966   4.125   4.732   2.538
 9356SOL    HW128967   4.195   4.679   2.491
 9356SOL    HW228968   4.076   4.789   2.472
 9357SOL     OW28969   3.126   2.524   1.295
 9357SOL    HW128970   3.070   2.587   1.348
 9357SOL    HW228971   3.220   2.525   1.329
 9358SOL     OW28972   6.539   4.790   2.173
 9358SOL    HW128973   6.523   4.691   2.180
 9358SOL    HW228974   6.455   4.839   2.196
 9359SOL     OW28975   6.650   4.280   5.677
 9359SOL    HW128976   6.744   4.260   5.649
 9359SOL    HW228977   6.635   4.245   5.770
 9360SOL     OW28978   2.227   0.874   6.729
 9360SOL    HW128979   2.201   0.930   6.651
 9360SOL    HW228980   2.326   0.883   6.746
 9361SOL     OW28981   2.537   6.403   2.491
 9361SOL    HW128982   2.496   6.317   2.459
 9361SOL    HW228983   2.566   6.457   2.412
 9362SOL     OW28984   2.309   1.108   2.420
 9362SOL    HW128985   2.264   1.059   2.346
 9362SOL    HW228986   2.377   1.049   2.463
 9363SOL     OW28987   3.343   6.266   2.583
 9363SOL    HW128988   3.321   6.357   2.548
 9363SOL    HW228989   3.297   6.252   2.671
 9364SOL     OW28990   4.466   3.150   0.304
 9364SOL    HW128991   4.481   3.057   0.339
 9364SOL    HW228992   4.484   3.151   0.205
 9365SOL     OW28993   2.362   2.008   4.922
 9365SOL    HW128994   2.454   1.976   4.901
 9365SOL    HW228995   2.367   2.095   4.970
 9366SOL     OW28996   2.680   1.597   0.124
 9366SOL    HW128997   2.721   1.535   0.056
 9366SOL    HW228998   2.669   1.688   0.084
 9367SOL     OW28999   6.495   5.871   2.762
 9367SOL    HW129000   6.561   5.933   2.805
 9367SOL    HW229001   6.483   5.791   2.819
 9368SOL     OW29002   2.899   1.823   1.848
 9368SOL    HW129003   2.914   1.853   1.754
 9368SOL    HW229004   2.867   1.901   1.903
 9369SOL     OW29005   0.169   2.310   4.768
 9369SOL    HW129006   0.134   2.241   4.831
 9369SOL    HW229007   0.092   2.358   4.725
 9370SOL     OW29008   6.133   0.520   2.678
 9370SOL    HW129009   6.119   0.561   2.768
 9370SOL    HW229010   6.148   0.593   2.611
 9371SOL     OW29011   0.329   6.280   0.506
 9371SOL    HW129012   0.392   6.204   0.485
 9371SOL    HW229013   0.372   6.341   0.572
 9372SOL     OW29014   5.959   6.703   4.030
 9372SOL    HW129015   5.896   6.704   4.108
 9372SOL    HW229016   5.920   6.756   3.954
 9373SOL     OW29017   3.955   1.757   3.059
 9373SOL    HW129018   3.860   1.778   3.035
 9373SOL    HW229019   4.012   1.838   3.044
 9374SOL     OW29020   5.314   2.892   0.436
 9374SOL    HW129021   5.307   2.842   0.523
 9374SOL    HW229022   5.224   2.925   0.410
 9375SOL     OW29023   0.609   1.361   3.039
 9375SOL    HW129024   0.573   1.348   2.947
 9375SOL    HW229025   0.533   1.370   3.104
 9376SOL     OW29026   2.646   4.108   0.528
 9376SOL    HW129027   2.720   4.176   0.528
 9376SOL    HW229028   2.606   4.103   0.619
 9377SOL     OW29029   6.355   5.729   3.427
 9377SOL    HW129030   6.452   5.710   3.443
 9377SOL    HW229031   6.338   5.827   3.440
 9378SOL     OW29032   2.073   0.059   0.108
 9378SOL    HW129033   1.997   0.008   0.148
 9378SOL    HW229034   2.104   0.012   0.025
 9379SOL     OW29035   4.907   5.203   3.752
 9379SOL    HW129036   4.866   5.292   3.770
 9379SOL    HW229037   4.908   5.149   3.836
 9380SOL     OW29038   6.576   6.749   5.801
 9380SOL    HW129039   6.600   6.752   5.898
 9380SOL    HW229040   6.537   6.837   5.773
 9381SOL     OW29041   2.511   2.185   5.826
 9381SOL    HW129042   2.558   2.273   5.832
 9381SOL    HW229043   2.473   2.174   5.734
 9382SOL     OW29044   4.067   1.571   2.334
 9382SOL    HW129045   4.166   1.567   2.324
 9382SOL    HW229046   4.024   1.549   2.246
 9383SOL     OW29047   3.959   6.422   4.173
 9383SOL    HW129048   3.862   6.446   4.175
 9383SOL    HW229049   3.985   6.397   4.080
 9384SOL     OW29050   5.015   6.423   2.411
 9384SOL    HW129051   4.949   6.367   2.361
 9384SOL    HW229052   5.025   6.511   2.366
 9385SOL     OW29053   4.264   0.691   3.527
 9385SOL    HW129054   4.228   0.762   3.467
 9385SOL    HW229055   4.350   0.722   3.567
 9386SOL     OW29056   2.931   6.555   5.737
 9386SOL    HW129057   2.891   6.581   5.650
 9386SOL    HW229058   2.878   6.480   5.778
 9387SOL     OW29059   3.044   6.603   1.495
 9387SOL    HW129060   3.084   6.649   1.575
 9387SOL    HW229061   2.972   6.540   1.526
 9388SOL     OW29062   0.094   0.556   2.692
 9388SOL    HW129063   0.084   0.600   2.782
 9388SOL    HW229064   0.074   0.459   2.701
 9389SOL     OW29065   2.388   1.060   5.668
 9389SOL    HW129066   2.371   0.976   5.617
 9389SOL    HW229067   2.381   1.042   5.766
 9390SOL     OW29068   3.438   5.532   2.531
 9390SOL    HW129069   3.433   5.525   2.630
 9390SOL    HW229070   3.418   5.625   2.503
 9391SOL     OW29071   1.143   1.761   5.729
 9391SOL    HW129072   1.135   1.832   5.799
 9391SOL    HW229073   1.052   1.732   5.699
 9392SOL     OW29074   1.563   6.605   4.659
 9392SOL    HW129075   1.548   6.618   4.561
 9392SOL    HW229076   1.483   6.562   4.700
 9393SOL     OW29077   3.619   2.160   5.181
 9393SOL    HW129078   3.593   2.196   5.271
 9393SOL    HW229079   3.537   2.147   5.125
 9394SOL     OW29080   6.703   2.931   2.932
 9394SOL    HW129081   6.748   2.842   2.946
 9394SOL    HW229082   6.614   2.917   2.889
 9395SOL     OW29083   2.762   3.316   0.750
 9395SOL    HW129084   2.742   3.220   0.767
 9395SOL    HW229085   2.690   3.356   0.693
 9396SOL     OW29086   6.239   6.992   5.824
 9396SOL    HW129087   6.266   6.989   5.920
 9396SOL    HW229088   6.169   0.036   5.811
 9397SOL     OW29089   2.211   0.199   0.278
 9397SOL    HW129090   2.155   0.176   0.199
 9397SOL    HW229091   2.287   0.257   0.250
 9398SOL     OW29092   2.915   1.323   6.683
 9398SOL    HW129093   2.917   1.391   6.610
 9398SOL    HW229094   3.007   1.289   6.701
 9399SOL     OW29095   6.291   1.470   6.194
 9399SOL    HW129096   6.388   1.467   6.220
 9399SOL    HW229097   6.242   1.528   6.260
 9400SOL     OW29098   5.225   3.400   1.905
 9400SOL    HW129099   5.275   3.486   1.918
 9400SOL    HW229100   5.287   3.323   1.917
 9401SOL     OW29101   2.900   6.127   3.697
 9401SOL    HW129102   2.868   6.081   3.780
 9401SOL    HW229103   2.977   6.187   3.720
 9402SOL     OW29104   2.550   5.021   6.489
 9402SOL    HW129105   2.604   4.954   6.438
 9402SOL    HW229106   2.472   4.975   6.531
 9403SOL     OW29107   5.358   1.459   3.650
 9403SOL    HW129108   5.316   1.550   3.644
 9403SOL    HW229109   5.356   1.415   3.560
 9404SOL     OW29110   0.780   5.158   6.983
 9404SOL    HW129111   0.785   5.107   0.043
 9404SOL    HW229112   0.803   5.254   7.001
 9405SOL     OW29113   6.118   6.731   1.543
 9405SOL    HW129114   6.096   6.798   1.614
 9405SOL    HW229115   6.112   6.775   1.454
 9406SOL     OW29116   7.020   2.081   5.363
 9406SOL    HW129117   0.040   2.118   5.282
 9406SOL    HW229118   0.062   2.059   5.433
 9407SOL     OW29119   3.346   5.951   3.489
 9407SOL    HW129120   3.341   5.879   3.559
 9407SOL    HW229121   3.436   5.995   3.491
 9408SOL     OW29122   3.775   1.952   6.993
 9408SOL    HW129123   3.743   1.890   0.038
 9408SOL    HW229124   3.872   1.935   6.974
 9409SOL     OW29125   5.876   3.459   3.804
 9409SOL    HW129126   5.946   3.441   3.736
 9409SOL    HW229127   5.909   3.432   3.894
 9410SOL     OW29128   4.494   6.284   2.244
 9410SOL    HW129129   4.450   6.195   2.238
 9410SOL    HW229130   4.474   6.337   2.161
 9411SOL     OW29131   4.591   6.062   0.671
 9411SOL    HW129132   4.581   6.003   0.591
 9411SOL    HW229133   4.676   6.114   0.664
 9412SOL     OW29134   0.399   2.795   0.896
 9412SOL    HW129135   0.371   2.837   0.982
 9412SOL    HW229136   0.482   2.741   0.910
 9413SOL     OW29137   4.369   5.882   5.273
 9413SOL    HW129138   4.441   5.918   5.214
 9413SOL    HW229139   4.411   5.832   5.349
 9414SOL     OW29140   3.108   1.388   2.833
 9414SOL    HW129141   3.151   1.365   2.746
 9414SOL    HW229142   3.166   1.355   2.908
 9415SOL     OW29143   1.849   6.169   2.645
 9415SOL    HW129144   1.763   6.206   2.680
 9415SOL    HW229145   1.832   6.118   2.561
 9416SOL     OW29146   1.366   1.691   1.942
 9416SOL    HW129147   1.360   1.597   1.908
 9416SOL    HW229148   1.462   1.715   1.955
 9417SOL     OW29149   2.259   5.789   5.595
 9417SOL    HW129150   2.190   5.772   5.524
 9417SOL    HW229151   2.328   5.852   5.560
 9418SOL     OW29152   2.331   5.578   2.006
 9418SOL    HW129153   2.395   5.638   1.958
 9418SOL    HW229154   2.293   5.625   2.086
 9419SOL     OW29155   2.786   6.705   5.202
 9419SOL    HW129156   2.840   6.739   5.125
 9419SOL    HW229157   2.689   6.724   5.185
 9420SOL     OW29158   6.579   1.406   4.961
 9420SOL    HW129159   6.589   1.463   5.042
 9420SOL    HW229160   6.593   1.310   4.985
 9421SOL     OW29161   1.394   4.250   5.504
 9421SOL    HW129162   1.439   4.163   5.480
 9421SOL    HW229163   1.455   4.325   5.482
 9422SOL     OW29164   5.517   0.294   2.102
 9422SOL    HW129165   5.509   0.213   2.044
 9422SOL    HW229166   5.491   0.270   2.196
 9423SOL     OW29167   4.236   1.080   3.586
 9423SOL    HW129168   4.230   1.036   3.496
 9423SOL    HW229169   4.145   1.109   3.615
 9424SOL     OW29170   4.366   0.501   5.224
 9424SOL    HW129171   4.391   0.407   5.199
 9424SOL    HW229172   4.280   0.500   5.275
 9425SOL     OW29173   0.593   3.912   5.310
 9425SOL    HW129174   0.620   3.934   5.404
 9425SOL    HW229175   0.595   3.813   5.297
 9426SOL     OW29176   2.915   0.507   6.919
 9426SOL    HW129177   2.919   0.415   6.880
 9426SOL    HW229178   2.824   0.547   6.902
 9427SOL     OW29179   2.958   5.366   5.078
 9427SOL    HW129180   2.950   5.420   4.995
 9427SOL    HW229181   3.035   5.303   5.070
 9428SOL     OW29182   5.398   0.631   2.943
 9428SOL    HW129183   5.367   0.725   2.959
 9428SOL    HW229184   5.488   0.618   2.984
 9429SOL     OW29185   1.258   4.279   1.871
 9429SOL    HW129186   1.283   4.267   1.968
 9429SOL    HW229187   1.219   4.195   1.836
 9430SOL     OW29188   6.690   6.487   1.749
 9430SOL    HW129189   6.789   6.494   1.757
 9430SOL    HW229190   6.652   6.454   1.835
 9431SOL     OW29191   6.770   3.536   6.900
 9431SOL    HW129192   6.858   3.583   6.893
 9431SOL    HW229193   6.746   3.496   6.812
 9432SOL     OW29194   5.804   0.195   3.248
 9432SOL    HW129195   5.889   0.242   3.222
 9432SOL    HW229196   5.813   0.160   3.341
 9433SOL     OW29197   3.398   4.793   5.197
 9433SOL    HW129198   3.412   4.719   5.262
 9433SOL    HW229199   3.312   4.840   5.219
 9434SOL     OW29200   5.681   3.953   2.984
 9434SOL    HW129201   5.713   3.865   3.019
 9434SOL    HW229202   5.674   3.949   2.884
 9435SOL     OW29203   1.824   1.688   4.120
 9435SOL    HW129204   1.749   1.713   4.180
 9435SOL    HW229205   1.911   1.700   4.168
 9436SOL     OW29206   2.137   4.102   0.611
 9436SOL    HW129207   2.109   4.009   0.638
 9436SOL    HW229208   2.059   4.149   0.570
 9437SOL     OW29209   1.090   5.148   2.989
 9437SOL    HW129210   1.099   5.152   3.089
 9437SOL    HW229211   1.014   5.206   2.960
 9438SOL     OW29212   0.475   6.702   2.277
 9438SOL    HW129213   0.436   6.642   2.347
 9438SOL    HW229214   0.530   6.773   2.321
 9439SOL     OW29215   6.887   3.740   1.957
 9439SOL    HW129216   6.943   3.676   2.010
 9439SOL    HW229217   6.887   3.714   1.861
 9440SOL     OW29218   5.060   6.447   5.067
 9440SOL    HW129219   5.064   6.353   5.101
 9440SOL    HW229220   5.039   6.446   4.969
 9441SOL     OW29221   1.586   5.002   4.890
 9441SOL    HW129222   1.603   4.925   4.828
 9441SOL    HW229223   1.664   5.013   4.952
 9442SOL     OW29224   6.833   2.366   0.021
 9442SOL    HW129225   6.908   2.397   0.079
 9442SOL    HW229226   6.777   2.301   0.071
 9443SOL     OW29227   1.857   4.638   1.002
 9443SOL    HW129228   1.821   4.594   0.919
 9443SOL    HW229229   1.832   4.582   1.081
 9444SOL     OW29230   0.710   2.874   0.254
 9444SOL    HW129231   0.626   2.928   0.246
 9444SOL    HW229232   0.773   2.919   0.317
 9445SOL     OW29233   5.191   3.739   2.270
 9445SOL    HW129234   5.157   3.658   2.223
 9445SOL    HW229235   5.291   3.732   2.280
 9446SOL     OW29236   6.678   6.313   2.349
 9446SOL    HW129237   6.651   6.221   2.320
 9446SOL    HW229238   6.772   6.312   2.381
 9447SOL     OW29239   4.952   3.862   2.166
 9447SOL    HW129240   4.922   3.942   2.114
 9447SOL    HW229241   5.051   3.868   2.183
 9448SOL     OW29242   5.653   6.423   6.410
 9448SOL    HW129243   5.572   6.460   6.456
 9448SOL    HW229244   5.672   6.332   6.446
 9449SOL     OW29245   6.253   5.632   5.370
 9449SOL    HW129246   6.332   5.579   5.401
 9449SOL    HW229247   6.275   5.729   5.372
 9450SOL     OW29248   1.996   5.076   4.304
 9450SOL    HW129249   2.044   4.991   4.284
 9450SOL    HW229250   2.039   5.121   4.383
 9451SOL     OW29251   4.933   5.512   6.746
 9451SOL    HW129252   5.004   5.579   6.726
 9451SOL    HW229253   4.976   5.427   6.778
 9452SOL     OW29254   2.475   3.592   0.867
 9452SOL    HW129255   2.447   3.581   0.962
 9452SOL    HW229256   2.395   3.610   0.811
 9453SOL     OW29257   2.099   4.930   3.218
 9453SOL    HW129258   2.147   4.854   3.175
 9453SOL    HW229259   2.004   4.931   3.187
 9454SOL     OW29260   1.768   4.382   6.215
 9454SOL    HW129261   1.790   4.287   6.191
 9454SOL    HW229262   1.786   4.396   6.313
 9455SOL     OW29263   3.299   1.172   2.920
 9455SOL    HW129264   3.337   1.171   3.013
 9455SOL    HW229265   3.360   1.225   2.860
 9456SOL     OW29266   0.874   3.793   0.879
 9456SOL    HW129267   0.905   3.749   0.963
 9456SOL    HW229268   0.796   3.743   0.842
 9457SOL     OW29269   1.985   3.408   6.869
 9457SOL    HW129270   1.922   3.399   6.792
 9457SOL    HW229271   2.003   3.504   6.886
 9458SOL     OW29272   6.800   4.979   6.154
 9458SOL    HW129273   6.842   5.043   6.089
 9458SOL    HW229274   6.838   4.888   6.140
 9459SOL     OW29275   6.007   5.217   1.786
 9459SOL    HW129276   6.107   5.214   1.793
 9459SOL    HW229277   5.976   5.312   1.781
 9460SOL     OW29278   0.610   2.339   5.077
 9460SOL    HW129279   0.644   2.338   4.983
 9460SOL    HW229280   0.522   2.387   5.080
 9461SOL     OW29281   0.630   1.248   3.310
 9461SOL    HW129282   0.646   1.343   3.281
 9461SOL    HW229283   0.550   1.212   3.262
 9462SOL     OW29284   1.467   3.017   2.832
 9462SOL    HW129285   1.551   3.070   2.840
 9462SOL    HW229286   1.390   3.071   2.865
 9463SOL     OW29287   6.538   1.074   0.885
 9463SOL    HW129288   6.498   1.152   0.933
 9463SOL    HW229289   6.612   1.107   0.825
 9464SOL     OW29290   5.922   6.772   6.595
 9464SOL    HW129291   5.913   6.772   6.695
 9464SOL    HW229292   6.006   6.821   6.570
 9465SOL     OW29293   6.545   0.880   3.587
 9465SOL    HW129294   6.621   0.943   3.573
 9465SOL    HW229295   6.562   0.822   3.667
 9466SOL     OW29296   2.475   3.093   6.090
 9466SOL    HW129297   2.505   3.100   5.995
 9466SOL    HW229298   2.510   3.009   6.130
 9467SOL     OW29299   1.953   2.336   2.071
 9467SOL    HW129300   1.896   2.280   2.011
 9467SOL    HW229301   2.049   2.313   2.057
 9468SOL     OW29302   6.484   2.887   5.997
 9468SOL    HW129303   6.454   2.975   5.959
 9468SOL    HW229304   6.423   2.860   6.071
 9469SOL     OW29305   6.310   5.841   2.151
 9469SOL    HW129306   6.379   5.786   2.199
 9469SOL    HW229307   6.310   5.934   2.189
 9470SOL     OW29308   4.904   3.279   7.013
 9470SOL    HW129309   4.944   3.348   0.047
 9470SOL    HW229310   4.853   3.323   6.939
 9471SOL     OW29311   6.644   2.756   5.795
 9471SOL    HW129312   6.568   2.802   5.841
 9471SOL    HW229313   6.671   2.808   5.714
 9472SOL     OW29314   6.126   4.474   4.244
 9472SOL    HW129315   6.203   4.537   4.233
 9472SOL    HW229316   6.072   4.473   4.161
 9473SOL     OW29317   3.296   6.205   6.347
 9473SOL    HW129318   3.357   6.276   6.313
 9473SOL    HW229319   3.310   6.193   6.445
 9474SOL     OW29320   5.521   4.314   2.068
 9474SOL    HW129321   5.515   4.410   2.095
 9474SOL    HW229322   5.457   4.296   1.993
 9475SOL     OW29323   3.325   3.436   1.161
 9475SOL    HW129324   3.369   3.352   1.192
 9475SOL    HW229325   3.324   3.438   1.061
 9476SOL     OW29326   4.179   3.512   5.465
 9476SOL    HW129327   4.215   3.581   5.528
 9476SOL    HW229328   4.235   3.429   5.471
 9477SOL     OW29329   1.263   2.417   0.832
 9477SOL    HW129330   1.177   2.392   0.788
 9477SOL    HW229331   1.308   2.334   0.867
 9478SOL     OW29332   5.083   4.002   5.328
 9478SOL    HW129333   5.078   4.080   5.391
 9478SOL    HW229334   5.097   4.034   5.235
 9479SOL     OW29335   5.608   5.345   6.426
 9479SOL    HW129336   5.660   5.413   6.476
 9479SOL    HW229337   5.586   5.380   6.335
 9480SOL     OW29338   4.480   4.186   6.803
 9480SOL    HW129339   4.562   4.166   6.750
 9480SOL    HW229340   4.461   4.110   6.865
 9481SOL     OW29341   0.116   3.957   1.682
 9481SOL    HW129342   0.189   3.931   1.745
 9481SOL    HW229343   0.156   3.992   1.597
 9482SOL     OW29344   4.832   0.784   3.099
 9482SOL    HW129345   4.890   0.857   3.064
 9482SOL    HW229346   4.886   0.726   3.160
 9483SOL     OW29347   1.587   1.738   0.900
 9483SOL    HW129348   1.503   1.776   0.940
 9483SOL    HW229349   1.614   1.794   0.821
 9484SOL     OW29350   5.919   1.086   3.704
 9484SOL    HW129351   5.832   1.043   3.727
 9484SOL    HW229352   5.946   1.060   3.612
 9485SOL     OW29353   1.201   0.898   2.074
 9485SOL    HW129354   1.246   0.986   2.061
 9485SOL    HW229355   1.269   0.824   2.066
 9486SOL     OW29356   2.151   5.939   0.565
 9486SOL    HW129357   2.063   5.902   0.535
 9486SOL    HW229358   2.223   5.872   0.547
 9487SOL     OW29359   3.718   4.071   3.660
 9487SOL    HW129360   3.789   4.007   3.692
 9487SOL    HW229361   3.658   4.095   3.736
 9488SOL     OW29362   1.553   6.097   1.119
 9488SOL    HW129363   1.475   6.159   1.125
 9488SOL    HW229364   1.635   6.148   1.095
 9489SOL     OW29365   3.787   4.383   1.371
 9489SOL    HW129366   3.698   4.404   1.332
 9489SOL    HW229367   3.825   4.302   1.328
 9490SOL     OW29368   5.106   0.566   0.956
 9490SOL    HW129369   5.168   0.502   0.911
 9490SOL    HW229370   5.014   0.527   0.960
 9491SOL     OW29371   6.252   5.079   4.078
 9491SOL    HW129372   6.257   5.003   4.143
 9491SOL    HW229373   6.162   5.079   4.035
 9492SOL     OW29374   3.212   3.975   2.114
 9492SOL    HW129375   3.230   4.072   2.128
 9492SOL    HW229376   3.181   3.959   2.021
 9493SOL     OW29377   4.917   5.309   3.191
 9493SOL    HW129378   4.939   5.237   3.256
 9493SOL    HW229379   5.001   5.344   3.150
 9494SOL     OW29380   5.164   3.297   0.355
 9494SOL    HW129381   5.182   3.199   0.361
 9494SOL    HW229382   5.126   3.328   0.442
 9495SOL     OW29383   6.280   2.288   3.987
 9495SOL    HW129384   6.326   2.208   3.947
 9495SOL    HW229385   6.197   2.308   3.936
 9496SOL     OW29386   5.553   3.851   6.516
 9496SOL    HW129387   5.625   3.784   6.502
 9496SOL    HW229388   5.593   3.942   6.521
 9497SOL     OW29389   5.133   4.546   1.263
 9497SOL    HW129390   5.071   4.544   1.185
 9497SOL    HW229391   5.212   4.604   1.241
 9498SOL     OW29392   3.685   6.783   5.302
 9498SOL    HW129393   3.597   6.802   5.347
 9498SOL    HW229394   3.725   6.869   5.271
 9499SOL     OW29395   2.885   3.557   5.591
 9499SOL    HW129396   2.787   3.567   5.608
 9499SOL    HW229397   2.906   3.585   5.498
 9500SOL     OW29398   4.481   6.182   1.643
 9500SOL    HW129399   4.457   6.272   1.680
 9500SOL    HW229400   4.405   6.119   1.655
 9501SOL     OW29401   3.469   1.874   4.285
 9501SOL    HW129402   3.505   1.965   4.263
 9501SOL    HW229403   3.484   1.855   4.382
 9502SOL     OW29404   6.702   2.642   4.807
 9502SOL    HW129405   6.716   2.556   4.856
 9502SOL    HW229406   6.632   2.696   4.853
 9503SOL     OW29407   0.704   0.422   1.764
 9503SOL    HW129408   0.604   0.419   1.768
 9503SOL    HW229409   0.741   0.401   1.855
 9504SOL     OW29410   0.144   2.742   0.507
 9504SOL    HW129411   0.169   2.710   0.598
 9504SOL    HW229412   0.072   2.684   0.469
 9505SOL     OW29413   6.025   3.790   3.032
 9505SOL    HW129414   6.055   3.696   3.046
 9505SOL    HW229415   6.080   3.852   3.088
 9506SOL     OW29416   0.214   3.169   6.757
 9506SOL    HW129417   0.114   3.173   6.752
 9506SOL    HW229418   0.253   3.185   6.666
 9507SOL     OW29419   1.457   0.959   4.258
 9507SOL    HW129420   1.381   0.908   4.298
 9507SOL    HW229421   1.446   1.056   4.278
 9508SOL     OW29422   5.566   1.907   0.601
 9508SOL    HW129423   5.624   1.868   0.530
 9508SOL    HW229424   5.609   1.895   0.690
 9509SOL     OW29425   1.545   6.595   5.144
 9509SOL    HW129426   1.582   6.626   5.056
 9509SOL    HW229427   1.620   6.577   5.207
 9510SOL     OW29428   6.977   4.058   2.167
 9510SOL    HW129429   6.987   4.157   2.170
 9510SOL    HW229430   6.909   4.033   2.098
 9511SOL     OW29431   0.601   2.344   0.300
 9511SOL    HW129432   0.511   2.386   0.286
 9511SOL    HW229433   0.669   2.416   0.315
 9512SOL     OW29434   0.105   2.244   3.874
 9512SOL    HW129435   0.177   2.220   3.808
 9512SOL    HW229436   0.142   2.241   3.967
 9513SOL     OW29437   2.162   3.997   4.667
 9513SOL    HW129438   2.159   4.068   4.596
 9513SOL    HW229439   2.196   4.037   4.752
 9514SOL     OW29440   2.096   3.644   6.499
 9514SOL    HW129441   2.178   3.612   6.547
 9514SOL    HW229442   2.121   3.716   6.434
 9515SOL     OW29443   1.164   6.207   6.917
 9515SOL    HW129444   1.154   6.307   6.923
 9515SOL    HW229445   1.088   6.169   6.865
 9516SOL     OW29446   4.918   3.430   4.269
 9516SOL    HW129447   4.874   3.455   4.183
 9516SOL    HW229448   4.919   3.330   4.278
 9517SOL     OW29449   0.932   5.316   1.292
 9517SOL    HW129450   0.996   5.279   1.225
 9517SOL    HW229451   0.963   5.406   1.321
 9518SOL     OW29452   0.949   2.861   5.741
 9518SOL    HW129453   0.962   2.778   5.686
 9518SOL    HW229454   0.979   2.940   5.688
 9519SOL     OW29455   2.922   3.473   3.005
 9519SOL    HW129456   2.926   3.495   2.907
 9519SOL    HW229457   2.931   3.374   3.017
 9520SOL     OW29458   6.675   1.027   4.996
 9520SOL    HW129459   6.676   1.045   4.897
 9520SOL    HW229460   6.611   0.953   5.015
 9521SOL     OW29461   3.432   5.892   1.858
 9521SOL    HW129462   3.341   5.934   1.850
 9521SOL    HW229463   3.502   5.959   1.835
 9522SOL     OW29464   4.068   5.081   2.105
 9522SOL    HW129465   4.099   5.150   2.171
 9522SOL    HW229466   4.097   4.990   2.134
 9523SOL     OW29467   2.536   5.442   4.659
 9523SOL    HW129468   2.539   5.473   4.754
 9523SOL    HW229469   2.589   5.504   4.602
 9524SOL     OW29470   1.107   4.014   1.014
 9524SOL    HW129471   1.194   3.970   1.036
 9524SOL    HW229472   1.080   3.990   0.920
 9525SOL     OW29473   1.644   2.339   5.733
 9525SOL    HW129474   1.714   2.400   5.693
 9525SOL    HW229475   1.553   2.373   5.710
 9526SOL     OW29476   5.513   5.111   6.681
 9526SOL    HW129477   5.591   5.157   6.723
 9526SOL    HW229478   5.478   5.041   6.743
 9527SOL     OW29479   2.890   6.903   3.911
 9527SOL    HW129480   2.951   6.839   3.958
 9527SOL    HW229481   2.804   6.911   3.962
 9528SOL     OW29482   6.433   0.849   0.752
 9528SOL    HW129483   6.367   0.906   0.704
 9528SOL    HW229484   6.479   0.903   0.822
 9529SOL     OW29485   6.088   2.956   1.726
 9529SOL    HW129486   6.134   3.014   1.659
 9529SOL    HW229487   6.000   2.925   1.690
 9530SOL     OW29488   1.156   5.564   4.748
 9530SOL    HW129489   1.059   5.567   4.773
 9530SOL    HW229490   1.167   5.510   4.664
 9531SOL     OW29491   4.309   5.021   3.618
 9531SOL    HW129492   4.389   5.032   3.676
 9531SOL    HW229493   4.226   5.037   3.671
 9532SOL     OW29494   6.262   4.883   1.780
 9532SOL    HW129495   6.253   4.978   1.809
 9532SOL    HW229496   6.187   4.860   1.717
 9533SOL     OW29497   1.189   5.398   4.529
 9533SOL    HW129498   1.108   5.343   4.512
 9533SOL    HW229499   1.264   5.366   4.473
 9534SOL     OW29500   6.113   4.875   4.387
 9534SOL    HW129501   6.200   4.843   4.349
 9534SOL    HW229502   6.121   4.970   4.414
 9535SOL     OW29503   1.931   1.543   5.943
 9535SOL    HW129504   1.897   1.594   5.865
 9535SOL    HW229505   2.004   1.481   5.913
 9536SOL     OW29506   3.599   3.331   5.067
 9536SOL    HW129507   3.530   3.288   5.009
 9536SOL    HW229508   3.556   3.405   5.120
 9537SOL     OW29509   2.127   1.991   3.952
 9537SOL    HW129510   2.100   2.052   4.027
 9537SOL    HW229511   2.219   1.955   3.970
 9538SOL     OW29512   3.843   0.848   4.680
 9538SOL    HW129513   3.897   0.819   4.601
 9538SOL    HW229514   3.902   0.857   4.760
 9539SOL     OW29515   3.432   2.876   3.974
 9539SOL    HW129516   3.334   2.875   3.950
 9539SOL    HW229517   3.441   2.869   4.073
 9540SOL     OW29518   4.929   5.140   4.021
 9540SOL    HW129519   4.851   5.201   4.019
 9540SOL    HW229520   4.923   5.079   4.100
 9541SOL     OW29521   0.953   0.695   5.549
 9541SOL    HW129522   0.940   0.643   5.465
 9541SOL    HW229523   0.865   0.732   5.579
 9542SOL     OW29524   5.697   4.637   4.257
 9542SOL    HW129525   5.681   4.727   4.216
 9542SOL    HW229526   5.697   4.646   4.356
 9543SOL     OW29527   3.338   6.792   6.143
 9543SOL    HW129528   3.351   6.809   6.241
 9543SOL    HW229529   3.304   6.699   6.129
 9544SOL     OW29530   4.861   3.849   3.938
 9544SOL    HW129531   4.850   3.884   4.031
 9544SOL    HW229532   4.900   3.921   3.880
 9545SOL     OW29533   0.948   4.690   1.946
 9545SOL    HW129534   0.933   4.771   1.890
 9545SOL    HW229535   0.861   4.657   1.982
 9546SOL     OW29536   3.185   1.672   5.742
 9546SOL    HW129537   3.203   1.642   5.835
 9546SOL    HW229538   3.129   1.754   5.743
 9547SOL     OW29539   3.675   5.719   4.388
 9547SOL    HW129540   3.744   5.791   4.391
 9547SOL    HW229541   3.712   5.635   4.428
 9548SOL     OW29542   0.795   5.523   5.555
 9548SOL    HW129543   0.763   5.431   5.581
 9548SOL    HW229544   0.877   5.545   5.607
 9549SOL     OW29545   4.006   1.262   2.355
 9549SOL    HW129546   3.914   1.301   2.355
 9549SOL    HW229547   4.063   1.309   2.288
 9550SOL     OW29548   6.153   2.459   1.391
 9550SOL    HW129549   6.246   2.490   1.408
 9550SOL    HW229550   6.111   2.517   1.320
 9551SOL     OW29551   5.879   2.780   5.837
 9551SOL    HW129552   5.939   2.836   5.894
 9551SOL    HW229553   5.785   2.785   5.873
 9552SOL     OW29554   2.467   0.628   6.753
 9552SOL    HW129555   2.564   0.605   6.752
 9552SOL    HW229556   2.457   0.726   6.770
 9553SOL     OW29557   5.150   1.823   0.466
 9553SOL    HW129558   5.246   1.852   0.465
 9553SOL    HW229559   5.137   1.755   0.538
 9554SOL     OW29560   2.456   6.552   3.867
 9554SOL    HW129561   2.435   6.554   3.965
 9554SOL    HW229562   2.490   6.642   3.839
 9555SOL     OW29563   6.736   1.735   3.936
 9555SOL    HW129564   6.781   1.778   3.858
 9555SOL    HW229565   6.704   1.644   3.909
 9556SOL     OW29566   1.379   4.404   1.485
 9556SOL    HW129567   1.337   4.333   1.428
 9556SOL    HW229568   1.419   4.475   1.426
 9557SOL     OW29569   4.774   0.095   1.733
 9557SOL    HW129570   4.807   0.108   1.826
 9557SOL    HW229571   4.836   0.140   1.669
 9558SOL     OW29572   5.614   6.295   5.649
 9558SOL    HW129573   5.516   6.285   5.635
 9558SOL    HW229574   5.632   6.366   5.716
 9559SOL     OW29575   1.545   3.752   6.842
 9559SOL    HW129576   1.640   3.721   6.842
 9559SOL    HW229577   1.500   3.721   6.758
 9560SOL     OW29578   3.364   0.830   2.300
 9560SOL    HW129579   3.411   0.811   2.214
 9560SOL    HW229580   3.321   0.920   2.296
 9561SOL     OW29581   0.603   0.038   1.483
 9561SOL    HW129582   0.617   0.038   1.582
 9561SOL    HW229583   0.595   0.133   1.450
 9562SOL     OW29584   3.374   5.772   4.431
 9562SOL    HW129585   3.341   5.767   4.337
 9562SOL    HW229586   3.473   5.760   4.432
 9563SOL     OW29587   0.303   6.644   0.673
 9563SOL    HW129588   0.332   6.675   0.583
 9563SOL    HW229589   0.346   6.556   0.694
 9564SOL     OW29590   1.366   1.185   1.245
 9564SOL    HW129591   1.300   1.243   1.196
 9564SOL    HW229592   1.428   1.242   1.298
 9565SOL     OW29593   2.766   1.429   4.453
 9565SOL    HW129594   2.699   1.496   4.486
 9565SOL    HW229595   2.783   1.444   4.356
 9566SOL     OW29596   2.598   6.067   0.964
 9566SOL    HW129597   2.585   5.982   0.912
 9566SOL    HW229598   2.548   6.141   0.919
 9567SOL     OW29599   6.125   4.456   0.304
 9567SOL    HW129600   6.202   4.451   0.240
 9567SOL    HW229601   6.160   4.461   0.397
 9568SOL     OW29602   3.585   1.204   0.607
 9568SOL    HW129603   3.677   1.227   0.639
 9568SOL    HW229604   3.545   1.282   0.560
 9569SOL     OW29605   6.930   0.713   2.513
 9569SOL    HW129606   6.850   0.726   2.571
 9569SOL    HW229607   7.008   0.683   2.568
 9570SOL     OW29608   0.650   2.661   0.921
 9570SOL    HW129609   0.720   2.625   0.860
 9570SOL    HW229610   0.686   2.739   0.972
 9571SOL     OW29611   2.105   2.736   6.108
 9571SOL    HW129612   2.110   2.833   6.132
 9571SOL    HW229613   2.023   2.720   6.052
 9572SOL     OW29614   2.215   4.059   3.070
 9572SOL    HW129615   2.183   3.977   3.118
 9572SOL    HW229616   2.253   4.032   2.981
 9573SOL     OW29617   6.475   0.841   5.639
 9573SOL    HW129618   6.517   0.826   5.728
 9573SOL    HW229619   6.376   0.852   5.650
 9574SOL     OW29620   3.869   3.031   2.062
 9574SOL    HW129621   3.896   3.070   2.150
 9574SOL    HW229622   3.950   3.022   2.003
 9575SOL     OW29623   5.770   0.356   2.829
 9575SOL    HW129624   5.786   0.437   2.886
 9575SOL    HW229625   5.682   0.315   2.854
 9576SOL     OW29626   1.872   1.814   0.146
 9576SOL    HW129627   1.802   1.753   0.110
 9576SOL    HW229628   1.836   1.863   0.225
 9577SOL     OW29629   6.887   5.579   0.015
 9577SOL    HW129630   6.810   5.531   6.999
 9577SOL    HW229631   6.903   5.543   0.107
 9578SOL     OW29632   1.220   2.635   3.258
 9578SOL    HW129633   1.214   2.552   3.203
 9578SOL    HW229634   1.232   2.714   3.198
 9579SOL     OW29635   6.263   6.490   2.233
 9579SOL    HW129636   6.184   6.428   2.237
 9579SOL    HW229637   6.338   6.451   2.288
 9580SOL     OW29638   4.965   3.901   1.307
 9580SOL    HW129639   4.885   3.881   1.250
 9580SOL    HW229640   5.025   3.821   1.309
 9581SOL     OW29641   0.413   0.616   6.250
 9581SOL    HW129642   0.425   0.548   6.323
 9581SOL    HW229643   0.501   0.659   6.230
 9582SOL     OW29644   3.779   5.538   4.644
 9582SOL    HW129645   3.856   5.484   4.610
 9582SOL    HW229646   3.735   5.489   4.720
 9583SOL     OW29647   3.216   4.648   1.416
 9583SOL    HW129648   3.157   4.635   1.496
 9583SOL    HW229649   3.208   4.743   1.384
 9584SOL     OW29650   1.841   5.015   5.660
 9584SOL    HW129651   1.803   4.966   5.582
 9584SOL    HW229652   1.800   4.981   5.745
 9585SOL     OW29653   5.283   6.648   1.886
 9585SOL    HW129654   5.241   6.721   1.940
 9585SOL    HW229655   5.303   6.570   1.945
 9586SOL     OW29656   4.376   5.298   2.044
 9586SOL    HW129657   4.415   5.229   2.106
 9586SOL    HW229658   4.446   5.329   1.981
 9587SOL     OW29659   1.569   5.878   2.561
 9587SOL    HW129660   1.613   5.963   2.532
 9587SOL    HW229661   1.534   5.889   2.654
 9588SOL     OW29662   6.011   6.133   0.553
 9588SOL    HW129663   6.027   6.134   0.652
 9588SOL    HW229664   6.081   6.078   0.508
 9589SOL     OW29665   1.974   4.155   6.974
 9589SOL    HW129666   1.916   4.218   0.001
 9589SOL    HW229667   1.920   4.114   6.900
 9590SOL     OW29668   6.092   2.295   2.158
 9590SOL    HW129669   6.112   2.199   2.181
 9590SOL    HW229670   6.174   2.338   2.122
 9591SOL     OW29671   3.631   6.487   6.515
 9591SOL    HW129672   3.651   6.498   6.418
 9591SOL    HW229673   3.700   6.536   6.569
 9592SOL     OW29674   3.291   5.000   0.544
 9592SOL    HW129675   3.345   4.959   0.470
 9592SOL    HW229676   3.199   5.021   0.511
 9593SOL     OW29677   1.388   2.160   5.625
 9593SOL    HW129678   1.298   2.189   5.657
 9593SOL    HW229679   1.416   2.218   5.549
 9594SOL     OW29680   2.829   6.255   4.570
 9594SOL    HW129681   2.926   6.229   4.570
 9594SOL    HW229682   2.821   6.353   4.550
 9595SOL     OW29683   0.488   3.247   3.418
 9595SOL    HW129684   0.569   3.192   3.396
 9595SOL    HW229685   0.517   3.339   3.445
 9596SOL     OW29686   0.912   5.383   0.453
 9596SOL    HW129687   0.987   5.377   0.519
 9596SOL    HW229688   0.826   5.361   0.499
 9597SOL     OW29689   0.071   4.483   1.306
 9597SOL    HW129690   7.019   4.440   1.351
 9597SOL    HW229691   0.059   4.481   1.207
 9598SOL     OW29692   2.158   3.817   3.213
 9598SOL    HW129693   2.112   3.744   3.163
 9598SOL    HW229694   2.238   3.779   3.260
 9599SOL     OW29695   2.959   6.976   4.249
 9599SOL    HW129696   2.915   0.032   4.211
 9599SOL    HW229697   3.014   6.931   4.179
 9600SOL     OW29698   2.870   0.096   0.704
 9600SOL    HW129699   2.968   0.115   0.696
 9600SOL    HW229700   2.819   0.167   0.656
 9601SOL     OW29701   5.675   4.058   0.340
 9601SOL    HW129702   5.670   4.109   0.426
 9601SOL    HW229703   5.700   4.121   0.266
 9602SOL     OW29704   5.164   3.489   5.377
 9602SOL    HW129705   5.215   3.545   5.442
 9602SOL    HW229706   5.099   3.547   5.328
 9603SOL     OW29707   5.129   6.672   6.482
 9603SOL    HW129708   5.202   6.605   6.497
 9603SOL    HW229709   5.069   6.641   6.409
 9604SOL     OW29710   5.140   0.060   1.352
 9604SOL    HW129711   5.063   0.034   1.294
 9604SOL    HW229712   5.150   0.159   1.352
 9605SOL     OW29713   0.589   5.590   2.711
 9605SOL    HW129714   0.582   5.675   2.660
 9605SOL    HW229715   0.564   5.513   2.651
 9606SOL     OW29716   1.397   0.209   6.418
 9606SOL    HW129717   1.450   0.124   6.422
 9606SOL    HW229718   1.433   0.274   6.485
 9607SOL     OW29719   2.720   1.119   7.013
 9607SOL    HW129720   2.656   1.164   6.951
 9607SOL    HW229721   2.750   1.183   0.058
 9608SOL     OW29722   0.126   4.743   2.088
 9608SOL    HW129723   0.126   4.820   2.023
 9608SOL    HW229724   0.031   4.717   2.109
 9609SOL     OW29725   3.879   3.254   0.088
 9609SOL    HW129726   3.957   3.264   0.026
 9609SOL    HW229727   3.807   3.317   0.061
 9610SOL     OW29728   1.881   4.649   2.927
 9610SOL    HW129729   1.795   4.635   2.977
 9610SOL    HW229730   1.948   4.581   2.957
 9611SOL     OW29731   1.492   6.412   0.504
 9611SOL    HW129732   1.506   6.314   0.507
 9611SOL    HW229733   1.417   6.434   0.441
 9612SOL     OW29734   0.362   3.468   1.782
 9612SOL    HW129735   0.368   3.445   1.685
 9612SOL    HW229736   0.377   3.386   1.837
 9613SOL     OW29737   5.084   6.472   3.532
 9613SOL    HW129738   5.033   6.386   3.532
 9613SOL    HW229739   5.176   6.456   3.495
 9614SOL     OW29740   3.759   1.954   1.854
 9614SOL    HW129741   3.698   1.969   1.932
 9614SOL    HW229742   3.727   2.007   1.776
 9615SOL     OW29743   2.826   1.417   1.212
 9615SOL    HW129744   2.911   1.367   1.228
 9615SOL    HW229745   2.807   1.477   1.289
 9616SOL     OW29746   3.577   3.729   1.339
 9616SOL    HW129747   3.600   3.656   1.274
 9616SOL    HW229748   3.504   3.697   1.400
 9617SOL     OW29749   1.936   2.884   3.521
 9617SOL    HW129750   1.864   2.866   3.589
 9617SOL    HW229751   1.899   2.944   3.450
 9618SOL     OW29752   2.926   0.292   1.002
 9618SOL    HW129753   2.853   0.318   1.066
 9618SOL    HW229754   2.898   0.314   0.909
 9619SOL     OW29755   2.252   0.646   5.600
 9619SOL    HW129756   2.190   0.651   5.679
 9619SOL    HW229757   2.253   0.735   5.554
 9620SOL     OW29758   4.127   0.187   4.935
 9620SOL    HW129759   4.054   0.256   4.938
 9620SOL    HW229760   4.091   0.099   4.965
 9621SOL     OW29761   1.721   2.876   1.606
 9621SOL    HW129762   1.697   2.972   1.589
 9621SOL    HW229763   1.752   2.866   1.700
 9622SOL     OW29764   6.134   1.867   0.656
 9622SOL    HW129765   6.142   1.778   0.702
 9622SOL    HW229766   6.073   1.926   0.709
 9623SOL     OW29767   2.380   3.343   6.128
 9623SOL    HW129768   2.405   3.246   6.130
 9623SOL    HW229769   2.451   3.394   6.080
 9624SOL     OW29770   5.986   4.043   3.286
 9624SOL    HW129771   6.075   3.997   3.279
 9624SOL    HW229772   5.995   4.137   3.255
 9625SOL     OW29773   5.357   4.982   0.329
 9625SOL    HW129774   5.260   5.006   0.317
 9625SOL    HW229775   5.407   5.061   0.363
 9626SOL     OW29776   4.383   5.243   0.488
 9626SOL    HW129777   4.337   5.208   0.570
 9626SOL    HW229778   4.327   5.223   0.407
 9627SOL     OW29779   0.699   6.427   6.508
 9627SOL    HW129780   0.672   6.365   6.582
 9627SOL    HW229781   0.783   6.393   6.466
 9628SOL     OW29782   5.490   4.820   1.039
 9628SOL    HW129783   5.565   4.883   1.017
 9628SOL    HW229784   5.481   4.752   0.966
 9629SOL     OW29785   1.822   0.341   1.404
 9629SOL    HW129786   1.851   0.392   1.485
 9629SOL    HW229787   1.828   0.400   1.323
 9630SOL     OW29788   6.131   6.320   4.768
 9630SOL    HW129789   6.125   6.405   4.820
 9630SOL    HW229790   6.137   6.242   4.831
 9631SOL     OW29791   6.940   6.782   6.011
 9631SOL    HW129792   0.010   6.753   6.017
 9631SOL    HW229793   6.905   6.762   5.919
 9632SOL     OW29794   1.516   6.637   2.810
 9632SOL    HW129795   1.532   6.539   2.818
 9632SOL    HW229796   1.521   6.679   2.901
 9633SOL     OW29797   5.330   4.772   6.680
 9633SOL    HW129798   5.253   4.823   6.641
 9633SOL    HW229799   5.357   4.814   6.766
 9634SOL     OW29800   1.141   6.356   3.817
 9634SOL    HW129801   1.081   6.361   3.737
 9634SOL    HW229802   1.223   6.305   3.794
 9635SOL     OW29803   1.976   6.580   4.881
 9635SOL    HW129804   2.049   6.516   4.857
 9635SOL    HW229805   1.909   6.581   4.807
 9636SOL     OW29806   4.098   1.588   5.615
 9636SOL    HW129807   4.153   1.571   5.533
 9636SOL    HW229808   4.046   1.506   5.637
 9637SOL     OW29809   2.485   2.800   6.507
 9637SOL    HW129810   2.427   2.871   6.547
 9637SOL    HW229811   2.428   2.738   6.453
 9638SOL     OW29812   0.362   3.653   5.937
 9638SOL    HW129813   0.449   3.620   5.974
 9638SOL    HW229814   0.329   3.730   5.992
 9639SOL     OW29815   4.056   1.807   2.011
 9639SOL    HW129816   4.001   1.831   2.091
 9639SOL    HW229817   4.148   1.780   2.041
 9640SOL     OW29818   2.270   2.897   3.853
 9640SOL    HW129819   2.362   2.935   3.850
 9640SOL    HW229820   2.212   2.947   3.788
 9641SOL     OW29821   4.486   0.283   0.480
 9641SOL    HW129822   4.476   0.364   0.421
 9641SOL    HW229823   4.417   0.287   0.553
 9642SOL     OW29824   2.541   0.276   4.764
 9642SOL    HW129825   2.583   0.210   4.702
 9642SOL    HW229826   2.606   0.349   4.785
 9643SOL     OW29827   5.408   3.914   3.490
 9643SOL    HW129828   5.322   3.921   3.541
 9643SOL    HW229829   5.392   3.870   3.402
 9644SOL     OW29830   0.963   3.345   6.377
 9644SOL    HW129831   1.029   3.397   6.324
 9644SOL    HW229832   0.975   3.365   6.474
 9645SOL     OW29833   2.502   5.158   4.955
 9645SOL    HW129834   2.587   5.205   4.978
 9645SOL    HW229835   2.427   5.196   5.009
 9646SOL     OW29836   3.772   5.202   2.847
 9646SOL    HW129837   3.861   5.208   2.802
 9646SOL    HW229838   3.753   5.107   2.871
 9647SOL     OW29839   6.192   3.837   1.114
 9647SOL    HW129840   6.245   3.752   1.116
 9647SOL    HW229841   6.191   3.877   1.206
 9648SOL     OW29842   3.934   1.656   1.160
 9648SOL    HW129843   3.961   1.753   1.158
 9648SOL    HW229844   3.838   1.648   1.134
 9649SOL     OW29845   2.838   6.525   0.320
 9649SOL    HW129846   2.849   6.530   0.419
 9649SOL    HW229847   2.769   6.592   0.291
 9650SOL     OW29848   0.187   5.135   2.451
 9650SOL    HW129849   0.255   5.111   2.521
 9650SOL    HW229850   0.127   5.057   2.435
 9651SOL     OW29851   0.085   2.217   5.613
 9651SOL    HW129852   0.070   2.295   5.552
 9651SOL    HW229853   7.023   2.183   5.647
 9652SOL     OW29854   0.976   4.895   1.255
 9652SOL    HW129855   1.068   4.867   1.283
 9652SOL    HW229856   0.910   4.868   1.326
 9653SOL     OW29857   4.203   4.768   5.155
 9653SOL    HW129858   4.136   4.786   5.082
 9653SOL    HW229859   4.179   4.823   5.235
 9654SOL     OW29860   2.854   2.261   1.724
 9654SOL    HW129861   2.890   2.277   1.633
 9654SOL    HW229862   2.890   2.330   1.787
 9655SOL     OW29863   0.018   1.978   5.942
 9655SOL    HW129864   0.056   1.924   5.867
 9655SOL    HW229865   0.069   2.063   5.950
 9656SOL     OW29866   2.876   0.451   2.471
 9656SOL    HW129867   2.831   0.541   2.473
 9656SOL    HW229868   2.907   0.431   2.378
 9657SOL     OW29869   5.237   1.236   4.597
 9657SOL    HW129870   5.221   1.248   4.499
 9657SOL    HW229871   5.301   1.160   4.612
 9658SOL     OW29872   0.210   2.322   1.934
 9658SOL    HW129873   0.127   2.375   1.947
 9658SOL    HW229874   0.267   2.328   2.016
 9659SOL     OW29875   6.949   3.785   0.603
 9659SOL    HW129876   0.021   3.767   0.614
 9659SOL    HW229877   6.900   3.750   0.682
 9660SOL     OW29878   0.290   6.224   1.244
 9660SOL    HW129879   0.366   6.250   1.185
 9660SOL    HW229880   0.218   6.181   1.190
 9661SOL     OW29881   4.913   6.257   1.265
 9661SOL    HW129882   4.824   6.260   1.311
 9661SOL    HW229883   4.900   6.225   1.171
 9662SOL     OW29884   6.154   2.669   5.031
 9662SOL    HW129885   6.162   2.650   5.129
 9662SOL    HW229886   6.132   2.584   4.983
 9663SOL     OW29887   1.463   5.563   3.561
 9663SOL    HW129888   1.400   5.496   3.602
 9663SOL    HW229889   1.535   5.585   3.626
 9664SOL     OW29890   4.734   6.772   2.809
 9664SOL    HW129891   4.650   6.816   2.840
 9664SOL    HW229892   4.752   6.797   2.714
 9665SOL     OW29893   6.182   4.846   4.925
 9665SOL    HW129894   6.279   4.872   4.930
 9665SOL    HW229895   6.166   4.791   4.843
 9666SOL     OW29896   5.946   3.941   1.757
 9666SOL    HW129897   6.031   3.958   1.708
 9666SOL    HW229898   5.871   3.934   1.691
 9667SOL     OW29899   4.002   3.881   3.990
 9667SOL    HW129900   4.052   3.850   4.071
 9667SOL    HW229901   3.974   3.976   4.003
 9668SOL     OW29902   6.972   1.118   5.693
 9668SOL    HW129903   0.037   1.159   5.703
 9668SOL    HW229904   6.916   1.143   5.772
 9669SOL     OW29905   0.542   0.390   0.345
 9669SOL    HW129906   0.444   0.377   0.355
 9669SOL    HW229907   0.560   0.478   0.301
 9670SOL     OW29908   4.846   4.586   6.039
 9670SOL    HW129909   4.784   4.546   5.972
 9670SOL    HW229910   4.829   4.685   6.047
 9671SOL     OW29911   6.914   5.592   5.846
 9671SOL    HW129912   6.986   5.603   5.914
 9671SOL    HW229913   6.852   5.671   5.849
 9672SOL     OW29914   1.334   6.491   4.807
 9672SOL    HW129915   1.359   6.520   4.899
 9672SOL    HW229916   1.270   6.415   4.812
 9673SOL     OW29917   3.953   4.528   6.717
 9673SOL    HW129918   3.947   4.530   6.617
 9673SOL    HW229919   3.917   4.441   6.750
 9674SOL     OW29920   3.182   6.164   1.532
 9674SOL    HW129921   3.105   6.111   1.496
 9674SOL    HW229922   3.163   6.261   1.522
 9675SOL     OW29923   6.205   0.871   2.300
 9675SOL    HW129924   6.207   0.814   2.218
 9675SOL    HW229925   6.216   0.967   2.274
 9676SOL     OW29926   1.234   3.503   5.258
 9676SOL    HW129927   1.229   3.602   5.246
 9676SOL    HW229928   1.328   3.472   5.242
 9677SOL     OW29929   2.626   4.093   5.876
 9677SOL    HW129930   2.678   4.008   5.864
 9677SOL    HW229931   2.627   4.146   5.791
 9678SOL     OW29932   4.137   3.596   2.898
 9678SOL    HW129933   4.134   3.505   2.856
 9678SOL    HW229934   4.175   3.590   2.990
 9679SOL     OW29935   1.411   3.085   1.814
 9679SOL    HW129936   1.457   3.164   1.854
 9679SOL    HW229937   1.455   3.001   1.844
 9680SOL     OW29938   5.837   5.777   3.430
 9680SOL    HW129939   5.907   5.795   3.498
 9680SOL    HW229940   5.869   5.805   3.340
 9681SOL     OW29941   2.053   0.654   1.157
 9681SOL    HW129942   2.028   0.731   1.099
 9681SOL    HW229943   2.100   0.688   1.239
 9682SOL     OW29944   5.188   4.708   3.406
 9682SOL    HW129945   5.273   4.761   3.413
 9682SOL    HW229946   5.186   4.660   3.319
 9683SOL     OW29947   3.965   5.318   0.065
 9683SOL    HW129948   4.055   5.299   0.025
 9683SOL    HW229949   3.976   5.370   0.149
 9684SOL     OW29950   0.195   3.951   4.673
 9684SOL    HW129951   0.244   4.019   4.729
 9684SOL    HW229952   0.100   3.979   4.662
 9685SOL     OW29953   2.647   3.086   0.809
 9685SOL    HW129954   2.632   3.061   0.713
 9685SOL    HW229955   2.566   3.063   0.862
 9686SOL     OW29956   0.023   0.894   1.452
 9686SOL    HW129957   0.119   0.898   1.477
 9686SOL    HW229958   7.000   0.970   1.494
 9687SOL     OW29959   2.795   0.504   2.967
 9687SOL    HW129960   2.773   0.600   2.953
 9687SOL    HW229961   2.773   0.452   2.885
 9688SOL     OW29962   0.345   2.051   3.144
 9688SOL    HW129963   0.267   1.994   3.166
 9688SOL    HW229964   0.331   2.143   3.180
 9689SOL     OW29965   2.206   6.275   6.680
 9689SOL    HW129966   2.201   6.213   6.602
 9689SOL    HW229967   2.276   6.344   6.664
 9690SOL     OW29968   6.284   4.816   0.189
 9690SOL    HW129969   6.289   4.881   0.265
 9690SOL    HW229970   6.270   4.724   0.224
 9691SOL     OW29971   1.886   5.365   1.538
 9691SOL    HW129972   1.980   5.394   1.521
 9691SOL    HW229973   1.834   5.442   1.576
 9692SOL     OW29974   2.673   5.149   2.088
 9692SOL    HW129975   2.720   5.211   2.150
 9692SOL    HW229976   2.739   5.109   2.024
 9693SOL     OW29977   6.544   5.367   1.797
 9693SOL    HW129978   6.462   5.311   1.784
 9693SOL    HW229979   6.574   5.404   1.709
 9694SOL     OW29980   1.872   2.092   0.004
 9694SOL    HW129981   1.940   2.021   0.023
 9694SOL    HW229982   1.919   2.173   6.993
 9695SOL     OW29983   5.886   4.269   0.461
 9695SOL    HW129984   5.908   4.186   0.512
 9695SOL    HW229985   5.968   4.305   0.417
 9696SOL     OW29986   3.708   2.756   1.813
 9696SOL    HW129987   3.684   2.815   1.890
 9696SOL    HW229988   3.806   2.763   1.794
 9697SOL     OW29989   0.795   4.850   0.005
 9697SOL    HW129990   0.782   4.831   0.102
 9697SOL    HW229991   0.890   4.829   7.006
 9698SOL     OW29992   5.911   0.619   4.853
 9698SOL    HW129993   5.990   0.565   4.826
 9698SOL    HW229994   5.942   0.701   4.902
 9699SOL     OW29995   0.999   3.651   6.640
 9699SOL    HW129996   0.963   3.601   6.719
 9699SOL    HW229997   0.931   3.653   6.568
 9700SOL     OW29998   3.702   4.893   5.246
 9700SOL    HW129999   3.708   4.952   5.327
 9700SOL    HW230000   3.653   4.809   5.270
 9701SOL     OW30001   3.607   5.615   5.085
 9701SOL    HW130002   3.564   5.600   4.996
 9701SOL    HW230003   3.547   5.582   5.158
 9702SOL     OW30004   5.167   1.184   0.594
 9702SOL    HW130005   5.161   1.280   0.622
 9702SOL    HW230006   5.119   1.171   0.507
 9703SOL     OW30007   3.276   5.624   4.183
 9703SOL    HW130008   3.184   5.629   4.223
 9703SOL    HW230009   3.309   5.530   4.191
 9704SOL     OW30010   3.242   6.927   2.852
 9704SOL    HW130011   3.225   6.934   2.950
 9704SOL    HW230012   3.340   6.932   2.834
 9705SOL     OW30013   4.028   5.039   0.424
 9705SOL    HW130014   3.951   5.102   0.429
 9705SOL    HW230015   4.040   5.007   0.330
 9706SOL     OW30016   6.573   2.822   1.045
 9706SOL    HW130017   6.645   2.827   1.115
 9706SOL    HW230018   6.491   2.780   1.084
 9707SOL     OW30019   0.967   4.168   2.220
 9707SOL    HW130020   1.000   4.074   2.212
 9707SOL    HW230021   0.941   4.202   2.130
 9708SOL     OW30022   1.835   2.449   3.889
 9708SOL    HW130023   1.853   2.432   3.986
 9708SOL    HW230024   1.898   2.395   3.833
 9709SOL     OW30025   0.911   6.347   3.439
 9709SOL    HW130026   0.982   6.299   3.491
 9709SOL    HW230027   0.954   6.398   3.365
 9710SOL     OW30028   0.144   1.097   2.916
 9710SOL    HW130029   0.175   1.005   2.894
 9710SOL    HW230030   0.192   1.130   2.998
 9711SOL     OW30031   1.408   3.021   6.066
 9711SOL    HW130032   1.329   3.081   6.074
 9711SOL    HW230033   1.393   2.938   6.120
 9712SOL     OW30034   5.520   2.188   4.757
 9712SOL    HW130035   5.447   2.255   4.774
 9712SOL    HW230036   5.598   2.209   4.816
 9713SOL     OW30037   0.300   4.575   3.444
 9713SOL    HW130038   0.302   4.626   3.530
 9713SOL    HW230039   0.383   4.594   3.392
 9714SOL     OW30040   2.256   1.500   1.585
 9714SOL    HW130041   2.268   1.428   1.653
 9714SOL    HW230042   2.245   1.588   1.631
 9715SOL     OW30043   6.001   5.536   4.924
 9715SOL    HW130044   6.008   5.521   4.825
 9715SOL    HW230045   6.083   5.502   4.969
 9716SOL     OW30046   4.189   1.969   6.475
 9716SOL    HW130047   4.095   1.944   6.450
 9716SOL    HW230048   4.246   1.967   6.394
 9717SOL     OW30049   5.228   5.692   4.171
 9717SOL    HW130050   5.139   5.647   4.163
 9717SOL    HW230051   5.230   5.748   4.254
 9718SOL     OW30052   3.926   3.417   1.408
 9718SOL    HW130053   4.010   3.425   1.461
 9718SOL    HW230054   3.862   3.490   1.434
 9719SOL     OW30055   0.893   2.207   0.471
 9719SOL    HW130056   0.920   2.270   0.398
 9719SOL    HW230057   0.815   2.152   0.441
 9720SOL     OW30058   0.348   6.070   2.267
 9720SOL    HW130059   0.321   6.165   2.280
 9720SOL    HW230060   0.357   6.051   2.169
 9721SOL     OW30061   0.673   3.365   2.120
 9721SOL    HW130062   0.757   3.329   2.079
 9721SOL    HW230063   0.687   3.461   2.146
 9722SOL     OW30064   0.144   1.028   3.430
 9722SOL    HW130065   0.114   0.943   3.389
 9722SOL    HW230066   0.122   1.104   3.369
 9723SOL     OW30067   0.519   6.865   2.903
 9723SOL    HW130068   0.569   6.916   2.973
 9723SOL    HW230069   0.576   6.791   2.869
 9724SOL     OW30070   3.077   2.563   1.670
 9724SOL    HW130071   3.086   2.663   1.671
 9724SOL    HW230072   3.049   2.532   1.760
 9725SOL     OW30073   4.531   3.251   6.364
 9725SOL    HW130074   4.460   3.314   6.334
 9725SOL    HW230075   4.618   3.275   6.319
 9726SOL     OW30076   5.445   6.976   4.885
 9726SOL    HW130077   5.521   0.006   4.854
 9726SOL    HW230078   5.423   6.908   4.815
 9727SOL     OW30079   1.278   3.384   5.580
 9727SOL    HW130080   1.210   3.426   5.520
 9727SOL    HW230081   1.236   3.365   5.669
 9728SOL     OW30082   1.642   6.464   6.115
 9728SOL    HW130083   1.637   6.561   6.091
 9728SOL    HW230084   1.631   6.408   6.032
 9729SOL     OW30085   1.467   4.610   3.043
 9729SOL    HW130086   1.491   4.636   2.949
 9729SOL    HW230087   1.375   4.640   3.064
 9730SOL     OW30088   6.818   3.451   2.623
 9730SOL    HW130089   6.833   3.438   2.525
 9730SOL    HW230090   6.803   3.549   2.641
 9731SOL     OW30091   4.293   5.145   0.720
 9731SOL    HW130092   4.210   5.093   0.739
 9731SOL    HW230093   4.365   5.082   0.690
 9732SOL     OW30094   0.231   5.725   2.599
 9732SOL    HW130095   0.134   5.734   2.575
 9732SOL    HW230096   0.285   5.721   2.515
 9733SOL     OW30097   5.661   4.820   5.134
 9733SOL    HW130098   5.671   4.760   5.055
 9733SOL    HW230099   5.737   4.806   5.197
 9734SOL     OW30100   5.649   1.818   4.121
 9734SOL    HW130101   5.627   1.881   4.046
 9734SOL    HW230102   5.597   1.733   4.110
 9735SOL     OW30103   2.408   5.112   2.687
 9735SOL    HW130104   2.506   5.095   2.678
 9735SOL    HW230105   2.367   5.118   2.596
 9736SOL     OW30106   5.463   0.987   6.833
 9736SOL    HW130107   5.537   1.004   6.768
 9736SOL    HW230108   5.376   0.986   6.783
 9737SOL     OW30109   4.208   2.218   4.923
 9737SOL    HW130110   4.220   2.304   4.973
 9737SOL    HW230111   4.226   2.141   4.984
 9738SOL     OW30112   1.397   0.767   3.801
 9738SOL    HW130113   1.435   0.675   3.797
 9738SOL    HW230114   1.374   0.797   3.708
 9739SOL     OW30115   6.976   4.869   1.580
 9739SOL    HW130116   6.966   4.967   1.599
 9739SOL    HW230117   6.914   4.818   1.638
 9740SOL     OW30118   6.042   3.956   2.831
 9740SOL    HW130119   5.995   3.910   2.755
 9740SOL    HW230120   6.038   3.899   2.912
 9741SOL     OW30121   4.351   1.497   2.270
 9741SOL    HW130122   4.412   1.559   2.320
 9741SOL    HW230123   4.387   1.404   2.275
 9742SOL     OW30124   5.174   0.785   3.018
 9742SOL    HW130125   5.126   0.863   3.056
 9742SOL    HW230126   5.123   0.750   2.939
 9743SOL     OW30127   1.852   2.754   5.878
 9743SOL    HW130128   1.761   2.733   5.915
 9743SOL    HW230129   1.901   2.669   5.859
 9744SOL     OW30130   1.637   0.811   2.106
 9744SOL    HW130131   1.648   0.892   2.049
 9744SOL    HW230132   1.556   0.822   2.164
 9745SOL     OW30133   0.925   2.248   5.063
 9745SOL    HW130134   0.994   2.300   5.013
 9745SOL    HW230135   0.888   2.304   5.137
 9746SOL     OW30136   5.200   0.964   5.348
 9746SOL    HW130137   5.279   0.954   5.409
 9746SOL    HW230138   5.149   0.879   5.345
 9747SOL     OW30139   1.272   0.780   1.036
 9747SOL    HW130140   1.251   0.787   1.133
 9747SOL    HW230141   1.222   0.704   0.996
 9748SOL     OW30142   1.295   6.030   4.370
 9748SOL    HW130143   1.353   6.111   4.361
 9748SOL    HW230144   1.199   6.058   4.374
 9749SOL     OW30145   1.372   3.304   4.944
 9749SOL    HW130146   1.394   3.347   4.857
 9749SOL    HW230147   1.424   3.349   5.017
 9750SOL     OW30148   5.165   4.528   3.900
 9750SOL    HW130149   5.186   4.622   3.926
 9750SOL    HW230150   5.138   4.525   3.804
 9751SOL     OW30151   1.399   1.905   1.065
 9751SOL    HW130152   1.391   1.939   0.972
 9751SOL    HW230153   1.430   1.979   1.125
 9752SOL     OW30154   4.319   0.313   5.899
 9752SOL    HW130155   4.247   0.323   5.968
 9752SOL    HW230156   4.356   0.403   5.876
 9753SOL     OW30157   6.889   5.783   4.996
 9753SOL    HW130158   6.909   5.693   5.036
 9753SOL    HW230159   6.802   5.817   5.033
 9754SOL     OW30160   1.302   1.434   6.982
 9754SOL    HW130161   1.349   1.477   6.905
 9754SOL    HW230162   1.212   1.475   6.993
 9755SOL     OW30163   4.047   3.336   5.260
 9755SOL    HW130164   4.113   3.280   5.309
 9755SOL    HW230165   4.050   3.430   5.296
 9756SOL     OW30166   6.023   3.340   6.834
 9756SOL    HW130167   5.993   3.280   6.908
 9756SOL    HW230168   5.997   3.434   6.854
 9757SOL     OW30169   5.181   2.549   3.315
 9757SOL    HW130170   5.200   2.645   3.298
 9757SOL    HW230171   5.245   2.514   3.383
 9758SOL     OW30172   2.165   0.044   6.436
 9758SOL    HW130173   2.099   0.075   6.505
 9758SOL    HW230174   2.225   7.001   6.476
 9759SOL     OW30175   1.775   6.254   1.632
 9759SOL    HW130176   1.676   6.264   1.628
 9759SOL    HW230177   1.816   6.304   1.555
 9760SOL     OW30178   5.690   4.665   4.914
 9760SOL    HW130179   5.616   4.697   4.855
 9760SOL    HW230180   5.770   4.644   4.858
 9761SOL     OW30181   5.473   4.687   1.852
 9761SOL    HW130182   5.541   4.629   1.807
 9761SOL    HW230183   5.383   4.667   1.815
 9762SOL     OW30184   1.989   1.560   4.657
 9762SOL    HW130185   1.905   1.584   4.705
 9762SOL    HW230186   2.065   1.560   4.722
 9763SOL     OW30187   4.028   1.205   1.877
 9763SOL    HW130188   4.105   1.263   1.849
 9763SOL    HW230189   3.953   1.263   1.911
 9764SOL     OW30190   1.235   2.688   3.523
 9764SOL    HW130191   1.171   2.624   3.564
 9764SOL    HW230192   1.238   2.674   3.424
 9765SOL     OW30193   6.487   2.270   5.525
 9765SOL    HW130194   6.431   2.189   5.543
 9765SOL    HW230195   6.579   2.240   5.498
 9766SOL     OW30196   3.351   0.746   3.356
 9766SOL    HW130197   3.325   0.842   3.367
 9766SOL    HW230198   3.433   0.740   3.300
 9767SOL     OW30199   5.447   0.908   5.457
 9767SOL    HW130200   5.432   0.812   5.483
 9767SOL    HW230201   5.519   0.947   5.514
 9768SOL     OW30202   4.329   2.052   2.688
 9768SOL    HW130203   4.406   2.105   2.651
 9768SOL    HW230204   4.250   2.112   2.700
 9769SOL     OW30205   1.160   2.264   1.088
 9769SOL    HW130206   1.164   2.242   1.186
 9769SOL    HW230207   1.245   2.308   1.060
 9770SOL     OW30208   5.730   5.241   5.596
 9770SOL    HW130209   5.699   5.146   5.584
 9770SOL    HW230210   5.688   5.279   5.679
 9771SOL     OW30211   4.735   4.648   0.511
 9771SOL    HW130212   4.782   4.569   0.551
 9771SOL    HW230213   4.800   4.724   0.504
 9772SOL     OW30214   6.975   6.916   1.928
 9772SOL    HW130215   0.032   6.862   1.913
 9772SOL    HW230216   6.902   6.882   1.869
 9773SOL     OW30217   5.726   5.452   3.765
 9773SOL    HW130218   5.742   5.507   3.847
 9773SOL    HW230219   5.646   5.488   3.717
 9774SOL     OW30220   5.840   5.170   3.719
 9774SOL    HW130221   5.890   5.118   3.787
 9774SOL    HW230222   5.822   5.262   3.753
 9775SOL     OW30223   2.118   2.758   4.707
 9775SOL    HW130224   2.132   2.659   4.701
 9775SOL    HW230225   2.024   2.779   4.680
 9776SOL     OW30226   6.791   5.481   4.502
 9776SOL    HW130227   6.725   5.511   4.572
 9776SOL    HW230228   6.750   5.493   4.411
 9777SOL     OW30229   5.935   4.020   6.085
 9777SOL    HW130230   6.000   4.055   6.017
 9777SOL    HW230231   5.902   3.930   6.056
 9778SOL     OW30232   4.825   6.570   2.996
 9778SOL    HW130233   4.751   6.510   3.028
 9778SOL    HW230234   4.787   6.646   2.945
 9779SOL     OW30235   2.950   1.789   4.993
 9779SOL    HW130236   2.851   1.776   4.989
 9779SOL    HW230237   2.994   1.703   5.019
 9780SOL     OW30238   2.227   2.926   0.238
 9780SOL    HW130239   2.224   2.974   0.326
 9780SOL    HW230240   2.263   2.834   0.252
 9781SOL     OW30241   2.539   4.621   4.979
 9781SOL    HW130242   2.469   4.602   5.048
 9781SOL    HW230243   2.630   4.608   5.019
 9782SOL     OW30244   6.675   0.308   1.371
 9782SOL    HW130245   6.771   0.325   1.396
 9782SOL    HW230246   6.641   0.385   1.317
 9783SOL     OW30247   6.366   1.266   2.408
 9783SOL    HW130248   6.420   1.223   2.480
 9783SOL    HW230249   6.294   1.322   2.449
 9784SOL     OW30250   4.310   1.370   2.962
 9784SOL    HW130251   4.258   1.320   2.893
 9784SOL    HW230252   4.247   1.409   3.029
 9785SOL     OW30253   0.221   2.564   2.678
 9785SOL    HW130254   0.236   2.505   2.758
 9785SOL    HW230255   0.257   2.655   2.697
 9786SOL     OW30256   2.478   5.262   6.045
 9786SOL    HW130257   2.480   5.298   5.952
 9786SOL    HW230258   2.566   5.279   6.089
 9787SOL     OW30259   4.861   4.015   1.818
 9787SOL    HW130260   4.878   4.038   1.914
 9787SOL    HW230261   4.865   3.916   1.807
 9788SOL     OW30262   6.921   0.345   4.224
 9788SOL    HW130263   6.992   0.277   4.207
 9788SOL    HW230264   6.832   0.307   4.198
 9789SOL     OW30265   2.349   6.194   5.045
 9789SOL    HW130266   2.301   6.186   4.957
 9789SOL    HW230267   2.380   6.103   5.073
 9790SOL     OW30268   5.837   2.018   4.157
 9790SOL    HW130269   5.810   1.925   4.136
 9790SOL    HW230270   5.851   2.027   4.256
 9791SOL     OW30271   1.559   0.999   1.171
 9791SOL    HW130272   1.485   1.056   1.208
 9791SOL    HW230273   1.537   0.973   1.077
 9792SOL     OW30274   4.417   4.679   1.270
 9792SOL    HW130275   4.325   4.645   1.251
 9792SOL    HW230276   4.476   4.603   1.298
 9793SOL     OW30277   5.703   5.861   2.371
 9793SOL    HW130278   5.697   5.874   2.470
 9793SOL    HW230279   5.615   5.884   2.329
 9794SOL     OW30280   5.071   2.972   5.920
 9794SOL    HW130281   5.125   3.016   5.848
 9794SOL    HW230282   5.005   2.910   5.878
 9795SOL     OW30283   1.604   3.680   4.279
 9795SOL    HW130284   1.696   3.664   4.244
 9795SOL    HW230285   1.605   3.760   4.339
 9796SOL     OW30286   2.732   5.260   0.659
 9796SOL    HW130287   2.790   5.189   0.701
 9796SOL    HW230288   2.703   5.229   0.569
 9797SOL     OW30289   4.983   3.515   6.535
 9797SOL    HW130290   4.905   3.511   6.472
 9797SOL    HW230291   5.066   3.486   6.488
 9798SOL     OW30292   3.003   0.514   1.330
 9798SOL    HW130293   2.964   0.428   1.362
 9798SOL    HW230294   2.948   0.551   1.255
 9799SOL     OW30295   2.976   3.202   2.417
 9799SOL    HW130296   3.052   3.178   2.477
 9799SOL    HW230297   2.950   3.123   2.362
 9800SOL     OW30298   4.558   5.401   6.824
 9800SOL    HW130299   4.566   5.477   6.888
 9800SOL    HW230300   4.622   5.414   6.748
 9801SOL     OW30301   4.473   6.161   0.074
 9801SOL    HW130302   4.546   6.093   0.072
 9801SOL    HW230303   4.491   6.232   0.006
 9802SOL     OW30304   1.017   3.314   0.968
 9802SOL    HW130305   1.031   3.228   1.017
 9802SOL    HW230306   1.094   3.375   0.984
 9803SOL     OW30307   6.496   0.425   6.867
 9803SOL    HW130308   6.420   0.470   6.915
 9803SOL    HW230309   6.553   0.376   6.934
 9804SOL     OW30310   6.659   5.627   3.967
 9804SOL    HW130311   6.640   5.706   3.910
 9804SOL    HW230312   6.590   5.557   3.951
 9805SOL     OW30313   1.459   5.391   6.772
 9805SOL    HW130314   1.467   5.347   6.683
 9805SOL    HW230315   1.547   5.431   6.797
 9806SOL     OW30316   7.017   2.740   1.661
 9806SOL    HW130317   6.964   2.704   1.738
 9806SOL    HW230318   0.055   2.810   1.694
 9807SOL     OW30319   4.138   2.098   0.197
 9807SOL    HW130320   4.099   2.118   0.287
 9807SOL    HW230321   4.190   2.013   0.201
 9808SOL     OW30322   6.988   1.830   5.053
 9808SOL    HW130323   6.983   1.794   5.146
 9808SOL    HW230324   6.987   1.754   4.988
 9809SOL     OW30325   0.097   1.493   4.172
 9809SOL    HW130326   0.127   1.492   4.267
 9809SOL    HW230327   0.000   1.469   4.167
 9810SOL     OW30328   2.694   1.308   3.042
 9810SOL    HW130329   2.614   1.253   3.017
 9810SOL    HW230330   2.733   1.348   2.959
 9811SOL     OW30331   6.474   6.184   2.927
 9811SOL    HW130332   6.535   6.106   2.941
 9811SOL    HW230333   6.513   6.265   2.969
 9812SOL     OW30334   4.845   2.272   6.192
 9812SOL    HW130335   4.901   2.326   6.254
 9812SOL    HW230336   4.749   2.300   6.201
 9813SOL     OW30337   6.419   4.768   6.996
 9813SOL    HW130338   6.515   4.788   7.013
 9813SOL    HW230339   6.365   4.793   0.050
 9814SOL     OW30340   6.819   6.740   5.735
 9814SOL    HW130341   6.720   6.736   5.743
 9814SOL    HW230342   6.847   6.832   5.708
 9815SOL     OW30343   6.323   3.103   1.624
 9815SOL    HW130344   6.335   3.102   1.724
 9815SOL    HW230345   6.290   3.193   1.596
 9816SOL     OW30346   7.018   0.418   6.839
 9816SOL    HW130347   0.079   0.368   6.846
 9816SOL    HW230348   0.010   0.516   6.832
 9817SOL     OW30349   3.680   5.930   1.214
 9817SOL    HW130350   3.770   5.893   1.191
 9817SOL    HW230351   3.658   5.905   1.309
 9818SOL     OW30352   1.061   0.027   3.675
 9818SOL    HW130353   1.034   6.995   3.598
 9818SOL    HW230354   1.125   0.098   3.642
 9819SOL     OW30355   6.533   4.214   4.980
 9819SOL    HW130356   6.460   4.266   5.023
 9819SOL    HW230357   6.517   4.116   4.992
 9820SOL     OW30358   3.358   1.972   6.122
 9820SOL    HW130359   3.356   2.069   6.147
 9820SOL    HW230360   3.399   1.962   6.032
 9821SOL     OW30361   4.729   2.635   1.422
 9821SOL    HW130362   4.738   2.648   1.323
 9821SOL    HW230363   4.821   2.627   1.462
 9822SOL     OW30364   4.082   6.034   5.175
 9822SOL    HW130365   4.039   6.121   5.198
 9822SOL    HW230366   4.011   5.969   5.147
 9823SOL     OW30367   1.731   0.641   3.163
 9823SOL    HW130368   1.631   0.636   3.173
 9823SOL    HW230369   1.774   0.570   3.219
 9824SOL     OW30370   1.320   5.886   5.426
 9824SOL    HW130371   1.400   5.940   5.452
 9824SOL    HW230372   1.340   5.834   5.343
 9825SOL     OW30373   5.325   6.066   6.213
 9825SOL    HW130374   5.344   6.123   6.133
 9825SOL    HW230375   5.226   6.055   6.223
 9826SOL     OW30376   2.698   6.323   5.658
 9826SOL    HW130377   2.644   6.403   5.684
 9826SOL    HW230378   2.652   6.274   5.584
 9827SOL     OW30379   1.633   5.284   2.146
 9827SOL    HW130380   1.558   5.313   2.205
 9827SOL    HW230381   1.681   5.207   2.187
 9828SOL     OW30382   3.505   1.789   5.092
 9828SOL    HW130383   3.423   1.799   5.148
 9828SOL    HW230384   3.586   1.804   5.149
 9829SOL     OW30385   4.740   5.580   5.669
 9829SOL    HW130386   4.715   5.628   5.753
 9829SOL    HW230387   4.739   5.481   5.685
 9830SOL     OW30388   5.828   1.830   2.889
 9830SOL    HW130389   5.921   1.857   2.862
 9830SOL    HW230390   5.833   1.769   2.968
 9831SOL     OW30391   0.707   3.792   1.648
 9831SOL    HW130392   0.721   3.885   1.683
 9831SOL    HW230393   0.761   3.728   1.702
 9832SOL     OW30394   4.562   4.768   4.531
 9832SOL    HW130395   4.548   4.820   4.447
 9832SOL    HW230396   4.615   4.686   4.511
 9833SOL     OW30397   3.648   3.941   4.700
 9833SOL    HW130398   3.554   3.908   4.709
 9833SOL    HW230399   3.711   3.866   4.713
 9834SOL     OW30400   2.487   5.396   5.235
 9834SOL    HW130401   2.555   5.345   5.181
 9834SOL    HW230402   2.528   5.482   5.267
 9835SOL     OW30403   3.703   4.251   5.104
 9835SOL    HW130404   3.682   4.256   5.006
 9835SOL    HW230405   3.631   4.199   5.150
 9836SOL     OW30406   0.646   3.630   5.343
 9836SOL    HW130407   0.677   3.535   5.340
 9836SOL    HW230408   0.546   3.634   5.341
 9837SOL     OW30409   4.863   2.238   1.726
 9837SOL    HW130410   4.869   2.241   1.826
 9837SOL    HW230411   4.948   2.200   1.689
 9838SOL     OW30412   0.555   6.406   1.904
 9838SOL    HW130413   0.616   6.342   1.858
 9838SOL    HW230414   0.571   6.498   1.868
 9839SOL     OW30415   4.342   0.604   2.827
 9839SOL    HW130416   4.396   0.651   2.756
 9839SOL    HW230417   4.356   0.650   2.914
 9840SOL     OW30418   6.121   1.148   6.906
 9840SOL    HW130419   6.195   1.088   6.938
 9840SOL    HW230420   6.151   1.243   6.911
 9841SOL     OW30421   6.726   6.407   3.712
 9841SOL    HW130422   6.686   6.374   3.798
 9841SOL    HW230423   6.817   6.443   3.729
 9842SOL     OW30424   3.008   2.331   6.451
 9842SOL    HW130425   2.922   2.380   6.437
 9842SOL    HW230426   3.037   2.288   6.365
 9843SOL     OW30427   0.062   6.986   1.156
 9843SOL    HW130428   0.023   6.901   1.121
 9843SOL    HW230429   0.145   7.009   1.104
 9844SOL     OW30430   5.063   0.220   4.304
 9844SOL    HW130431   5.039   0.316   4.322
 9844SOL    HW230432   5.160   0.205   4.323
 9845SOL     OW30433   1.864   3.355   1.406
 9845SOL    HW130434   1.798   3.423   1.436
 9845SOL    HW230435   1.935   3.400   1.350
 9846SOL     OW30436   5.168   1.350   1.143
 9846SOL    HW130437   5.130   1.281   1.205
 9846SOL    HW230438   5.108   1.431   1.143
 9847SOL     OW30439   4.204   4.289   0.418
 9847SOL    HW130440   4.221   4.288   0.320
 9847SOL    HW230441   4.291   4.288   0.467
 9848SOL     OW30442   3.356   3.764   5.327
 9848SOL    HW130443   3.311   3.798   5.245
 9848SOL    HW230444   3.444   3.811   5.339
 9849SOL     OW30445   0.865   1.891   4.855
 9849SOL    HW130446   0.936   1.831   4.891
 9849SOL    HW230447   0.814   1.932   4.931
 9850SOL     OW30448   0.540   0.730   4.490
 9850SOL    HW130449   0.580   0.701   4.577
 9850SOL    HW230450   0.573   0.671   4.416
 9851SOL     OW30451   4.107   4.816   4.645
 9851SOL    HW130452   4.042   4.850   4.712
 9851SOL    HW230453   4.168   4.749   4.689
 9852SOL     OW30454   2.172   1.294   0.225
 9852SOL    HW130455   2.267   1.317   0.202
 9852SOL    HW230456   2.142   1.352   0.301
 9853SOL     OW30457   6.697   4.726   3.517
 9853SOL    HW130458   6.789   4.697   3.541
 9853SOL    HW230459   6.634   4.702   3.591
 9854SOL     OW30460   0.922   5.292   6.196
 9854SOL    HW130461   0.912   5.384   6.159
 9854SOL    HW230462   0.918   5.295   6.296
 9855SOL     OW30463   1.802   4.137   1.859
 9855SOL    HW130464   1.715   4.165   1.900
 9855SOL    HW230465   1.803   4.038   1.849
 9856SOL     OW30466   5.722   3.974   3.256
 9856SOL    HW130467   5.684   4.001   3.167
 9856SOL    HW230468   5.820   3.992   3.257
 9857SOL     OW30469   4.072   1.043   4.439
 9857SOL    HW130470   4.150   1.105   4.443
 9857SOL    HW230471   4.007   1.067   4.511
 9858SOL     OW30472   6.438   6.405   2.427
 9858SOL    HW130473   6.466   6.501   2.431
 9858SOL    HW230474   6.519   6.347   2.416
 9859SOL     OW30475   6.902   5.497   3.734
 9859SOL    HW130476   6.921   5.498   3.832
 9859SOL    HW230477   6.864   5.586   3.707
 9860SOL     OW30478   1.757   3.481   4.658
 9860SOL    HW130479   1.793   3.572   4.640
 9860SOL    HW230480   1.664   3.489   4.695
 9861SOL     OW30481   3.645   1.221   4.484
 9861SOL    HW130482   3.617   1.315   4.502
 9861SOL    HW230483   3.584   1.180   4.416
 9862SOL     OW30484   1.089   5.377   0.649
 9862SOL    HW130485   1.135   5.291   0.670
 9862SOL    HW230486   1.155   5.453   0.656
 9863SOL     OW30487   4.185   6.337   0.864
 9863SOL    HW130488   4.116   6.266   0.880
 9863SOL    HW230489   4.175   6.409   0.932
 9864SOL     OW30490   2.471   5.927   5.457
 9864SOL    HW130491   2.463   5.886   5.366
 9864SOL    HW230492   2.546   5.884   5.507
 9865SOL     OW30493   0.524   6.340   5.107
 9865SOL    HW130494   0.605   6.344   5.165
 9865SOL    HW230495   0.482   6.430   5.102
 9866SOL     OW30496   6.243   5.376   4.435
 9866SOL    HW130497   6.327   5.417   4.471
 9866SOL    HW230498   6.227   5.409   4.342
 9867SOL     OW30499   4.928   2.368   1.493
 9867SOL    HW130500   4.960   2.463   1.498
 9867SOL    HW230501   4.920   2.331   1.585
 9868SOL     OW30502   1.838   4.483   3.268
 9868SOL    HW130503   1.781   4.406   3.241
 9868SOL    HW230504   1.803   4.567   3.226
 9869SOL     OW30505   6.838   2.576   0.820
 9869SOL    HW130506   6.826   2.555   0.723
 9869SOL    HW230507   6.762   2.537   0.872
 9870SOL     OW30508   3.058   1.271   2.240
 9870SOL    HW130509   3.060   1.327   2.158
 9870SOL    HW230510   2.977   1.294   2.294
 9871SOL     OW30511   0.248   4.168   4.392
 9871SOL    HW130512   0.225   4.224   4.312
 9871SOL    HW230513   0.179   4.181   4.463
 9872SOL     OW30514   1.411   4.969   5.713
 9872SOL    HW130515   1.462   4.952   5.797
 9872SOL    HW230516   1.409   4.885   5.658
 9873SOL     OW30517   1.946   1.454   5.524
 9873SOL    HW130518   2.042   1.426   5.536
 9873SOL    HW230519   1.930   1.539   5.574
 9874SOL     OW30520   0.440   3.064   5.022
 9874SOL    HW130521   0.354   3.025   5.054
 9874SOL    HW230522   0.494   3.097   5.099
 9875SOL     OW30523   6.581   5.435   0.691
 9875SOL    HW130524   6.568   5.355   0.633
 9875SOL    HW230525   6.533   5.422   0.778
 9876SOL     OW30526   2.143   6.716   3.458
 9876SOL    HW130527   2.112   6.753   3.371
 9876SOL    HW230528   2.240   6.735   3.470
 9877SOL     OW30529   0.723   5.518   5.289
 9877SOL    HW130530   0.763   5.504   5.379
 9877SOL    HW230531   0.789   5.491   5.219
 9878SOL     OW30532   2.235   2.779   6.989
 9878SOL    HW130533   2.318   2.724   7.003
 9878SOL    HW230534   2.244   2.866   0.011
 9879SOL     OW30535   0.405   5.187   6.343
 9879SOL    HW130536   0.428   5.131   6.422
 9879SOL    HW230537   0.411   5.132   6.260
 9880SOL     OW30538   2.728   1.291   0.197
 9880SOL    HW130539   2.750   1.385   0.224
 9880SOL    HW230540   2.714   1.235   0.279
 9881SOL     OW30541   5.665   0.265   4.187
 9881SOL    HW130542   5.662   0.341   4.252
 9881SOL    HW230543   5.650   0.299   4.094
 9882SOL     OW30544   4.014   3.320   4.704
 9882SOL    HW130545   4.073   3.328   4.785
 9882SOL    HW230546   4.056   3.367   4.627
 9883SOL     OW30547   2.191   6.869   1.538
 9883SOL    HW130548   2.130   6.946   1.522
 9883SOL    HW230549   2.283   6.892   1.507
 9884SOL     OW30550   2.113   3.623   5.825
 9884SOL    HW130551   2.162   3.640   5.740
 9884SOL    HW230552   2.098   3.524   5.835
 9885SOL     OW30553   6.400   3.577   4.410
 9885SOL    HW130554   6.449   3.606   4.327
 9885SOL    HW230555   6.445   3.618   4.490
 9886SOL     OW30556   4.665   5.775   1.280
 9886SOL    HW130557   4.570   5.744   1.283
 9886SOL    HW230558   4.669   5.866   1.238
 9887SOL     OW30559   3.722   0.350   6.959
 9887SOL    HW130560   3.755   0.352   6.865
 9887SOL    HW230561   3.763   0.273   7.007
 9888SOL     OW30562   5.918   5.268   2.808
 9888SOL    HW130563   5.922   5.282   2.907
 9888SOL    HW230564   5.833   5.221   2.785
 9889SOL     OW30565   0.111   5.173   3.357
 9889SOL    HW130566   0.133   5.195   3.452
 9889SOL    HW230567   0.088   5.257   3.308
 9890SOL     OW30568   6.833   4.004   1.933
 9890SOL    HW130569   6.848   3.907   1.951
 9890SOL    HW230570   6.735   4.024   1.936
 9891SOL     OW30571   6.103   4.754   1.015
 9891SOL    HW130572   6.050   4.674   1.043
 9891SOL    HW230573   6.177   4.726   0.954
 9892SOL     OW30574   2.472   5.170   4.227
 9892SOL    HW130575   2.504   5.113   4.303
 9892SOL    HW230576   2.400   5.232   4.260
 9893SOL     OW30577   5.339   5.159   3.494
 9893SOL    HW130578   5.250   5.122   3.522
 9893SOL    HW230579   5.335   5.258   3.490
 9894SOL     OW30580   4.051   3.403   5.932
 9894SOL    HW130581   3.968   3.414   5.878
 9894SOL    HW230582   4.131   3.426   5.877
 9895SOL     OW30583   5.275   2.347   0.064
 9895SOL    HW130584   5.222   2.334   7.006
 9895SOL    HW230585   5.354   2.286   0.064
 9896SOL     OW30586   4.342   4.218   0.862
 9896SOL    HW130587   4.302   4.283   0.927
 9896SOL    HW230588   4.423   4.176   0.903
 9897SOL     OW30589   5.957   2.383   3.189
 9897SOL    HW130590   5.875   2.325   3.186
 9897SOL    HW230591   5.935   2.470   3.234
 9898SOL     OW30592   1.477   5.190   5.524
 9898SOL    HW130593   1.457   5.283   5.556
 9898SOL    HW230594   1.462   5.125   5.598
 9899SOL     OW30595   4.925   5.277   1.796
 9899SOL    HW130596   4.953   5.351   1.857
 9899SOL    HW230597   4.981   5.279   1.714
 9900SOL     OW30598   1.472   2.833   4.214
 9900SOL    HW130599   1.416   2.826   4.131
 9900SOL    HW230600   1.455   2.920   4.259
 9901SOL     OW30601   3.274   2.895   5.473
 9901SOL    HW130602   3.349   2.866   5.414
 9901SOL    HW230603   3.269   2.835   5.553
 9902SOL     OW30604   4.153   3.407   0.182
 9902SOL    HW130605   4.240   3.412   0.232
 9902SOL    HW230606   4.080   3.383   0.246
 9903SOL     OW30607   4.427   2.318   1.700
 9903SOL    HW130608   4.490   2.331   1.623
 9903SOL    HW230609   4.405   2.407   1.740
 9904SOL     OW30610   6.721   1.524   1.170
 9904SOL    HW130611   6.775   1.535   1.253
 9904SOL    HW230612   6.624   1.528   1.193
 9905SOL     OW30613   1.280   0.291   5.240
 9905SOL    HW130614   1.288   0.214   5.178
 9905SOL    HW230615   1.286   0.377   5.189
 9906SOL     OW30616   2.542   3.239   6.393
 9906SOL    HW130617   2.468   3.268   6.334
 9906SOL    HW230618   2.628   3.279   6.361
 9907SOL     OW30619   2.633   6.361   2.740
 9907SOL    HW130620   2.579   6.368   2.824
 9907SOL    HW230621   2.571   6.358   2.662
 9908SOL     OW30622   1.321   3.652   5.754
 9908SOL    HW130623   1.230   3.678   5.720
 9908SOL    HW230624   1.375   3.615   5.678
 9909SOL     OW30625   3.522   0.572   2.731
 9909SOL    HW130626   3.459   0.506   2.771
 9909SOL    HW230627   3.493   0.592   2.637
 9910SOL     OW30628   6.921   4.003   0.918
 9910SOL    HW130629   6.860   4.072   0.878
 9910SOL    HW230630   7.013   4.016   0.882
 9911SOL     OW30631   3.662   4.923   3.464
 9911SOL    HW130632   3.702   4.839   3.502
 9911SOL    HW230633   3.568   4.932   3.496
 9912SOL     OW30634   4.863   0.479   0.953
 9912SOL    HW130635   4.783   0.446   0.903
 9912SOL    HW230636   4.839   0.491   1.050
 9913SOL     OW30637   4.632   1.710   2.917
 9913SOL    HW130638   4.731   1.713   2.931
 9913SOL    HW230639   4.606   1.620   2.882
 9914SOL     OW30640   0.921   0.093   4.768
 9914SOL    HW130641   0.964   0.034   4.700
 9914SOL    HW230642   0.821   0.087   4.759
 9915SOL     OW30643   5.479   3.355   4.296
 9915SOL    HW130644   5.483   3.297   4.215
 9915SOL    HW230645   5.393   3.338   4.344
 9916SOL     OW30646   2.286   2.791   2.204
 9916SOL    HW130647   2.299   2.754   2.113
 9916SOL    HW230648   2.335   2.735   2.271
 9917SOL     OW30649   2.637   3.419   5.974
 9917SOL    HW130650   2.653   3.516   5.991
 9917SOL    HW230651   2.723   3.369   5.979
 9918SOL     OW30652   2.141   1.398   5.816
 9918SOL    HW130653   2.134   1.329   5.745
 9918SOL    HW230654   2.218   1.459   5.796
 9919SOL     OW30655   0.916   5.746   2.671
 9919SOL    HW130656   0.896   5.665   2.726
 9919SOL    HW230657   0.836   5.769   2.614
 9920SOL     OW30658   4.263   6.392   1.365
 9920SOL    HW130659   4.200   6.467   1.385
 9920SOL    HW230660   4.348   6.428   1.328
 9921SOL     OW30661   5.497   0.490   3.332
 9921SOL    HW130662   5.566   0.561   3.320
 9921SOL    HW230663   5.530   0.403   3.294
 9922SOL     OW30664   4.241   4.553   0.936
 9922SOL    HW130665   4.304   4.553   0.858
 9922SOL    HW230666   4.244   4.465   0.982
 9923SOL     OW30667   6.350   2.222   6.321
 9923SOL    HW130668   6.273   2.263   6.368
 9923SOL    HW230669   6.331   2.219   6.223
 9924SOL     OW30670   6.642   1.251   3.230
 9924SOL    HW130671   6.712   1.179   3.227
 9924SOL    HW230672   6.634   1.292   3.139
 9925SOL     OW30673   2.672   2.704   5.545
 9925SOL    HW130674   2.754   2.648   5.559
 9925SOL    HW230675   2.615   2.663   5.474
 9926SOL     OW30676   1.391   0.802   0.115
 9926SOL    HW130677   1.454   0.799   0.192
 9926SOL    HW230678   1.297   0.811   0.149
 9927SOL     OW30679   0.859   1.726   1.886
 9927SOL    HW130680   0.784   1.666   1.914
 9927SOL    HW230681   0.850   1.814   1.931
 9928SOL     OW30682   0.260   4.036   2.598
 9928SOL    HW130683   0.258   3.936   2.600
 9928SOL    HW230684   0.349   4.068   2.629
 9929SOL     OW30685   2.710   4.109   0.086
 9929SOL    HW130686   2.754   4.196   0.068
 9929SOL    HW230687   2.617   4.125   0.121
 9930SOL     OW30688   0.141   6.668   5.910
 9930SOL    HW130689   0.205   6.721   5.854
 9930SOL    HW230690   0.091   6.603   5.852
 9931SOL     OW30691   1.538   5.668   5.772
 9931SOL    HW130692   1.448   5.711   5.767
 9931SOL    HW230693   1.527   5.569   5.783
 9932SOL     OW30694   1.485   1.533   0.285
 9932SOL    HW130695   1.513   1.465   0.217
 9932SOL    HW230696   1.416   1.493   0.344
 9933SOL     OW30697   1.627   1.450   3.742
 9933SOL    HW130698   1.529   1.430   3.737
 9933SOL    HW230699   1.665   1.454   3.649
 9934SOL     OW30700   4.049   1.275   5.998
 9934SOL    HW130701   4.006   1.205   5.941
 9934SOL    HW230702   4.146   1.282   5.974
 9935SOL     OW30703   2.813   1.922   0.792
 9935SOL    HW130704   2.816   2.017   0.824
 9935SOL    HW230705   2.858   1.863   0.859
 9936SOL     OW30706   6.019   5.893   5.863
 9936SOL    HW130707   5.965   5.904   5.779
 9936SOL    HW230708   6.113   5.923   5.846
 9937SOL     OW30709   0.453   0.240   3.424
 9937SOL    HW130710   0.381   0.230   3.492
 9937SOL    HW230711   0.451   0.163   3.361
 9938SOL     OW30712   6.452   1.606   4.285
 9938SOL    HW130713   6.449   1.703   4.262
 9938SOL    HW230714   6.358   1.572   4.297
 9939SOL     OW30715   2.378   4.269   1.460
 9939SOL    HW130716   2.421   4.190   1.417
 9939SOL    HW230717   2.436   4.303   1.535
 9940SOL     OW30718   0.385   0.873   3.215
 9940SOL    HW130719   0.393   0.939   3.140
 9940SOL    HW230720   0.290   0.866   3.244
 9941SOL     OW30721   4.974   4.826   6.317
 9941SOL    HW130722   5.014   4.735   6.308
 9941SOL    HW230723   4.929   4.834   6.406
 9942SOL     OW30724   4.774   4.953   3.163
 9942SOL    HW130725   4.712   5.007   3.107
 9942SOL    HW230726   4.860   5.003   3.175
 9943SOL     OW30727   2.543   3.904   6.719
 9943SOL    HW130728   2.476   3.934   6.650
 9943SOL    HW230729   2.628   3.955   6.707
 9944SOL     OW30730   1.182   4.686   0.217
 9944SOL    HW130731   1.271   4.730   0.227
 9944SOL    HW230732   1.174   4.646   0.126
 9945SOL     OW30733   5.848   3.375   6.334
 9945SOL    HW130734   5.831   3.298   6.273
 9945SOL    HW230735   5.928   3.355   6.390
 9946SOL     OW30736   5.666   1.698   2.463
 9946SOL    HW130737   5.603   1.627   2.496
 9946SOL    HW230738   5.742   1.708   2.527
 9947SOL     OW30739   1.489   1.649   3.916
 9947SOL    HW130740   1.564   1.716   3.918
 9947SOL    HW230741   1.515   1.571   3.859
 9948SOL     OW30742   6.073   6.757   4.320
 9948SOL    HW130743   5.977   6.780   4.301
 9948SOL    HW230744   6.131   6.834   4.298
 9949SOL     OW30745   5.918   4.972   4.157
 9949SOL    HW130746   5.859   4.900   4.121
 9949SOL    HW230747   6.000   4.931   4.196
 9950SOL     OW30748   6.379   5.009   5.362
 9950SOL    HW130749   6.475   5.038   5.362
 9950SOL    HW230750   6.322   5.086   5.332
 9951SOL     OW30751   0.972   2.310   1.882
 9951SOL    HW130752   1.052   2.325   1.939
 9951SOL    HW230753   0.979   2.221   1.837
 9952SOL     OW30754   0.541   4.465   1.892
 9952SOL    HW130755   0.560   4.367   1.901
 9952SOL    HW230756   0.524   4.487   1.796
 9953SOL     OW30757   6.291   2.338   3.536
 9953SOL    HW130758   6.223   2.379   3.596
 9953SOL    HW230759   6.383   2.364   3.566
 9954SOL     OW30760   3.430   2.010   5.867
 9954SOL    HW130761   3.372   2.022   5.786
 9954SOL    HW230762   3.524   1.995   5.838
 9955SOL     OW30763   6.005   3.043   0.233
 9955SOL    HW130764   5.981   3.108   0.306
 9955SOL    HW230765   5.923   2.993   0.205
 9956SOL     OW30766   1.891   3.786   3.348
 9956SOL    HW130767   1.904   3.849   3.271
 9956SOL    HW230768   1.974   3.733   3.362
 9957SOL     OW30769   5.024   0.141   1.035
 9957SOL    HW130770   5.114   0.096   1.036
 9957SOL    HW230771   4.962   0.093   1.097
 9958SOL     OW30772   5.142   4.577   0.189
 9958SOL    HW130773   5.106   4.574   0.096
 9958SOL    HW230774   5.087   4.518   0.248
 9959SOL     OW30775   4.954   4.446   0.326
 9959SOL    HW130776   4.890   4.484   0.259
 9959SOL    HW230777   4.907   4.434   0.413
 9960SOL     OW30778   0.985   0.406   6.880
 9960SOL    HW130779   1.073   0.360   6.865
 9960SOL    HW230780   0.967   0.469   6.804
 9961SOL     OW30781   2.942   4.856   1.561
 9961SOL    HW130782   2.918   4.940   1.610
 9961SOL    HW230783   2.950   4.781   1.627
 9962SOL     OW30784   3.236   6.422   1.387
 9962SOL    HW130785   3.324   6.462   1.360
 9962SOL    HW230786   3.178   6.494   1.425
 9963SOL     OW30787   1.114   1.479   5.986
 9963SOL    HW130788   1.064   1.566   5.995
 9963SOL    HW230789   1.191   1.491   5.923
 9964SOL     OW30790   4.832   3.739   5.570
 9964SOL    HW130791   4.779   3.724   5.487
 9964SOL    HW230792   4.901   3.668   5.579
 9965SOL     OW30793   3.197   5.860   4.709
 9965SOL    HW130794   3.269   5.846   4.777
 9965SOL    HW230795   3.232   5.837   4.618
 9966SOL     OW30796   3.825   4.905   2.546
 9966SOL    HW130797   3.886   4.891   2.624
 9966SOL    HW230798   3.746   4.959   2.576
 9967SOL     OW30799   6.531   0.021   3.331
 9967SOL    HW130800   6.502   0.062   3.245
 9967SOL    HW230801   6.500   6.952   3.335
 9968SOL     OW30802   3.773   6.633   0.768
 9968SOL    HW130803   3.742   6.641   0.674
 9968SOL    HW230804   3.742   6.546   0.806
 9969SOL     OW30805   1.490   5.153   3.579
 9969SOL    HW130806   1.581   5.183   3.552
 9969SOL    HW230807   1.446   5.223   3.634
 9970SOL     OW30808   6.241   3.966   1.701
 9970SOL    HW130809   6.308   4.013   1.643
 9970SOL    HW230810   6.285   3.933   1.784
 9971SOL     OW30811   0.773   4.270   1.998
 9971SOL    HW130812   0.690   4.236   1.955
 9971SOL    HW230813   0.853   4.240   1.945
 9972SOL     OW30814   3.151   3.522   0.020
 9972SOL    HW130815   3.068   3.517   0.075
 9972SOL    HW230816   3.131   3.564   6.958
 9973SOL     OW30817   3.773   1.522   3.692
 9973SOL    HW130818   3.701   1.569   3.744
 9973SOL    HW230819   3.850   1.584   3.678
 9974SOL     OW30820   0.669   2.662   2.890
 9974SOL    HW130821   0.602   2.644   2.963
 9974SOL    HW230822   0.755   2.691   2.931
 9975SOL     OW30823   1.481   5.059   6.866
 9975SOL    HW130824   1.541   5.012   6.930
 9975SOL    HW230825   1.520   5.055   6.774
 9976SOL     OW30826   3.060   4.272   6.362
 9976SOL    HW130827   3.033   4.197   6.302
 9976SOL    HW230828   3.134   4.323   6.319
 9977SOL     OW30829   5.068   6.209   5.155
 9977SOL    HW130830   5.102   6.185   5.246
 9977SOL    HW230831   4.971   6.185   5.149
 9978SOL     OW30832   0.739   2.821   6.173
 9978SOL    HW130833   0.686   2.747   6.214
 9978SOL    HW230834   0.764   2.796   6.079
 9979SOL     OW30835   4.298   3.240   5.438
 9979SOL    HW130836   4.285   3.254   5.536
 9979SOL    HW230837   4.388   3.273   5.411
 9980SOL     OW30838   1.456   0.805   0.390
 9980SOL    HW130839   1.506   0.740   0.446
 9980SOL    HW230840   1.359   0.804   0.416
 9981SOL     OW30841   0.576   2.606   1.440
 9981SOL    HW130842   0.639   2.593   1.364
 9981SOL    HW230843   0.628   2.625   1.523
 9982SOL     OW30844   2.325   1.950   5.526
 9982SOL    HW130845   2.264   1.895   5.469
 9982SOL    HW230846   2.311   1.928   5.622
 9983SOL     OW30847   0.024   3.266   2.058
 9983SOL    HW130848   0.024   3.186   1.998
 9983SOL    HW230849   0.007   3.238   2.152
 9984SOL     OW30850   6.456   6.228   0.362
 9984SOL    HW130851   6.527   6.166   0.330
 9984SOL    HW230852   6.422   6.284   0.286
 9985SOL     OW30853   4.358   5.598   0.531
 9985SOL    HW130854   4.371   5.639   0.441
 9985SOL    HW230855   4.363   5.668   0.602
 9986SOL     OW30856   5.103   4.228   0.411
 9986SOL    HW130857   5.195   4.245   0.447
 9986SOL    HW230858   5.071   4.309   0.363
 9987SOL     OW30859   5.752   3.044   1.974
 9987SOL    HW130860   5.801   2.959   1.992
 9987SOL    HW230861   5.728   3.049   1.877
 9988SOL     OW30862   5.276   6.089   4.535
 9988SOL    HW130863   5.253   6.150   4.611
 9988SOL    HW230864   5.328   6.139   4.466
 9989SOL     OW30865   6.252   5.148   1.943
 9989SOL    HW130866   6.175   5.135   2.005
 9989SOL    HW230867   6.336   5.160   1.997
 9990SOL     OW30868   0.318   0.421   3.703
 9990SOL    HW130869   0.402   0.397   3.752
 9990SOL    HW230870   0.279   0.338   3.662
 9991SOL     OW30871   1.629   4.384   4.482
 9991SOL    HW130872   1.682   4.392   4.567
 9991SOL    HW230873   1.688   4.406   4.404
 9992SOL     OW30874   3.304   4.601   0.936
 9992SOL    HW130875   3.247   4.683   0.932
 9992SOL    HW230876   3.335   4.578   0.844
 9993SOL     OW30877   3.562   6.987   3.812
 9993SOL    HW130878   3.502   7.025   3.742
 9993SOL    HW230879   3.570   0.025   3.888
 9994SOL     OW30880   6.344   4.827   4.224
 9994SOL    HW130881   6.354   4.748   4.163
 9994SOL    HW230882   6.432   4.845   4.269
 9995SOL     OW30883   2.935   0.786   5.015
 9995SOL    HW130884   2.942   0.688   5.033
 9995SOL    HW230885   2.961   0.805   4.920
 9996SOL     OW30886   1.681   4.143   0.999
 9996SOL    HW130887   1.598   4.175   0.954
 9996SOL    HW230888   1.753   4.211   0.987
 9997SOL     OW30889   6.234   2.726   4.111
 9997SOL    HW130890   6.328   2.701   4.133
 9997SOL    HW230891   6.217   2.822   4.137
 9998SOL     OW30892   4.836   3.897   2.558
 9998SOL    HW130893   4.795   3.847   2.482
 9998SOL    HW230894   4.934   3.904   2.544
 9999SOL     OW30895   7.018   6.682   4.274
 9999SOL    HW130896   6.975   6.643   4.356
 9999SOL    HW230897   6.948   6.699   4.205
10000SOL     OW30898   4.800   1.895   1.556
10000SOL    HW130899   4.715   1.941   1.529
10000SOL    HW230900   4.780   1.800   1.582
10001SOL     OW30901   3.256   6.084   2.122
10001SOL    HW130902   3.317   6.109   2.046
10001SOL    HW230903   3.308   6.083   2.207
10002SOL     OW30904   2.241   0.980   1.318
10002SOL    HW130905   2.264   0.890   1.280
10002SOL    HW230906   2.322   1.018   1.363
10003SOL     OW30907   1.706   1.166   3.125
10003SOL    HW130908   1.734   1.262   3.121
10003SOL    HW230909   1.766   1.117   3.189
10004SOL     OW30910   6.381   4.597   4.903
10004SOL    HW130911   6.372   4.598   5.003
10004SOL    HW230912   6.457   4.656   4.877
10005SOL     OW30913   2.178   5.902   3.467
10005SOL    HW130914   2.127   5.948   3.394
10005SOL    HW230915   2.181   5.804   3.450
10006SOL     OW30916   5.421   0.374   5.816
10006SOL    HW130917   5.355   0.350   5.746
10006SOL    HW230918   5.445   0.471   5.807
10007SOL     OW30919   1.085   4.583   5.074
10007SOL    HW130920   1.044   4.509   5.021
10007SOL    HW230921   1.162   4.622   5.023
10008SOL     OW30922   4.246   1.858   4.791
10008SOL    HW130923   4.235   1.902   4.880
10008SOL    HW230924   4.343   1.843   4.772
10009SOL     OW30925   1.613   4.601   1.827
10009SOL    HW130926   1.580   4.510   1.800
10009SOL    HW230927   1.558   4.671   1.781
10010SOL     OW30928   2.388   4.992   6.889
10010SOL    HW130929   2.451   5.069   6.880
10010SOL    HW230930   2.430   4.910   6.850
10011SOL     OW30931   0.848   3.420   0.408
10011SOL    HW130932   0.925   3.442   0.347
10011SOL    HW230933   0.764   3.459   0.370
10012SOL     OW30934   5.114   1.355   1.711
10012SOL    HW130935   5.191   1.296   1.735
10012SOL    HW230936   5.138   1.411   1.631
10013SOL     OW30937   1.002   5.926   5.086
10013SOL    HW130938   0.993   5.856   5.157
10013SOL    HW230939   1.077   5.901   5.025
10014SOL     OW30940   0.381   6.788   3.499
10014SOL    HW130941   0.386   6.689   3.503
10014SOL    HW230942   0.473   6.827   3.507
10015SOL     OW30943   3.616   4.761   5.592
10015SOL    HW130944   3.636   4.674   5.546
10015SOL    HW230945   3.665   4.835   5.545
10016SOL     OW30946   1.985   6.961   3.680
10016SOL    HW130947   1.957   6.869   3.653
10016SOL    HW230948   2.057   6.955   3.749
10017SOL     OW30949   2.603   1.602   3.016
10017SOL    HW130950   2.608   1.700   2.996
10017SOL    HW230951   2.695   1.567   3.035
10018SOL     OW30952   6.440   3.740   5.644
10018SOL    HW130953   6.350   3.766   5.611
10018SOL    HW230954   6.505   3.814   5.626
10019SOL     OW30955   0.785   1.624   2.796
10019SOL    HW130956   0.829   1.577   2.873
10019SOL    HW230957   0.855   1.656   2.732
10020SOL     OW30958   0.012   0.520   2.298
10020SOL    HW130959   6.983   0.482   2.223
10020SOL    HW230960   6.978   0.568   2.362
10021SOL     OW30961   1.527   4.025   1.688
10021SOL    HW130962   1.609   3.998   1.638
10021SOL    HW230963   1.554   4.076   1.770
10022SOL     OW30964   2.617   6.388   0.671
10022SOL    HW130965   2.539   6.425   0.723
10022SOL    HW230966   2.585   6.358   0.581
10023SOL     OW30967   2.701   6.752   6.045
10023SOL    HW130968   2.612   6.709   6.026
10023SOL    HW230969   2.698   6.848   6.019
10024SOL     OW30970   1.703   4.706   3.151
10024SOL    HW130971   1.623   4.664   3.108
10024SOL    HW230972   1.672   4.769   3.223
10025SOL     OW30973   1.360   4.029   1.455
10025SOL    HW130974   1.439   4.066   1.505
10025SOL    HW230975   1.318   4.102   1.401
10026SOL     OW30976   4.827   1.337   2.843
10026SOL    HW130977   4.818   1.360   2.940
10026SOL    HW230978   4.913   1.374   2.807
10027SOL     OW30979   1.882   2.097   5.734
10027SOL    HW130980   1.801   2.073   5.681
10027SOL    HW230981   1.858   2.108   5.830
10028SOL     OW30982   3.728   0.439   1.779
10028SOL    HW130983   3.728   0.391   1.692
10028SOL    HW230984   3.810   0.414   1.831
10029SOL     OW30985   0.215   3.056   4.544
10029SOL    HW130986   0.246   3.092   4.632
10029SOL    HW230987   0.115   3.049   4.544
10030SOL     OW30988   2.517   6.769   5.067
10030SOL    HW130989   2.489   6.862   5.093
10030SOL    HW230990   2.472   6.744   4.981
10031SOL     OW30991   3.938   5.330   4.406
10031SOL    HW130992   3.974   5.389   4.479
10031SOL    HW230993   4.003   5.257   4.388
10032SOL     OW30994   3.265   5.929   5.317
10032SOL    HW130995   3.259   5.959   5.222
10032SOL    HW230996   3.354   5.887   5.333
10033SOL     OW30997   4.321   1.690   3.522
10033SOL    HW130998   4.348   1.668   3.616
10033SOL    HW230999   4.291   1.785   3.518
10034SOL     OW31000   2.078   0.682   3.352
10034SOL    HW131001   2.086   0.714   3.258
10034SOL    HW231002   2.165   0.644   3.382
10035SOL     OW31003   6.480   3.033   0.369
10035SOL    HW131004   6.476   3.039   0.270
10035SOL    HW231005   6.513   2.942   0.396
10036SOL     OW31006   6.516   0.913   6.359
10036SOL    HW131007   6.556   0.965   6.284
10036SOL    HW231008   6.572   0.924   6.441
10037SOL     OW31009   6.305   0.234   6.234
10037SOL    HW131010   6.379   0.234   6.301
10037SOL    HW231011   6.218   0.251   6.282
10038SOL     OW31012   4.150   0.305   0.370
10038SOL    HW131013   4.089   0.297   0.449
10038SOL    HW231014   4.099   0.333   0.289
10039SOL     OW31015   5.171   5.072   4.476
10039SOL    HW131016   5.230   5.044   4.401
10039SOL    HW231017   5.225   5.119   4.546
10040SOL     OW31018   4.069   0.286   0.639
10040SOL    HW131019   4.078   0.217   0.711
10040SOL    HW231020   4.034   0.371   0.679
10041SOL     OW31021   6.348   4.882   5.618
10041SOL    HW131022   6.298   4.964   5.646
10041SOL    HW231023   6.367   4.887   5.520
10042SOL     OW31024   0.383   1.206   5.424
10042SOL    HW131025   0.296   1.159   5.411
10042SOL    HW231026   0.440   1.196   5.342
10043SOL     OW31027   1.195   0.729   2.991
10043SOL    HW131028   1.263   0.797   2.963
10043SOL    HW231029   1.173   0.741   3.088
10044SOL     OW31030   1.759   1.054   4.875
10044SOL    HW131031   1.695   0.981   4.850
10044SOL    HW231032   1.851   1.028   4.849
10045SOL     OW31033   4.540   6.891   4.554
10045SOL    HW131034   4.555   6.975   4.503
10045SOL    HW231035   4.574   6.813   4.501
10046SOL     OW31036   0.087   2.200   1.737
10046SOL    HW131037   0.156   2.231   1.803
10046SOL    HW231038   0.130   2.187   1.648
10047SOL     OW31039   6.095   2.409   4.963
10047SOL    HW131040   6.144   2.374   4.883
10047SOL    HW231041   6.116   2.351   5.042
10048SOL     OW31042   3.253   1.329   1.690
10048SOL    HW131043   3.309   1.396   1.740
10048SOL    HW231044   3.241   1.247   1.747
10049SOL     OW31045   1.703   0.113   6.554
10049SOL    HW131046   1.629   0.147   6.613
10049SOL    HW231047   1.663   0.065   6.476
10050SOL     OW31048   5.296   3.200   4.823
10050SOL    HW131049   5.197   3.214   4.825
10050SOL    HW231050   5.331   3.193   4.917
10051SOL     OW31051   6.732   2.976   4.356
10051SOL    HW131052   6.826   2.943   4.348
10051SOL    HW231053   6.718   3.053   4.293
10052SOL     OW31054   1.958   3.173   1.582
10052SOL    HW131055   1.937   3.252   1.524
10052SOL    HW231056   1.878   3.152   1.639
10053SOL     OW31057   3.880   5.108   3.513
10053SOL    HW131058   3.822   5.032   3.482
10053SOL    HW231059   3.885   5.178   3.442
10054SOL     OW31060   4.569   5.960   6.258
10054SOL    HW131061   4.496   6.008   6.307
10054SOL    HW231062   4.579   5.999   6.167
10055SOL     OW31063   6.381   2.315   5.060
10055SOL    HW131064   6.303   2.298   5.120
10055SOL    HW231065   6.373   2.259   4.978
10056SOL     OW31066   5.988   4.988   0.974
10056SOL    HW131067   6.055   5.052   0.936
10056SOL    HW231068   6.021   4.894   0.962
10057SOL     OW31069   4.053   1.937   4.323
10057SOL    HW131070   4.044   1.931   4.422
10057SOL    HW231071   3.990   2.006   4.288
10058SOL     OW31072   6.065   4.981   3.729
10058SOL    HW131073   5.972   4.949   3.747
10058SOL    HW231074   6.064   5.042   3.650
10059SOL     OW31075   5.172   6.896   1.028
10059SOL    HW131076   5.167   6.869   1.124
10059SOL    HW231077   5.263   6.875   0.991
10060SOL     OW31078   3.084   2.158   1.898
10060SOL    HW131079   3.022   2.227   1.933
10060SOL    HW231080   3.074   2.150   1.799
10061SOL     OW31081   6.079   1.271   4.308
10061SOL    HW131082   5.994   1.308   4.345
10061SOL    HW231083   6.060   1.222   4.223
10062SOL     OW31084   6.054   6.502   3.838
10062SOL    HW131085   5.981   6.444   3.876
10062SOL    HW231086   6.081   6.570   3.905
10063SOL     OW31087   1.382   2.218   3.257
10063SOL    HW131088   1.460   2.241   3.316
10063SOL    HW231089   1.392   2.266   3.170
10064SOL     OW31090   5.234   5.221   4.734
10064SOL    HW131091   5.252   5.311   4.775
10064SOL    HW231092   5.140   5.194   4.753
10065SOL     OW31093   1.438   0.055   1.972
10065SOL    HW131094   1.403   0.063   2.065
10065SOL    HW231095   1.537   0.041   1.976
10066SOL     OW31096   0.687   1.113   3.864
10066SOL    HW131097   0.711   1.198   3.910
10066SOL    HW231098   0.588   1.098   3.871
10067SOL     OW31099   5.498   4.791   4.426
10067SOL    HW131100   5.499   4.878   4.475
10067SOL    HW231101   5.582   4.740   4.447
10068SOL     OW31102   5.436   2.719   4.843
10068SOL    HW131103   5.536   2.722   4.845
10068SOL    HW231104   5.401   2.794   4.787
10069SOL     OW31105   2.300   0.594   3.479
10069SOL    HW131106   2.390   0.618   3.515
10069SOL    HW231107   2.302   0.501   3.441
10070SOL     OW31108   0.136   6.261   4.997
10070SOL    HW131109   0.218   6.269   4.940
10070SOL    HW231110   0.135   6.172   5.043
10071SOL     OW31111   4.722   5.294   4.051
10071SOL    HW131112   4.761   5.381   4.021
10071SOL    HW231113   4.623   5.302   4.055
10072SOL     OW31114   0.372   6.489   4.011
10072SOL    HW131115   0.353   6.578   3.970
10072SOL    HW231116   0.288   6.436   4.018
10073SOL     OW31117   6.231   4.452   4.724
10073SOL    HW131118   6.291   4.512   4.775
10073SOL    HW231119   6.174   4.506   4.662
10074SOL     OW31120   1.252   6.735   5.583
10074SOL    HW131121   1.269   6.796   5.660
10074SOL    HW231122   1.176   6.675   5.604
10075SOL     OW31123   1.505   2.317   2.980
10075SOL    HW131124   1.592   2.268   2.988
10075SOL    HW231125   1.450   2.276   2.907
10076SOL     OW31126   5.158   0.159   4.756
10076SOL    HW131127   5.196   0.105   4.681
10076SOL    HW231128   5.108   0.237   4.719
10077SOL     OW31129   3.867   2.277   6.489
10077SOL    HW131130   3.838   2.182   6.497
10077SOL    HW231131   3.874   2.301   6.392
10078SOL     OW31132   6.485   6.143   4.961
10078SOL    HW131133   6.525   6.142   4.870
10078SOL    HW231134   6.391   6.109   4.956
10079SOL     OW31135   1.666   3.087   2.016
10079SOL    HW131136   1.747   3.113   2.069
10079SOL    HW231137   1.692   3.019   1.947
10080SOL     OW31138   2.682   2.736   0.134
10080SOL    HW131139   2.731   2.779   0.211
10080SOL    HW231140   2.747   2.683   0.079
10081SOL     OW31141   0.845   0.194   6.155
10081SOL    HW131142   0.917   0.142   6.201
10081SOL    HW231143   0.760   0.188   6.208
10082SOL     OW31144   6.914   2.262   2.151
10082SOL    HW131145   6.901   2.257   2.052
10082SOL    HW231146   6.867   2.343   2.186
10083SOL     OW31147   4.605   1.389   3.813
10083SOL    HW131148   4.507   1.387   3.793
10083SOL    HW231149   4.642   1.295   3.811
10084SOL     OW31150   3.325   0.558   6.281
10084SOL    HW131151   3.340   0.601   6.370
10084SOL    HW231152   3.236   0.513   6.280
10085SOL     OW31153   0.503   5.050   3.077
10085SOL    HW131154   0.485   5.138   3.032
10085SOL    HW231155   0.418   5.017   3.118
10086SOL     OW31156   5.885   5.190   2.498
10086SOL    HW131157   5.838   5.158   2.580
10086SOL    HW231158   5.878   5.289   2.492
10087SOL     OW31159   0.803   1.121   4.665
10087SOL    HW131160   0.831   1.026   4.649
10087SOL    HW231161   0.736   1.148   4.596
10088SOL     OW31162   0.399   0.015   5.380
10088SOL    HW131163   0.456   0.082   5.333
10088SOL    HW231164   0.373   6.969   5.316
10089SOL     OW31165   2.413   1.509   3.204
10089SOL    HW131166   2.365   1.432   3.161
10089SOL    HW231167   2.496   1.529   3.152
10090SOL     OW31168   1.203   4.221   0.733
10090SOL    HW131169   1.142   4.300   0.722
10090SOL    HW231170   1.148   4.138   0.738
10091SOL     OW31171   1.151   3.756   4.812
10091SOL    HW131172   1.128   3.658   4.809
10091SOL    HW231173   1.119   3.794   4.899
10092SOL     OW31174   1.646   4.016   5.163
10092SOL    HW131175   1.589   3.942   5.199
10092SOL    HW231176   1.644   4.093   5.226
10093SOL     OW31177   0.559   5.124   5.236
10093SOL    HW131178   0.588   5.211   5.198
10093SOL    HW231179   0.551   5.056   5.163
10094SOL     OW31180   2.368   0.235   2.469
10094SOL    HW131181   2.313   0.224   2.386
10094SOL    HW231182   2.464   0.245   2.445
10095SOL     OW31183   6.104   1.426   5.205
10095SOL    HW131184   6.060   1.363   5.268
10095SOL    HW231185   6.051   1.431   5.120
10096SOL     OW31186   6.799   5.077   2.484
10096SOL    HW131187   6.796   5.072   2.584
10096SOL    HW231188   6.872   5.018   2.451
10097SOL     OW31189   1.136   0.819   0.267
10097SOL    HW131190   1.183   0.836   0.353
10097SOL    HW231191   1.050   0.870   0.265
10098SOL     OW31192   1.703   6.106   5.802
10098SOL    HW131193   1.728   6.009   5.799
10098SOL    HW231194   1.766   6.159   5.746
10099SOL     OW31195   0.609   4.007   6.125
10099SOL    HW131196   0.556   4.017   6.040
10099SOL    HW231197   0.576   3.928   6.176
10100SOL     OW31198   5.145   0.394   5.251
10100SOL    HW131199   5.202   0.312   5.250
10100SOL    HW231200   5.086   0.394   5.170
10101SOL     OW31201   6.953   4.433   1.774
10101SOL    HW131202   6.974   4.336   1.761
10101SOL    HW231203   6.973   4.460   1.868
10102SOL     OW31204   2.867   1.020   2.960
10102SOL    HW131205   2.845   1.117   2.965
10102SOL    HW231206   2.966   1.008   2.968
10103SOL     OW31207   3.615   1.242   4.942
10103SOL    HW131208   3.530   1.227   4.891
10103SOL    HW231209   3.622   1.338   4.968
10104SOL     OW31210   0.448   4.346   5.006
10104SOL    HW131211   0.420   4.436   4.972
10104SOL    HW231212   0.541   4.352   5.043
10105SOL     OW31213   1.332   1.210   5.816
10105SOL    HW131214   1.333   1.251   5.725
10105SOL    HW231215   1.405   1.249   5.871
10106SOL     OW31216   5.472   4.629   0.863
10106SOL    HW131217   5.381   4.639   0.825
10106SOL    HW231218   5.480   4.541   0.910
10107SOL     OW31219   6.382   1.660   5.986
10107SOL    HW131220   6.339   1.738   6.033
10107SOL    HW231221   6.351   1.575   6.028
10108SOL     OW31222   6.141   6.642   6.914
10108SOL    HW131223   6.152   6.592   7.000
10108SOL    HW231224   6.148   6.579   6.837
10109SOL     OW31225   4.218   6.383   2.507
10109SOL    HW131226   4.300   6.409   2.558
10109SOL    HW231227   4.139   6.385   2.567
10110SOL     OW31228   4.144   6.616   5.652
10110SOL    HW131229   4.052   6.654   5.665
10110SOL    HW231230   4.160   6.598   5.555
10111SOL     OW31231   6.851   3.484   3.524
10111SOL    HW131232   6.898   3.479   3.436
10111SOL    HW231233   6.827   3.392   3.555
10112SOL     OW31234   6.031   4.221   5.262
10112SOL    HW131235   6.082   4.291   5.312
10112SOL    HW231236   5.962   4.264   5.205
10113SOL     OW31237   4.111   1.212   0.077
10113SOL    HW131238   4.032   1.233   0.135
10113SOL    HW231239   4.100   1.256   7.014
10114SOL     OW31240   5.689   1.079   0.687
10114SOL    HW131241   5.673   1.033   0.775
10114SOL    HW231242   5.617   1.146   0.671
10115SOL     OW31243   2.374   2.119   3.235
10115SOL    HW131244   2.388   2.208   3.191
10115SOL    HW231245   2.386   2.129   3.334
10116SOL     OW31246   1.103   6.896   1.392
10116SOL    HW131247   1.158   6.924   1.470
10116SOL    HW231248   1.026   6.959   1.380
10117SOL     OW31249   6.508   0.331   4.463
10117SOL    HW131250   6.539   0.412   4.414
10117SOL    HW231251   6.586   0.283   4.502
10118SOL     OW31252   0.003   4.918   2.479
10118SOL    HW131253   0.031   4.917   2.575
10118SOL    HW231254   6.973   4.837   2.460
10119SOL     OW31255   2.499   6.759   4.240
10119SOL    HW131256   2.481   6.855   4.260
10119SOL    HW231257   2.527   6.712   4.324
10120SOL     OW31258   0.797   3.115   4.197
10120SOL    HW131259   0.892   3.086   4.205
10120SOL    HW231260   0.781   3.194   4.256
10121SOL     OW31261   6.734   5.026   4.888
10121SOL    HW131262   6.784   4.942   4.910
10121SOL    HW231263   6.798   5.102   4.885
10122SOL     OW31264   6.157   2.719   0.158
10122SOL    HW131265   6.155   2.817   0.179
10122SOL    HW231266   6.132   2.667   0.240
10123SOL     OW31267   6.316   6.130   0.062
10123SOL    HW131268   6.346   6.097   6.998
10123SOL    HW231269   6.292   6.051   0.119
10124SOL     OW31270   2.459   3.749   6.944
10124SOL    HW131271   2.545   3.724   6.988
10124SOL    HW231272   2.479   3.804   6.862
10125SOL     OW31273   1.969   0.509   2.590
10125SOL    HW131274   2.067   0.526   2.588
10125SOL    HW231275   1.950   0.418   2.552
10126SOL     OW31276   6.507   5.496   6.163
10126SOL    HW131277   6.491   5.401   6.190
10126SOL    HW231278   6.580   5.535   6.219
10127SOL     OW31279   3.053   5.417   6.096
10127SOL    HW131280   3.067   5.427   5.998
10127SOL    HW231281   2.993   5.490   6.129
10128SOL     OW31282   0.622   1.074   1.571
10128SOL    HW131283   0.618   1.135   1.650
10128SOL    HW231284   0.620   1.128   1.487
10129SOL     OW31285   4.700   2.775   3.831
10129SOL    HW131286   4.685   2.731   3.920
10129SOL    HW231287   4.647   2.728   3.761
10130SOL     OW31288   1.820   4.773   2.137
10130SOL    HW131289   1.776   4.684   2.145
10130SOL    HW231290   1.896   4.779   2.203
10131SOL     OW31291   0.671   1.830   2.910
10131SOL    HW131292   0.639   1.781   2.991
10131SOL    HW231293   0.721   1.768   2.851
10132SOL     OW31294   3.440   6.192   3.091
10132SOL    HW131295   3.418   6.121   3.158
10132SOL    HW231296   3.538   6.190   3.071
10133SOL     OW31297   4.734   6.414   2.357
10133SOL    HW131298   4.732   6.402   2.456
10133SOL    HW231299   4.648   6.381   2.318
10134SOL     OW31300   6.269   0.260   4.068
10134SOL    HW131301   6.327   0.188   4.105
10134SOL    HW231302   6.317   0.308   3.994
10135SOL     OW31303   5.338   3.668   2.710
10135SOL    HW131304   5.432   3.690   2.737
10135SOL    HW231305   5.282   3.751   2.714
10136SOL     OW31306   5.523   0.205   2.822
10136SOL    HW131307   5.461   0.283   2.825
10136SOL    HW231308   5.484   0.130   2.876
10137SOL     OW31309   6.901   5.248   3.618
10137SOL    HW131310   6.994   5.212   3.617
10137SOL    HW231311   6.898   5.331   3.673
10138SOL     OW31312   4.588   2.429   0.854
10138SOL    HW131313   4.671   2.461   0.809
10138SOL    HW231314   4.580   2.330   0.842
10139SOL     OW31315   4.107   3.333   2.838
10139SOL    HW131316   4.111   3.294   2.930
10139SOL    HW231317   4.056   3.271   2.778
10140SOL     OW31318   6.019   6.328   5.823
10140SOL    HW131319   6.025   6.404   5.758
10140SOL    HW231320   6.055   6.245   5.780
10141SOL     OW31321   3.472   2.136   4.573
10141SOL    HW131322   3.381   2.179   4.574
10141SOL    HW231323   3.462   2.037   4.583
10142SOL     OW31324   5.558   6.239   5.175
10142SOL    HW131325   5.541   6.190   5.260
10142SOL    HW231326   5.554   6.337   5.191
10143SOL     OW31327   4.602   0.094   1.190
10143SOL    HW131328   4.559   0.084   1.280
10143SOL    HW231329   4.621   0.190   1.173
10144SOL     OW31330   4.590   6.315   5.795
10144SOL    HW131331   4.592   6.333   5.696
10144SOL    HW231332   4.495   6.309   5.826
10145SOL     OW31333   3.170   6.444   5.664
10145SOL    HW131334   3.153   6.357   5.618
10145SOL    HW231335   3.083   6.483   5.695
10146SOL     OW31336   3.488   5.172   5.239
10146SOL    HW131337   3.504   5.080   5.203
10146SOL    HW231338   3.497   5.238   5.164
10147SOL     OW31339   5.721   4.654   4.538
10147SOL    HW131340   5.670   4.568   4.538
10147SOL    HW231341   5.769   4.665   4.625
10148SOL     OW31342   6.267   5.355   6.927
10148SOL    HW131343   6.356   5.371   6.886
10148SOL    HW231344   6.278   5.338   7.025
10149SOL     OW31345   5.029   2.064   0.380
10149SOL    HW131346   5.061   2.156   0.358
10149SOL    HW231347   5.107   2.003   0.390
10150SOL     OW31348   4.872   4.107   0.427
10150SOL    HW131349   4.861   4.038   0.356
10150SOL    HW231350   4.963   4.148   0.421
10151SOL     OW31351   1.229   0.355   6.046
10151SOL    HW131352   1.242   0.436   6.102
10151SOL    HW231353   1.218   0.275   6.105
10152SOL     OW31354   1.805   5.797   4.112
10152SOL    HW131355   1.802   5.838   4.202
10152SOL    HW231356   1.846   5.860   4.047
10153SOL     OW31357   4.556   5.924   4.061
10153SOL    HW131358   4.471   5.978   4.063
10153SOL    HW231359   4.614   5.952   4.137
10154SOL     OW31360   6.041   0.005   5.602
10154SOL    HW131361   5.994   0.037   5.684
10154SOL    HW231362   5.974   7.011   5.530
10155SOL     OW31363   4.279   1.673   5.770
10155SOL    HW131364   4.192   1.649   5.727
10155SOL    HW231365   4.295   1.772   5.760
10156SOL     OW31366   6.482   0.282   2.001
10156SOL    HW131367   6.457   0.194   1.961
10156SOL    HW231368   6.556   0.269   2.067
10157SOL     OW31369   5.747   2.459   5.936
10157SOL    HW131370   5.727   2.361   5.946
10157SOL    HW231371   5.844   2.471   5.914
10158SOL     OW31372   4.472   3.595   6.871
10158SOL    HW131373   4.424   3.512   6.842
10158SOL    HW231374   4.553   3.609   6.814
10159SOL     OW31375   2.744   3.428   6.326
10159SOL    HW131376   2.803   3.443   6.405
10159SOL    HW231377   2.791   3.458   6.243
10160SOL     OW31378   1.260   4.081   2.606
10160SOL    HW131379   1.286   4.106   2.699
10160SOL    HW231380   1.170   4.121   2.585
10161SOL     OW31381   3.359   4.690   0.596
10161SOL    HW131382   3.306   4.606   0.583
10161SOL    HW231383   3.300   4.761   0.634
10162SOL     OW31384   2.831   4.291   0.596
10162SOL    HW131385   2.862   4.283   0.690
10162SOL    HW231386   2.766   4.367   0.588
10163SOL     OW31387   5.798   4.389   6.428
10163SOL    HW131388   5.744   4.381   6.345
10163SOL    HW231389   5.843   4.478   6.429
10164SOL     OW31390   6.127   3.259   5.096
10164SOL    HW131391   6.203   3.206   5.057
10164SOL    HW231392   6.163   3.339   5.143
10165SOL     OW31393   1.604   2.571   3.834
10165SOL    HW131394   1.599   2.557   3.735
10165SOL    HW231395   1.691   2.535   3.868
10166SOL     OW31396   3.501   0.980   1.952
10166SOL    HW131397   3.598   1.005   1.959
10166SOL    HW231398   3.493   0.892   1.907
10167SOL     OW31399   4.116   1.527   6.355
10167SOL    HW131400   4.174   1.604   6.380
10167SOL    HW231401   4.131   1.503   6.259
10168SOL     OW31402   6.681   3.884   4.735
10168SOL    HW131403   6.776   3.914   4.743
10168SOL    HW231404   6.661   3.818   4.807
10169SOL     OW31405   6.511   3.792   3.213
10169SOL    HW131406   6.567   3.866   3.175
10169SOL    HW231407   6.566   3.736   3.273
10170SOL     OW31408   0.815   4.376   5.747
10170SOL    HW131409   0.798   4.283   5.714
10170SOL    HW231410   0.729   4.425   5.755
10171SOL     OW31411   6.472   3.914   6.390
10171SOL    HW131412   6.426   3.957   6.312
10171SOL    HW231413   6.563   3.954   6.402
10172SOL     OW31414   6.131   6.874   3.353
10172SOL    HW131415   6.094   6.921   3.433
10172SOL    HW231416   6.227   6.852   3.369
10173SOL     OW31417   1.786   2.483   0.750
10173SOL    HW131418   1.830   2.508   0.664
10173SOL    HW231419   1.816   2.392   0.778
10174SOL     OW31420   5.554   5.211   1.664
10174SOL    HW131421   5.634   5.246   1.713
10174SOL    HW231422   5.525   5.124   1.704
10175SOL     OW31423   6.936   2.616   3.781
10175SOL    HW131424   6.948   2.700   3.729
10175SOL    HW231425   6.865   2.630   3.850
10176SOL     OW31426   1.516   3.576   5.576
10176SOL    HW131427   1.564   3.598   5.661
10176SOL    HW231428   1.493   3.479   5.575
10177SOL     OW31429   2.079   0.601   0.254
10177SOL    HW131430   2.020   0.566   0.327
10177SOL    HW231431   2.160   0.644   0.294
10178SOL     OW31432   6.516   2.939   4.870
10178SOL    HW131433   6.598   2.969   4.918
10178SOL    HW231434   6.532   2.940   4.772
10179SOL     OW31435   0.872   1.987   5.877
10179SOL    HW131436   0.829   2.047   5.944
10179SOL    HW231437   0.802   1.935   5.829
10180SOL     OW31438   4.197   6.363   6.726
10180SOL    HW131439   4.190   6.427   6.804
10180SOL    HW231440   4.135   6.287   6.741
10181SOL     OW31441   4.984   3.292   1.887
10181SOL    HW131442   5.073   3.338   1.893
10181SOL    HW231443   4.956   3.263   1.978
10182SOL     OW31444   5.542   1.713   2.202
10182SOL    HW131445   5.458   1.731   2.253
10182SOL    HW231446   5.617   1.695   2.266
10183SOL     OW31447   0.879   1.947   6.282
10183SOL    HW131448   0.791   1.902   6.299
10183SOL    HW231449   0.868   2.013   6.208
10184SOL     OW31450   4.247   1.165   6.265
10184SOL    HW131451   4.310   1.203   6.197
10184SOL    HW231452   4.153   1.185   6.238
10185SOL     OW31453   5.524   6.145   1.483
10185SOL    HW131454   5.490   6.202   1.409
10185SOL    HW231455   5.624   6.136   1.476
10186SOL     OW31456   5.772   3.211   2.938
10186SOL    HW131457   5.716   3.186   3.017
10186SOL    HW231458   5.749   3.304   2.909
10187SOL     OW31459   0.433   2.000   1.256
10187SOL    HW131460   0.455   2.078   1.198
10187SOL    HW231461   0.486   2.006   1.341
10188SOL     OW31462   3.810   6.378   0.608
10188SOL    HW131463   3.712   6.387   0.589
10188SOL    HW231464   3.861   6.437   0.545
10189SOL     OW31465   2.132   0.806   4.955
10189SOL    HW131466   2.184   0.763   4.881
10189SOL    HW231467   2.194   0.861   5.011
10190SOL     OW31468   5.051   2.876   1.196
10190SOL    HW131469   5.028   2.778   1.195
10190SOL    HW231470   4.977   2.926   1.241
10191SOL     OW31471   4.738   3.864   7.001
10191SOL    HW131472   4.777   3.943   0.022
10191SOL    HW231473   4.651   3.890   6.958
10192SOL     OW31474   4.685   0.828   5.511
10192SOL    HW131475   4.675   0.882   5.595
10192SOL    HW231476   4.648   0.736   5.526
10193SOL     OW31477   4.151   3.730   1.821
10193SOL    HW131478   4.173   3.633   1.832
10193SOL    HW231479   4.093   3.760   1.898
10194SOL     OW31480   6.339   4.584   5.197
10194SOL    HW131481   6.254   4.634   5.180
10194SOL    HW231482   6.411   4.649   5.220
10195SOL     OW31483   6.267   4.479   1.163
10195SOL    HW131484   6.168   4.483   1.150
10195SOL    HW231485   6.290   4.525   1.249
10196SOL     OW31486   5.374   1.618   4.720
10196SOL    HW131487   5.377   1.711   4.756
10196SOL    HW231488   5.297   1.608   4.658
10197SOL     OW31489   6.889   2.171   4.824
10197SOL    HW131490   6.845   2.107   4.887
10197SOL    HW231491   6.823   2.197   4.752
10198SOL     OW31492   3.896   0.733   1.717
10198SOL    HW131493   3.834   0.731   1.639
10198SOL    HW231494   3.883   0.818   1.768
10199SOL     OW31495   2.075   3.078   6.314
10199SOL    HW131496   1.994   3.041   6.268
10199SOL    HW231497   2.051   3.162   6.362
10200SOL     OW31498   4.896   2.302   0.954
10200SOL    HW131499   4.884   2.312   1.053
10200SOL    HW231500   4.841   2.225   0.922
10201SOL     OW31501   0.704   4.741   0.672
10201SOL    HW131502   0.711   4.645   0.701
10201SOL    HW231503   0.617   4.779   0.702
10202SOL     OW31504   3.813   2.408   6.226
10202SOL    HW131505   3.749   2.468   6.274
10202SOL    HW231506   3.875   2.462   6.170
10203SOL     OW31507   5.911   3.111   4.134
10203SOL    HW131508   5.824   3.105   4.084
10203SOL    HW231509   5.934   3.207   4.149
10204SOL     OW31510   5.785   0.108   7.005
10204SOL    HW131511   5.715   0.168   0.019
10204SOL    HW231512   5.770   0.100   6.907
10205SOL     OW31513   0.412   1.540   0.637
10205SOL    HW131514   0.417   1.595   0.720
10205SOL    HW231515   0.463   1.585   0.564
10206SOL     OW31516   0.815   0.672   5.886
10206SOL    HW131517   0.912   0.677   5.909
10206SOL    HW231518   0.799   0.595   5.824
10207SOL     OW31519   0.989   1.876   6.609
10207SOL    HW131520   1.013   1.810   6.680
10207SOL    HW231521   1.042   1.858   6.527
10208SOL     OW31522   5.643   5.250   4.035
10208SOL    HW131523   5.615   5.164   3.993
10208SOL    HW231524   5.741   5.262   4.026
10209SOL     OW31525   6.715   0.022   6.280
10209SOL    HW131526   6.770   6.981   6.330
10209SOL    HW231527   6.618   7.025   6.290
10210SOL     OW31528   4.569   6.779   1.269
10210SOL    HW131529   4.557   6.832   1.353
10210SOL    HW231530   4.665   6.782   1.241
10211SOL     OW31531   3.647   6.825   4.597
10211SOL    HW131532   3.698   6.907   4.574
10211SOL    HW231533   3.579   6.806   4.526
10212SOL     OW31534   0.973   0.281   4.961
10212SOL    HW131535   0.917   0.210   4.919
10212SOL    HW231536   1.013   0.247   5.046
10213SOL     OW31537   4.377   2.981   1.251
10213SOL    HW131538   4.375   2.907   1.185
10213SOL    HW231539   4.283   3.006   1.276
10214SOL     OW31540   1.229   2.256   1.691
10214SOL    HW131541   1.203   2.160   1.683
10214SOL    HW231542   1.301   2.265   1.760
10215SOL     OW31543   4.096   3.211   3.083
10215SOL    HW131544   4.060   3.293   3.128
10215SOL    HW231545   4.165   3.169   3.143
10216SOL     OW31546   6.819   0.727   1.414
10216SOL    HW131547   6.906   0.775   1.427
10216SOL    HW231548   6.754   0.786   1.367
10217SOL     OW31549   2.847   1.051   3.407
10217SOL    HW131550   2.913   1.013   3.343
10217SOL    HW231551   2.813   1.138   3.372
10218SOL     OW31552   1.298   3.378   1.704
10218SOL    HW131553   1.350   3.349   1.785
10218SOL    HW231554   1.300   3.478   1.697
10219SOL     OW31555   0.216   1.656   2.450
10219SOL    HW131556   0.185   1.699   2.365
10219SOL    HW231557   0.186   1.561   2.452
10220SOL     OW31558   3.846   3.182   1.312
10220SOL    HW131559   3.831   3.114   1.383
10220SOL    HW231560   3.861   3.272   1.354
10221SOL     OW31561   0.912   5.540   2.842
10221SOL    HW131562   0.849   5.512   2.915
10221SOL    HW231563   0.963   5.460   2.809
10222SOL     OW31564   3.044   3.492   4.998
10222SOL    HW131565   3.069   3.558   4.927
10222SOL    HW231566   2.972   3.432   4.964
10223SOL     OW31567   0.227   5.251   0.982
10223SOL    HW131568   0.141   5.301   0.973
10223SOL    HW231569   0.279   5.260   0.897
10224SOL     OW31570   5.906   3.225   3.469
10224SOL    HW131571   5.915   3.154   3.538
10224SOL    HW231572   5.834   3.289   3.495
10225SOL     OW31573   1.759   4.288   5.781
10225SOL    HW131574   1.735   4.232   5.860
10225SOL    HW231575   1.728   4.382   5.796
10226SOL     OW31576   3.420   0.936   0.189
10226SOL    HW131577   3.455   0.845   0.166
10226SOL    HW231578   3.408   0.943   0.288
10227SOL     OW31579   5.170   3.703   0.550
10227SOL    HW131580   5.153   3.665   0.459
10227SOL    HW231581   5.112   3.783   0.564
10228SOL     OW31582   6.653   0.331   0.460
10228SOL    HW131583   6.749   0.306   0.445
10228SOL    HW231584   6.642   0.370   0.552
10229SOL     OW31585   0.313   3.546   4.984
10229SOL    HW131586   0.315   3.578   4.889
10229SOL    HW231587   0.406   3.526   5.014
10230SOL     OW31588   6.499   5.395   2.488
10230SOL    HW131589   6.431   5.329   2.521
10230SOL    HW231590   6.454   5.463   2.430
10231SOL     OW31591   1.653   6.154   4.141
10231SOL    HW131592   1.656   6.196   4.050
10231SOL    HW231593   1.745   6.147   4.178
10232SOL     OW31594   3.266   1.004   3.339
10232SOL    HW131595   3.260   1.053   3.426
10232SOL    HW231596   3.175   0.996   3.299
10233SOL     OW31597   3.716   3.959   5.745
10233SOL    HW131598   3.679   3.968   5.838
10233SOL    HW231599   3.778   4.036   5.727
10234SOL     OW31600   5.802   0.283   1.020
10234SOL    HW131601   5.723   0.257   1.075
10234SOL    HW231602   5.884   0.236   1.054
10235SOL     OW31603   1.285   1.277   2.778
10235SOL    HW131604   1.344   1.333   2.836
10235SOL    HW231605   1.195   1.319   2.771
10236SOL     OW31606   2.392   6.695   0.138
10236SOL    HW131607   2.340   6.773   0.173
10236SOL    HW231608   2.349   6.610   0.168
10237SOL     OW31609   0.237   3.328   6.998
10237SOL    HW131610   0.270   3.297   6.909
10237SOL    HW231611   0.179   3.256   0.013
10238SOL     OW31612   4.328   5.269   1.209
10238SOL    HW131613   4.262   5.196   1.201
10238SOL    HW231614   4.317   5.315   1.297
10239SOL     OW31615   1.471   2.655   4.920
10239SOL    HW131616   1.562   2.677   4.956
10239SOL    HW231617   1.428   2.586   4.979
10240SOL     OW31618   2.660   6.749   2.005
10240SOL    HW131619   2.681   6.655   2.033
10240SOL    HW231620   2.568   6.773   2.035
10241SOL     OW31621   5.235   1.937   1.815
10241SOL    HW131622   5.333   1.937   1.837
10241SOL    HW231623   5.182   1.923   1.899
10242SOL     OW31624   0.284   2.344   0.954
10242SOL    HW131625   0.204   2.403   0.948
10242SOL    HW231626   0.365   2.400   0.973
10243SOL     OW31627   2.468   4.788   1.192
10243SOL    HW131628   2.439   4.693   1.199
10243SOL    HW231629   2.528   4.811   1.269
10244SOL     OW31630   2.300   3.966   1.400
10244SOL    HW131631   2.307   3.883   1.345
10244SOL    HW231632   2.206   3.980   1.429
10245SOL     OW31633   3.380   3.955   1.239
10245SOL    HW131634   3.460   3.898   1.220
10245SOL    HW231635   3.334   3.922   1.321
10246SOL     OW31636   3.069   3.130   4.472
10246SOL    HW131637   3.046   3.173   4.384
10246SOL    HW231638   3.158   3.085   4.464
10247SOL     OW31639   0.764   4.576   4.940
10247SOL    HW131640   0.745   4.664   4.985
10247SOL    HW231641   0.759   4.503   5.008
10248SOL     OW31642   1.066   6.669   3.685
10248SOL    HW131643   1.100   6.733   3.754
10248SOL    HW231644   0.997   6.610   3.726
10249SOL     OW31645   1.792   4.665   6.918
10249SOL    HW131646   1.755   4.578   6.884
10249SOL    HW231647   1.863   4.646   6.986
10250SOL     OW31648   6.212   3.110   0.730
10250SOL    HW131649   6.281   3.083   0.798
10250SOL    HW231650   6.125   3.066   0.752
10251SOL     OW31651   1.887   0.532   3.926
10251SOL    HW131652   1.804   0.519   3.980
10251SOL    HW231653   1.912   0.629   3.925
10252SOL     OW31654   4.976   3.661   5.261
10252SOL    HW131655   4.903   3.657   5.193
10252SOL    HW231656   4.990   3.756   5.289
10253SOL     OW31657   4.061   6.781   0.467
10253SOL    HW131658   3.986   6.803   0.529
10253SOL    HW231659   4.147   6.780   0.517
10254SOL     OW31660   5.049   1.637   5.192
10254SOL    HW131661   5.098   1.568   5.139
10254SOL    HW231662   5.075   1.631   5.288
10255SOL     OW31663   2.498   5.898   1.420
10255SOL    HW131664   2.529   5.823   1.362
10255SOL    HW231665   2.414   5.937   1.382
10256SOL     OW31666   5.303   1.190   1.794
10256SOL    HW131667   5.302   1.100   1.752
10256SOL    HW231668   5.263   1.184   1.886
10257SOL     OW31669   2.745   4.737   3.464
10257SOL    HW131670   2.734   4.810   3.532
10257SOL    HW231671   2.795   4.661   3.505
10258SOL     OW31672   3.394   1.923   3.155
10258SOL    HW131673   3.419   1.852   3.088
10258SOL    HW231674   3.477   1.972   3.183
10259SOL     OW31675   1.083   4.002   3.961
10259SOL    HW131676   1.008   4.064   3.984
10259SOL    HW231677   1.150   4.002   4.035
10260SOL     OW31678   1.385   1.315   3.755
10260SOL    HW131679   1.345   1.243   3.698
10260SOL    HW231680   1.441   1.274   3.827
10261SOL     OW31681   0.541   3.728   0.646
10261SOL    HW131682   0.520   3.661   0.575
10261SOL    HW231683   0.482   3.808   0.635
10262SOL     OW31684   4.029   0.535   6.741
10262SOL    HW131685   4.079   0.604   6.688
10262SOL    HW231686   4.073   0.446   6.730
10263SOL     OW31687   5.905   0.673   0.636
10263SOL    HW131688   5.837   0.736   0.599
10263SOL    HW231689   5.908   0.681   0.735
10264SOL     OW31690   5.826   5.022   6.600
10264SOL    HW131691   5.816   4.925   6.621
10264SOL    HW231692   5.780   5.076   6.670
10265SOL     OW31693   2.190   2.428   0.533
10265SOL    HW131694   2.206   2.432   0.435
10265SOL    HW231695   2.093   2.446   0.552
10266SOL     OW31696   3.174   3.029   2.944
10266SOL    HW131697   3.255   3.004   2.890
10266SOL    HW231698   3.194   3.018   3.041
10267SOL     OW31699   5.025   1.064   0.974
10267SOL    HW131700   4.940   1.117   0.985
10267SOL    HW231701   5.006   0.981   0.923
10268SOL     OW31702   5.458   6.712   1.705
10268SOL    HW131703   5.420   6.670   1.623
10268SOL    HW231704   5.399   6.694   1.783
10269SOL     OW31705   1.434   2.677   6.542
10269SOL    HW131706   1.392   2.768   6.544
10269SOL    HW231707   1.391   2.622   6.470
10270SOL     OW31708   3.393   6.126   2.351
10270SOL    HW131709   3.352   6.162   2.435
10270SOL    HW231710   3.493   6.125   2.361
10271SOL     OW31711   2.963   2.454   0.829
10271SOL    HW131712   2.984   2.544   0.867
10271SOL    HW231713   2.941   2.390   0.903
10272SOL     OW31714   6.870   1.292   3.937
10272SOL    HW131715   6.771   1.304   3.930
10272SOL    HW231716   6.914   1.382   3.946
10273SOL     OW31717   3.136   5.060   4.484
10273SOL    HW131718   3.093   4.986   4.432
10273SOL    HW231719   3.217   5.024   4.531
10274SOL     OW31720   0.366   5.202   5.674
10274SOL    HW131721   0.327   5.288   5.640
10274SOL    HW231722   0.402   5.217   5.766
10275SOL     OW31723   0.012   0.649   2.931
10275SOL    HW131724   6.950   0.687   2.902
10275SOL    HW231725   7.023   0.584   3.006
10276SOL     OW31726   4.441   5.732   5.512
10276SOL    HW131727   4.537   5.715   5.492
10276SOL    HW231728   4.433   5.812   5.571
10277SOL     OW31729   0.965   0.251   4.522
10277SOL    HW131730   0.952   0.253   4.621
10277SOL    HW231731   0.884   0.213   4.479
10278SOL     OW31732   0.031   0.741   4.782
10278SOL    HW131733   7.010   0.668   4.733
10278SOL    HW231734   0.114   0.767   4.733
10279SOL     OW31735   2.605   5.620   4.203
10279SOL    HW131736   2.625   5.583   4.113
10279SOL    HW231737   2.668   5.580   4.270
10280SOL     OW31738   5.365   3.487   0.385
10280SOL    HW131739   5.344   3.573   0.338
10280SOL    HW231740   5.282   3.431   0.388
10281SOL     OW31741   0.014   2.439   3.075
10281SOL    HW131742   7.003   2.487   3.155
10281SOL    HW231743   0.074   2.499   3.024
10282SOL     OW31744   5.034   3.157   3.262
10282SOL    HW131745   5.121   3.203   3.278
10282SOL    HW231746   4.996   3.128   3.350
10283SOL     OW31747   0.666   3.139   0.852
10283SOL    HW131748   0.570   3.131   0.881
10283SOL    HW231749   0.671   3.197   0.770
10284SOL     OW31750   6.876   2.376   4.011
10284SOL    HW131751   6.821   2.448   3.968
10284SOL    HW231752   6.972   2.388   3.985
10285SOL     OW31753   4.168   0.094   3.111
10285SOL    HW131754   4.120   0.080   3.024
10285SOL    HW231755   4.111   0.061   3.186
10286SOL     OW31756   3.294   0.894   3.748
10286SOL    HW131757   3.269   0.963   3.681
10286SOL    HW231758   3.217   0.832   3.763
10287SOL     OW31759   1.605   5.778   1.872
10287SOL    HW131760   1.651   5.699   1.913
10287SOL    HW231761   1.625   5.781   1.774
10288SOL     OW31762   3.345   0.011   4.727
10288SOL    HW131763   3.417   0.067   4.688
10288SOL    HW231764   3.334   6.953   4.673
10289SOL     OW31765   3.203   5.803   0.946
10289SOL    HW131766   3.189   5.852   0.860
10289SOL    HW231767   3.249   5.716   0.928
10290SOL     OW31768   3.006   3.459   2.391
10290SOL    HW131769   2.963   3.372   2.412
10290SOL    HW231770   2.949   3.534   2.425
10291SOL     OW31771   3.642   1.308   3.245
10291SOL    HW131772   3.712   1.238   3.261
10291SOL    HW231773   3.560   1.264   3.208
10292SOL     OW31774   0.275   1.331   5.973
10292SOL    HW131775   0.341   1.255   5.978
10292SOL    HW231776   0.182   1.295   5.984
10293SOL     OW31777   0.575   3.461   3.563
10293SOL    HW131778   0.505   3.516   3.608
10293SOL    HW231779   0.628   3.411   3.633
10294SOL     OW31780   3.687   1.771   2.935
10294SOL    HW131781   3.593   1.785   2.965
10294SOL    HW231782   3.708   1.836   2.862
10295SOL     OW31783   0.929   2.466   6.230
10295SOL    HW131784   1.003   2.407   6.197
10295SOL    HW231785   0.953   2.562   6.215
10296SOL     OW31786   5.705   1.022   5.947
10296SOL    HW131787   5.712   1.122   5.951
10296SOL    HW231788   5.609   0.996   5.934
10297SOL     OW31789   2.385   1.580   6.939
10297SOL    HW131790   2.384   1.513   7.013
10297SOL    HW231791   2.418   1.668   6.974
10298SOL     OW31792   1.690   4.532   2.135
10298SOL    HW131793   1.597   4.515   2.103
10298SOL    HW231794   1.705   4.485   2.221
10299SOL     OW31795   4.393   6.591   2.302
10299SOL    HW131796   4.422   6.542   2.221
10299SOL    HW231797   4.364   6.526   2.373
10300SOL     OW31798   1.176   4.051   1.743
10300SOL    HW131799   1.132   4.073   1.656
10300SOL    HW231800   1.236   3.972   1.731
10301SOL     OW31801   4.388   1.709   5.113
10301SOL    HW131802   4.385   1.626   5.057
10301SOL    HW231803   4.392   1.683   5.209
10302SOL     OW31804   2.663   6.395   3.747
10302SOL    HW131805   2.582   6.424   3.798
10302SOL    HW231806   2.678   6.297   3.761
10303SOL     OW31807   0.731   5.868   3.671
10303SOL    HW131808   0.729   5.935   3.597
10303SOL    HW231809   0.822   5.826   3.675
10304SOL     OW31810   6.138   0.179   1.056
10304SOL    HW131811   6.116   0.169   1.153
10304SOL    HW231812   6.227   0.136   1.038
10305SOL     OW31813   3.092   4.197   5.884
10305SOL    HW131814   3.055   4.147   5.805
10305SOL    HW231815   3.100   4.135   5.962
10306SOL     OW31816   5.254   6.433   0.562
10306SOL    HW131817   5.295   6.371   0.629
10306SOL    HW231818   5.200   6.503   0.610
10307SOL     OW31819   3.166   1.659   4.687
10307SOL    HW131820   3.086   1.601   4.669
10307SOL    HW231821   3.136   1.753   4.702
10308SOL     OW31822   2.199   3.949   2.507
10308SOL    HW131823   2.180   3.853   2.526
10308SOL    HW231824   2.126   3.988   2.451
10309SOL     OW31825   6.436   1.195   6.130
10309SOL    HW131826   6.366   1.134   6.168
10309SOL    HW231827   6.398   1.243   6.051
10310SOL     OW31828   3.097   3.961   6.871
10310SOL    HW131829   3.182   3.911   6.852
10310SOL    HW231830   3.093   3.982   6.969
10311SOL     OW31831   6.396   5.249   0.173
10311SOL    HW131832   6.311   5.248   0.225
10311SOL    HW231833   6.407   5.162   0.125
10312SOL     OW31834   5.214   0.522   2.249
10312SOL    HW131835   5.242   0.473   2.332
10312SOL    HW231836   5.115   0.517   2.238
10313SOL     OW31837   3.683   5.966   3.038
10313SOL    HW131838   3.717   5.913   2.960
10313SOL    HW231839   3.689   5.911   3.121
10314SOL     OW31840   0.275   0.337   0.337
10314SOL    HW131841   0.270   0.249   0.385
10314SOL    HW231842   0.243   0.326   0.243
10315SOL     OW31843   5.263   6.980   4.264
10315SOL    HW131844   5.200   6.932   4.203
10315SOL    HW231845   5.297   0.037   4.219
10316SOL     OW31846   6.039   2.514   5.930
10316SOL    HW131847   6.118   2.532   5.989
10316SOL    HW231848   5.994   2.600   5.908
10317SOL     OW31849   3.585   5.881   6.366
10317SOL    HW131850   3.655   5.815   6.394
10317SOL    HW231851   3.600   5.968   6.414
10318SOL     OW31852   4.784   0.431   6.441
10318SOL    HW131853   4.784   0.487   6.523
10318SOL    HW231854   4.739   0.481   6.367
10319SOL     OW31855   0.576   4.630   5.557
10319SOL    HW131856   0.491   4.577   5.550
10319SOL    HW231857   0.651   4.579   5.515
10320SOL     OW31858   0.067   6.182   2.918
10320SOL    HW131859   7.005   6.227   2.933
10320SOL    HW231860   0.141   6.242   2.947
10321SOL     OW31861   5.958   1.938   2.548
10321SOL    HW131862   5.943   1.842   2.575
10321SOL    HW231863   5.872   1.976   2.514
10322SOL     OW31864   4.078   5.004   5.308
10322SOL    HW131865   4.122   5.066   5.373
10322SOL    HW231866   4.104   5.030   5.215
10323SOL     OW31867   6.316   5.047   4.716
10323SOL    HW131868   6.387   5.044   4.787
10323SOL    HW231869   6.234   5.001   4.749
10324SOL     OW31870   3.097   3.304   2.727
10324SOL    HW131871   3.155   3.239   2.678
10324SOL    HW231872   3.013   3.258   2.757
10325SOL     OW31873   0.430   5.178   2.605
10325SOL    HW131874   0.436   5.235   2.686
10325SOL    HW231875   0.513   5.187   2.550
10326SOL     OW31876   5.882   3.837   6.720
10326SOL    HW131877   5.927   3.926   6.728
10326SOL    HW231878   5.921   3.773   6.786
10327SOL     OW31879   2.488   3.315   1.666
10327SOL    HW131880   2.454   3.337   1.757
10327SOL    HW231881   2.470   3.218   1.646
10328SOL     OW31882   6.277   2.509   2.039
10328SOL    HW131883   6.191   2.512   1.988
10328SOL    HW231884   6.338   2.582   2.006
10329SOL     OW31885   3.123   0.768   2.794
10329SOL    HW131886   3.116   0.721   2.881
10329SOL    HW231887   3.131   0.702   2.720
10330SOL     OW31888   4.335   0.488   1.687
10330SOL    HW131889   4.317   0.454   1.595
10330SOL    HW231890   4.248   0.504   1.734
10331SOL     OW31891   6.201   6.049   6.510
10331SOL    HW131892   6.160   5.964   6.477
10331SOL    HW231893   6.170   6.068   6.603
10332SOL     OW31894   0.942   7.009   6.561
10332SOL    HW131895   0.849   6.992   6.530
10332SOL    HW231896   0.959   6.957   6.645
10333SOL     OW31897   0.399   5.978   4.819
10333SOL    HW131898   0.471   5.925   4.862
10333SOL    HW231899   0.418   6.076   4.831
10334SOL     OW31900   3.144   0.234   4.216
10334SOL    HW131901   3.168   0.148   4.172
10334SOL    HW231902   3.125   0.303   4.147
10335SOL     OW31903   1.756   4.481   6.467
10335SOL    HW131904   1.691   4.555   6.486
10335SOL    HW231905   1.761   4.421   6.546
10336SOL     OW31906   6.709   6.845   2.107
10336SOL    HW131907   6.782   6.912   2.121
10336SOL    HW231908   6.744   6.769   2.052
10337SOL     OW31909   0.246   5.521   6.697
10337SOL    HW131910   0.336   5.497   6.734
10337SOL    HW231911   0.256   5.588   6.624
10338SOL     OW31912   1.183   6.579   2.149
10338SOL    HW131913   1.120   6.505   2.126
10338SOL    HW231914   1.209   6.573   2.245
10339SOL     OW31915   6.305   3.543   6.177
10339SOL    HW131916   6.258   3.513   6.094
10339SOL    HW231917   6.238   3.575   6.244
10340SOL     OW31918   1.962   2.479   6.696
10340SOL    HW131919   1.904   2.557   6.719
10340SOL    HW231920   1.933   2.398   6.746
10341SOL     OW31921   2.045   3.471   2.265
10341SOL    HW131922   2.031   3.418   2.181
10341SOL    HW231923   2.094   3.555   2.243
10342SOL     OW31924   1.447   0.512   3.534
10342SOL    HW131925   1.454   0.502   3.633
10342SOL    HW231926   1.532   0.482   3.491
10343SOL     OW31927   2.608   5.286   0.903
10343SOL    HW131928   2.612   5.281   0.803
10343SOL    HW231929   2.633   5.378   0.933
10344SOL     OW31930   3.664   3.966   0.180
10344SOL    HW131931   3.565   3.960   0.192
10344SOL    HW231932   3.699   4.045   0.231
10345SOL     OW31933   1.761   3.279   5.642
10345SOL    HW131934   1.664   3.281   5.620
10345SOL    HW231935   1.791   3.184   5.650
10346SOL     OW31936   6.923   5.455   1.256
10346SOL    HW131937   6.907   5.553   1.248
10346SOL    HW231938   6.944   5.432   1.351
10347SOL     OW31939   4.534   1.225   3.032
10347SOL    HW131940   4.446   1.269   3.016
10347SOL    HW231941   4.546   1.150   2.968
10348SOL     OW31942   6.056   2.404   0.372
10348SOL    HW131943   6.089   2.318   0.334
10348SOL    HW231944   6.132   2.452   0.417
10349SOL     OW31945   0.473   0.425   6.740
10349SOL    HW131946   0.526   0.341   6.728
10349SOL    HW231947   0.515   0.481   6.812
10350SOL     OW31948   2.685   5.624   5.335
10350SOL    HW131949   2.752   5.684   5.291
10350SOL    HW231950   2.691   5.634   5.434
10351SOL     OW31951   4.800   5.217   6.666
10351SOL    HW131952   4.769   5.302   6.621
10351SOL    HW231953   4.885   5.235   6.715
10352SOL     OW31954   3.561   0.880   6.500
10352SOL    HW131955   3.547   0.896   6.402
10352SOL    HW231956   3.642   0.930   6.530
10353SOL     OW31957   6.586   2.901   4.571
10353SOL    HW131958   6.591   2.801   4.578
10353SOL    HW231959   6.666   2.935   4.522
10354SOL     OW31960   5.773   0.727   1.293
10354SOL    HW131961   5.753   0.715   1.196
10354SOL    HW231962   5.745   0.818   1.322
10355SOL     OW31963   2.657   6.169   1.868
10355SOL    HW131964   2.603   6.102   1.816
10355SOL    HW231965   2.623   6.261   1.850
10356SOL     OW31966   0.080   4.450   6.309
10356SOL    HW131967   0.152   4.520   6.311
10356SOL    HW231968   0.032   4.450   6.397
10357SOL     OW31969   2.479   2.384   6.527
10357SOL    HW131970   2.464   2.481   6.508
10357SOL    HW231971   2.521   2.341   6.447
10358SOL     OW31972   6.919   2.724   3.008
10358SOL    HW131973   6.898   2.679   2.922
10358SOL    HW231974   6.873   2.676   3.083
10359SOL     OW31975   0.561   1.465   1.107
10359SOL    HW131976   0.537   1.484   1.202
10359SOL    HW231977   0.659   1.442   1.102
10360SOL     OW31978   4.462   5.041   2.977
10360SOL    HW131979   4.490   4.970   3.042
10360SOL    HW231980   4.397   5.002   2.912
10361SOL     OW31981   2.758   5.799   2.522
10361SOL    HW131982   2.674   5.746   2.530
10361SOL    HW231983   2.787   5.802   2.426
10362SOL     OW31984   1.553   5.112   4.625
10362SOL    HW131985   1.517   5.071   4.541
10362SOL    HW231986   1.549   5.046   4.699
10363SOL     OW31987   4.480   1.082   3.279
10363SOL    HW131988   4.386   1.111   3.296
10363SOL    HW231989   4.530   1.158   3.237
10364SOL     OW31990   2.728   3.706   1.495
10364SOL    HW131991   2.654   3.645   1.525
10364SOL    HW231992   2.723   3.791   1.547
10365SOL     OW31993   4.262   5.424   0.187
10365SOL    HW131994   4.350   5.398   0.226
10365SOL    HW231995   4.270   5.512   0.141
10366SOL     OW31996   3.017   0.053   3.752
10366SOL    HW131997   2.956   0.075   3.675
10366SOL    HW231998   2.967   0.000   3.820
10367SOL     OW31999   5.853   1.464   2.835
10367SOL    HW132000   5.940   1.429   2.871
10367SOL    HW232001   5.789   1.476   2.910
10368SOL     OW32002   2.980   1.130   1.452
10368SOL    HW132003   3.055   1.081   1.496
10368SOL    HW232004   2.952   1.081   1.369
10369SOL     OW32005   3.782   1.341   0.748
10369SOL    HW132006   3.701   1.388   0.783
10369SOL    HW232007   3.777   1.244   0.774
10370SOL     OW32008   4.609   0.880   5.211
10370SOL    HW132009   4.698   0.840   5.234
10370SOL    HW232010   4.622   0.973   5.178
10371SOL     OW32011   3.339   5.651   6.073
10371SOL    HW132012   3.263   5.676   6.132
10371SOL    HW232013   3.398   5.731   6.059
10372SOL     OW32014   2.434   0.854   4.680
10372SOL    HW132015   2.383   0.777   4.643
10372SOL    HW232016   2.531   0.830   4.684
10373SOL     OW32017   1.280   6.857   4.752
10373SOL    HW132018   1.307   6.801   4.674
10373SOL    HW232019   1.246   6.798   4.825
10374SOL     OW32020   2.676   1.862   3.534
10374SOL    HW132021   2.602   1.930   3.527
10374SOL    HW232022   2.756   1.895   3.484
10375SOL     OW32023   5.355   2.033   0.449
10375SOL    HW132024   5.379   2.111   0.390
10375SOL    HW232025   5.435   2.007   0.503
10376SOL     OW32026   0.337   1.422   3.800
10376SOL    HW132027   0.403   1.463   3.863
10376SOL    HW232028   0.364   1.443   3.706
10377SOL     OW32029   0.353   0.473   3.294
10377SOL    HW132030   0.385   0.383   3.326
10377SOL    HW232031   0.313   0.523   3.371
10378SOL     OW32032   0.008   0.378   5.754
10378SOL    HW132033   6.964   0.405   5.688
10378SOL    HW232034   0.035   0.283   5.737
10379SOL     OW32035   5.716   0.169   5.576
10379SOL    HW132036   5.728   0.158   5.675
10379SOL    HW232037   5.762   0.252   5.546
10380SOL     OW32038   5.777   0.823   2.856
10380SOL    HW132039   5.693   0.877   2.848
10380SOL    HW232040   5.842   0.872   2.915
10381SOL     OW32041   4.913   5.428   5.960
10381SOL    HW132042   5.007   5.417   5.993
10381SOL    HW232043   4.902   5.519   5.920
10382SOL     OW32044   2.745   5.485   5.814
10382SOL    HW132045   2.822   5.441   5.861
10382SOL    HW232046   2.661   5.434   5.834
10383SOL     OW32047   1.346   3.420   0.677
10383SOL    HW132048   1.325   3.324   0.658
10383SOL    HW232049   1.260   3.471   0.688
10384SOL     OW32050   7.021   0.227   1.069
10384SOL    HW132051   7.023   0.128   1.079
10384SOL    HW232052   0.037   0.269   1.150
10385SOL     OW32053   6.113   0.362   6.373
10385SOL    HW132054   6.097   0.451   6.328
10385SOL    HW232055   6.154   0.377   6.463
10386SOL     OW32056   6.448   3.327   5.061
10386SOL    HW132057   6.417   3.232   5.063
10386SOL    HW232058   6.375   3.386   5.095
10387SOL     OW32059   2.009   2.336   2.840
10387SOL    HW132060   2.003   2.317   2.938
10387SOL    HW232061   1.918   2.362   2.806
10388SOL     OW32062   1.240   4.811   3.173
10388SOL    HW132063   1.228   4.776   3.266
10388SOL    HW232064   1.312   4.881   3.173
10389SOL     OW32065   1.443   4.849   3.636
10389SOL    HW132066   1.488   4.818   3.720
10389SOL    HW232067   1.454   4.948   3.627
10390SOL     OW32068   1.521   3.324   3.460
10390SOL    HW132069   1.532   3.410   3.409
10390SOL    HW232070   1.585   3.324   3.537
10391SOL     OW32071   1.365   6.059   6.676
10391SOL    HW132072   1.451   6.014   6.653
10391SOL    HW232073   1.313   6.002   6.740
10392SOL     OW32074   6.070   5.015   0.359
10392SOL    HW132075   6.167   4.992   0.366
10392SOL    HW232076   6.017   4.931   0.349
10393SOL     OW32077   0.598   1.488   3.902
10393SOL    HW132078   0.639   1.578   3.918
10393SOL    HW232079   0.632   1.423   3.970
10394SOL     OW32080   2.389   6.569   6.829
10394SOL    HW132081   2.430   6.611   6.909
10394SOL    HW232082   2.437   6.600   6.747
10395SOL     OW32083   6.868   1.010   3.968
10395SOL    HW132084   6.787   1.014   4.027
10395SOL    HW232085   6.862   1.081   3.898
10396SOL     OW32086   0.676   0.262   4.430
10396SOL    HW132087   0.673   0.234   4.334
10396SOL    HW232088   0.587   0.244   4.473
10397SOL     OW32089   3.819   0.966   3.618
10397SOL    HW132090   3.894   0.991   3.679
10397SOL    HW232091   3.748   0.919   3.669
10398SOL     OW32092   6.334   2.763   1.184
10398SOL    HW132093   6.264   2.788   1.118
10398SOL    HW232094   6.340   2.834   1.255
10399SOL     OW32095   4.857   2.551   5.366
10399SOL    HW132096   4.870   2.641   5.326
10399SOL    HW232097   4.759   2.533   5.376
10400SOL     OW32098   2.882   5.691   2.745
10400SOL    HW132099   2.835   5.719   2.661
10400SOL    HW232100   2.824   5.626   2.795
10401SOL     OW32101   6.974   5.894   2.281
10401SOL    HW132102   7.002   5.990   2.275
10401SOL    HW232103   7.011   5.844   2.203
10402SOL     OW32104   0.938   3.506   5.146
10402SOL    HW132105   0.875   3.518   5.069
10402SOL    HW232106   0.913   3.568   5.220
10403SOL     OW32107   5.686   1.728   1.949
10403SOL    HW132108   5.653   1.662   1.882
10403SOL    HW232109   5.639   1.714   2.036
10404SOL     OW32110   0.594   6.684   4.132
10404SOL    HW132111   0.684   6.644   4.148
10404SOL    HW232112   0.604   6.775   4.091
10405SOL     OW32113   1.777   6.549   5.614
10405SOL    HW132114   1.762   6.480   5.543
10405SOL    HW232115   1.850   6.518   5.675
10406SOL     OW32116   2.832   4.513   6.166
10406SOL    HW132117   2.795   4.466   6.086
10406SOL    HW232118   2.866   4.602   6.139
10407SOL     OW32119   0.881   2.140   6.106
10407SOL    HW132120   0.972   2.171   6.080
10407SOL    HW232121   0.814   2.210   6.083
10408SOL     OW32122   4.627   4.690   3.598
10408SOL    HW132123   4.650   4.771   3.543
10408SOL    HW232124   4.623   4.716   3.695
10409SOL     OW32125   0.303   3.887   1.908
10409SOL    HW132126   0.383   3.843   1.948
10409SOL    HW232127   0.220   3.849   1.949
10410SOL     OW32128   5.004   0.741   1.140
10410SOL    HW132129   4.937   0.814   1.123
10410SOL    HW232130   5.056   0.724   1.056
10411SOL     OW32131   2.272   4.577   2.717
10411SOL    HW132132   2.183   4.570   2.671
10411SOL    HW232133   2.315   4.663   2.692
10412SOL     OW32134   1.487   2.156   0.308
10412SOL    HW132135   1.531   2.097   0.241
10412SOL    HW232136   1.512   2.126   0.400
10413SOL     OW32137   6.991   2.227   6.702
10413SOL    HW132138   6.981   2.317   6.660
10413SOL    HW232139   6.910   2.206   6.757
10414SOL     OW32140   5.497   6.473   6.882
10414SOL    HW132141   5.403   6.459   6.913
10414SOL    HW232142   5.560   6.424   6.943
10415SOL     OW32143   0.238   6.075   3.592
10415SOL    HW132144   0.199   6.031   3.672
10415SOL    HW232145   0.337   6.087   3.606
10416SOL     OW32146   5.891   1.867   4.859
10416SOL    HW132147   5.915   1.811   4.938
10416SOL    HW232148   5.813   1.827   4.811
10417SOL     OW32149   4.034   5.104   3.737
10417SOL    HW132150   3.980   5.127   3.656
10417SOL    HW232151   4.094   5.181   3.759
10418SOL     OW32152   6.953   4.278   6.721
10418SOL    HW132153   0.008   4.219   6.720
10418SOL    HW232154   6.961   4.346   6.648
10419SOL     OW32155   3.602   0.999   5.123
10419SOL    HW132156   3.606   1.086   5.074
10419SOL    HW232157   3.655   1.007   5.208
10420SOL     OW32158   7.000   3.135   3.504
10420SOL    HW132159   0.067   3.171   3.489
10420SOL    HW232160   6.934   3.199   3.466
10421SOL     OW32161   0.999   4.593   4.124
10421SOL    HW132162   0.930   4.564   4.190
10421SOL    HW232163   1.003   4.527   4.049
10422SOL     OW32164   6.462   3.842   4.571
10422SOL    HW132165   6.377   3.877   4.611
10422SOL    HW232166   6.539   3.862   4.633
10423SOL     OW32167   3.628   4.946   4.036
10423SOL    HW132168   3.608   4.923   3.941
10423SOL    HW232169   3.544   4.944   4.090
10424SOL     OW32170   3.611   0.733   6.957
10424SOL    HW132171   3.614   0.756   0.028
10424SOL    HW232172   3.704   0.712   6.925
10425SOL     OW32173   1.814   1.138   0.606
10425SOL    HW132174   1.806   1.229   0.646
10425SOL    HW232175   1.816   1.144   0.506
10426SOL     OW32176   5.739   2.208   6.006
10426SOL    HW132177   5.694   2.167   6.085
10426SOL    HW232178   5.754   2.139   5.936
10427SOL     OW32179   5.787   6.482   4.984
10427SOL    HW132180   5.842   6.563   5.006
10427SOL    HW232181   5.762   6.484   4.887
10428SOL     OW32182   1.925   0.822   3.991
10428SOL    HW132183   2.019   0.856   3.984
10428SOL    HW232184   1.864   0.881   3.938
10429SOL     OW32185   1.189   2.988   2.697
10429SOL    HW132186   1.162   2.920   2.629
10429SOL    HW232187   1.263   2.951   2.753
10430SOL     OW32188   3.179   0.374   3.728
10430SOL    HW132189   3.231   0.289   3.735
10430SOL    HW232190   3.236   0.444   3.685
10431SOL     OW32191   3.151   1.510   3.796
10431SOL    HW132192   3.195   1.422   3.815
10431SOL    HW232193   3.190   1.581   3.853
10432SOL     OW32194   0.700   6.209   5.640
10432SOL    HW132195   0.691   6.308   5.630
10432SOL    HW232196   0.728   6.188   5.734
10433SOL     OW32197   1.720   6.900   2.228
10433SOL    HW132198   1.629   6.860   2.218
10433SOL    HW232199   1.789   6.827   2.233
10434SOL     OW32200   4.179   6.626   5.370
10434SOL    HW132201   4.092   6.595   5.330
10434SOL    HW232202   4.254   6.572   5.331
10435SOL     OW32203   1.507   2.462   6.686
10435SOL    HW132204   1.582   2.423   6.632
10435SOL    HW232205   1.464   2.536   6.635
10436SOL     OW32206   0.209   4.795   5.095
10436SOL    HW132207   0.220   4.737   5.176
10436SOL    HW232208   0.230   4.741   5.013
10437SOL     OW32209   5.328   5.371   5.588
10437SOL    HW132210   5.425   5.395   5.576
10437SOL    HW232211   5.286   5.358   5.498
10438SOL     OW32212   6.532   5.765   6.096
10438SOL    HW132213   6.620   5.811   6.091
10438SOL    HW232214   6.539   5.674   6.055
10439SOL     OW32215   6.383   6.506   4.601
10439SOL    HW132216   6.391   6.581   4.535
10439SOL    HW232217   6.348   6.542   4.687
10440SOL     OW32218   0.109   2.077   6.507
10440SOL    HW132219   0.075   1.986   6.485
10440SOL    HW232220   0.035   2.131   6.548
10441SOL     OW32221   3.698   2.010   1.174
10441SOL    HW132222   3.736   2.020   1.082
10441SOL    HW232223   3.625   2.077   1.187
10442SOL     OW32224   2.234   1.649   5.664
10442SOL    HW132225   2.296   1.711   5.713
10442SOL    HW232226   2.197   1.696   5.584
10443SOL     OW32227   0.645   1.672   3.128
10443SOL    HW132228   0.700   1.616   3.067
10443SOL    HW232229   0.653   1.638   3.222
10444SOL     OW32230   3.962   5.748   4.504
10444SOL    HW132231   3.988   5.669   4.559
10444SOL    HW232232   4.044   5.803   4.485
10445SOL     OW32233   1.469   3.954   3.090
10445SOL    HW132234   1.504   3.886   3.026
10445SOL    HW232235   1.519   3.948   3.176
10446SOL     OW32236   1.740   4.758   5.725
10446SOL    HW132237   1.830   4.745   5.683
10446SOL    HW232238   1.670   4.748   5.655
10447SOL     OW32239   0.433   1.846   2.779
10447SOL    HW132240   0.521   1.864   2.823
10447SOL    HW232241   0.360   1.893   2.830
10448SOL     OW32242   2.645   6.104   3.092
10448SOL    HW132243   2.643   6.043   3.172
10448SOL    HW232244   2.620   6.052   3.010
10449SOL     OW32245   4.145   5.541   6.063
10449SOL    HW132246   4.100   5.520   5.976
10449SOL    HW232247   4.229   5.591   6.046
10450SOL     OW32248   0.171   0.708   6.370
10450SOL    HW132249   0.251   0.718   6.311
10450SOL    HW232250   0.192   0.742   6.462
10451SOL     OW32251   2.465   0.699   3.018
10451SOL    HW132252   2.405   0.625   3.047
10451SOL    HW232253   2.556   0.686   3.059
10452SOL     OW32254   6.941   3.698   4.457
10452SOL    HW132255   6.958   3.607   4.418
10452SOL    HW232256   6.948   3.693   4.556
10453SOL     OW32257   4.388   5.673   3.486
10453SOL    HW132258   4.345   5.759   3.458
10453SOL    HW232259   4.382   5.607   3.411
10454SOL     OW32260   6.832   0.403   5.601
10454SOL    HW132261   6.751   0.462   5.596
10454SOL    HW232262   6.814   0.318   5.553
10455SOL     OW32263   5.859   6.340   3.944
10455SOL    HW132264   5.818   6.292   3.866
10455SOL    HW232265   5.790   6.398   3.987
10456SOL     OW32266   0.559   5.303   6.947
10456SOL    HW132267   0.628   5.235   6.926
10456SOL    HW232268   0.484   5.261   6.998
10457SOL     OW32269   3.265   2.364   6.991
10457SOL    HW132270   3.351   2.350   0.013
10457SOL    HW232271   3.221   2.276   6.974
10458SOL     OW32272   6.874   5.827   6.330
10458SOL    HW132273   6.952   5.779   6.371
10458SOL    HW232274   6.869   5.920   6.367
10459SOL     OW32275   0.335   5.363   0.698
10459SOL    HW132276   0.270   5.288   0.684
10459SOL    HW232277   0.375   5.389   0.610
10460SOL     OW32278   0.722   2.726   0.603
10460SOL    HW132279   0.728   2.628   0.583
10460SOL    HW232280   0.629   2.758   0.583
10461SOL     OW32281   0.376   5.773   5.200
10461SOL    HW132282   0.355   5.869   5.180
10461SOL    HW232283   0.301   5.715   5.168
10462SOL     OW32284   3.870   1.643   0.668
10462SOL    HW132285   3.934   1.654   0.593
10462SOL    HW232286   3.852   1.546   0.684
10463SOL     OW32287   4.638   2.958   5.862
10463SOL    HW132288   4.642   2.980   5.960
10463SOL    HW232289   4.600   3.036   5.812
10464SOL     OW32290   6.396   4.992   2.915
10464SOL    HW132291   6.457   4.964   2.988
10464SOL    HW232292   6.302   4.965   2.937
10465SOL     OW32293   5.808   4.165   2.496
10465SOL    HW132294   5.716   4.201   2.485
10465SOL    HW232295   5.843   4.134   2.407
10466SOL     OW32296   6.115   4.824   6.297
10466SOL    HW132297   6.036   4.885   6.298
10466SOL    HW232298   6.198   4.877   6.313
10467SOL     OW32299   1.599   2.890   0.235
10467SOL    HW132300   1.667   2.877   0.163
10467SOL    HW232301   1.545   2.972   0.217
10468SOL     OW32302   2.903   4.908   4.081
10468SOL    HW132303   2.857   4.864   4.004
10468SOL    HW232304   2.949   4.991   4.049
10469SOL     OW32305   6.267   1.562   5.032
10469SOL    HW132306   6.293   1.523   4.944
10469SOL    HW232307   6.213   1.495   5.084
10470SOL     OW32308   2.558   2.497   3.779
10470SOL    HW132309   2.508   2.567   3.830
10470SOL    HW232310   2.537   2.505   3.682
10471SOL     OW32311   2.951   6.751   0.472
10471SOL    HW132312   2.925   6.681   0.539
10471SOL    HW232313   3.050   6.767   0.477
10472SOL     OW32314   2.752   5.191   0.404
10472SOL    HW132315   2.712   5.099   0.404
10472SOL    HW232316   2.765   5.222   0.310
10473SOL     OW32317   5.116   4.344   6.784
10473SOL    HW132318   5.039   4.400   6.812
10473SOL    HW232319   5.201   4.396   6.792
10474SOL     OW32320   4.940   1.167   3.951
10474SOL    HW132321   4.914   1.263   3.937
10474SOL    HW232322   4.966   1.126   3.864
10475SOL     OW32323   0.746   6.803   1.682
10475SOL    HW132324   0.802   6.886   1.682
10475SOL    HW232325   0.765   6.750   1.599
10476SOL     OW32326   3.836   6.292   0.227
10476SOL    HW132327   3.788   6.271   0.141
10476SOL    HW232328   3.903   6.364   0.211
10477SOL     OW32329   6.140   6.603   3.561
10477SOL    HW132330   6.093   6.591   3.648
10477SOL    HW232331   6.230   6.644   3.577
10478SOL     OW32332   6.310   0.519   0.331
10478SOL    HW132333   6.345   0.426   0.325
10478SOL    HW232334   6.278   0.536   0.424
10479SOL     OW32335   0.249   1.862   2.237
10479SOL    HW132336   0.274   1.862   2.140
10479SOL    HW232337   0.195   1.944   2.258
10480SOL     OW32338   1.828   7.023   2.447
10480SOL    HW132339   1.803   6.997   2.353
10480SOL    HW232340   1.747   7.016   2.506
10481SOL     OW32341   0.451   0.717   2.981
10481SOL    HW132342   0.544   0.713   2.944
10481SOL    HW232343   0.453   0.766   3.069
10482SOL     OW32344   5.488   3.568   3.970
10482SOL    HW132345   5.474   3.577   3.871
10482SOL    HW232346   5.411   3.609   4.019
10483SOL     OW32347   6.233   5.331   0.576
10483SOL    HW132348   6.222   5.401   0.505
10483SOL    HW232349   6.153   5.333   0.636
10484SOL     OW32350   6.349   1.118   1.442
10484SOL    HW132351   6.336   1.027   1.481
10484SOL    HW232352   6.399   1.110   1.355
10485SOL     OW32353   5.485   3.541   5.687
10485SOL    HW132354   5.558   3.583   5.741
10485SOL    HW232355   5.454   3.458   5.733
10486SOL     OW32356   5.982   2.586   1.227
10486SOL    HW132357   5.883   2.579   1.227
10486SOL    HW232358   6.010   2.680   1.246
10487SOL     OW32359   6.080   6.482   1.389
10487SOL    HW132360   6.174   6.505   1.414
10487SOL    HW232361   6.018   6.552   1.424
10488SOL     OW32362   2.950   3.054   6.727
10488SOL    HW132363   2.946   3.117   6.805
10488SOL    HW232364   2.867   3.063   6.672
10489SOL     OW32365   6.884   5.557   6.580
10489SOL    HW132366   6.928   5.628   6.523
10489SOL    HW232367   6.917   5.565   6.674
10490SOL     OW32368   6.766   1.076   3.557
10490SOL    HW132369   6.861   1.107   3.550
10490SOL    HW232370   6.708   1.152   3.586
10491SOL     OW32371   2.323   4.542   6.096
10491SOL    HW132372   2.261   4.616   6.068
10491SOL    HW232373   2.325   4.472   6.025
10492SOL     OW32374   4.815   3.411   5.336
10492SOL    HW132375   4.895   3.465   5.363
10492SOL    HW232376   4.764   3.460   5.266
10493SOL     OW32377   3.598   0.919   1.574
10493SOL    HW132378   3.591   1.009   1.615
10493SOL    HW232379   3.551   0.852   1.633
10494SOL     OW32380   5.760   2.269   4.218
10494SOL    HW132381   5.789   2.179   4.184
10494SOL    HW232382   5.668   2.261   4.258
10495SOL     OW32383   1.834   6.617   0.759
10495SOL    HW132384   1.765   6.646   0.693
10495SOL    HW232385   1.914   6.582   0.711
10496SOL     OW32386   0.286   6.157   6.621
10496SOL    HW132387   0.210   6.205   6.576
10496SOL    HW232388   0.269   6.152   6.719
10497SOL     OW32389   1.510   0.872   0.906
10497SOL    HW132390   1.417   0.844   0.932
10497SOL    HW232391   1.508   0.916   0.816
10498SOL     OW32392   1.672   6.707   5.835
10498SOL    HW132393   1.719   6.631   5.790
10498SOL    HW232394   1.737   6.781   5.852
10499SOL     OW32395   2.714   5.685   3.428
10499SOL    HW132396   2.671   5.620   3.491
10499SOL    HW232397   2.754   5.635   3.350
10500SOL     OW32398   1.147   2.202   6.032
10500SOL    HW132399   1.194   2.122   5.995
10500SOL    HW232400   1.215   2.267   6.066
10501SOL     OW32401   1.999   3.647   2.738
10501SOL    HW132402   2.013   3.688   2.648
10501SOL    HW232403   1.950   3.711   2.797
10502SOL     OW32404   3.097   6.274   0.369
10502SOL    HW132405   3.177   6.215   0.360
10502SOL    HW232406   3.025   6.242   0.307
10503SOL     OW32407   3.295   3.124   0.337
10503SOL    HW132408   3.344   3.112   0.423
10503SOL    HW232409   3.361   3.134   0.262
10504SOL     OW32410   2.700   3.070   0.278
10504SOL    HW132411   2.605   3.098   0.293
10504SOL    HW232412   2.739   3.123   0.203
10505SOL     OW32413   6.293   6.139   1.185
10505SOL    HW132414   6.240   6.159   1.267
10505SOL    HW232415   6.376   6.196   1.184
10506SOL     OW32416   0.837   3.766   6.405
10506SOL    HW132417   0.912   3.753   6.340
10506SOL    HW232418   0.803   3.859   6.398
10507SOL     OW32419   1.073   0.559   6.267
10507SOL    HW132420   1.010   0.517   6.202
10507SOL    HW232421   1.145   0.607   6.218
10508SOL     OW32422   5.424   4.752   3.733
10508SOL    HW132423   5.444   4.671   3.788
10508SOL    HW232424   5.471   4.745   3.645
10509SOL     OW32425   0.863   6.666   6.694
10509SOL    HW132426   0.943   6.716   6.729
10509SOL    HW232427   0.893   6.601   6.624
10510SOL     OW32428   5.756   5.247   6.779
10510SOL    HW132429   5.784   5.333   6.736
10510SOL    HW232430   5.788   5.245   6.874
10511SOL     OW32431   4.156   2.968   0.421
10511SOL    HW132432   4.104   2.910   0.483
10511SOL    HW232433   4.116   3.060   0.421
10512SOL     OW32434   4.473   0.524   5.863
10512SOL    HW132435   4.540   0.582   5.910
10512SOL    HW232436   4.513   0.489   5.779
10513SOL     OW32437   0.805   2.463   5.811
10513SOL    HW132438   0.710   2.497   5.806
10513SOL    HW232439   0.864   2.525   5.759
10514SOL     OW32440   6.549   4.257   0.385
10514SOL    HW132441   6.502   4.217   0.307
10514SOL    HW232442   6.640   4.215   0.395
10515SOL     OW32443   6.667   1.608   3.183
10515SOL    HW132444   6.632   1.696   3.150
10515SOL    HW232445   6.670   1.543   3.108
10516SOL     OW32446   4.383   0.830   6.496
10516SOL    HW132447   4.294   0.835   6.450
10516SOL    HW232448   4.455   0.850   6.431
10517SOL     OW32449   0.041   1.591   2.762
10517SOL    HW132450   0.118   1.640   2.723
10517SOL    HW232451   0.060   1.492   2.761
10518SOL     OW32452   1.235   6.733   0.611
10518SOL    HW132453   1.192   6.664   0.553
10518SOL    HW232454   1.306   6.691   0.667
10519SOL     OW32455   3.409   3.074   5.790
10519SOL    HW132456   3.369   2.982   5.799
10519SOL    HW232457   3.412   3.099   5.693
10520SOL     OW32458   3.113   2.761   6.715
10520SOL    HW132459   3.193   2.791   6.664
10520SOL    HW232460   3.053   2.839   6.732
10521SOL     OW32461   6.653   6.062   1.733
10521SOL    HW132462   6.677   6.057   1.636
10521SOL    HW232463   6.560   6.027   1.747
10522SOL     OW32464   6.395   1.291   0.675
10522SOL    HW132465   6.403   1.385   0.708
10522SOL    HW232466   6.379   1.230   0.753
10523SOL     OW32467   6.949   5.173   6.008
10523SOL    HW132468   6.937   5.247   6.075
10523SOL    HW232469   0.016   5.178   5.970
10524SOL     OW32470   1.746   0.178   4.393
10524SOL    HW132471   1.845   0.185   4.375
10524SOL    HW232472   1.711   0.268   4.417
10525SOL     OW32473   1.846   6.744   5.129
10525SOL    HW132474   1.879   6.736   5.035
10525SOL    HW232475   1.846   6.654   5.172
10526SOL     OW32476   0.764   1.017   2.382
10526SOL    HW132477   0.863   1.014   2.369
10526SOL    HW232478   0.719   1.034   2.294
10527SOL     OW32479   1.007   2.616   4.648
10527SOL    HW132480   1.001   2.681   4.572
10527SOL    HW232481   1.057   2.658   4.724
10528SOL     OW32482   0.340   5.514   4.913
10528SOL    HW132483   0.353   5.450   4.838
10528SOL    HW232484   0.360   5.468   5.000
10529SOL     OW32485   0.224   6.510   3.628
10529SOL    HW132486   0.190   6.599   3.599
10529SOL    HW232487   0.219   6.446   3.551
10530SOL     OW32488   2.587   2.262   6.304
10530SOL    HW132489   2.519   2.287   6.235
10530SOL    HW232490   2.655   2.201   6.264
10531SOL     OW32491   1.636   3.526   5.017
10531SOL    HW132492   1.628   3.503   5.114
10531SOL    HW232493   1.732   3.540   4.994
10532SOL     OW32494   3.686   2.643   6.365
10532SOL    HW132495   3.772   2.592   6.373
10532SOL    HW232496   3.648   2.657   6.456
10533SOL     OW32497   3.018   1.489   5.069
10533SOL    HW132498   3.084   1.429   5.023
10533SOL    HW232499   3.048   1.505   5.163
10534SOL     OW32500   6.900   6.026   0.579
10534SOL    HW132501   6.860   6.083   0.651
10534SOL    HW232502   6.968   6.079   0.529
10535SOL     OW32503   0.437   1.351   2.311
10535SOL    HW132504   0.479   1.441   2.320
10535SOL    HW232505   0.339   1.357   2.329
10536SOL     OW32506   4.858   0.388   3.187
10536SOL    HW132507   4.852   0.289   3.175
10536SOL    HW232508   4.804   0.434   3.117
10537SOL     OW32509   3.113   5.415   2.899
10537SOL    HW132510   3.196   5.390   2.949
10537SOL    HW232511   3.040   5.350   2.921
10538SOL     OW32512   4.327   3.857   0.113
10538SOL    HW132513   4.411   3.813   0.144
10538SOL    HW232514   4.251   3.793   0.123
10539SOL     OW32515   0.907   3.080   6.321
10539SOL    HW132516   0.909   3.068   6.222
10539SOL    HW232517   0.922   3.176   6.343
10540SOL     OW32518   1.870   0.841   5.635
10540SOL    HW132519   1.819   0.762   5.601
10540SOL    HW232520   1.908   0.892   5.558
10541SOL     OW32521   3.753   3.810   1.018
10541SOL    HW132522   3.696   3.729   1.027
10541SOL    HW232523   3.849   3.786   1.032
10542SOL     OW32524   0.314   2.486   0.567
10542SOL    HW132525   0.371   2.560   0.530
10542SOL    HW232526   0.286   2.510   0.660
10543SOL     OW32527   0.331   2.230   5.702
10543SOL    HW132528   0.244   2.192   5.673
10543SOL    HW232529   0.392   2.157   5.731
10544SOL     OW32530   2.473   2.101   2.328
10544SOL    HW132531   2.375   2.118   2.322
10544SOL    HW232532   2.503   2.109   2.423
10545SOL     OW32533   6.651   0.055   2.617
10545SOL    HW132534   6.714   7.023   2.564
10545SOL    HW232535   6.703   0.127   2.663
10546SOL     OW32536   2.398   0.050   4.578
10546SOL    HW132537   2.379   0.047   4.676
10546SOL    HW232538   2.399   0.145   4.547
10547SOL     OW32539   4.228   1.365   1.814
10547SOL    HW132540   4.321   1.379   1.848
10547SOL    HW232541   4.196   1.448   1.768
10548SOL     OW32542   5.288   3.676   4.583
10548SOL    HW132543   5.191   3.654   4.586
10548SOL    HW232544   5.332   3.646   4.668
10549SOL     OW32545   1.361   0.268   2.524
10549SOL    HW132546   1.371   0.323   2.442
10549SOL    HW232547   1.382   0.323   2.605
10550SOL     OW32548   5.449   0.428   4.013
10550SOL    HW132549   5.458   0.526   4.026
10550SOL    HW232550   5.396   0.410   3.930
10551SOL     OW32551   1.348   1.832   5.410
10551SOL    HW132552   1.352   1.928   5.380
10551SOL    HW232553   1.272   1.786   5.365
10552SOL     OW32554   3.540   2.277   5.918
10552SOL    HW132555   3.499   2.186   5.914
10552SOL    HW232556   3.488   2.340   5.860
10553SOL     OW32557   0.443   5.718   0.435
10553SOL    HW132558   0.418   5.622   0.449
10553SOL    HW232559   0.363   5.770   0.406
10554SOL     OW32560   6.780   4.672   0.407
10554SOL    HW132561   6.709   4.707   0.346
10554SOL    HW232562   6.868   4.675   0.360
10555SOL     OW32563   3.155   1.505   2.046
10555SOL    HW132564   3.104   1.428   2.007
10555SOL    HW232565   3.220   1.470   2.113
10556SOL     OW32566   2.182   3.398   5.037
10556SOL    HW132567   2.238   3.467   5.084
10556SOL    HW232568   2.200   3.308   5.076
10557SOL     OW32569   0.244   2.580   2.977
10557SOL    HW132570   0.340   2.567   3.002
10557SOL    HW232571   0.227   2.677   2.961
10558SOL     OW32572   4.248   6.839   5.194
10558SOL    HW132573   4.232   6.765   5.259
10558SOL    HW232574   4.243   6.927   5.241
10559SOL     OW32575   4.127   1.902   0.982
10559SOL    HW132576   4.101   1.979   1.041
10559SOL    HW232577   4.045   1.861   0.943
10560SOL     OW32578   1.542   4.543   5.424
10560SOL    HW132579   1.635   4.571   5.403
10560SOL    HW232580   1.492   4.524   5.339
10561SOL     OW32581   2.083   4.923   6.484
10561SOL    HW132582   2.149   4.872   6.539
10561SOL    HW232583   2.013   4.860   6.450
10562SOL     OW32584   4.371   0.702   0.749
10562SOL    HW132585   4.411   0.793   0.762
10562SOL    HW232586   4.280   0.711   0.709
10563SOL     OW32587   1.991   2.119   5.215
10563SOL    HW132588   1.951   2.067   5.290
10563SOL    HW232589   2.061   2.064   5.169
10564SOL     OW32590   6.140   0.901   1.759
10564SOL    HW132591   6.210   0.911   1.689
10564SOL    HW232592   6.140   0.807   1.793
10565SOL     OW32593   6.512   0.552   5.440
10565SOL    HW132594   6.526   0.637   5.390
10565SOL    HW232595   6.570   0.550   5.521
10566SOL     OW32596   3.595   4.055   6.287
10566SOL    HW132597   3.588   3.956   6.273
10566SOL    HW232598   3.529   4.083   6.357
10567SOL     OW32599   1.880   3.634   4.137
10567SOL    HW132600   1.960   3.604   4.189
10567SOL    HW232601   1.865   3.572   4.060
10568SOL     OW32602   5.804   1.375   2.305
10568SOL    HW132603   5.774   1.460   2.262
10568SOL    HW232604   5.791   1.299   2.242
10569SOL     OW32605   6.017   3.127   2.839
10569SOL    HW132606   6.008   3.092   2.746
10569SOL    HW232607   5.928   3.157   2.873
10570SOL     OW32608   2.032   4.368   2.515
10570SOL    HW132609   1.968   4.296   2.488
10570SOL    HW232610   2.119   4.355   2.468
10571SOL     OW32611   6.455   5.608   2.839
10571SOL    HW132612   6.359   5.596   2.814
10571SOL    HW232613   6.505   5.523   2.821
10572SOL     OW32614   5.412   3.507   2.392
10572SOL    HW132615   5.451   3.599   2.393
10572SOL    HW232616   5.480   3.442   2.426
10573SOL     OW32617   6.196   5.863   3.942
10573SOL    HW132618   6.225   5.798   3.871
10573SOL    HW232619   6.219   5.826   4.032
10574SOL     OW32620   1.364   1.916   3.624
10574SOL    HW132621   1.350   1.822   3.594
10574SOL    HW232622   1.457   1.926   3.660
10575SOL     OW32623   1.079   1.017   4.837
10575SOL    HW132624   1.060   0.959   4.916
10575SOL    HW232625   1.038   1.107   4.851
10576SOL     OW32626   1.854   5.862   5.194
10576SOL    HW132627   1.780   5.811   5.150
10576SOL    HW232628   1.826   5.886   5.287
10577SOL     OW32629   1.595   3.098   6.310
10577SOL    HW132630   1.518   3.160   6.324
10577SOL    HW232631   1.680   3.145   6.332
10578SOL     OW32632   5.918   0.244   5.120
10578SOL    HW132633   5.935   0.154   5.160
10578SOL    HW232634   6.001   0.276   5.074
10579SOL     OW32635   3.848   1.836   0.923
10579SOL    HW132636   3.760   1.790   0.936
10579SOL    HW232637   3.848   1.883   0.835
10580SOL     OW32638   6.733   6.073   6.461
10580SOL    HW132639   6.728   6.041   6.555
10580SOL    HW232640   6.640   6.088   6.426
10581SOL     OW32641   5.590   0.724   3.632
10581SOL    HW132642   5.681   0.754   3.603
10581SOL    HW232643   5.589   0.624   3.641
10582SOL     OW32644   3.621   5.177   6.906
10582SOL    HW132645   3.615   5.121   6.989
10582SOL    HW232646   3.586   5.269   6.925
10583SOL     OW32647   3.616   1.078   6.979
10583SOL    HW132648   3.706   1.097   6.941
10583SOL    HW232649   3.604   0.979   6.989
10584SOL     OW32650   5.423   6.372   1.322
10584SOL    HW132651   5.427   6.414   1.413
10584SOL    HW232652   5.334   6.392   1.280
10585SOL     OW32653   1.083   3.124   5.611
10585SOL    HW132654   1.127   3.127   5.521
10585SOL    HW232655   1.146   3.083   5.677
10586SOL     OW32656   2.838   6.241   6.071
10586SOL    HW132657   2.761   6.187   6.037
10586SOL    HW232658   2.820   6.338   6.055
10587SOL     OW32659   5.780   3.569   0.553
10587SOL    HW132660   5.803   3.658   0.592
10587SOL    HW232661   5.681   3.564   0.538
10588SOL     OW32662   0.743   4.665   2.638
10588SOL    HW132663   0.659   4.685   2.689
10588SOL    HW232664   0.735   4.575   2.595
10589SOL     OW32665   5.881   2.795   4.534
10589SOL    HW132666   5.827   2.776   4.453
10589SOL    HW232667   5.840   2.870   4.585
10590SOL     OW32668   0.851   0.145   3.265
10590SOL    HW132669   0.825   0.225   3.319
10590SOL    HW232670   0.784   0.132   3.192
10591SOL     OW32671   1.368   1.531   5.881
10591SOL    HW132672   1.352   1.549   5.784
10591SOL    HW232673   1.455   1.484   5.893
10592SOL     OW32674   6.844   1.494   0.170
10592SOL    HW132675   6.803   1.403   0.158
10592SOL    HW232676   6.859   1.511   0.267
10593SOL     OW32677   2.217   5.263   2.145
10593SOL    HW132678   2.151   5.337   2.149
10593SOL    HW232679   2.201   5.207   2.064
10594SOL     OW32680   6.387   1.834   4.193
10594SOL    HW132681   6.454   1.886   4.140
10594SOL    HW232682   6.308   1.891   4.212
10595SOL     OW32683   3.627   6.605   6.078
10595SOL    HW132684   3.695   6.651   6.020
10595SOL    HW232685   3.554   6.568   6.021
10596SOL     OW32686   4.261   6.796   2.147
10596SOL    HW132687   4.298   6.732   2.213
10596SOL    HW232688   4.313   6.882   2.150
10597SOL     OW32689   2.229   1.165   4.758
10597SOL    HW132690   2.326   1.181   4.775
10597SOL    HW232691   2.201   1.215   4.676
10598SOL     OW32692   2.427   2.518   6.813
10598SOL    HW132693   2.482   2.434   6.808
10598SOL    HW232694   2.350   2.511   6.751
10599SOL     OW32695   6.227   1.230   0.248
10599SOL    HW132696   6.254   1.255   0.155
10599SOL    HW232697   6.225   1.312   0.305
10600SOL     OW32698   2.991   2.693   6.078
10600SOL    HW132699   2.991   2.778   6.024
10600SOL    HW232700   3.018   2.714   6.172
10601SOL     OW32701   2.978   6.550   6.464
10601SOL    HW132702   3.007   6.478   6.401
10601SOL    HW232703   2.925   6.619   6.415
10602SOL     OW32704   4.839   1.100   1.425
10602SOL    HW132705   4.798   1.010   1.411
10602SOL    HW232706   4.783   1.170   1.381
10603SOL     OW32707   1.778   5.407   3.829
10603SOL    HW132708   1.749   5.437   3.738
10603SOL    HW232709   1.835   5.325   3.820
10604SOL     OW32710   6.628   4.572   4.387
10604SOL    HW132711   6.656   4.499   4.449
10604SOL    HW232712   6.693   4.649   4.395
10605SOL     OW32713   0.942   5.093   0.690
10605SOL    HW132714   1.028   5.143   0.695
10605SOL    HW232715   0.955   5.002   0.731
10606SOL     OW32716   0.220   0.583   1.696
10606SOL    HW132717   0.207   0.678   1.724
10606SOL    HW232718   0.131   0.541   1.678
10607SOL     OW32719   4.470   4.556   6.617
10607SOL    HW132720   4.546   4.583   6.677
10607SOL    HW232721   4.475   4.609   6.532
10608SOL     OW32722   5.855   1.646   4.177
10608SOL    HW132723   5.812   1.597   4.253
10608SOL    HW232724   5.791   1.715   4.141
10609SOL     OW32725   4.126   6.146   1.200
10609SOL    HW132726   4.091   6.222   1.255
10609SOL    HW232727   4.217   6.120   1.234
10610SOL     OW32728   1.343   3.526   6.005
10610SOL    HW132729   1.328   3.593   5.932
10610SOL    HW232730   1.405   3.454   5.972
10611SOL     OW32731   5.363   2.612   6.630
10611SOL    HW132732   5.318   2.678   6.570
10611SOL    HW232733   5.327   2.520   6.612
10612SOL     OW32734   2.400   6.584   6.035
10612SOL    HW132735   2.416   6.620   6.127
10612SOL    HW232736   2.459   6.504   6.020
10613SOL     OW32737   0.624   6.792   5.098
10613SOL    HW132738   0.554   6.837   5.042
10613SOL    HW232739   0.677   6.862   5.147
10614SOL     OW32740   6.111   0.960   4.458
10614SOL    HW132741   6.159   0.941   4.372
10614SOL    HW232742   6.146   1.045   4.497
10615SOL     OW32743   4.956   5.694   5.137
10615SOL    HW132744   4.910   5.648   5.061
10615SOL    HW232745   5.024   5.758   5.100
10616SOL     OW32746   3.147   5.945   0.708
10616SOL    HW132747   3.097   6.019   0.753
10616SOL    HW232748   3.121   5.943   0.611
10617SOL     OW32749   2.261   2.664   0.276
10617SOL    HW132750   2.306   2.621   0.355
10617SOL    HW232751   2.315   2.646   0.194
10618SOL     OW32752   5.781   2.539   0.159
10618SOL    HW132753   5.804   2.618   0.215
10618SOL    HW232754   5.861   2.480   0.149
10619SOL     OW32755   0.821   4.126   3.160
10619SOL    HW132756   0.788   4.219   3.178
10619SOL    HW232757   0.743   4.064   3.154
10620SOL     OW32758   1.277   6.226   4.690
10620SOL    HW132759   1.263   6.133   4.655
10620SOL    HW232760   1.261   6.292   4.617
10621SOL     OW32761   1.635   5.894   6.695
10621SOL    HW132762   1.662   5.799   6.680
10621SOL    HW232763   1.643   5.945   6.609
10622SOL     OW32764   3.882   6.698   1.676
10622SOL    HW132765   3.826   6.758   1.620
10622SOL    HW232766   3.874   6.725   1.772
10623SOL     OW32767   5.915   2.827   3.852
10623SOL    HW132768   5.965   2.783   3.927
10623SOL    HW232769   5.817   2.815   3.865
10624SOL     OW32770   2.057   1.212   5.044
10624SOL    HW132771   2.032   1.224   4.948
10624SOL    HW232772   1.985   1.161   5.091
10625SOL     OW32773   0.442   3.487   0.096
10625SOL    HW132774   0.458   3.561   0.031
10625SOL    HW232775   0.362   3.434   0.068
10626SOL     OW32776   1.238   2.058   1.423
10626SOL    HW132777   1.228   2.157   1.410
10626SOL    HW232778   1.214   2.033   1.517
10627SOL     OW32779   6.474   6.681   2.496
10627SOL    HW132780   6.561   6.720   2.467
10627SOL    HW232781   6.459   6.702   2.593
10628SOL     OW32782   6.641   5.504   5.715
10628SOL    HW132783   6.602   5.582   5.765
10628SOL    HW232784   6.671   5.434   5.781
10629SOL     OW32785   2.513   4.992   5.947
10629SOL    HW132786   2.441   4.945   5.897
10629SOL    HW232787   2.474   5.065   6.003
10630SOL     OW32788   5.794   0.848   3.407
10630SOL    HW132789   5.719   0.862   3.342
10630SOL    HW232790   5.850   0.930   3.412
10631SOL     OW32791   0.278   6.751   3.928
10631SOL    HW132792   0.304   6.754   3.831
10631SOL    HW232793   0.179   6.759   3.936
10632SOL     OW32794   6.492   2.542   4.534
10632SOL    HW132795   6.587   2.563   4.557
10632SOL    HW232796   6.433   2.618   4.561
10633SOL     OW32797   2.748   5.496   1.573
10633SOL    HW132798   2.701   5.578   1.605
10633SOL    HW232799   2.789   5.449   1.651
10634SOL     OW32800   3.000   6.051   1.335
10634SOL    HW132801   3.069   5.978   1.331
10634SOL    HW232802   2.942   6.046   1.254
10635SOL     OW32803   2.700   1.191   0.969
10635SOL    HW132804   2.755   1.153   1.043
10635SOL    HW232805   2.755   1.195   0.885
10636SOL     OW32806   0.963   1.845   1.044
10636SOL    HW132807   0.948   1.921   1.106
10636SOL    HW232808   0.914   1.764   1.078
10637SOL     OW32809   3.662   4.159   5.406
10637SOL    HW132810   3.607   4.203   5.477
10637SOL    HW232811   3.759   4.167   5.429
10638SOL     OW32812   6.507   6.093   4.705
10638SOL    HW132813   6.418   6.098   4.659
10638SOL    HW232814   6.566   6.167   4.672
10639SOL     OW32815   0.995   0.831   5.102
10639SOL    HW132816   0.957   0.790   5.019
10639SOL    HW232817   1.028   0.759   5.163
10640SOL     OW32818   4.858   1.146   6.777
10640SOL    HW132819   4.773   1.094   6.776
10640SOL    HW232820   4.928   1.095   6.828
10641SOL     OW32821   5.632   1.424   6.881
10641SOL    HW132822   5.710   1.486   6.888
10641SOL    HW232823   5.619   1.399   6.785
10642SOL     OW32824   0.607   2.121   1.823
10642SOL    HW132825   0.695   2.086   1.790
10642SOL    HW232826   0.540   2.047   1.823
10643SOL     OW32827   2.409   3.740   5.363
10643SOL    HW132828   2.453   3.818   5.319
10643SOL    HW232829   2.469   3.705   5.436
10644SOL     OW32830   4.501   1.635   4.197
10644SOL    HW132831   4.517   1.628   4.098
10644SOL    HW232832   4.431   1.705   4.213
10645SOL     OW32833   2.000   0.190   4.327
10645SOL    HW132834   1.968   0.211   4.234
10645SOL    HW232835   2.087   0.141   4.322
10646SOL     OW32836   1.279   2.980   5.779
10646SOL    HW132837   1.339   2.981   5.699
10646SOL    HW232838   1.335   2.977   5.862
10647SOL     OW32839   6.748   4.984   0.755
10647SOL    HW132840   6.784   5.060   0.701
10647SOL    HW232841   6.700   5.020   0.835
10648SOL     OW32842   4.932   2.884   6.686
10648SOL    HW132843   4.977   2.796   6.701
10648SOL    HW232844   4.888   2.914   6.770
10649SOL     OW32845   6.949   4.843   5.739
10649SOL    HW132846   7.007   4.764   5.759
10649SOL    HW232847   6.867   4.812   5.691
10650SOL     OW32848   2.760   6.539   4.081
10650SOL    HW132849   2.731   6.458   4.031
10650SOL    HW232850   2.714   6.620   4.044
10651SOL     OW32851   5.082   6.778   5.338
10651SOL    HW132852   4.998   6.776   5.392
10651SOL    HW232853   5.067   6.830   5.254
10652SOL     OW32854   3.606   0.327   6.183
10652SOL    HW132855   3.515   0.362   6.162
10652SOL    HW232856   3.674   0.397   6.162
10653SOL     OW32857   5.175   4.337   4.328
10653SOL    HW132858   5.161   4.253   4.381
10653SOL    HW232859   5.235   4.398   4.378
10654SOL     OW32860   3.328   0.749   1.230
10654SOL    HW132861   3.292   0.842   1.239
10654SOL    HW232862   3.319   0.718   1.136
10655SOL     OW32863   2.938   6.482   1.059
10655SOL    HW132864   3.007   6.409   1.059
10655SOL    HW232865   2.865   6.458   0.995
10656SOL     OW32866   6.210   2.176   0.259
10656SOL    HW132867   6.228   2.112   0.334
10656SOL    HW232868   6.290   2.233   0.243
10657SOL     OW32869   5.470   0.590   1.066
10657SOL    HW132870   5.508   0.519   1.125
10657SOL    HW232871   5.401   0.551   1.006
10658SOL     OW32872   0.886   5.200   3.945
10658SOL    HW132873   0.855   5.228   4.036
10658SOL    HW232874   0.917   5.104   3.948
10659SOL     OW32875   5.871   0.208   0.707
10659SOL    HW132876   5.932   0.149   0.761
10659SOL    HW232877   5.925   0.282   0.666
10660SOL     OW32878   4.243   4.378   5.490
10660SOL    HW132879   4.304   4.446   5.531
10660SOL    HW232880   4.297   4.309   5.442
10661SOL     OW32881   0.321   6.518   2.413
10661SOL    HW132882   0.348   6.451   2.344
10661SOL    HW232883   0.233   6.559   2.387
10662SOL     OW32884   6.946   1.627   0.719
10662SOL    HW132885   0.009   1.673   0.714
10662SOL    HW232886   6.958   1.529   0.705
10663SOL     OW32887   0.237   0.113   0.497
10663SOL    HW132888   0.198   0.116   0.588
10663SOL    HW232889   0.206   0.032   0.449
10664SOL     OW32890   2.035   5.090   7.012
10664SOL    HW132891   2.080   5.170   6.974
10664SOL    HW232892   2.029   5.018   6.943
10665SOL     OW32893   6.397   2.052   1.110
10665SOL    HW132894   6.421   2.017   1.201
10665SOL    HW232895   6.378   2.150   1.116
10666SOL     OW32896   2.382   5.954   0.060
10666SOL    HW132897   2.405   5.919   6.995
10666SOL    HW232898   2.372   6.053   0.057
10667SOL     OW32899   3.680   1.974   5.765
10667SOL    HW132900   3.769   2.005   5.730
10667SOL    HW232901   3.659   1.884   5.726
10668SOL     OW32902   1.802   1.586   6.471
10668SOL    HW132903   1.751   1.540   6.543
10668SOL    HW232904   1.745   1.656   6.428
10669SOL     OW32905   1.577   6.882   0.040
10669SOL    HW132906   1.526   6.968   0.034
10669SOL    HW232907   1.526   6.818   0.097
10670SOL     OW32908   5.544   4.305   5.965
10670SOL    HW132909   5.608   4.241   6.008
10670SOL    HW232910   5.451   4.284   5.996
10671SOL     OW32911   2.390   2.412   2.997
10671SOL    HW132912   2.312   2.431   3.056
10671SOL    HW232913   2.360   2.407   2.902
10672SOL     OW32914   0.381   2.644   1.238
10672SOL    HW132915   0.305   2.591   1.275
10672SOL    HW232916   0.444   2.667   1.313
10673SOL     OW32917   2.718   3.051   5.302
10673SOL    HW132918   2.765   3.133   5.269
10673SOL    HW232919   2.625   3.049   5.263
10674SOL     OW32920   4.160   3.478   1.523
10674SOL    HW132921   4.156   3.490   1.622
10674SOL    HW232922   4.252   3.448   1.497
10675SOL     OW32923   0.430   0.381   5.460
10675SOL    HW132924   0.347   0.332   5.434
10675SOL    HW232925   0.412   0.480   5.462
10676SOL     OW32926   6.147   6.922   6.554
10676SOL    HW132927   6.232   6.895   6.599
10676SOL    HW232928   6.164   6.938   6.457
10677SOL     OW32929   0.355   0.507   0.707
10677SOL    HW132930   0.366   0.545   0.799
10677SOL    HW232931   0.387   0.573   0.640
10678SOL     OW32932   2.134   5.920   2.370
10678SOL    HW132933   2.051   5.924   2.316
10678SOL    HW232934   2.153   6.010   2.410
10679SOL     OW32935   5.466   4.982   3.927
10679SOL    HW132936   5.380   5.024   3.955
10679SOL    HW232937   5.451   4.926   3.846
10680SOL     OW32938   1.477   3.566   2.745
10680SOL    HW132939   1.539   3.503   2.792
10680SOL    HW232940   1.484   3.551   2.647
10681SOL     OW32941   6.329   2.453   5.795
10681SOL    HW132942   6.345   2.371   5.849
10681SOL    HW232943   6.274   2.429   5.715
10682SOL     OW32944   0.117   1.283   2.729
10682SOL    HW132945   0.151   1.206   2.783
10682SOL    HW232946   0.056   1.249   2.658
10683SOL     OW32947   1.742   1.791   5.231
10683SOL    HW132948   1.698   1.810   5.143
10683SOL    HW232949   1.684   1.731   5.285
10684SOL     OW32950   6.440   4.634   0.339
10684SOL    HW132951   6.430   4.693   0.419
10684SOL    HW232952   6.479   4.546   0.367
10685SOL     OW32953   0.494   2.723   3.090
10685SOL    HW132954   0.545   2.715   3.176
10685SOL    HW232955   0.485   2.819   3.066
10686SOL     OW32956   2.991   5.464   0.479
10686SOL    HW132957   2.919   5.406   0.440
10686SOL    HW232958   3.076   5.412   0.485
10687SOL     OW32959   0.261   4.711   2.847
10687SOL    HW132960   0.261   4.769   2.766
10687SOL    HW232961   0.253   4.768   2.929
10688SOL     OW32962   6.768   4.857   1.744
10688SOL    HW132963   6.745   4.950   1.772
10688SOL    HW232964   6.684   4.808   1.719
10689SOL     OW32965   0.794   0.712   2.606
10689SOL    HW132966   0.708   0.681   2.564
10689SOL    HW232967   0.871   0.664   2.564
10690SOL     OW32968   4.292   4.818   2.179
10690SOL    HW132969   4.255   4.772   2.259
10690SOL    HW232970   4.320   4.751   2.110
10691SOL     OW32971   6.959   1.106   1.806
10691SOL    HW132972   6.893   1.125   1.733
10691SOL    HW232973   0.018   1.156   1.788
10692SOL     OW32974   3.840   5.992   3.705
10692SOL    HW132975   3.847   6.079   3.656
10692SOL    HW232976   3.749   5.952   3.690
10693SOL     OW32977   6.754   1.448   1.637
10693SOL    HW132978   6.788   1.445   1.731
10693SOL    HW232979   6.725   1.356   1.609
10694SOL     OW32980   4.322   6.474   0.683
10694SOL    HW132981   4.266   6.417   0.744
10694SOL    HW232982   4.302   6.570   0.699
10695SOL     OW32983   0.345   2.756   4.005
10695SOL    HW132984   0.289   2.699   3.944
10695SOL    HW232985   0.414   2.805   3.951
10696SOL     OW32986   6.874   5.815   1.505
10696SOL    HW132987   6.797   5.751   1.500
10696SOL    HW232988   6.916   5.810   1.595
10697SOL     OW32989   1.591   5.819   3.940
10697SOL    HW132990   1.654   5.837   4.016
10697SOL    HW232991   1.632   5.853   3.855
10698SOL     OW32992   3.130   6.762   3.545
10698SOL    HW132993   3.184   6.691   3.590
10698SOL    HW232994   3.045   6.776   3.595
10699SOL     OW32995   2.723   2.114   2.994
10699SOL    HW132996   2.740   2.151   2.903
10699SOL    HW232997   2.686   2.186   3.054
10700SOL     OW32998   6.495   6.616   0.850
10700SOL    HW132999   6.455   6.697   0.893
10700SOL    HW233000   6.428   6.573   0.791
10701SOL     OW33001   2.535   6.479   1.136
10701SOL    HW133002   2.523   6.406   1.204
10701SOL    HW233003   2.548   6.566   1.182
10702SOL     OW33004   6.176   2.845   0.986
10702SOL    HW133005   6.146   2.924   1.039
10702SOL    HW233006   6.117   2.834   0.907
10703SOL     OW33007   3.689   4.085   4.425
10703SOL    HW133008   3.679   4.059   4.521
10703SOL    HW233009   3.599   4.092   4.383
10704SOL     OW33010   5.092   0.256   1.965
10704SOL    HW133011   4.998   0.288   1.979
10704SOL    HW233012   5.151   0.334   1.944
10705SOL     OW33013   6.944   3.000   5.889
10705SOL    HW133014   6.883   3.079   5.892
10705SOL    HW233015   6.923   2.945   5.808
10706SOL     OW33016   3.330   1.100   2.124
10706SOL    HW133017   3.387   1.176   2.155
10706SOL    HW233018   3.386   1.032   2.078
10707SOL     OW33019   6.175   6.895   6.272
10707SOL    HW133020   6.216   6.925   6.186
10707SOL    HW233021   6.142   6.801   6.263
10708SOL     OW33022   4.555   1.169   0.961
10708SOL    HW133023   4.543   1.241   1.028
10708SOL    HW233024   4.569   1.209   0.870
10709SOL     OW33025   5.947   6.492   5.550
10709SOL    HW133026   5.941   6.394   5.529
10709SOL    HW233027   5.887   6.513   5.627
10710SOL     OW33028   5.952   5.368   3.050
10710SOL    HW133029   5.954   5.370   3.150
10710SOL    HW233030   5.954   5.461   3.015
10711SOL     OW33031   1.447   0.052   3.757
10711SOL    HW133032   1.544   0.073   3.766
10711SOL    HW233033   1.401   0.070   3.844
10712SOL     OW33034   3.580   1.530   4.997
10712SOL    HW133035   3.501   1.590   4.984
10712SOL    HW233036   3.655   1.560   4.938
10713SOL     OW33037   1.087   5.832   1.730
10713SOL    HW133038   1.131   5.772   1.798
10713SOL    HW233039   0.998   5.862   1.765
10714SOL     OW33040   6.721   5.025   5.830
10714SOL    HW133041   6.736   5.121   5.852
10714SOL    HW233042   6.809   4.980   5.816
10715SOL     OW33043   5.189   1.443   4.139
10715SOL    HW133044   5.165   1.451   4.042
10715SOL    HW233045   5.220   1.532   4.173
10716SOL     OW33046   6.533   0.166   3.710
10716SOL    HW133047   6.472   0.238   3.743
10716SOL    HW233048   6.542   0.096   3.780
10717SOL     OW33049   0.025   0.225   1.385
10717SOL    HW133050   7.025   0.320   1.403
10717SOL    HW233051   0.118   0.222   1.349
10718SOL     OW33052   7.022   4.938   0.359
10718SOL    HW133053   0.034   4.907   0.446
10718SOL    HW233054   7.026   4.863   0.292
10719SOL     OW33055   5.489   0.725   1.951
10719SOL    HW133056   5.442   0.639   1.972
10719SOL    HW233057   5.459   0.796   2.015
10720SOL     OW33058   0.458   3.364   6.618
10720SOL    HW133059   0.431   3.271   6.595
10720SOL    HW233060   0.556   3.376   6.600
10721SOL     OW33061   4.927   2.563   4.362
10721SOL    HW133062   4.917   2.467   4.335
10721SOL    HW233063   4.981   2.612   4.293
10722SOL     OW33064   0.315   3.860   6.837
10722SOL    HW133065   0.314   3.768   6.797
10722SOL    HW233066   0.379   3.917   6.785
10723SOL     OW33067   6.245   4.045   6.683
10723SOL    HW133068   6.309   3.974   6.655
10723SOL    HW233069   6.162   4.039   6.627
10724SOL     OW33070   4.297   6.437   5.861
10724SOL    HW133071   4.227   6.482   5.805
10724SOL    HW233072   4.252   6.387   5.936
10725SOL     OW33073   6.858   6.215   5.029
10725SOL    HW133074   6.945   6.179   5.063
10725SOL    HW233075   6.852   6.313   5.049
10726SOL     OW33076   4.994   1.371   4.445
10726SOL    HW133077   5.075   1.347   4.392
10726SOL    HW233078   4.926   1.298   4.437
10727SOL     OW33079   2.053   6.099   6.052
10727SOL    HW133080   2.043   6.191   6.014
10727SOL    HW233081   1.986   6.086   6.125
10728SOL     OW33082   5.147   5.801   2.925
10728SOL    HW133083   5.214   5.727   2.919
10728SOL    HW233084   5.110   5.805   3.018
10729SOL     OW33085   5.786   2.793   3.029
10729SOL    HW133086   5.771   2.847   3.112
10729SOL    HW233087   5.880   2.805   2.998
10730SOL     OW33088   2.256   6.187   2.755
10730SOL    HW133089   2.327   6.121   2.778
10730SOL    HW233090   2.235   6.181   2.658
10731SOL     OW33091   4.068   6.995   6.291
10731SOL    HW133092   4.120   0.052   6.268
10731SOL    HW233093   3.989   6.988   6.230
10732SOL     OW33094   5.828   6.436   2.913
10732SOL    HW133095   5.777   6.522   2.913
10732SOL    HW233096   5.772   6.365   2.955
10733SOL     OW33097   0.337   0.654   5.997
10733SOL    HW133098   0.255   0.612   5.959
10733SOL    HW233099   0.359   0.612   6.085
10734SOL     OW33100   0.782   1.326   5.458
10734SOL    HW133101   0.793   1.230   5.433
10734SOL    HW233102   0.755   1.378   5.378
10735SOL     OW33103   1.410   5.499   2.188
10735SOL    HW133104   1.345   5.461   2.254
10735SOL    HW233105   1.378   5.478   2.095
10736SOL     OW33106   5.795   0.112   3.521
10736SOL    HW133107   5.793   0.193   3.580
10736SOL    HW233108   5.868   0.051   3.551
10737SOL     OW33109   6.615   1.278   2.289
10737SOL    HW133110   6.530   1.287   2.341
10737SOL    HW233111   6.664   1.365   2.290
10738SOL     OW33112   3.282   1.086   1.818
10738SOL    HW133113   3.200   1.041   1.854
10738SOL    HW233114   3.359   1.067   1.878
10739SOL     OW33115   5.695   2.272   3.157
10739SOL    HW133116   5.668   2.219   3.077
10739SOL    HW233117   5.700   2.369   3.134
10740SOL     OW33118   1.694   6.742   6.148
10740SOL    HW133119   1.782   6.771   6.110
10740SOL    HW233120   1.621   6.773   6.088
10741SOL     OW33121   2.513   2.512   3.514
10741SOL    HW133122   2.543   2.440   3.451
10741SOL    HW233123   2.577   2.589   3.509
10742SOL     OW33124   6.026   6.714   2.545
10742SOL    HW133125   6.096   6.681   2.482
10742SOL    HW233126   6.058   6.705   2.639
10743SOL     OW33127   3.694   1.151   5.860
10743SOL    HW133128   3.636   1.217   5.906
10743SOL    HW233129   3.639   1.097   5.796
10744SOL     OW33130   1.758   0.200   0.193
10744SOL    HW133131   1.816   0.226   0.270
10744SOL    HW233132   1.773   0.104   0.170
10745SOL     OW33133   1.729   5.208   1.375
10745SOL    HW133134   1.771   5.286   1.423
10745SOL    HW233135   1.661   5.165   1.434
10746SOL     OW33136   1.367   6.140   6.356
10746SOL    HW133137   1.466   6.128   6.365
10746SOL    HW233138   1.321   6.081   6.423
10747SOL     OW33139   6.043   1.119   5.089
10747SOL    HW133140   6.056   1.211   5.126
10747SOL    HW233141   6.102   1.054   5.138
10748SOL     OW33142   3.990   6.185   0.959
10748SOL    HW133143   4.010   6.194   1.057
10748SOL    HW233144   3.896   6.214   0.942
10749SOL     OW33145   5.450   5.970   2.333
10749SOL    HW133146   5.496   6.049   2.292
10749SOL    HW233147   5.362   5.956   2.287
10750SOL     OW33148   5.084   2.337   4.145
10750SOL    HW133149   5.007   2.295   4.192
10750SOL    HW233150   5.050   2.405   4.079
10751SOL     OW33151   0.343   5.288   5.102
10751SOL    HW133152   0.365   5.196   5.070
10751SOL    HW233153   0.244   5.298   5.112
10752SOL     OW33154   6.061   6.410   0.606
10752SOL    HW133155   5.982   6.416   0.667
10752SOL    HW233156   6.069   6.316   0.572
10753SOL     OW33157   4.710   6.734   4.165
10753SOL    HW133158   4.756   6.822   4.159
10753SOL    HW233159   4.612   6.748   4.176
10754SOL     OW33160   1.503   3.677   1.421
10754SOL    HW133161   1.515   3.624   1.337
10754SOL    HW233162   1.446   3.757   1.402
10755SOL     OW33163   6.355   3.313   1.117
10755SOL    HW133164   6.344   3.235   1.056
10755SOL    HW233165   6.423   3.376   1.078
10756SOL     OW33166   0.651   1.862   1.040
10756SOL    HW133167   0.568   1.807   1.033
10756SOL    HW233168   0.672   1.901   0.951
10757SOL     OW33169   0.419   3.801   1.510
10757SOL    HW133170   0.501   3.821   1.564
10757SOL    HW233171   0.433   3.716   1.458
10758SOL     OW33172   0.703   0.262   6.750
10758SOL    HW133173   0.803   0.261   6.750
10758SOL    HW233174   0.669   0.183   6.802
10759SOL     OW33175   2.760   2.448   6.441
10759SOL    HW133176   2.711   2.385   6.381
10759SOL    HW233177   2.728   2.439   6.535
10760SOL     OW33178   0.689   5.408   0.830
10760SOL    HW133179   0.668   5.399   0.928
10760SOL    HW233180   0.660   5.324   0.783
10761SOL     OW33181   0.257   1.414   6.223
10761SOL    HW133182   0.259   1.395   6.125
10761SOL    HW233183   0.229   1.332   6.272
10762SOL     OW33184   3.625   6.085   6.153
10762SOL    HW133185   3.528   6.068   6.134
10762SOL    HW233186   3.664   6.005   6.198
10763SOL     OW33187   5.350   0.392   2.809
10763SOL    HW133188   5.262   0.413   2.765
10763SOL    HW233189   5.371   0.464   2.876
10764SOL     OW33190   4.341   0.572   4.763
10764SOL    HW133191   4.422   0.522   4.733
10764SOL    HW233192   4.271   0.569   4.691
10765SOL     OW33193   6.663   1.736   2.769
10765SOL    HW133194   6.604   1.656   2.761
10765SOL    HW233195   6.726   1.723   2.846
10766SOL     OW33196   1.571   5.031   6.567
10766SOL    HW133197   1.582   4.940   6.607
10766SOL    HW233198   1.540   5.021   6.472
10767SOL     OW33199   1.900   5.870   0.476
10767SOL    HW133200   1.915   5.947   0.413
10767SOL    HW233201   1.896   5.785   0.424
10768SOL     OW33202   5.627   5.798   0.358
10768SOL    HW133203   5.614   5.897   0.352
10768SOL    HW233204   5.724   5.777   0.359
10769SOL     OW33205   3.549   3.269   4.496
10769SOL    HW133206   3.512   3.227   4.579
10769SOL    HW233207   3.634   3.223   4.471
10770SOL     OW33208   5.397   0.133   3.868
10770SOL    HW133209   5.384   0.199   3.942
10770SOL    HW233210   5.309   0.111   3.827
10771SOL     OW33211   4.840   6.148   5.787
10771SOL    HW133212   4.836   6.204   5.704
10771SOL    HW233213   4.855   6.207   5.866
10772SOL     OW33214   5.996   4.781   2.775
10772SOL    HW133215   6.012   4.682   2.766
10772SOL    HW233216   6.030   4.828   2.694
10773SOL     OW33217   6.818   4.077   1.456
10773SOL    HW133218   6.745   4.037   1.400
10773SOL    HW233219   6.829   4.174   1.432
10774SOL     OW33220   1.232   3.021   0.528
10774SOL    HW133221   1.200   2.938   0.574
10774SOL    HW233222   1.314   3.055   0.572
10775SOL     OW33223   1.468   4.310   0.671
10775SOL    HW133224   1.481   4.331   0.768
10775SOL    HW233225   1.386   4.254   0.660
10776SOL     OW33226   1.235   1.718   3.500
10776SOL    HW133227   1.239   1.619   3.503
10776SOL    HW233228   1.140   1.748   3.508
10777SOL     OW33229   3.742   1.666   1.914
10777SOL    HW133230   3.747   1.766   1.917
10777SOL    HW233231   3.786   1.633   1.831
10778SOL     OW33232   6.251   6.564   3.171
10778SOL    HW133233   6.193   6.631   3.218
10778SOL    HW233234   6.193   6.497   3.125
10779SOL     OW33235   5.440   4.077   4.514
10779SOL    HW133236   5.502   4.111   4.444
10779SOL    HW233237   5.489   4.066   4.600
10780SOL     OW33238   1.548   5.811   5.007
10780SOL    HW133239   1.626   5.766   5.052
10780SOL    HW233240   1.582   5.878   4.941
10781SOL     OW33241   5.948   2.076   5.339
10781SOL    HW133242   5.870   2.082   5.277
10781SOL    HW233243   5.916   2.074   5.434
10782SOL     OW33244   1.315   2.568   5.155
10782SOL    HW133245   1.308   2.481   5.202
10782SOL    HW233246   1.237   2.626   5.180
10783SOL     OW33247   1.256   2.861   3.117
10783SOL    HW133248   1.186   2.933   3.117
10783SOL    HW233249   1.259   2.818   3.026
10784SOL     OW33250   3.920   6.045   2.558
10784SOL    HW133251   4.009   6.065   2.517
10784SOL    HW233252   3.933   6.013   2.652
10785SOL     OW33253   2.131   5.608   2.362
10785SOL    HW133254   2.058   5.556   2.317
10785SOL    HW233255   2.111   5.706   2.356
10786SOL     OW33256   3.823   1.359   1.995
10786SOL    HW133257   3.784   1.409   1.918
10786SOL    HW233258   3.886   1.418   2.045
10787SOL     OW33259   3.735   1.252   3.661
10787SOL    HW133260   3.782   1.207   3.585
10787SOL    HW233261   3.760   1.349   3.663
10788SOL     OW33262   0.921   4.831   0.800
10788SOL    HW133263   0.893   4.865   0.890
10788SOL    HW233264   0.841   4.797   0.751
10789SOL     OW33265   6.460   1.621   1.024
10789SOL    HW133266   6.538   1.634   0.964
10789SOL    HW233267   6.396   1.697   1.014
10790SOL     OW33268   0.676   2.313   4.802
10790SOL    HW133269   0.602   2.277   4.745
10790SOL    HW233270   0.761   2.266   4.780
10791SOL     OW33271   1.436   1.729   3.304
10791SOL    HW133272   1.357   1.730   3.364
10791SOL    HW233273   1.448   1.636   3.267
10792SOL     OW33274   4.094   2.076   1.412
10792SOL    HW133275   4.121   2.139   1.485
10792SOL    HW233276   4.032   2.006   1.448
10793SOL     OW33277   4.379   1.490   4.921
10793SOL    HW133278   4.288   1.484   4.881
10793SOL    HW233279   4.448   1.486   4.849
10794SOL     OW33280   4.403   2.651   0.844
10794SOL    HW133281   4.456   2.718   0.791
10794SOL    HW233282   4.455   2.566   0.851
10795SOL     OW33283   0.483   3.823   3.379
10795SOL    HW133284   0.387   3.795   3.383
10795SOL    HW233285   0.540   3.742   3.363
10796SOL     OW33286   0.233   6.570   6.571
10796SOL    HW133287   0.185   6.518   6.500
10796SOL    HW233288   0.166   6.615   6.630
10797SOL     OW33289   4.100   3.719   0.140
10797SOL    HW133290   4.112   3.621   0.156
10797SOL    HW233291   4.041   3.758   0.210
10798SOL     OW33292   2.322   6.943   6.656
10798SOL    HW133293   2.305   7.008   6.730
10798SOL    HW233294   2.420   6.932   6.642
10799SOL     OW33295   2.475   1.092   2.877
10799SOL    HW133296   2.469   1.003   2.831
10799SOL    HW233297   2.547   1.147   2.834
10800SOL     OW33298   1.958   0.459   5.532
10800SOL    HW133299   1.992   0.498   5.618
10800SOL    HW233300   1.875   0.507   5.505
10801SOL     OW33301   2.795   6.490   6.031
10801SOL    HW133302   2.699   6.482   6.001
10801SOL    HW233303   2.816   6.586   6.049
10802SOL     OW33304   0.481   4.366   4.234
10802SOL    HW133305   0.572   4.328   4.215
10802SOL    HW233306   0.475   4.394   4.329
10803SOL     OW33307   0.094   4.623   4.876
10803SOL    HW133308   0.112   4.562   4.953
10803SOL    HW233309   0.094   4.571   4.791
10804SOL     OW33310   5.245   4.658   1.673
10804SOL    HW133311   5.257   4.742   1.621
10804SOL    HW233312   5.174   4.602   1.630
10805SOL     OW33313   4.316   7.013   0.635
10805SOL    HW133314   4.319   0.002   0.536
10805SOL    HW233315   4.388   0.043   0.678
10806SOL     OW33316   5.050   3.539   0.023
10806SOL    HW133317   5.084   3.625   7.012
10806SOL    HW233318   5.109   3.464   7.018
10807SOL     OW33319   4.485   6.635   3.344
10807SOL    HW133320   4.493   6.729   3.376
10807SOL    HW233321   4.405   6.592   3.384
10808SOL     OW33322   0.192   3.030   6.312
10808SOL    HW133323   0.212   3.127   6.307
10808SOL    HW233324   0.255   2.985   6.376
10809SOL     OW33325   2.722   0.829   3.112
10809SOL    HW133326   2.757   0.894   3.045
10809SOL    HW233327   2.699   0.877   3.197
10810SOL     OW33328   0.242   1.225   5.668
10810SOL    HW133329   0.292   1.159   5.724
10810SOL    HW233330   0.280   1.228   5.576
10811SOL     OW33331   4.388   4.523   5.678
10811SOL    HW133332   4.353   4.524   5.771
10811SOL    HW233333   4.476   4.572   5.675
10812SOL     OW33334   6.839   2.228   3.285
10812SOL    HW133335   6.802   2.180   3.365
10812SOL    HW233336   6.763   2.264   3.230
10813SOL     OW33337   2.558   6.073   1.636
10813SOL    HW133338   2.517   6.025   1.557
10813SOL    HW233339   2.657   6.060   1.635
10814SOL     OW33340   1.610   6.708   4.913
10814SOL    HW133341   1.607   6.666   4.822
10814SOL    HW233342   1.663   6.793   4.909
10815SOL     OW33343   5.052   2.356   2.773
10815SOL    HW133344   5.123   2.416   2.735
10815SOL    HW233345   4.970   2.410   2.793
10816SOL     OW33346   2.289   1.620   2.010
10816SOL    HW133347   2.236   1.628   2.095
10816SOL    HW233348   2.386   1.625   2.031
10817SOL     OW33349   4.837   6.849   2.064
10817SOL    HW133350   4.865   6.797   1.983
10817SOL    HW233351   4.769   6.796   2.115
10818SOL     OW33352   4.750   3.336   6.757
10818SOL    HW133353   4.662   3.290   6.767
10818SOL    HW233354   4.806   3.286   6.691
10819SOL     OW33355   0.208   3.912   6.296
10819SOL    HW133356   0.220   4.010   6.313
10819SOL    HW233357   0.297   3.870   6.278
10820SOL     OW33358   0.528   7.023   4.486
10820SOL    HW133359   0.488   0.081   4.522
10820SOL    HW233360   0.626   0.010   4.473
10821SOL     OW33361   6.908   0.300   0.405
10821SOL    HW133362   6.934   0.278   0.311
10821SOL    HW233363   6.987   0.285   0.465
10822SOL     OW33364   1.262   4.219   1.308
10822SOL    HW133365   1.269   4.232   1.209
10822SOL    HW233366   1.166   4.204   1.333
10823SOL     OW33367   1.634   0.649   1.074
10823SOL    HW133368   1.600   0.726   1.021
10823SOL    HW233369   1.558   0.594   1.108
10824SOL     OW33370   5.566   0.529   2.641
10824SOL    HW133371   5.560   0.557   2.737
10824SOL    HW233372   5.645   0.469   2.628
10825SOL     OW33373   3.317   1.284   1.398
10825SOL    HW133374   3.398   1.231   1.376
10825SOL    HW233375   3.305   1.288   1.497
10826SOL     OW33376   6.616   3.080   1.640
10826SOL    HW133377   6.524   3.118   1.644
10826SOL    HW233378   6.616   2.989   1.681
10827SOL     OW33379   6.729   2.670   4.447
10827SOL    HW133380   6.744   2.587   4.393
10827SOL    HW233381   6.693   2.742   4.388
10828SOL     OW33382   0.923   5.775   0.515
10828SOL    HW133383   0.911   5.854   0.576
10828SOL    HW233384   0.907   5.691   0.567
10829SOL     OW33385   2.931   3.410   1.294
10829SOL    HW133386   2.930   3.357   1.209
10829SOL    HW233387   3.020   3.452   1.306
10830SOL     OW33388   4.745   2.420   3.883
10830SOL    HW133389   4.825   2.414   3.824
10830SOL    HW233390   4.665   2.445   3.829
10831SOL     OW33391   5.456   1.977   3.143
10831SOL    HW133392   5.497   1.946   3.228
10831SOL    HW233393   5.528   1.996   3.076
10832SOL     OW33394   0.015   2.047   1.345
10832SOL    HW133395   6.945   2.055   1.374
10832SOL    HW233396   0.023   2.073   1.249
10833SOL     OW33397   3.288   6.719   4.801
10833SOL    HW133398   3.313   6.629   4.766
10833SOL    HW233399   3.283   6.715   4.901
10834SOL     OW33400   0.193   1.016   5.305
10834SOL    HW133401   0.249   0.974   5.234
10834SOL    HW233402   0.166   0.946   5.372
10835SOL     OW33403   6.929   1.679   2.402
10835SOL    HW133404   6.891   1.764   2.365
10835SOL    HW233405   7.009   1.701   2.458
10836SOL     OW33406   1.910   2.311   6.501
10836SOL    HW133407   1.937   2.371   6.576
10836SOL    HW233408   1.895   2.218   6.536
10837SOL     OW33409   0.648   5.103   0.757
10837SOL    HW133410   0.640   5.054   0.843
10837SOL    HW233411   0.741   5.092   0.721
10838SOL     OW33412   6.005   0.352   0.322
10838SOL    HW133413   6.064   0.277   0.290
10838SOL    HW233414   6.008   0.355   0.422
10839SOL     OW33415   2.166   1.911   0.724
10839SOL    HW133416   2.173   2.010   0.714
10839SOL    HW233417   2.247   1.876   0.773
10840SOL     OW33418   3.753   5.706   2.520
10840SOL    HW133419   3.694   5.657   2.456
10840SOL    HW233420   3.847   5.673   2.511
10841SOL     OW33421   4.091   4.459   6.099
10841SOL    HW133422   4.042   4.372   6.094
10841SOL    HW233423   4.058   4.520   6.027
10842SOL     OW33424   6.317   2.887   1.442
10842SOL    HW133425   6.332   2.814   1.508
10842SOL    HW233426   6.329   2.976   1.487
10843SOL     OW33427   0.277   1.169   1.894
10843SOL    HW133428   0.374   1.168   1.920
10843SOL    HW233429   0.228   1.098   1.945
10844SOL     OW33430   4.117   6.658   3.674
10844SOL    HW133431   4.043   6.719   3.702
10844SOL    HW233432   4.105   6.568   3.717
10845SOL     OW33433   2.336   2.622   0.680
10845SOL    HW133434   2.330   2.538   0.625
10845SOL    HW233435   2.262   2.684   0.656
10846SOL     OW33436   3.372   1.835   1.802
10846SOL    HW133437   3.396   1.903   1.872
10846SOL    HW233438   3.428   1.849   1.721
10847SOL     OW33439   4.458   2.871   6.059
10847SOL    HW133440   4.457   2.771   6.052
10847SOL    HW233441   4.364   2.905   6.056
10848SOL     OW33442   1.493   0.963   6.256
10848SOL    HW133443   1.542   0.922   6.178
10848SOL    HW233444   1.526   1.056   6.270
10849SOL     OW33445   2.712   4.680   4.175
10849SOL    HW133446   2.759   4.760   4.210
10849SOL    HW233447   2.649   4.645   4.245
10850SOL     OW33448   4.930   6.777   0.912
10850SOL    HW133449   5.015   6.823   0.935
10850SOL    HW233450   4.853   6.834   0.938
10851SOL     OW33451   4.337   1.998   6.261
10851SOL    HW133452   4.420   1.942   6.261
10851SOL    HW233453   4.318   2.031   6.169
10852SOL     OW33454   0.614   0.179   6.265
10852SOL    HW133455   0.577   0.262   6.308
10852SOL    HW233456   0.565   0.099   6.298
10853SOL     OW33457   2.489   1.230   4.711
10853SOL    HW133458   2.534   1.232   4.800
10853SOL    HW233459   2.557   1.218   4.639
10854SOL     OW33460   6.720   6.472   0.318
10854SOL    HW133461   6.654   6.506   0.251
10854SOL    HW233462   6.797   6.536   0.324
10855SOL     OW33463   0.915   6.463   1.359
10855SOL    HW133464   0.914   6.549   1.410
10855SOL    HW233465   0.823   6.424   1.358
10856SOL     OW33466   6.188   0.349   6.626
10856SOL    HW133467   6.285   0.328   6.622
10856SOL    HW233468   6.135   0.264   6.626
10857SOL     OW33469   6.137   0.671   4.537
10857SOL    HW133470   6.175   0.611   4.467
10857SOL    HW233471   6.146   0.767   4.508
10858SOL     OW33472   2.358   1.798   0.877
10858SOL    HW133473   2.416   1.853   0.937
10858SOL    HW233474   2.288   1.752   0.931
10859SOL     OW33475   0.851   4.719   2.381
10859SOL    HW133476   0.765   4.753   2.344
10859SOL    HW233477   0.836   4.683   2.473
10860SOL     OW33478   6.293   2.006   0.492
10860SOL    HW133479   6.245   1.950   0.559
10860SOL    HW233480   6.389   1.978   0.488
10861SOL     OW33481   3.349   2.827   2.184
10861SOL    HW133482   3.317   2.848   2.276
10861SOL    HW233483   3.443   2.793   2.188
10862SOL     OW33484   3.986   3.119   5.567
10862SOL    HW133485   3.980   3.102   5.468
10862SOL    HW233486   3.895   3.142   5.602
10863SOL     OW33487   1.814   1.741   3.141
10863SOL    HW133488   1.770   1.710   3.225
10863SOL    HW233489   1.913   1.734   3.151
10864SOL     OW33490   3.417   4.936   2.173
10864SOL    HW133491   3.478   4.885   2.112
10864SOL    HW233492   3.462   5.021   2.201
10865SOL     OW33493   3.599   1.556   3.167
10865SOL    HW133494   3.646   1.549   3.079
10865SOL    HW233495   3.613   1.472   3.219
10866SOL     OW33496   0.233   3.713   3.339
10866SOL    HW133497   0.163   3.735   3.270
10866SOL    HW233498   0.193   3.652   3.407
10867SOL     OW33499   4.480   3.559   0.714
10867SOL    HW133500   4.486   3.463   0.685
10867SOL    HW233501   4.503   3.618   0.637
10868SOL     OW33502   0.976   1.266   4.795
10868SOL    HW133503   0.965   1.364   4.813
10868SOL    HW233504   0.900   1.234   4.739
10869NA      NA33505   6.566   2.523   5.799
10870NA      NA33506   4.407   4.657   5.181
10871NA      NA33507   1.206   4.730   2.754
10872NA      NA33508   5.630   3.985   3.516
10873NA      NA33509   3.864   2.102   5.168
10874NA      NA33510   2.306   4.867   0.325
10875NA      NA33511   1.362   5.232   6.948
10876NA      NA33512   3.318   4.156   1.115
10877NA      NA33513   4.517   5.418   0.625
10878NA      NA33514   3.333   0.831   6.562
10879NA      NA33515   5.661   6.650   1.845
10880NA      NA33516   1.824   6.943   5.249
10881NA      NA33517   3.958   5.113   1.907
10882NA      NA33518   3.842   3.212   6.632
   7.02573   7.02573   7.02573
