Generated by trjconv : CNT in water t= 555.00000
33518
    1C        C    1   2.837   2.764   4.750
    1C        C    2   2.899   2.719   4.869
    1C        C    3   2.842   2.771   4.985
    1C        C    4   2.849   2.774   4.261
    1C        C    5   2.900   2.724   4.383
    1C        C    6   2.845   2.767   4.505
    1C        C    7   3.010   2.639   4.624
    1C        C    8   2.893   2.719   4.629
    1C        C    9   3.079   2.606   4.743
    1C        C   10   3.012   2.633   4.864
    1C        C   11   3.183   2.492   4.978
    1C        C   12   3.062   2.563   4.974
    1C        C   13   2.845   2.766   3.773
    1C        C   14   2.899   2.718   3.894
    1C        C   15   2.849   2.770   4.015
    1C        C   16   3.018   2.645   4.140
    1C        C   17   2.903   2.727   4.139
    1C        C   18   3.080   2.610   4.262
    1C        C   19   3.016   2.643   4.383
    1C        C   20   3.208   2.552   4.504
    1C        C   21   3.077   2.606   4.505
    1C        C   22   3.277   2.530   4.625
    1C        C   23   3.210   2.550   4.748
    1C        C   24   3.413   2.484   4.864
    1C        C   25   3.271   2.500   4.866
    1C        C   26   3.488   2.478   4.982
    1C        C   27   2.847   2.766   3.284
    1C        C   28   2.901   2.721   3.406
    1C        C   29   2.847   2.767   3.528
    1C        C   30   3.013   2.638   3.650
    1C        C   31   2.896   2.716   3.651
    1C        C   32   3.077   2.604   3.771
    1C        C   33   3.016   2.638   3.894
    1C        C   34   3.206   2.550   4.015
    1C        C   35   3.076   2.606   4.017
    1C        C   36   3.275   2.529   4.137
    1C        C   37   3.211   2.557   4.260
    1C        C   38   3.417   2.511   4.382
    1C        C   39   3.278   2.538   4.383
    1C        C   40   3.488   2.506   4.504
    1C        C   41   3.416   2.504   4.626
    1C        C   42   3.632   2.486   4.747
    1C        C   43   3.490   2.482   4.744
    1C        C   44   3.705   2.493   4.867
    1C        C   45   3.627   2.485   4.983
    1C        C   46   2.835   2.748   2.796
    1C        C   47   2.895   2.707   2.917
    1C        C   48   2.843   2.757   3.039
    1C        C   49   3.013   2.634   3.161
    1C        C   50   2.898   2.715   3.162
    1C        C   51   3.076   2.602   3.283
    1C        C   52   3.016   2.638   3.406
    1C        C   53   3.206   2.546   3.528
    1C        C   54   3.076   2.600   3.528
    1C        C   55   3.274   2.524   3.650
    1C        C   56   3.206   2.546   3.772
    1C        C   57   3.415   2.511   3.895
    1C        C   58   3.274   2.526   3.894
    1C        C   59   3.486   2.502   4.016
    1C        C   60   3.414   2.506   4.138
    1C        C   61   3.627   2.508   4.261
    1C        C   62   3.486   2.500   4.260
    1C        C   63   3.700   2.515   4.382
    1C        C   64   3.629   2.506   4.504
    1C        C   65   3.836   2.546   4.623
    1C        C   66   3.702   2.502   4.625
    1C        C   67   3.908   2.563   4.744
    1C        C   68   3.842   2.529   4.863
    1C        C   69   4.052   2.586   4.980
    1C        C   70   3.923   2.533   4.977
    1C        C   71   2.821   2.732   2.308
    1C        C   72   2.879   2.689   2.429
    1C        C   73   2.828   2.742   2.550
    1C        C   74   3.001   2.621   2.671
    1C        C   75   2.883   2.698   2.673
    1C        C   76   3.070   2.597   2.792
    1C        C   77   3.011   2.626   2.916
    1C        C   78   3.207   2.547   3.036
    1C        C   79   3.075   2.597   3.039
    1C        C   80   3.271   2.524   3.159
    1C        C   81   3.205   2.544   3.282
    1C        C   82   3.411   2.496   3.403
    1C        C   83   3.272   2.522   3.405
    1C        C   84   3.482   2.497   3.526
    1C        C   85   3.414   2.503   3.650
    1C        C   86   3.626   2.498   3.770
    1C        C   87   3.484   2.501   3.772
    1C        C   88   3.696   2.509   3.892
    1C        C   89   3.627   2.507   4.016
    1C        C   90   3.835   2.547   4.138
    1C        C   91   3.697   2.517   4.138
    1C        C   92   3.905   2.568   4.258
    1C        C   93   3.837   2.547   4.380
    1C        C   94   4.031   2.632   4.501
    1C        C   95   3.906   2.566   4.502
    1C        C   96   4.095   2.668   4.621
    1C        C   97   4.037   2.623   4.742
    1C        C   98   4.195   2.764   4.864
    1C        C   99   4.099   2.658   4.866
    1C        C  100   4.215   2.844   4.978
    1C        C  101   2.821   2.730   2.069
    1C        C  102   2.992   2.595   2.190
    1C        C  103   2.878   2.682   2.187
    1C        C  104   3.062   2.570   2.311
    1C        C  105   2.999   2.614   2.429
    1C        C  106   3.197   2.533   2.550
    1C        C  107   3.066   2.586   2.550
    1C        C  108   3.270   2.521   2.670
    1C        C  109   3.202   2.548   2.791
    1C        C  110   3.410   2.498   2.913
    1C        C  111   3.271   2.524   2.912
    1C        C  112   3.482   2.495   3.035
    1C        C  113   3.411   2.501   3.158
    1C        C  114   3.622   2.503   3.279
    1C        C  115   3.480   2.497   3.281
    1C        C  116   3.690   2.519   3.401
    1C        C  117   3.623   2.505   3.525
    1C        C  118   3.830   2.548   3.646
    1C        C  119   3.694   2.509   3.647
    1C        C  120   3.894   2.576   3.769
    1C        C  121   3.828   2.557   3.892
    1C        C  122   4.025   2.638   4.013
    1C        C  123   3.897   2.577   4.014
    1C        C  124   4.089   2.671   4.135
    1C        C  125   4.032   2.632   4.258
    1C        C  126   4.196   2.766   4.375
    1C        C  127   4.091   2.672   4.379
    1C        C  128   4.245   2.816   4.498
    1C        C  129   4.198   2.765   4.621
    1C        C  130   4.328   2.934   4.740
    1C        C  131   4.245   2.819   4.743
    1C        C  132   4.358   3.003   4.860
    1C        C  133   4.289   2.961   4.974
    1C        C  134   3.169   2.467   2.085
    1C        C  135   3.035   2.509   2.085
    1C        C  136   3.260   2.480   2.191
    1C        C  137   3.195   2.519   2.309
    1C        C  138   3.406   2.483   2.429
    1C        C  139   3.267   2.508   2.430
    1C        C  140   3.481   2.480   2.549
    1C        C  141   3.410   2.500   2.669
    1C        C  142   3.622   2.497   2.791
    1C        C  143   3.481   2.494   2.791
    1C        C  144   3.694   2.504   2.912
    1C        C  145   3.623   2.497   3.034
    1C        C  146   3.829   2.544   3.157
    1C        C  147   3.693   2.507   3.157
    1C        C  148   3.897   2.568   3.279
    1C        C  149   3.827   2.554   3.400
    1C        C  150   4.022   2.635   3.525
    1C        C  151   3.895   2.573   3.523
    1C        C  152   4.085   2.669   3.647
    1C        C  153   4.022   2.636   3.769
    1C        C  154   4.197   2.758   3.890
    1C        C  155   4.082   2.676   3.890
    1C        C  156   4.252   2.807   4.010
    1C        C  157   4.198   2.760   4.132
    1C        C  158   4.336   2.925   4.254
    1C        C  159   4.248   2.815   4.253
    1C        C  160   4.374   2.982   4.377
    1C        C  161   4.332   2.927   4.500
    1C        C  162   4.434   3.120   4.616
    1C        C  163   4.371   2.993   4.619
    1C        C  164   4.466   3.186   4.737
    1C        C  165   4.435   3.121   4.858
    1C        C  166   4.518   3.320   4.976
    1C        C  167   4.472   3.189   4.975
    1C        C  168   3.476   2.437   2.075
    1C        C  169   3.400   2.461   2.191
    1C        C  170   3.620   2.465   2.306
    1C        C  171   3.478   2.460   2.309
    1C        C  172   3.695   2.490   2.423
    1C        C  173   3.622   2.488   2.544
    1C        C  174   3.826   2.540   2.668
    1C        C  175   3.689   2.504   2.667
    1C        C  176   3.897   2.561   2.788
    1C        C  177   3.831   2.538   2.911
    1C        C  178   4.021   2.631   3.032
    1C        C  179   3.895   2.567   3.034
    1C        C  180   4.082   2.666   3.155
    1C        C  181   4.023   2.631   3.279
    1C        C  182   4.196   2.751   3.398
    1C        C  183   4.085   2.663   3.402
    1C        C  184   4.239   2.806   3.521
    1C        C  185   4.197   2.756   3.646
    1C        C  186   4.336   2.915   3.763
    1C        C  187   4.252   2.803   3.767
    1C        C  188   4.379   2.974   3.885
    1C        C  189   4.341   2.917   4.008
    1C        C  190   4.444   3.104   4.128
    1C        C  191   4.378   2.979   4.130
    1C        C  192   4.466   3.172   4.249
    1C        C  193   4.437   3.109   4.372
    1C        C  194   4.502   3.315   4.492
    1C        C  195   4.462   3.180   4.491
    1C        C  196   4.521   3.387   4.612
    1C        C  197   4.511   3.320   4.737
    1C        C  198   4.555   3.534   4.849
    1C        C  199   4.533   3.393   4.857
    1C        C  200   4.589   3.620   4.959
    1C        C  201   3.615   2.425   2.073
    1C        C  202   3.831   2.509   2.184
    1C        C  203   3.696   2.461   2.186
    1C        C  204   3.902   2.539   2.303
    1C        C  205   3.832   2.521   2.425
    1C        C  206   4.021   2.623   2.544
    1C        C  207   3.896   2.557   2.546
    1C        C  208   4.084   2.660   2.665
    1C        C  209   4.020   2.628   2.787
    1C        C  210   4.194   2.752   2.910
    1C        C  211   4.081   2.666   2.909
    1C        C  212   4.252   2.795   3.032
    1C        C  213   4.199   2.745   3.153
    1C        C  214   4.339   2.903   3.274
    1C        C  215   4.250   2.794   3.275
    1C        C  216   4.370   2.969   3.395
    1C        C  217   4.328   2.916   3.519
    1C        C  218   4.432   3.103   3.637
    1C        C  219   4.372   2.975   3.640
    1C        C  220   4.460   3.168   3.759
    1C        C  221   4.441   3.101   3.881
    1C        C  222   4.500   3.304   4.004
    1C        C  223   4.469   3.166   4.003
    1C        C  224   4.508   3.378   4.125
    1C        C  225   4.501   3.309   4.248
    1C        C  226   4.513   3.524   4.368
    1C        C  227   4.508   3.383   4.368
    1C        C  228   4.517   3.599   4.488
    1C        C  229   4.534   3.527   4.609
    1C        C  230   4.497   3.741   4.727
    1C        C  231   4.536   3.604   4.727
    1C        C  232   4.493   3.820   4.844
    1C        C  233   4.551   3.755   4.954
    1C        C  234   4.020   2.612   2.065
    1C        C  235   3.897   2.548   2.066
    1C        C  236   4.090   2.648   2.181
    1C        C  237   4.027   2.607   2.300
    1C        C  238   4.203   2.729   2.421
    1C        C  239   4.086   2.649   2.421
    1C        C  240   4.253   2.785   2.542
    1C        C  241   4.201   2.740   2.665
    1C        C  242   4.336   2.904   2.785
    1C        C  243   4.248   2.793   2.787
    1C        C  244   4.376   2.962   2.907
    1C        C  245   4.341   2.905   3.032
    1C        C  246   4.441   3.092   3.148
    1C        C  247   4.379   2.966   3.153
    1C        C  248   4.454   3.161   3.271
    1C        C  249   4.429   3.097   3.394
    1C        C  250   4.493   3.304   3.513
    1C        C  251   4.459   3.167   3.514
    1C        C  252   4.502   3.372   3.636
    1C        C  253   4.496   3.305   3.760
    1C        C  254   4.515   3.515   3.879
    1C        C  255   4.513   3.374   3.882
    1C        C  256   4.513   3.588   4.001
    1C        C  257   4.516   3.519   4.124
    1C        C  258   4.491   3.732   4.242
    1C        C  259   4.515   3.592   4.245
    1C        C  260   4.475   3.805   4.361
    1C        C  261   4.494   3.738   4.484
    1C        C  262   4.428   3.942   4.602
    1C        C  263   4.475   3.809   4.605
    1C        C  264   4.406   4.012   4.723
    1C        C  265   4.436   3.949   4.846
    1C        C  266   4.317   4.129   4.958
    1C        C  267   4.401   4.019   4.962
    1C        C  268   4.263   2.776   2.061
    1C        C  269   4.200   2.736   2.179
    1C        C  270   4.345   2.892   2.300
    1C        C  271   4.255   2.781   2.301
    1C        C  272   4.382   2.957   2.420
    1C        C  273   4.344   2.892   2.540
    1C        C  274   4.448   3.078   2.662
    1C        C  275   4.382   2.953   2.661
    1C        C  276   4.469   3.152   2.781
    1C        C  277   4.439   3.089   2.904
    1C        C  278   4.500   3.294   3.026
    1C        C  279   4.471   3.156   3.025
    1C        C  280   4.509   3.367   3.147
    1C        C  281   4.489   3.298   3.269
    1C        C  282   4.510   3.512   3.389
    1C        C  283   4.501   3.371   3.389
    1C        C  284   4.508   3.581   3.512
    1C        C  285   4.506   3.514   3.636
    1C        C  286   4.489   3.726   3.754
    1C        C  287   4.509   3.586   3.757
    1C        C  288   4.475   3.797   3.876
    1C        C  289   4.492   3.727   3.998
    1C        C  290   4.425   3.931   4.115
    1C        C  291   4.472   3.798   4.119
    1C        C  292   4.397   4.000   4.235
    1C        C  293   4.432   3.940   4.359
    1C        C  294   4.324   4.126   4.481
    1C        C  295   4.397   4.004   4.479
    1C        C  296   4.288   4.192   4.601
    1C        C  297   4.334   4.134   4.722
    1C        C  298   4.199   4.311   4.839
    1C        C  299   4.287   4.199   4.840
    1C        C  300   4.164   4.393   4.951
    1C        C  301   4.354   2.881   2.063
    1C        C  302   4.467   3.071   2.178
    1C        C  303   4.398   2.946   2.180
    1C        C  304   4.479   3.148   2.297
    1C        C  305   4.448   3.082   2.418
    1C        C  306   4.503   3.284   2.539
    1C        C  307   4.477   3.145   2.541
    1C        C  308   4.512   3.357   2.659
    1C        C  309   4.502   3.289   2.782
    1C        C  310   4.523   3.503   2.900
    1C        C  311   4.512   3.362   2.903
    1C        C  312   4.519   3.575   3.021
    1C        C  313   4.516   3.508   3.145
    1C        C  314   4.487   3.719   3.265
    1C        C  315   4.514   3.580   3.266
    1C        C  316   4.467   3.788   3.387
    1C        C  317   4.493   3.722   3.509
    1C        C  318   4.426   3.925   3.630
    1C        C  319   4.475   3.792   3.630
    1C        C  320   4.393   3.991   3.750
    1C        C  321   4.424   3.928   3.873
    1C        C  322   4.320   4.116   3.991
    1C        C  323   4.394   3.996   3.993
    1C        C  324   4.284   4.175   4.114
    1C        C  325   4.326   4.122   4.238
    1C        C  326   4.185   4.283   4.353
    1C        C  327   4.282   4.181   4.358
    1C        C  328   4.134   4.333   4.475
    1C        C  329   4.192   4.296   4.598
    1C        C  330   4.025   4.436   4.712
    1C        C  331   4.138   4.349   4.716
    1C        C  332   3.969   4.486   4.832
    1C        C  333   4.051   4.476   4.945
    1C        C  334   4.546   3.269   2.061
    1C        C  335   4.527   3.130   2.062
    1C        C  336   4.538   3.353   2.173
    1C        C  337   4.514   3.286   2.295
    1C        C  338   4.524   3.496   2.412
    1C        C  339   4.518   3.355   2.418
    1C        C  340   4.515   3.569   2.533
    1C        C  341   4.513   3.499   2.655
    1C        C  342   4.490   3.710   2.775
    1C        C  343   4.514   3.571   2.777
    1C        C  344   4.478   3.783   2.896
    1C        C  345   4.493   3.714   3.018
    1C        C  346   4.427   3.917   3.139
    1C        C  347   4.473   3.784   3.140
    1C        C  348   4.392   3.983   3.259
    1C        C  349   4.420   3.921   3.382
    1C        C  350   4.321   4.105   3.502
    1C        C  351   4.394   3.984   3.506
    1C        C  352   4.277   4.165   3.622
    1C        C  353   4.323   4.114   3.745
    1C        C  354   4.183   4.274   3.866
    1C        C  355   4.280   4.172   3.867
    1C        C  356   4.127   4.321   3.987
    1C        C  357   4.183   4.274   4.107
    1C        C  358   4.016   4.406   4.229
    1C        C  359   4.131   4.324   4.229
    1C        C  360   3.952   4.444   4.349
    1C        C  361   4.015   4.409   4.471
    1C        C  362   3.829   4.516   4.594
    1C        C  363   3.959   4.459   4.590
    1C        C  364   3.760   4.552   4.712
    1C        C  365   3.837   4.535   4.830
    1C        C  366   3.628   4.587   4.950
    1C        C  367   3.766   4.569   4.946
    1C        C  368   4.514   3.567   2.052
    1C        C  369   4.531   3.494   2.171
    1C        C  370   4.504   3.708   2.288
    1C        C  371   4.520   3.568   2.290
    1C        C  372   4.489   3.780   2.408
    1C        C  373   4.499   3.709   2.530
    1C        C  374   4.428   3.910   2.648
    1C        C  375   4.481   3.778   2.652
    1C        C  376   4.399   3.976   2.770
    1C        C  377   4.435   3.918   2.893
    1C        C  378   4.321   4.096   3.013
    1C        C  379   4.405   3.982   3.015
    1C        C  380   4.273   4.152   3.133
    1C        C  381   4.310   4.098   3.259
    1C        C  382   4.175   4.262   3.376
    1C        C  383   4.272   4.158   3.381
    1C        C  384   4.123   4.308   3.499
    1C        C  385   4.175   4.264   3.623
    1C        C  386   4.005   4.390   3.743
    1C        C  387   4.125   4.316   3.744
    1C        C  388   3.943   4.427   3.864
    1C        C  389   4.008   4.398   3.986
    1C        C  390   3.817   4.487   4.109
    1C        C  391   3.949   4.438   4.109
    1C        C  392   3.749   4.514   4.231
    1C        C  393   3.821   4.497   4.351
    1C        C  394   3.618   4.549   4.475
    1C        C  395   3.757   4.525   4.474
    1C        C  396   3.545   4.564   4.595
    1C        C  397   3.620   4.570   4.715
    1C        C  398   3.408   4.551   4.841
    1C        C  399   3.547   4.573   4.836
    1C        C  400   3.339   4.511   4.956
    1C        C  401   4.505   3.706   2.050
    1C        C  402   4.458   3.916   2.165
    1C        C  403   4.500   3.782   2.167
    1C        C  404   4.412   3.978   2.284
    1C        C  405   4.436   3.911   2.406
    1C        C  406   4.325   4.094   2.525
    1C        C  407   4.402   3.976   2.527
    1C        C  408   4.280   4.150   2.647
    1C        C  409   4.317   4.091   2.769
    1C        C  410   4.173   4.248   2.889
    1C        C  411   4.274   4.149   2.891
    1C        C  412   4.123   4.299   3.010
    1C        C  413   4.176   4.255   3.133
    1C        C  414   4.002   4.381   3.254
    1C        C  415   4.122   4.306   3.253
    1C        C  416   3.940   4.409   3.377
    1C        C  417   4.002   4.380   3.501
    1C        C  418   3.807   4.471   3.620
    1C        C  419   3.939   4.420   3.621
    1C        C  420   3.744   4.499   3.743
    1C        C  421   3.812   4.481   3.865
    1C        C  422   3.608   4.532   3.987
    1C        C  423   3.746   4.501   3.988
    1C        C  424   3.539   4.545   4.109
    1C        C  425   3.610   4.536   4.231
    1C        C  426   3.402   4.546   4.359
    1C        C  427   3.543   4.549   4.355
    1C        C  428   3.330   4.547   4.481
    1C        C  429   3.404   4.554   4.601
    1C        C  430   3.193   4.515   4.724
    1C        C  431   3.332   4.546   4.722
    1C        C  432   3.122   4.492   4.845
    1C        C  433   3.202   4.487   4.960
    1C        C  434   4.380   4.121   2.046
    1C        C  435   4.446   3.998   2.052
    1C        C  436   4.305   4.162   2.161
    1C        C  437   4.334   4.096   2.284
    1C        C  438   4.176   4.245   2.403
    1C        C  439   4.282   4.151   2.403
    1C        C  440   4.121   4.292   2.525
    1C        C  441   4.182   4.252   2.646
    1C        C  442   4.004   4.375   2.766
    1C        C  443   4.121   4.295   2.766
    1C        C  444   3.942   4.410   2.888
    1C        C  445   4.005   4.377   3.010
    1C        C  446   3.808   4.462   3.129
    1C        C  447   3.940   4.411   3.130
    1C        C  448   3.743   4.487   3.252
    1C        C  449   3.811   4.466   3.374
    1C        C  450   3.605   4.523   3.496
    1C        C  451   3.743   4.491   3.496
    1C        C  452   3.537   4.534   3.619
    1C        C  453   3.605   4.526   3.743
    1C        C  454   3.394   4.541   3.864
    1C        C  455   3.536   4.537   3.865
    1C        C  456   3.328   4.530   3.988
    1C        C  457   3.398   4.539   4.111
    1C        C  458   3.195   4.506   4.238
    1C        C  459   3.333   4.532   4.236
    1C        C  460   3.127   4.488   4.361
    1C        C  461   3.193   4.514   4.483
    1C        C  462   2.992   4.439   4.603
    1C        C  463   3.123   4.492   4.604
    1C        C  464   2.927   4.403   4.723
    1C        C  465   2.989   4.441   4.846
    1C        C  466   2.793   4.346   4.958
    1C        C  467   2.904   4.431   4.961
    1C        C  468   4.121   4.283   2.044
    1C        C  469   4.190   4.247   2.160
    1C        C  470   4.004   4.364   2.279
    1C        C  471   4.125   4.290   2.279
    1C        C  472   3.941   4.402   2.399
    1C        C  473   4.004   4.370   2.522
    1C        C  474   3.811   4.460   2.642
    1C        C  475   3.942   4.408   2.644
    1C        C  476   3.743   4.484   2.763
    1C        C  477   3.813   4.467   2.885
    1C        C  478   3.604   4.509   3.009
    1C        C  479   3.743   4.483   3.006
    1C        C  480   3.533   4.526   3.131
    1C        C  481   3.606   4.521   3.252
    1C        C  482   3.394   4.528   3.376
    1C        C  483   3.536   4.530   3.374
    1C        C  484   3.324   4.525   3.498
    1C        C  485   3.395   4.535   3.620
    1C        C  486   3.186   4.504   3.747
    1C        C  487   3.324   4.534   3.742
    1C        C  488   3.123   4.478   3.871
    1C        C  489   3.190   4.500   3.993
    1C        C  490   3.002   4.414   4.117
    1C        C  491   3.125   4.484   4.117
    1C        C  492   2.939   4.385   4.240
    1C        C  493   3.001   4.424   4.361
    1C        C  494   2.828   4.302   4.482
    1C        C  495   2.934   4.395   4.482
    1C        C  496   2.774   4.255   4.603
    1C        C  497   2.817   4.313   4.724
    1C        C  498   2.669   4.161   4.844
    1C        C  499   2.752   4.276   4.844
    1C        C  500   2.595   4.122   4.955
    1C        C  501   4.002   4.355   2.039
    1C        C  502   3.813   4.461   2.157
    1C        C  503   3.940   4.397   2.158
    1C        C  504   3.742   4.476   2.277
    1C        C  505   3.810   4.455   2.399
    1C        C  506   3.604   4.510   2.522
    1C        C  507   3.742   4.479   2.520
    1C        C  508   3.532   4.515   2.643
    1C        C  509   3.604   4.510   2.764
    1C        C  510   3.393   4.521   2.887
    1C        C  511   3.534   4.517   2.887
    1C        C  512   3.321   4.523   3.008
    1C        C  513   3.392   4.535   3.130
    1C        C  514   3.187   4.495   3.256
    1C        C  515   3.324   4.528   3.253
    1C        C  516   3.121   4.470   3.378
    1C        C  517   3.186   4.495   3.501
    1C        C  518   2.993   4.416   3.626
    1C        C  519   3.120   4.479   3.625
    1C        C  520   2.935   4.380   3.749
    1C        C  521   2.996   4.416   3.872
    1C        C  522   2.831   4.287   3.996
    1C        C  523   2.941   4.376   3.995
    1C        C  524   2.783   4.238   4.120
    1C        C  525   2.832   4.293   4.240
    1C        C  526   2.695   4.132   4.363
    1C        C  527   2.776   4.248   4.362
    1C        C  528   2.653   4.075   4.484
    1C        C  529   2.686   4.144   4.603
    1C        C  530   2.581   3.961   4.731
    1C        C  531   2.642   4.089   4.725
    1C        C  532   2.540   3.902   4.854
    1C        C  533   2.531   3.997   4.961
    1C        C  534   3.616   4.555   2.042
    1C        C  535   3.750   4.514   2.043
    1C        C  536   3.535   4.530   2.157
    1C        C  537   3.602   4.503   2.280
    1C        C  538   3.390   4.519   2.399
    1C        C  539   3.532   4.520   2.401
    1C        C  540   3.319   4.511   2.520
    1C        C  541   3.391   4.517   2.642
    1C        C  542   3.182   4.494   2.766
    1C        C  543   3.321   4.515   2.765
    1C        C  544   3.116   4.471   2.889
    1C        C  545   3.184   4.489   3.011
    1C        C  546   2.991   4.409   3.135
    1C        C  547   3.118   4.471   3.134
    1C        C  548   2.934   4.370   3.259
    1C        C  549   2.993   4.410   3.381
    1C        C  550   2.827   4.283   3.505
    1C        C  551   2.933   4.376   3.505
    1C        C  552   2.779   4.235   3.629
    1C        C  553   2.829   4.286   3.751
    1C        C  554   2.696   4.123   3.875
    1C        C  555   2.785   4.233   3.874
    1C        C  556   2.661   4.064   3.998
    1C        C  557   2.694   4.128   4.120
    1C        C  558   2.596   3.943   4.245
    1C        C  559   2.652   4.072   4.242
    1C        C  560   2.567   3.880   4.368
    1C        C  561   2.593   3.946   4.489
    1C        C  562   2.533   3.748   4.617
    1C        C  563   2.561   3.887   4.613
    1C        C  564   2.520   3.679   4.740
    1C        C  565   2.522   3.760   4.856
    1C        C  566   2.532   3.549   4.978
    1C        C  567   2.530   3.688   4.976
    1C        C  568   3.328   4.477   2.039
    1C        C  569   3.394   4.515   2.156
    1C        C  570   3.183   4.472   2.278
    1C        C  571   3.319   4.513   2.277
    1C        C  572   3.113   4.460   2.400
    1C        C  573   3.180   4.488   2.522
    1C        C  574   2.986   4.407   2.648
    1C        C  575   3.113   4.469   2.645
    1C        C  576   2.930   4.365   2.770
    1C        C  577   2.992   4.402   2.891
    1C        C  578   2.825   4.274   3.017
    1C        C  579   2.935   4.362   3.014
    1C        C  580   2.774   4.225   3.140
    1C        C  581   2.828   4.277   3.259
    1C        C  582   2.693   4.118   3.386
    1C        C  583   2.779   4.230   3.383
    1C        C  584   2.662   4.059   3.510
    1C        C  585   2.694   4.122   3.633
    1C        C  586   2.595   3.935   3.754
    1C        C  587   2.654   4.063   3.755
    1C        C  588   2.578   3.870   3.879
    1C        C  589   2.602   3.935   4.002
    1C        C  590   2.535   3.736   4.128
    1C        C  591   2.573   3.872   4.125
    1C        C  592   2.530   3.668   4.251
    1C        C  593   2.535   3.742   4.371
    1C        C  594   2.517   3.535   4.499
    1C        C  595   2.527   3.676   4.496
    1C        C  596   2.523   3.463   4.621
    1C        C  597   2.523   3.536   4.741
    1C        C  598   2.541   3.327   4.865
    1C        C  599   2.526   3.468   4.864
    1C        C  600   2.532   3.245   4.978
    1C        C  601   3.194   4.441   2.036
    1C        C  602   2.984   4.393   2.158
    1C        C  603   3.121   4.437   2.155
    1C        C  604   2.923   4.365   2.283
    1C        C  605   2.985   4.401   2.404
    1C        C  606   2.818   4.274   2.530
    1C        C  607   2.924   4.368   2.527
    1C        C  608   2.765   4.226   2.652
    1C        C  609   2.819   4.277   2.772
    1C        C  610   2.684   4.118   2.897
    1C        C  611   2.768   4.231   2.895
    1C        C  612   2.646   4.055   3.018
    1C        C  613   2.687   4.114   3.140
    1C        C  614   2.590   3.930   3.265
    1C        C  615   2.652   4.057   3.265
    1C        C  616   2.568   3.868   3.390
    1C        C  617   2.599   3.933   3.511
    1C        C  618   2.531   3.732   3.636
    1C        C  619   2.567   3.868   3.632
    1C        C  620   2.520   3.667   3.761
    1C        C  621   2.536   3.735   3.883
    1C        C  622   2.511   3.525   4.007
    1C        C  623   2.526   3.666   4.006
    1C        C  624   2.514   3.458   4.131
    1C        C  625   2.523   3.527   4.254
    1C        C  626   2.541   3.321   4.381
    1C        C  627   2.525   3.461   4.379
    1C        C  628   2.556   3.252   4.503
    1C        C  629   2.543   3.323   4.625
    1C        C  630   2.604   3.118   4.746
    1C        C  631   2.561   3.253   4.746
    1C        C  632   2.616   3.048   4.869
    1C        C  633   2.555   3.107   4.984
    1C        C  634   2.780   4.303   2.050
    1C        C  635   2.887   4.394   2.053
    1C        C  636   2.751   4.231   2.167
    1C        C  637   2.810   4.280   2.286
    1C        C  638   2.679   4.113   2.413
    1C        C  639   2.764   4.226   2.409
    1C        C  640   2.639   4.051   2.534
    1C        C  641   2.679   4.114   2.654
    1C        C  642   2.591   3.923   2.777
    1C        C  643   2.645   4.054   2.777
    1C        C  644   2.569   3.855   2.899
    1C        C  645   2.590   3.926   3.019
    1C        C  646   2.533   3.725   3.149
    1C        C  647   2.570   3.861   3.143
    1C        C  648   2.521   3.657   3.272
    1C        C  649   2.534   3.730   3.393
    1C        C  650   2.518   3.519   3.517
    1C        C  651   2.519   3.660   3.514
    1C        C  652   2.527   3.455   3.642
    1C        C  653   2.515   3.525   3.764
    1C        C  654   2.540   3.314   3.890
    1C        C  655   2.514   3.453   3.886
    1C        C  656   2.558   3.249   4.014
    1C        C  657   2.543   3.320   4.135
    1C        C  658   2.609   3.120   4.260
    1C        C  659   2.559   3.252   4.259
    1C        C  660   2.638   3.056   4.382
    1C        C  661   2.603   3.119   4.503
    1C        C  662   2.712   2.935   4.625
    1C        C  663   2.638   3.055   4.624
    1C        C  664   2.745   2.872   4.747
    1C        C  665   2.698   2.930   4.868
    1C        C  666   2.742   2.867   4.986
    1C        C  667   2.696   4.021   2.060
    1C        C  668   2.689   4.105   2.172
    1C        C  669   2.597   3.913   2.295
    1C        C  670   2.646   4.047   2.293
    1C        C  671   2.566   3.847   2.416
    1C        C  672   2.585   3.921   2.535
    1C        C  673   2.520   3.720   2.662
    1C        C  674   2.561   3.855   2.657
    1C        C  675   2.508   3.649   2.783
    1C        C  676   2.530   3.719   2.904
    1C        C  677   2.518   3.511   3.029
    1C        C  678   2.522   3.652   3.028
    1C        C  679   2.512   3.443   3.153
    1C        C  680   2.512   3.516   3.273
    1C        C  681   2.539   3.307   3.400
    1C        C  682   2.515   3.446   3.396
    1C        C  683   2.562   3.245   3.525
    1C        C  684   2.546   3.315   3.646
    1C        C  685   2.604   3.111   3.770
    1C        C  686   2.556   3.244   3.768
    1C        C  687   2.637   3.051   3.893
    1C        C  688   2.611   3.118   4.015
    1C        C  689   2.713   2.934   4.137
    1C        C  690   2.639   3.055   4.138
    1C        C  691   2.755   2.880   4.261
    1C        C  692   2.712   2.935   4.383
    1C        C  693   2.752   2.874   4.504
    1C        C  694   2.626   3.899   2.060
    1C        C  695   2.533   3.704   2.176
    1C        C  696   2.577   3.838   2.177
    1C        C  697   2.514   3.638   2.299
    1C        C  698   2.529   3.711   2.418
    1C        C  699   2.499   3.505   2.542
    1C        C  700   2.507   3.646   2.542
    1C        C  701   2.511   3.434   2.664
    1C        C  702   2.507   3.507   2.785
    1C        C  703   2.537   3.299   2.910
    1C        C  704   2.520   3.439   2.908
    1C        C  705   2.556   3.234   3.033
    1C        C  706   2.533   3.303   3.154
    1C        C  707   2.595   3.103   3.279
    1C        C  708   2.550   3.237   3.278
    1C        C  709   2.627   3.043   3.403
    1C        C  710   2.600   3.109   3.525
    1C        C  711   2.705   2.926   3.650
    1C        C  712   2.628   3.044   3.648
    1C        C  713   2.751   2.872   3.772
    1C        C  714   2.711   2.931   3.894
    1C        C  715   2.755   2.875   4.016
    1C        C  716   2.450   3.499   2.065
    1C        C  717   2.497   3.631   2.062
    1C        C  718   2.472   3.421   2.183
    1C        C  719   2.490   3.498   2.302
    1C        C  720   2.518   3.289   2.426
    1C        C  721   2.490   3.427   2.424
    1C        C  722   2.537   3.221   2.548
    1C        C  723   2.532   3.295   2.668
    1C        C  724   2.596   3.092   2.792
    1C        C  725   2.549   3.225   2.790
    1C        C  726   2.622   3.028   2.915
    1C        C  727   2.598   3.099   3.035
    1C        C  728   2.704   2.918   3.161
    1C        C  729   2.628   3.037   3.159
    1C        C  730   2.750   2.869   3.285
    1C        C  731   2.703   2.923   3.407
    1C        C  732   2.749   2.869   3.528
    1C        C  733   2.489   3.197   2.069
    1C        C  734   2.490   3.279   2.182
    1C        C  735   2.582   3.085   2.306
    1C        C  736   2.527   3.217   2.305
    1C        C  737   2.610   3.019   2.427
    1C        C  738   2.586   3.088   2.548
    1C        C  739   2.691   2.903   2.672
    1C        C  740   2.618   3.025   2.669
    1C        C  741   2.734   2.847   2.794
    1C        C  742   2.697   2.908   2.916
    1C        C  743   2.747   2.861   3.039
    1C        C  744   2.549   3.071   2.073
    1C        C  745   2.685   2.897   2.186
    1C        C  746   2.612   3.018   2.186
    1C        C  747   2.728   2.839   2.308
    1C        C  748   2.686   2.900   2.428
    1C        C  749   2.732   2.845   2.550
    1C        C  750   2.731   2.836   2.069
    1C        C  751   3.657   2.315   1.983
    1C        O  752   3.678   2.199   2.029
    1C        O  753   3.657   2.326   1.843
    1C        C  754   4.619   3.049   1.980
    1C        O  755   4.585   3.012   1.864
    1C        O  756   4.712   2.959   2.034
    1C        C  757   4.434   4.218   1.948
    1C        O  758   4.518   4.304   1.989
    1C        O  759   4.429   4.216   1.808
    1C        C  760   3.584   4.665   1.948
    1C        O  761   3.589   4.783   1.990
    1C        O  762   3.505   4.654   1.833
    1C        C  763   2.862   4.509   1.963
    1C        O  764   2.879   4.497   1.839
    1C        O  765   2.850   4.644   1.998
    1C        C  766   2.344   3.468   1.966
    1C        O  767   2.372   3.467   1.843
    1C        O  768   2.211   3.511   1.980
    1C        C  769   4.703   3.577   5.042
    1C        O  770   4.672   3.563   5.163
    1C        O  771   4.824   3.648   5.042
    1C        C  772   4.262   4.443   5.050
    1C        O  773   4.296   4.383   5.156
    1C        O  774   4.354   4.545   5.023
    1C        C  775   4.132   2.505   5.075
    1C        O  776   4.249   2.462   5.052
    1C        O  777   4.117   2.549   5.207
    1C        C  778   2.875   4.561   5.027
    1C        O  779   2.816   4.640   4.949
    1C        O  780   2.921   4.629   5.140
    1C        C  781   2.480   3.040   5.092
    1C        O  782   2.359   3.009   5.073
    1C        O  783   2.527   3.035   5.223
    1C        C  784   2.433   3.987   5.071
    1C        O  785   2.308   3.986   5.053
    1C        O  786   2.475   3.960   5.201
    1C        C  787   2.949   2.423   2.000
    1C        O  788   2.952   2.423   1.874
    1C        O  789   2.909   2.297   2.046
    1C        C  790   3.195   2.385   5.079
    1C        O  791   3.125   2.283   5.056
    1C        O  792   3.205   2.412   5.216
    1C        H  793   4.307   3.007   5.070
    1C        H  794   4.138   2.850   5.051
    1C        H  795   4.507   3.126   5.053
    1C        H  796   4.558   3.360   5.067
    1C        H  797   4.613   3.820   5.013
    1C        H  798   4.464   4.009   5.049
    1C        H  799   4.250   4.136   5.041
    1C        H  800   4.046   4.558   5.014
    1C        H  801   3.817   4.584   5.038
    1C        H  802   3.586   4.630   5.038
    1C        H  803   3.388   4.491   5.050
    1C        H  804   3.160   4.467   5.057
    1C        H  805   3.878   2.499   5.068
    1C        H  806   3.668   2.519   5.076
    1C        H  807   3.002   2.562   5.063
    1C        H  808   3.436   2.485   5.075
    1C        H  809   2.893   2.753   5.078
    1C        H  810   2.698   2.903   5.077
    1C        H  811   2.543   3.291   5.074
    1C        H  812   2.517   3.507   5.075
    1C        H  813   2.518   3.738   5.071
    1C        H  814   2.557   4.199   5.019
    1C        H  815   2.748   4.318   5.051
    1C        H  816   2.673   2.850   1.980
    1C        H  817   2.856   2.690   1.976
    1C        H  818   3.215   2.461   1.989
    1C        H  819   3.429   2.401   1.986
    1C        H  820   3.843   2.542   1.974
    1C        H  821   4.064   2.624   1.968
    1C        H  822   4.287   2.700   1.990
    1C        H  823   4.361   2.935   1.971
    1C        H  824   4.602   3.300   1.975
    1C        H  825   4.500   3.513   1.961
    1C        H  826   4.545   3.753   1.962
    1C        H  827   3.798   4.496   1.949
    1C        H  828   3.953   4.359   1.944
    1C        H  829   4.167   4.259   1.950
    1C        H  830   4.498   3.963   1.965
    1C        H  831   2.601   3.860   1.964
    1C        H  832   2.785   4.031   2.001
    1C        H  833   2.695   4.327   1.989
    1C        H  834   3.393   4.431   1.968
    1C        H  835   3.139   4.451   1.945
    1C        H  836   2.528   3.017   1.983
    1C        H  837   2.469   3.239   1.972
    1C        H  838   2.480   3.689   1.974
    2V3OU   H29  839   2.807   3.552   6.129
    2V3OU   C27  840   2.782   3.504   6.228
    2V3OU   H27  841   2.730   3.575   6.296
    2V3OU   H28  842   2.719   3.412   6.223
    2V3OU   O11  843   2.908   3.477   6.290
    2V3OU   C15  844   2.922   3.390   6.396
    2V3OU   C13  845   3.052   3.368   6.447
    2V3OU   C14  846   3.072   3.266   6.541
    2V3OU   C16  847   2.968   3.182   6.579
    2V3OU    H6  848   2.984   3.111   6.662
    2V3OU   C12  849   3.210   3.231   6.581
    2V3OU    O2  850   3.238   3.126   6.642
    2V3OU   C10  851   3.325   3.308   6.531
    2V3OU    C8  852   3.458   3.271   6.546
    2V3OU   O10  853   3.492   3.152   6.602
    2V3OU   H26  854   3.405   3.115   6.622
    2V3OU    C6  855   3.566   3.352   6.499
    2V3OU    C5  856   3.539   3.466   6.423
    2V3OU    C4  857   3.703   3.294   6.487
    2V3OU    H4  858   3.725   3.227   6.575
    2V3OU    H5  859   3.709   3.227   6.396
    2V3OU    C2  860   3.816   3.398   6.483
    2V3OU    O6  861   3.805   3.469   6.607
    2V3OU   H21  862   3.769   3.553   6.574
    2V3OU    C3  863   3.784   3.497   6.371
    2V3OU    H2  864   3.865   3.575   6.369
    2V3OU    H3  865   3.784   3.446   6.271
    2V3OU   C25  866   3.951   3.332   6.459
    2V3OU    O7  867   4.000   3.301   6.350
    2V3OU   C26  868   4.028   3.288   6.583
    2V3OU   H22  869   4.061   3.382   6.633
    2V3OU   H23  870   4.122   3.235   6.552
    2V3OU    O8  871   3.962   3.208   6.678
    2V3OU   H24  872   3.921   3.264   6.745
    2V3OU    C1  873   3.648   3.563   6.389
    2V3OU    H1  874   3.623   3.615   6.291
    2V3OU    O3  875   3.660   3.657   6.497
    2V3OU   C19  876   3.617   3.793   6.488
    2V3OU    H9  877   3.518   3.809   6.435
    2V3OU    O4  878   3.711   3.853   6.401
    2V3OU   C20  879   3.844   3.875   6.448
    2V3OU   H10  880   3.894   3.775   6.469
    2V3OU   C24  881   3.610   3.859   6.626
    2V3OU   H16  882   3.551   3.793   6.695
    2V3OU   H17  883   3.556   3.957   6.613
    2V3OU   C23  884   3.752   3.879   6.679
    2V3OU   H15  885   3.796   3.775   6.691
    2V3OU    N1  886   3.740   3.967   6.794
    2V3OU   H19  887   3.806   3.929   6.859
    2V3OU   H20  888   3.655   3.935   6.837
    2V3OU   C21  889   3.849   3.951   6.580
    2V3OU   H11  890   3.953   3.925   6.617
    2V3OU    O5  891   3.828   4.092   6.581
    2V3OU   H18  892   3.784   4.105   6.666
    2V3OU   C22  893   3.916   3.953   6.339
    2V3OU   H12  894   3.858   4.048   6.321
    2V3OU   H13  895   3.909   3.901   6.240
    2V3OU   H14  896   4.024   3.966   6.365
    2V3OU   C11  897   3.157   3.470   6.436
    2V3OU    O1  898   3.133   3.588   6.401
    2V3OU    C9  899   3.296   3.430   6.465
    2V3OU    C7  900   3.402   3.504   6.412
    2V3OU    O9  901   3.384   3.612   6.329
    2V3OU   H25  902   3.290   3.633   6.339
    2V3OU   C17  903   2.818   3.308   6.445
    2V3OU    H7  904   2.718   3.345   6.425
    2V3OU   C18  905   2.839   3.202   6.532
    2V3OU    H8  906   2.758   3.140   6.572
    3SOL     OW  907   3.234   3.072   4.269
    3SOL    HW1  908   3.225   3.013   4.349
    3SOL    HW2  909   3.193   3.161   4.288
    4SOL     OW  910   1.034   6.419   0.841
    4SOL    HW1  911   1.128   6.454   0.841
    4SOL    HW2  912   0.975   6.484   0.792
    5SOL     OW  913   3.763   2.406   0.639
    5SOL    HW1  914   3.798   2.459   0.717
    5SOL    HW2  915   3.687   2.349   0.671
    6SOL     OW  916   3.869   1.803   2.533
    6SOL    HW1  917   3.863   1.901   2.517
    6SOL    HW2  918   3.924   1.761   2.460
    7SOL     OW  919   2.268   2.929   4.690
    7SOL    HW1  920   2.366   2.926   4.672
    7SOL    HW2  921   2.237   2.839   4.721
    8SOL     OW  922   0.854   2.471   5.964
    8SOL    HW1  923   0.900   2.383   5.953
    8SOL    HW2  924   0.909   2.543   5.922
    9SOL     OW  925   1.552   2.610   6.331
    9SOL    HW1  926   1.542   2.539   6.400
    9SOL    HW2  927   1.553   2.569   6.240
   10SOL     OW  928   5.768   5.040   1.301
   10SOL    HW1  929   5.697   5.026   1.370
   10SOL    HW2  930   5.858   5.038   1.344
   11SOL     OW  931   3.344   1.569   0.645
   11SOL    HW1  932   3.293   1.543   0.726
   11SOL    HW2  933   3.391   1.489   0.608
   12SOL     OW  934   5.284   5.146   1.740
   12SOL    HW1  935   5.201   5.164   1.687
   12SOL    HW2  936   5.319   5.233   1.776
   13SOL     OW  937   5.367   5.793   1.847
   13SOL    HW1  938   5.305   5.779   1.923
   13SOL    HW2  939   5.461   5.779   1.877
   14SOL     OW  940   3.863   6.110   0.988
   14SOL    HW1  941   3.929   6.180   1.016
   14SOL    HW2  942   3.772   6.136   1.018
   15SOL     OW  943   0.735   6.628   6.888
   15SOL    HW1  944   0.799   6.562   6.849
   15SOL    HW2  945   0.675   6.582   6.954
   16SOL     OW  946   1.910   5.652   5.111
   16SOL    HW1  947   1.903   5.751   5.117
   16SOL    HW2  948   1.949   5.616   5.196
   17SOL     OW  949   0.345   2.134   3.667
   17SOL    HW1  950   0.440   2.152   3.691
   17SOL    HW2  951   0.338   2.045   3.623
   18SOL     OW  952   2.761   1.713   5.611
   18SOL    HW1  953   2.697   1.785   5.585
   18SOL    HW2  954   2.845   1.722   5.556
   19SOL     OW  955   2.737   5.299   2.765
   19SOL    HW1  956   2.795   5.292   2.684
   19SOL    HW2  957   2.645   5.267   2.744
   20SOL     OW  958   6.901   1.679   5.587
   20SOL    HW1  959   6.870   1.585   5.573
   20SOL    HW2  960   6.884   1.705   5.682
   21SOL     OW  961   1.407   3.988   1.676
   21SOL    HW1  962   1.446   3.917   1.618
   21SOL    HW2  963   1.401   4.074   1.625
   22SOL     OW  964   0.876   1.326   0.292
   22SOL    HW1  965   0.823   1.250   0.331
   22SOL    HW2  966   0.820   1.374   0.224
   23SOL     OW  967   0.004   5.118   6.891
   23SOL    HW1  968   0.038   5.114   6.798
   23SOL    HW2  969   6.941   5.068   6.897
   24SOL     OW  970   5.345   1.238   0.030
   24SOL    HW1  971   5.273   1.297   7.018
   24SOL    HW2  972   5.400   1.204   6.977
   25SOL     OW  973   1.207   0.929   4.863
   25SOL    HW1  974   1.202   0.846   4.807
   25SOL    HW2  975   1.115   0.957   4.889
   26SOL     OW  976   2.293   0.037   5.784
   26SOL    HW1  977   2.274   0.045   5.882
   26SOL    HW2  978   2.257   0.118   5.737
   27SOL     OW  979   6.963   0.197   2.435
   27SOL    HW1  980   6.866   0.180   2.452
   27SOL    HW2  981   7.018   0.133   2.488
   28SOL     OW  982   1.723   0.891   5.966
   28SOL    HW1  983   1.667   0.973   5.977
   28SOL    HW2  984   1.682   0.831   5.897
   29SOL     OW  985   5.455   1.045   1.159
   29SOL    HW1  986   5.372   1.094   1.186
   29SOL    HW2  987   5.438   0.993   1.076
   30SOL     OW  988   4.470   0.210   4.757
   30SOL    HW1  989   4.461   0.305   4.729
   30SOL    HW2  990   4.524   0.204   4.840
   31SOL     OW  991   6.413   4.795   4.747
   31SOL    HW1  992   6.425   4.893   4.732
   31SOL    HW2  993   6.322   4.768   4.716
   32SOL     OW  994   3.405   1.008   1.219
   32SOL    HW1  995   3.409   1.097   1.266
   32SOL    HW2  996   3.412   0.935   1.287
   33SOL     OW  997   1.855   4.881   5.573
   33SOL    HW1  998   1.767   4.847   5.606
   33SOL    HW2  999   1.927   4.855   5.637
   34SOL     OW 1000   2.272   6.507   5.194
   34SOL    HW1 1001   2.256   6.416   5.157
   34SOL    HW2 1002   2.294   6.500   5.292
   35SOL     OW 1003   1.448   2.585   4.263
   35SOL    HW1 1004   1.523   2.523   4.284
   35SOL    HW2 1005   1.485   2.675   4.238
   36SOL     OW 1006   5.502   1.198   4.305
   36SOL    HW1 1007   5.418   1.243   4.273
   36SOL    HW2 1008   5.575   1.216   4.240
   37SOL     OW 1009   1.658   6.420   4.488
   37SOL    HW1 1010   1.700   6.407   4.578
   37SOL    HW2 1011   1.671   6.514   4.458
   38SOL     OW 1012   0.783   3.359   1.026
   38SOL    HW1 1013   0.866   3.322   0.985
   38SOL    HW2 1014   0.748   3.433   0.969
   39SOL     OW 1015   6.569   5.159   0.841
   39SOL    HW1 1016   6.603   5.210   0.920
   39SOL    HW2 1017   6.469   5.152   0.847
   40SOL     OW 1018   4.187   0.774   0.046
   40SOL    HW1 1019   4.276   0.794   0.086
   40SOL    HW2 1020   4.180   0.818   6.980
   41SOL     OW 1021   5.948   3.988   1.755
   41SOL    HW1 1022   5.894   4.068   1.727
   41SOL    HW2 1023   6.042   3.998   1.722
   42SOL     OW 1024   2.356   3.479   0.067
   42SOL    HW1 1025   2.283   3.433   0.018
   42SOL    HW2 1026   2.318   3.552   0.124
   43SOL     OW 1027   4.810   7.007   4.432
   43SOL    HW1 1028   4.902   6.970   4.447
   43SOL    HW2 1029   4.814   0.083   4.427
   44SOL     OW 1030   6.847   0.573   0.017
   44SOL    HW1 1031   6.815   0.666   0.033
   44SOL    HW2 1032   6.872   0.563   6.944
   45SOL     OW 1033   2.929   3.927   5.594
   45SOL    HW1 1034   2.913   3.992   5.668
   45SOL    HW2 1035   2.854   3.861   5.591
   46SOL     OW 1036   1.136   4.605   4.543
   46SOL    HW1 1037   1.150   4.703   4.558
   46SOL    HW2 1038   1.088   4.591   4.456
   47SOL     OW 1039   6.095   4.146   6.992
   47SOL    HW1 1040   6.162   4.116   0.036
   47SOL    HW2 1041   6.006   4.104   7.014
   48SOL     OW 1042   0.442   4.398   0.136
   48SOL    HW1 1043   0.446   4.367   0.041
   48SOL    HW2 1044   0.502   4.342   0.192
   49SOL     OW 1045   3.100   1.555   6.776
   49SOL    HW1 1046   3.002   1.573   6.767
   49SOL    HW2 1047   3.135   1.518   6.691
   50SOL     OW 1048   5.080   2.132   6.753
   50SOL    HW1 1049   5.033   2.068   6.814
   50SOL    HW2 1050   5.160   2.170   6.800
   51SOL     OW 1051   1.144   6.463   2.108
   51SOL    HW1 1052   1.212   6.418   2.051
   51SOL    HW2 1053   1.189   6.529   2.167
   52SOL     OW 1054   6.194   2.197   2.729
   52SOL    HW1 1055   6.209   2.118   2.669
   52SOL    HW2 1056   6.105   2.190   2.773
   53SOL     OW 1057   4.532   0.701   0.807
   53SOL    HW1 1058   4.444   0.660   0.829
   53SOL    HW2 1059   4.606   0.639   0.836
   54SOL     OW 1060   6.950   1.140   6.359
   54SOL    HW1 1061   6.945   1.212   6.289
   54SOL    HW2 1062   6.961   1.181   6.449
   55SOL     OW 1063   2.244   3.311   5.978
   55SOL    HW1 1064   2.256   3.214   5.960
   55SOL    HW2 1065   2.299   3.364   5.913
   56SOL     OW 1066   0.869   2.806   6.393
   56SOL    HW1 1067   0.954   2.856   6.376
   56SOL    HW2 1068   0.806   2.821   6.317
   57SOL     OW 1069   4.176   5.345   1.439
   57SOL    HW1 1070   4.267   5.313   1.468
   57SOL    HW2 1071   4.114   5.344   1.518
   58SOL     OW 1072   0.784   1.211   6.885
   58SOL    HW1 1073   0.776   1.294   6.940
   58SOL    HW2 1074   0.813   1.135   6.944
   59SOL     OW 1075   3.581   2.871   0.261
   59SOL    HW1 1076   3.641   2.927   0.317
   59SOL    HW2 1077   3.627   2.848   0.175
   60SOL     OW 1078   6.625   2.584   2.758
   60SOL    HW1 1079   6.606   2.494   2.719
   60SOL    HW2 1080   6.541   2.621   2.799
   61SOL     OW 1081   1.525   5.638   2.783
   61SOL    HW1 1082   1.550   5.608   2.875
   61SOL    HW2 1083   1.592   5.703   2.749
   62SOL     OW 1084   5.036   2.903   3.279
   62SOL    HW1 1085   5.069   2.974   3.340
   62SOL    HW2 1086   5.095   2.897   3.198
   63SOL     OW 1087   4.024   6.796   6.745
   63SOL    HW1 1088   4.070   6.784   6.833
   63SOL    HW2 1089   3.965   6.718   6.727
   64SOL     OW 1090   1.880   2.232   6.698
   64SOL    HW1 1091   1.805   2.297   6.691
   64SOL    HW2 1092   1.870   2.161   6.629
   65SOL     OW 1093   0.950   5.199   5.340
   65SOL    HW1 1094   1.005   5.164   5.264
   65SOL    HW2 1095   0.945   5.129   5.411
   66SOL     OW 1096   4.646   1.133   1.264
   66SOL    HW1 1097   4.642   1.095   1.171
   66SOL    HW2 1098   4.690   1.068   1.325
   67SOL     OW 1099   0.112   3.560   1.310
   67SOL    HW1 1100   0.092   3.470   1.350
   67SOL    HW2 1101   0.210   3.568   1.293
   68SOL     OW 1102   0.645   1.502   6.425
   68SOL    HW1 1103   0.651   1.428   6.492
   68SOL    HW2 1104   0.669   1.468   6.334
   69SOL     OW 1105   1.874   0.170   6.201
   69SOL    HW1 1106   1.809   0.150   6.127
   69SOL    HW2 1107   1.860   0.263   6.233
   70SOL     OW 1108   4.601   5.183   3.475
   70SOL    HW1 1109   4.541   5.109   3.506
   70SOL    HW2 1110   4.581   5.205   3.379
   71SOL     OW 1111   5.245   1.455   5.100
   71SOL    HW1 1112   5.181   1.518   5.142
   71SOL    HW2 1113   5.251   1.473   5.002
   72SOL     OW 1114   6.495   0.943   2.362
   72SOL    HW1 1115   6.508   0.971   2.457
   72SOL    HW2 1116   6.403   0.968   2.332
   73SOL     OW 1117   3.094   0.900   1.131
   73SOL    HW1 1118   3.109   0.965   1.056
   73SOL    HW2 1119   3.181   0.882   1.177
   74SOL     OW 1120   2.540   0.996   0.222
   74SOL    HW1 1121   2.614   0.986   0.157
   74SOL    HW2 1122   2.530   1.093   0.248
   75SOL     OW 1123   2.932   2.807   1.637
   75SOL    HW1 1124   2.967   2.716   1.662
   75SOL    HW2 1125   2.855   2.796   1.574
   76SOL     OW 1126   3.833   5.169   6.369
   76SOL    HW1 1127   3.771   5.190   6.444
   76SOL    HW2 1128   3.865   5.255   6.327
   77SOL     OW 1129   6.612   5.149   4.509
   77SOL    HW1 1130   6.691   5.131   4.567
   77SOL    HW2 1131   6.586   5.065   4.462
   78SOL     OW 1132   5.440   1.434   1.593
   78SOL    HW1 1133   5.385   1.425   1.676
   78SOL    HW2 1134   5.383   1.417   1.513
   79SOL     OW 1135   1.598   4.321   4.493
   79SOL    HW1 1136   1.566   4.299   4.585
   79SOL    HW2 1137   1.537   4.388   4.452
   80SOL     OW 1138   3.996   2.397   5.351
   80SOL    HW1 1139   3.920   2.447   5.391
   80SOL    HW2 1140   4.046   2.456   5.288
   81SOL     OW 1141   2.553   4.975   3.387
   81SOL    HW1 1142   2.571   4.958   3.484
   81SOL    HW2 1143   2.495   4.901   3.351
   82SOL     OW 1144   3.276   0.421   1.727
   82SOL    HW1 1145   3.257   0.436   1.630
   82SOL    HW2 1146   3.325   0.500   1.763
   83SOL     OW 1147   5.896   1.851   3.563
   83SOL    HW1 1148   5.798   1.841   3.579
   83SOL    HW2 1149   5.946   1.829   3.647
   84SOL     OW 1150   5.259   2.259   2.787
   84SOL    HW1 1151   5.227   2.170   2.753
   84SOL    HW2 1152   5.325   2.297   2.722
   85SOL     OW 1153   2.141   5.458   3.634
   85SOL    HW1 1154   2.117   5.420   3.723
   85SOL    HW2 1155   2.241   5.466   3.627
   86SOL     OW 1156   5.159   0.809   0.643
   86SOL    HW1 1157   5.083   0.837   0.702
   86SOL    HW2 1158   5.172   0.878   0.572
   87SOL     OW 1159   2.876   3.137   0.052
   87SOL    HW1 1160   2.926   3.206   0.001
   87SOL    HW2 1161   2.836   3.178   0.134
   88SOL     OW 1162   1.772   1.803   1.085
   88SOL    HW1 1163   1.708   1.868   1.125
   88SOL    HW2 1164   1.732   1.712   1.083
   89SOL     OW 1165   3.864   3.982   4.616
   89SOL    HW1 1166   3.948   3.993   4.670
   89SOL    HW2 1167   3.800   4.055   4.640
   90SOL     OW 1168   6.864   3.420   2.319
   90SOL    HW1 1169   6.932   3.398   2.389
   90SOL    HW2 1170   6.780   3.454   2.363
   91SOL     OW 1171   4.693   5.074   0.755
   91SOL    HW1 1172   4.782   5.117   0.738
   91SOL    HW2 1173   4.633   5.139   0.802
   92SOL     OW 1174   6.004   5.854   6.735
   92SOL    HW1 1175   5.967   5.788   6.669
   92SOL    HW2 1176   6.076   5.811   6.789
   93SOL     OW 1177   3.070   3.451   1.857
   93SOL    HW1 1178   3.131   3.520   1.896
   93SOL    HW2 1179   3.116   3.404   1.782
   94SOL     OW 1180   3.007   1.369   4.283
   94SOL    HW1 1181   2.959   1.348   4.368
   94SOL    HW2 1182   2.972   1.455   4.245
   95SOL     OW 1183   0.852   6.020   4.386
   95SOL    HW1 1184   0.896   5.971   4.461
   95SOL    HW2 1185   0.759   5.985   4.373
   96SOL     OW 1186   6.985   6.589   6.780
   96SOL    HW1 1187   7.013   6.622   6.690
   96SOL    HW2 1188   6.929   6.659   6.825
   97SOL     OW 1189   3.897   4.927   4.867
   97SOL    HW1 1190   3.981   4.874   4.853
   97SOL    HW2 1191   3.849   4.935   4.780
   98SOL     OW 1192   0.651   3.163   4.926
   98SOL    HW1 1193   0.684   3.101   4.997
   98SOL    HW2 1194   0.650   3.116   4.838
   99SOL     OW 1195   4.725   4.714   4.726
   99SOL    HW1 1196   4.752   4.774   4.650
   99SOL    HW2 1197   4.792   4.640   4.735
  100SOL     OW 1198   1.653   1.469   5.218
  100SOL    HW1 1199   1.626   1.415   5.138
  100SOL    HW2 1200   1.642   1.414   5.301
  101SOL     OW 1201   5.507   2.902   2.430
  101SOL    HW1 1202   5.467   2.892   2.339
  101SOL    HW2 1203   5.584   2.966   2.426
  102SOL     OW 1204   3.970   6.630   0.381
  102SOL    HW1 1205   4.053   6.589   0.419
  102SOL    HW2 1206   3.908   6.656   0.455
  103SOL     OW 1207   1.986   2.317   1.652
  103SOL    HW1 1208   2.036   2.297   1.736
  103SOL    HW2 1209   2.033   2.389   1.601
  104SOL     OW 1210   0.521   4.450   1.265
  104SOL    HW1 1211   0.580   4.530   1.270
  104SOL    HW2 1212   0.563   4.374   1.315
  105SOL     OW 1213   6.617   1.543   5.294
  105SOL    HW1 1214   6.547   1.524   5.225
  105SOL    HW2 1215   6.707   1.522   5.257
  106SOL     OW 1216   4.865   3.192   1.732
  106SOL    HW1 1217   4.886   3.125   1.803
  106SOL    HW2 1218   4.766   3.200   1.722
  107SOL     OW 1219   4.289   6.310   2.470
  107SOL    HW1 1220   4.279   6.213   2.492
  107SOL    HW2 1221   4.322   6.359   2.552
  108SOL     OW 1222   3.363   1.407   4.552
  108SOL    HW1 1223   3.300   1.351   4.605
  108SOL    HW2 1224   3.420   1.348   4.495
  109SOL     OW 1225   1.902   1.925   5.247
  109SOL    HW1 1226   1.948   1.958   5.329
  109SOL    HW2 1227   1.867   1.833   5.262
  110SOL     OW 1228   4.341   4.703   5.363
  110SOL    HW1 1229   4.267   4.770   5.350
  110SOL    HW2 1230   4.408   4.740   5.428
  111SOL     OW 1231   6.414   3.147   1.394
  111SOL    HW1 1232   6.389   3.173   1.301
  111SOL    HW2 1233   6.486   3.208   1.427
  112SOL     OW 1234   4.373   6.286   5.093
  112SOL    HW1 1235   4.421   6.307   5.178
  112SOL    HW2 1236   4.297   6.225   5.112
  113SOL     OW 1237   0.847   5.279   1.801
  113SOL    HW1 1238   0.934   5.302   1.845
  113SOL    HW2 1239   0.827   5.182   1.814
  114SOL     OW 1240   6.904   1.881   1.849
  114SOL    HW1 1241   6.899   1.787   1.880
  114SOL    HW2 1242   6.973   1.931   1.902
  115SOL     OW 1243   4.772   1.315   3.343
  115SOL    HW1 1244   4.807   1.242   3.402
  115SOL    HW2 1245   4.692   1.357   3.385
  116SOL     OW 1246   6.191   5.516   0.308
  116SOL    HW1 1247   6.240   5.478   0.229
  116SOL    HW2 1248   6.104   5.556   0.276
  117SOL     OW 1249   2.539   1.434   0.768
  117SOL    HW1 1250   2.498   1.427   0.677
  117SOL    HW2 1251   2.638   1.441   0.759
  118SOL     OW 1252   0.365   2.231   2.122
  118SOL    HW1 1253   0.296   2.300   2.103
  118SOL    HW2 1254   0.406   2.248   2.212
  119SOL     OW 1255   5.792   5.693   4.868
  119SOL    HW1 1256   5.777   5.737   4.780
  119SOL    HW2 1257   5.705   5.678   4.914
  120SOL     OW 1258   4.312   1.815   4.758
  120SOL    HW1 1259   4.390   1.768   4.798
  120SOL    HW2 1260   4.344   1.891   4.701
  121SOL     OW 1261   0.280   5.432   5.940
  121SOL    HW1 1262   0.224   5.369   5.994
  121SOL    HW2 1263   0.268   5.413   5.843
  122SOL     OW 1264   0.386   4.600   5.507
  122SOL    HW1 1265   0.449   4.652   5.565
  122SOL    HW2 1266   0.391   4.633   5.413
  123SOL     OW 1267   0.907   2.776   1.122
  123SOL    HW1 1268   0.848   2.699   1.097
  123SOL    HW2 1269   0.877   2.814   1.209
  124SOL     OW 1270   2.161   3.705   6.378
  124SOL    HW1 1271   2.177   3.632   6.444
  124SOL    HW2 1272   2.113   3.668   6.299
  125SOL     OW 1273   4.152   2.415   0.569
  125SOL    HW1 1274   4.086   2.343   0.550
  125SOL    HW2 1275   4.130   2.458   0.657
  126SOL     OW 1276   3.854   3.401   4.834
  126SOL    HW1 1277   3.803   3.315   4.846
  126SOL    HW2 1278   3.927   3.387   4.767
  127SOL     OW 1279   0.083   4.813   5.717
  127SOL    HW1 1280   0.092   4.728   5.664
  127SOL    HW2 1281   0.175   4.848   5.737
  128SOL     OW 1282   5.033   4.456   5.821
  128SOL    HW1 1283   5.028   4.449   5.921
  128SOL    HW2 1284   5.028   4.365   5.781
  129SOL     OW 1285   0.400   5.010   1.345
  129SOL    HW1 1286   0.407   4.943   1.419
  129SOL    HW2 1287   0.464   4.986   1.272
  130SOL     OW 1288   6.200   3.610   4.955
  130SOL    HW1 1289   6.176   3.538   4.890
  130SOL    HW2 1290   6.249   3.683   4.907
  131SOL     OW 1291   0.630   3.657   2.575
  131SOL    HW1 1292   0.671   3.748   2.579
  131SOL    HW2 1293   0.689   3.596   2.522
  132SOL     OW 1294   3.991   2.890   1.458
  132SOL    HW1 1295   3.940   2.926   1.535
  132SOL    HW2 1296   3.949   2.804   1.427
  133SOL     OW 1297   4.324   4.497   5.810
  133SOL    HW1 1298   4.378   4.425   5.766
  133SOL    HW2 1299   4.313   4.475   5.907
  134SOL     OW 1300   6.785   1.790   6.804
  134SOL    HW1 1301   6.773   1.776   6.705
  134SOL    HW2 1302   6.695   1.801   6.847
  135SOL     OW 1303   4.353   4.623   3.704
  135SOL    HW1 1304   4.263   4.646   3.741
  135SOL    HW2 1305   4.416   4.698   3.719
  136SOL     OW 1306   3.901   6.635   6.131
  136SOL    HW1 1307   3.823   6.675   6.180
  136SOL    HW2 1308   3.887   6.537   6.117
  137SOL     OW 1309   1.899   4.045   0.532
  137SOL    HW1 1310   1.982   4.001   0.497
  137SOL    HW2 1311   1.879   4.010   0.624
  138SOL     OW 1312   0.797   5.191   0.855
  138SOL    HW1 1313   0.890   5.164   0.828
  138SOL    HW2 1314   0.771   5.274   0.804
  139SOL     OW 1315   0.720   0.929   1.120
  139SOL    HW1 1316   0.712   0.963   1.026
  139SOL    HW2 1317   0.633   0.940   1.167
  140SOL     OW 1318   3.286   6.824   2.115
  140SOL    HW1 1319   3.329   6.739   2.147
  140SOL    HW2 1320   3.235   6.866   2.190
  141SOL     OW 1321   1.062   2.314   0.149
  141SOL    HW1 1322   1.058   2.390   0.085
  141SOL    HW2 1323   1.136   2.252   0.122
  142SOL     OW 1324   1.966   3.830   6.876
  142SOL    HW1 1325   1.898   3.898   6.903
  142SOL    HW2 1326   1.936   3.739   6.906
  143SOL     OW 1327   5.637   5.739   1.910
  143SOL    HW1 1328   5.650   5.777   1.818
  143SOL    HW2 1329   5.720   5.755   1.964
  144SOL     OW 1330   2.478   5.310   3.075
  144SOL    HW1 1331   2.560   5.353   3.036
  144SOL    HW2 1332   2.422   5.381   3.119
  145SOL     OW 1333   7.001   5.814   3.321
  145SOL    HW1 1334   6.944   5.797   3.402
  145SOL    HW2 1335   6.991   5.737   3.257
  146SOL     OW 1336   0.274   0.553   5.351
  146SOL    HW1 1337   0.206   0.595   5.411
  146SOL    HW2 1338   0.343   0.507   5.406
  147SOL     OW 1339   5.997   0.503   4.694
  147SOL    HW1 1340   5.963   0.475   4.604
  147SOL    HW2 1341   5.939   0.465   4.766
  148SOL     OW 1342   1.496   6.701   2.475
  148SOL    HW1 1343   1.420   6.763   2.458
  148SOL    HW2 1344   1.529   6.714   2.568
  149SOL     OW 1345   1.615   2.739   5.005
  149SOL    HW1 1346   1.646   2.822   5.051
  149SOL    HW2 1347   1.674   2.721   4.926
  150SOL     OW 1348   5.360   3.301   5.742
  150SOL    HW1 1349   5.366   3.390   5.697
  150SOL    HW2 1350   5.265   3.282   5.768
  151SOL     OW 1351   6.295   2.759   2.138
  151SOL    HW1 1352   6.263   2.825   2.206
  151SOL    HW2 1353   6.326   2.807   2.056
  152SOL     OW 1354   6.918   2.933   0.444
  152SOL    HW1 1355   6.920   2.833   0.443
  152SOL    HW2 1356   6.907   2.967   0.351
  153SOL     OW 1357   1.745   1.886   3.853
  153SOL    HW1 1358   1.770   1.884   3.757
  153SOL    HW2 1359   1.777   1.972   3.894
  154SOL     OW 1360   0.266   1.064   4.014
  154SOL    HW1 1361   0.365   1.065   3.997
  154SOL    HW2 1362   0.218   1.029   3.934
  155SOL     OW 1363   5.791   4.571   3.044
  155SOL    HW1 1364   5.722   4.533   3.105
  155SOL    HW2 1365   5.747   4.624   2.972
  156SOL     OW 1366   4.366   6.973   1.580
  156SOL    HW1 1367   4.297   0.023   1.584
  156SOL    HW2 1368   4.328   6.895   1.531
  157SOL     OW 1369   5.405   6.876   1.047
  157SOL    HW1 1370   5.364   6.814   0.980
  157SOL    HW2 1371   5.491   6.836   1.081
  158SOL     OW 1372   0.927   3.309   4.689
  158SOL    HW1 1373   0.915   3.253   4.608
  158SOL    HW2 1374   0.951   3.402   4.662
  159SOL     OW 1375   6.376   5.202   6.469
  159SOL    HW1 1376   6.307   5.133   6.492
  159SOL    HW2 1377   6.467   5.168   6.492
  160SOL     OW 1378   3.768   0.285   1.346
  160SOL    HW1 1379   3.754   0.383   1.332
  160SOL    HW2 1380   3.679   0.239   1.353
  161SOL     OW 1381   6.693   0.275   0.545
  161SOL    HW1 1382   6.639   0.321   0.615
  161SOL    HW2 1383   6.740   0.343   0.489
  162SOL     OW 1384   4.380   7.006   5.202
  162SOL    HW1 1385   4.416   6.986   5.111
  162SOL    HW2 1386   4.402   6.932   5.264
  163SOL     OW 1387   1.012   4.081   2.255
  163SOL    HW1 1388   1.061   3.995   2.263
  163SOL    HW2 1389   0.981   4.093   2.161
  164SOL     OW 1390   2.240   2.390   2.876
  164SOL    HW1 1391   2.234   2.356   2.782
  164SOL    HW2 1392   2.288   2.478   2.877
  165SOL     OW 1393   0.236   6.249   4.195
  165SOL    HW1 1394   0.168   6.262   4.267
  165SOL    HW2 1395   0.195   6.273   4.106
  166SOL     OW 1396   0.544   4.941   3.988
  166SOL    HW1 1397   0.573   4.892   4.070
  166SOL    HW2 1398   0.480   4.883   3.936
  167SOL     OW 1399   0.517   1.176   3.001
  167SOL    HW1 1400   0.541   1.273   2.993
  167SOL    HW2 1401   0.594   1.119   2.972
  168SOL     OW 1402   3.403   3.914   3.255
  168SOL    HW1 1403   3.356   3.941   3.339
  168SOL    HW2 1404   3.400   3.990   3.189
  169SOL     OW 1405   4.977   2.761   6.211
  169SOL    HW1 1406   4.921   2.838   6.240
  169SOL    HW2 1407   4.963   2.684   6.273
  170SOL     OW 1408   0.198   5.094   2.122
  170SOL    HW1 1409   0.202   5.075   2.220
  170SOL    HW2 1410   0.159   5.016   2.074
  171SOL     OW 1411   2.985   2.785   0.988
  171SOL    HW1 1412   3.032   2.750   1.069
  171SOL    HW2 1413   2.938   2.710   0.941
  172SOL     OW 1414   1.748   1.180   0.254
  172SOL    HW1 1415   1.778   1.236   0.331
  172SOL    HW2 1416   1.723   1.239   0.177
  173SOL     OW 1417   6.066   0.479   4.983
  173SOL    HW1 1418   5.994   0.548   4.992
  173SOL    HW2 1419   6.069   0.423   5.066
  174SOL     OW 1420   6.613   4.067   5.140
  174SOL    HW1 1421   6.596   4.064   5.041
  174SOL    HW2 1422   6.663   4.151   5.162
  175SOL     OW 1423   0.857   5.785   2.925
  175SOL    HW1 1424   0.820   5.796   2.832
  175SOL    HW2 1425   0.936   5.845   2.936
  176SOL     OW 1426   6.230   4.186   0.985
  176SOL    HW1 1427   6.271   4.162   0.897
  176SOL    HW2 1428   6.183   4.274   0.977
  177SOL     OW 1429   6.479   2.760   3.878
  177SOL    HW1 1430   6.402   2.782   3.938
  177SOL    HW2 1431   6.445   2.741   3.786
  178SOL     OW 1432   1.270   5.828   5.132
  178SOL    HW1 1433   1.369   5.835   5.138
  178SOL    HW2 1434   1.236   5.768   5.205
  179SOL     OW 1435   3.632   4.089   1.793
  179SOL    HW1 1436   3.579   4.060   1.713
  179SOL    HW2 1437   3.569   4.124   1.863
  180SOL     OW 1438   4.696   1.119   6.319
  180SOL    HW1 1439   4.771   1.164   6.367
  180SOL    HW2 1440   4.664   1.178   6.244
  181SOL     OW 1441   3.639   0.502   5.311
  181SOL    HW1 1442   3.587   0.422   5.282
  181SOL    HW2 1443   3.734   0.493   5.283
  182SOL     OW 1444   3.106   2.914   5.541
  182SOL    HW1 1445   3.083   2.963   5.626
  182SOL    HW2 1446   3.033   2.848   5.521
  183SOL     OW 1447   3.062   1.266   3.541
  183SOL    HW1 1448   3.101   1.292   3.629
  183SOL    HW2 1449   3.092   1.174   3.517
  184SOL     OW 1450   4.764   6.261   3.729
  184SOL    HW1 1451   4.665   6.260   3.713
  184SOL    HW2 1452   4.801   6.169   3.717
  185SOL     OW 1453   0.360   6.689   4.994
  185SOL    HW1 1454   0.330   6.639   5.075
  185SOL    HW2 1455   0.445   6.648   4.960
  186SOL     OW 1456   3.069   5.769   6.355
  186SOL    HW1 1457   3.030   5.701   6.292
  186SOL    HW2 1458   3.116   5.840   6.302
  187SOL     OW 1459   3.578   5.333   0.722
  187SOL    HW1 1460   3.538   5.364   0.808
  187SOL    HW2 1461   3.570   5.406   0.654
  188SOL     OW 1462   1.440   4.151   4.106
  188SOL    HW1 1463   1.427   4.070   4.049
  188SOL    HW2 1464   1.537   4.168   4.119
  189SOL     OW 1465   5.815   4.468   6.007
  189SOL    HW1 1466   5.899   4.515   6.031
  189SOL    HW2 1467   5.833   4.404   5.932
  190SOL     OW 1468   5.818   6.551   0.429
  190SOL    HW1 1469   5.859   6.464   0.457
  190SOL    HW2 1470   5.880   6.626   0.453
  191SOL     OW 1471   2.103   3.630   5.607
  191SOL    HW1 1472   2.080   3.558   5.673
  191SOL    HW2 1473   2.182   3.600   5.553
  192SOL     OW 1474   0.329   0.310   1.184
  192SOL    HW1 1475   0.244   0.334   1.138
  192SOL    HW2 1476   0.361   0.221   1.151
  193SOL     OW 1477   2.996   0.236   1.476
  193SOL    HW1 1478   2.945   0.150   1.482
  193SOL    HW2 1479   2.992   0.283   1.564
  194SOL     OW 1480   4.194   5.609   3.280
  194SOL    HW1 1481   4.115   5.549   3.287
  194SOL    HW2 1482   4.185   5.665   3.197
  195SOL     OW 1483   2.921   0.355   1.134
  195SOL    HW1 1484   2.899   0.426   1.067
  195SOL    HW2 1485   2.926   0.396   1.225
  196SOL     OW 1486   3.997   3.154   1.056
  196SOL    HW1 1487   3.911   3.136   1.009
  196SOL    HW2 1488   3.981   3.158   1.155
  197SOL     OW 1489   1.613   6.038   0.400
  197SOL    HW1 1490   1.598   6.105   0.473
  197SOL    HW2 1491   1.663   5.959   0.436
  198SOL     OW 1492   5.687   6.967   6.112
  198SOL    HW1 1493   5.711   6.881   6.067
  198SOL    HW2 1494   5.749   0.016   6.081
  199SOL     OW 1495   2.222   1.366   3.687
  199SOL    HW1 1496   2.211   1.376   3.786
  199SOL    HW2 1497   2.156   1.299   3.653
  200SOL     OW 1498   1.343   4.113   4.346
  200SOL    HW1 1499   1.372   4.116   4.251
  200SOL    HW2 1500   1.394   4.042   4.394
  201SOL     OW 1501   4.830   1.068   0.206
  201SOL    HW1 1502   4.802   1.085   0.300
  201SOL    HW2 1503   4.836   1.155   0.157
  202SOL     OW 1504   4.286   0.177   3.176
  202SOL    HW1 1505   4.193   0.191   3.142
  202SOL    HW2 1506   4.340   0.131   3.106
  203SOL     OW 1507   5.845   2.690   0.357
  203SOL    HW1 1508   5.787   2.724   0.431
  203SOL    HW2 1509   5.795   2.695   0.270
  204SOL     OW 1510   1.829   5.965   1.068
  204SOL    HW1 1511   1.855   5.972   0.972
  204SOL    HW2 1512   1.773   6.044   1.093
  205SOL     OW 1513   5.357   0.571   1.439
  205SOL    HW1 1514   5.418   0.512   1.386
  205SOL    HW2 1515   5.310   0.635   1.379
  206SOL     OW 1516   0.158   6.277   1.048
  206SOL    HW1 1517   0.092   6.219   1.096
  206SOL    HW2 1518   0.210   6.330   1.114
  207SOL     OW 1519   6.749   2.345   5.372
  207SOL    HW1 1520   6.752   2.294   5.458
  207SOL    HW2 1521   6.781   2.286   5.298
  208SOL     OW 1522   4.085   3.790   6.944
  208SOL    HW1 1523   4.184   3.786   6.956
  208SOL    HW2 1524   4.055   3.886   6.944
  209SOL     OW 1525   6.951   6.764   3.975
  209SOL    HW1 1526   6.889   6.823   4.027
  209SOL    HW2 1527   6.933   6.668   3.996
  210SOL     OW 1528   4.223   1.684   1.161
  210SOL    HW1 1529   4.230   1.697   1.260
  210SOL    HW2 1530   4.245   1.769   1.114
  211SOL     OW 1531   0.581   3.016   2.327
  211SOL    HW1 1532   0.496   2.978   2.362
  211SOL    HW2 1533   0.628   3.066   2.399
  212SOL     OW 1534   0.886   5.109   5.796
  212SOL    HW1 1535   0.788   5.095   5.778
  212SOL    HW2 1536   0.935   5.117   5.710
  213SOL     OW 1537   3.983   2.657   1.123
  213SOL    HW1 1538   4.019   2.744   1.090
  213SOL    HW2 1539   3.927   2.673   1.204
  214SOL     OW 1540   0.989   5.922   3.850
  214SOL    HW1 1541   0.896   5.935   3.885
  214SOL    HW2 1542   1.015   6.001   3.795
  215SOL     OW 1543   3.652   4.018   2.970
  215SOL    HW1 1544   3.747   4.007   2.997
  215SOL    HW2 1545   3.620   3.936   2.923
  216SOL     OW 1546   3.144   0.633   5.414
  216SOL    HW1 1547   3.057   0.659   5.373
  216SOL    HW2 1548   3.159   0.685   5.498
  217SOL     OW 1549   0.014   1.801   5.151
  217SOL    HW1 1550   0.099   1.818   5.101
  217SOL    HW2 1551   0.027   1.825   5.248
  218SOL     OW 1552   2.926   4.275   5.620
  218SOL    HW1 1553   2.979   4.260   5.704
  218SOL    HW2 1554   2.903   4.371   5.612
  219SOL     OW 1555   2.846   5.790   6.506
  219SOL    HW1 1556   2.932   5.791   6.455
  219SOL    HW2 1557   2.851   5.858   6.580
  220SOL     OW 1558   1.324   5.299   0.192
  220SOL    HW1 1559   1.255   5.237   0.155
  220SOL    HW2 1560   1.390   5.322   0.121
  221SOL     OW 1561   5.853   2.730   4.825
  221SOL    HW1 1562   5.756   2.716   4.808
  221SOL    HW2 1563   5.891   2.791   4.756
  222SOL     OW 1564   1.928   0.086   4.595
  222SOL    HW1 1565   1.951   7.014   4.609
  222SOL    HW2 1566   1.973   0.120   4.512
  223SOL     OW 1567   5.617   4.692   2.851
  223SOL    HW1 1568   5.671   4.697   2.767
  223SOL    HW2 1569   5.528   4.650   2.831
  224SOL     OW 1570   5.103   2.812   2.805
  224SOL    HW1 1571   5.017   2.864   2.809
  224SOL    HW2 1572   5.094   2.728   2.858
  225SOL     OW 1573   5.235   6.333   1.478
  225SOL    HW1 1574   5.210   6.277   1.399
  225SOL    HW2 1575   5.236   6.276   1.560
  226SOL     OW 1576   0.899   5.905   2.508
  226SOL    HW1 1577   0.854   5.869   2.589
  226SOL    HW2 1578   0.834   5.958   2.454
  227SOL     OW 1579   1.251   3.484   3.184
  227SOL    HW1 1580   1.219   3.526   3.099
  227SOL    HW2 1581   1.176   3.433   3.226
  228SOL     OW 1582   3.758   5.794   2.746
  228SOL    HW1 1583   3.841   5.772   2.695
  228SOL    HW2 1584   3.778   5.796   2.844
  229SOL     OW 1585   6.535   6.026   3.019
  229SOL    HW1 1586   6.437   6.025   3.038
  229SOL    HW2 1587   6.551   6.016   2.921
  230SOL     OW 1588   0.735   4.678   5.825
  230SOL    HW1 1589   0.815   4.640   5.873
  230SOL    HW2 1590   0.675   4.723   5.892
  231SOL     OW 1591   0.476   2.065   6.619
  231SOL    HW1 1592   0.547   2.089   6.686
  231SOL    HW2 1593   0.430   1.981   6.649
  232SOL     OW 1594   1.249   4.103   5.698
  232SOL    HW1 1595   1.349   4.106   5.704
  232SOL    HW2 1596   1.211   4.085   5.789
  233SOL     OW 1597   3.420   0.305   6.839
  233SOL    HW1 1598   3.390   0.283   6.746
  233SOL    HW2 1599   3.504   0.256   6.860
  234SOL     OW 1600   2.042   4.958   6.459
  234SOL    HW1 1601   1.950   4.918   6.466
  234SOL    HW2 1602   2.078   4.975   6.550
  235SOL     OW 1603   3.862   3.731   5.897
  235SOL    HW1 1604   3.826   3.691   5.813
  235SOL    HW2 1605   3.844   3.829   5.898
  236SOL     OW 1606   6.911   1.387   6.229
  236SOL    HW1 1607   6.885   1.481   6.253
  236SOL    HW2 1608   6.862   1.358   6.147
  237SOL     OW 1609   6.752   6.576   2.135
  237SOL    HW1 1610   6.810   6.657   2.149
  237SOL    HW2 1611   6.784   6.501   2.193
  238SOL     OW 1612   0.109   2.403   2.613
  238SOL    HW1 1613   0.037   2.367   2.554
  238SOL    HW2 1614   0.137   2.333   2.679
  239SOL     OW 1615   5.967   4.909   0.422
  239SOL    HW1 1616   5.906   4.846   0.375
  239SOL    HW2 1617   5.921   4.997   0.435
  240SOL     OW 1618   7.004   2.129   4.775
  240SOL    HW1 1619   6.953   2.131   4.689
  240SOL    HW2 1620   7.000   2.038   4.815
  241SOL     OW 1621   6.011   1.977   4.955
  241SOL    HW1 1622   5.994   1.985   4.857
  241SOL    HW2 1623   6.105   1.943   4.970
  242SOL     OW 1624   2.872   2.256   4.233
  242SOL    HW1 1625   2.961   2.212   4.240
  242SOL    HW2 1626   2.831   2.234   4.144
  243SOL     OW 1627   5.125   0.979   6.960
  243SOL    HW1 1628   5.097   0.998   0.031
  243SOL    HW2 1629   5.222   0.956   6.958
  244SOL     OW 1630   0.448   1.961   6.305
  244SOL    HW1 1631   0.414   1.962   6.399
  244SOL    HW2 1632   0.392   2.022   6.248
  245SOL     OW 1633   5.290   2.311   4.037
  245SOL    HW1 1634   5.305   2.236   4.101
  245SOL    HW2 1635   5.251   2.390   4.085
  246SOL     OW 1636   5.203   3.099   4.765
  246SOL    HW1 1637   5.297   3.081   4.797
  246SOL    HW2 1638   5.179   3.032   4.695
  247SOL     OW 1639   3.174   0.567   2.814
  247SOL    HW1 1640   3.156   0.487   2.872
  247SOL    HW2 1641   3.228   0.634   2.864
  248SOL     OW 1642   0.394   2.419   2.786
  248SOL    HW1 1643   0.429   2.410   2.693
  248SOL    HW2 1644   0.433   2.502   2.828
  249SOL     OW 1645   2.537   5.687   5.286
  249SOL    HW1 1646   2.452   5.676   5.338
  249SOL    HW2 1647   2.531   5.634   5.202
  250SOL     OW 1648   5.225   2.459   0.187
  250SOL    HW1 1649   5.167   2.535   0.157
  250SOL    HW2 1650   5.225   2.454   0.287
  251SOL     OW 1651   2.129   0.829   1.219
  251SOL    HW1 1652   2.108   0.737   1.184
  251SOL    HW2 1653   2.064   0.894   1.180
  252SOL     OW 1654   0.118   2.212   0.402
  252SOL    HW1 1655   0.052   2.252   0.465
  252SOL    HW2 1656   0.200   2.183   0.452
  253SOL     OW 1657   2.370   4.118   6.291
  253SOL    HW1 1658   2.314   4.075   6.362
  253SOL    HW2 1659   2.318   4.194   6.250
  254SOL     OW 1660   5.130   3.795   6.210
  254SOL    HW1 1661   5.180   3.721   6.254
  254SOL    HW2 1662   5.166   3.883   6.242
  255SOL     OW 1663   4.758   1.816   2.176
  255SOL    HW1 1664   4.745   1.761   2.093
  255SOL    HW2 1665   4.819   1.768   2.238
  256SOL     OW 1666   0.303   6.250   1.485
  256SOL    HW1 1667   0.314   6.153   1.462
  256SOL    HW2 1668   0.390   6.297   1.469
  257SOL     OW 1669   2.896   6.033   5.990
  257SOL    HW1 1670   2.957   6.100   5.946
  257SOL    HW2 1671   2.923   5.941   5.963
  258SOL     OW 1672   4.113   5.309   4.562
  258SOL    HW1 1673   4.064   5.232   4.522
  258SOL    HW2 1674   4.047   5.376   4.596
  259SOL     OW 1675   0.701   1.767   2.333
  259SOL    HW1 1676   0.663   1.831   2.266
  259SOL    HW2 1677   0.799   1.787   2.346
  260SOL     OW 1678   6.545   6.638   5.324
  260SOL    HW1 1679   6.540   6.571   5.251
  260SOL    HW2 1680   6.632   6.630   5.371
  261SOL     OW 1681   0.354   0.670   4.141
  261SOL    HW1 1682   0.311   0.674   4.231
  261SOL    HW2 1683   0.384   0.577   4.122
  262SOL     OW 1684   1.609   5.659   1.411
  262SOL    HW1 1685   1.623   5.697   1.320
  262SOL    HW2 1686   1.511   5.657   1.431
  263SOL     OW 1687   0.503   4.122   4.595
  263SOL    HW1 1688   0.486   4.119   4.496
  263SOL    HW2 1689   0.584   4.178   4.612
  264SOL     OW 1690   3.121   4.497   0.565
  264SOL    HW1 1691   3.132   4.573   0.502
  264SOL    HW2 1692   3.147   4.412   0.520
  265SOL     OW 1693   4.242   5.205   3.600
  265SOL    HW1 1694   4.193   5.188   3.685
  265SOL    HW2 1695   4.255   5.303   3.587
  266SOL     OW 1696   4.165   3.335   6.990
  266SOL    HW1 1697   4.203   3.318   6.899
  266SOL    HW2 1698   4.115   3.254   7.021
  267SOL     OW 1699   2.789   2.638   5.921
  267SOL    HW1 1700   2.851   2.589   5.982
  267SOL    HW2 1701   2.694   2.613   5.943
  268SOL     OW 1702   1.950   4.107   3.800
  268SOL    HW1 1703   1.997   4.171   3.860
  268SOL    HW2 1704   1.924   4.154   3.715
  269SOL     OW 1705   3.520   1.952   5.656
  269SOL    HW1 1706   3.563   1.875   5.608
  269SOL    HW2 1707   3.589   1.999   5.711
  270SOL     OW 1708   5.510   6.012   4.851
  270SOL    HW1 1709   5.547   6.048   4.936
  270SOL    HW2 1710   5.481   6.087   4.792
  271SOL     OW 1711   2.517   1.782   0.262
  271SOL    HW1 1712   2.546   1.700   0.213
  271SOL    HW2 1713   2.534   1.770   0.360
  272SOL     OW 1714   4.947   4.788   0.240
  272SOL    HW1 1715   4.952   4.730   0.321
  272SOL    HW2 1716   4.916   4.733   0.162
  273SOL     OW 1717   1.346   5.609   4.263
  273SOL    HW1 1718   1.344   5.632   4.361
  273SOL    HW2 1719   1.402   5.528   4.249
  274SOL     OW 1720   5.458   2.386   2.598
  274SOL    HW1 1721   5.526   2.363   2.529
  274SOL    HW2 1722   5.482   2.473   2.641
  275SOL     OW 1723   6.080   5.531   5.829
  275SOL    HW1 1724   6.123   5.441   5.833
  275SOL    HW2 1725   6.021   5.543   5.909
  276SOL     OW 1726   0.910   0.419   4.554
  276SOL    HW1 1727   1.003   0.398   4.586
  276SOL    HW2 1728   0.844   0.361   4.603
  277SOL     OW 1729   3.464   2.843   5.554
  277SOL    HW1 1730   3.400   2.768   5.572
  277SOL    HW2 1731   3.553   2.821   5.594
  278SOL     OW 1732   5.517   4.642   2.472
  278SOL    HW1 1733   5.473   4.653   2.562
  278SOL    HW2 1734   5.494   4.720   2.414
  279SOL     OW 1735   0.837   4.449   3.784
  279SOL    HW1 1736   0.873   4.356   3.778
  279SOL    HW2 1737   0.794   4.462   3.873
  280SOL     OW 1738   4.709   1.442   3.852
  280SOL    HW1 1739   4.649   1.389   3.792
  280SOL    HW2 1740   4.657   1.477   3.929
  281SOL     OW 1741   5.228   5.352   5.196
  281SOL    HW1 1742   5.215   5.429   5.134
  281SOL    HW2 1743   5.307   5.369   5.254
  282SOL     OW 1744   0.412   2.500   0.124
  282SOL    HW1 1745   0.408   2.592   0.163
  282SOL    HW2 1746   0.323   2.455   0.137
  283SOL     OW 1747   5.957   4.035   2.622
  283SOL    HW1 1748   5.927   3.949   2.664
  283SOL    HW2 1749   5.899   4.055   2.543
  284SOL     OW 1750   5.995   6.575   2.939
  284SOL    HW1 1751   5.956   6.565   2.847
  284SOL    HW2 1752   5.958   6.658   2.981
  285SOL     OW 1753   4.096   5.766   6.126
  285SOL    HW1 1754   4.189   5.729   6.129
  285SOL    HW2 1755   4.100   5.864   6.109
  286SOL     OW 1756   3.731   4.834   5.588
  286SOL    HW1 1757   3.800   4.897   5.553
  286SOL    HW2 1758   3.660   4.820   5.518
  287SOL     OW 1759   3.363   6.313   0.433
  287SOL    HW1 1760   3.283   6.254   0.433
  287SOL    HW2 1761   3.404   6.314   0.341
  288SOL     OW 1762   4.723   0.837   0.119
  288SOL    HW1 1763   4.803   0.779   0.103
  288SOL    HW2 1764   4.752   0.923   0.160
  289SOL     OW 1765   5.001   5.124   4.330
  289SOL    HW1 1766   5.038   5.214   4.308
  289SOL    HW2 1767   4.904   5.131   4.352
  290SOL     OW 1768   3.643   0.658   4.901
  290SOL    HW1 1769   3.733   0.682   4.938
  290SOL    HW2 1770   3.615   0.569   4.938
  291SOL     OW 1771   6.020   0.791   4.763
  291SOL    HW1 1772   6.035   0.694   4.748
  291SOL    HW2 1773   6.052   0.815   4.855
  292SOL     OW 1774   3.351   0.538   3.490
  292SOL    HW1 1775   3.295   0.462   3.526
  292SOL    HW2 1776   3.377   0.518   3.396
  293SOL     OW 1777   5.429   0.838   2.947
  293SOL    HW1 1778   5.487   0.869   2.872
  293SOL    HW2 1779   5.348   0.896   2.953
  294SOL     OW 1780   6.823   1.434   0.017
  294SOL    HW1 1781   6.825   1.533   0.004
  294SOL    HW2 1782   6.822   1.388   6.952
  295SOL     OW 1783   0.178   0.361   5.170
  295SOL    HW1 1784   0.178   0.393   5.075
  295SOL    HW2 1785   0.227   0.427   5.227
  296SOL     OW 1786   0.759   1.933   1.390
  296SOL    HW1 1787   0.857   1.927   1.409
  296SOL    HW2 1788   0.739   1.885   1.304
  297SOL     OW 1789   5.399   3.357   3.389
  297SOL    HW1 1790   5.443   3.311   3.312
  297SOL    HW2 1791   5.468   3.384   3.456
  298SOL     OW 1792   4.541   0.176   5.236
  298SOL    HW1 1793   4.527   0.230   5.319
  298SOL    HW2 1794   4.469   0.107   5.228
  299SOL     OW 1795   0.684   1.358   6.192
  299SOL    HW1 1796   0.732   1.273   6.215
  299SOL    HW2 1797   0.646   1.351   6.100
  300SOL     OW 1798   4.172   6.105   4.099
  300SOL    HW1 1799   4.180   6.016   4.053
  300SOL    HW2 1800   4.151   6.091   4.195
  301SOL     OW 1801   6.868   6.154   5.266
  301SOL    HW1 1802   6.812   6.187   5.190
  301SOL    HW2 1803   6.947   6.214   5.278
  302SOL     OW 1804   0.473   6.747   2.167
  302SOL    HW1 1805   0.536   6.698   2.228
  302SOL    HW2 1806   0.494   6.723   2.072
  303SOL     OW 1807   5.252   5.667   2.594
  303SOL    HW1 1808   5.284   5.705   2.507
  303SOL    HW2 1809   5.171   5.611   2.578
  304SOL     OW 1810   1.215   0.324   3.712
  304SOL    HW1 1811   1.266   0.367   3.638
  304SOL    HW2 1812   1.188   0.393   3.779
  305SOL     OW 1813   2.360   1.783   1.496
  305SOL    HW1 1814   2.341   1.733   1.581
  305SOL    HW2 1815   2.274   1.811   1.454
  306SOL     OW 1816   0.379   0.158   2.370
  306SOL    HW1 1817   0.436   0.086   2.330
  306SOL    HW2 1818   0.306   0.182   2.306
  307SOL     OW 1819   3.783   4.074   4.004
  307SOL    HW1 1820   3.737   4.112   4.085
  307SOL    HW2 1821   3.850   4.006   4.034
  308SOL     OW 1822   6.323   1.926   2.349
  308SOL    HW1 1823   6.315   1.888   2.257
  308SOL    HW2 1824   6.406   1.980   2.357
  309SOL     OW 1825   1.886   4.738   0.483
  309SOL    HW1 1826   1.843   4.785   0.560
  309SOL    HW2 1827   1.984   4.732   0.498
  310SOL     OW 1828   4.806   6.692   5.248
  310SOL    HW1 1829   4.862   6.770   5.223
  310SOL    HW2 1830   4.738   6.676   5.176
  311SOL     OW 1831   1.796   6.468   2.234
  311SOL    HW1 1832   1.742   6.396   2.276
  311SOL    HW2 1833   1.740   6.516   2.167
  312SOL     OW 1834   3.365   0.561   4.116
  312SOL    HW1 1835   3.386   0.587   4.021
  312SOL    HW2 1836   3.301   0.484   4.116
  313SOL     OW 1837   3.159   3.085   3.011
  313SOL    HW1 1838   3.100   3.141   3.068
  313SOL    HW2 1839   3.190   3.005   3.063
  314SOL     OW 1840   2.820   5.170   6.205
  314SOL    HW1 1841   2.880   5.201   6.280
  314SOL    HW2 1842   2.743   5.233   6.195
  315SOL     OW 1843   6.258   0.544   4.667
  315SOL    HW1 1844   6.168   0.543   4.710
  315SOL    HW2 1845   6.282   0.452   4.637
  316SOL     OW 1846   4.169   0.968   5.567
  316SOL    HW1 1847   4.195   0.969   5.663
  316SOL    HW2 1848   4.099   0.898   5.552
  317SOL     OW 1849   0.994   2.137   1.365
  317SOL    HW1 1850   0.934   2.198   1.416
  317SOL    HW2 1851   1.011   2.176   1.274
  318SOL     OW 1852   0.946   0.570   3.089
  318SOL    HW1 1853   0.914   0.506   3.019
  318SOL    HW2 1854   1.007   0.638   3.047
  319SOL     OW 1855   1.315   0.936   2.175
  319SOL    HW1 1856   1.238   0.897   2.225
  319SOL    HW2 1857   1.393   0.947   2.237
  320SOL     OW 1858   5.122   1.341   0.373
  320SOL    HW1 1859   5.025   1.356   0.355
  320SOL    HW2 1860   5.137   1.248   0.405
  321SOL     OW 1861   4.159   3.371   1.118
  321SOL    HW1 1862   4.132   3.279   1.088
  321SOL    HW2 1863   4.253   3.368   1.153
  322SOL     OW 1864   2.996   1.753   0.050
  322SOL    HW1 1865   2.912   1.734   7.023
  322SOL    HW2 1866   3.061   1.678   0.036
  323SOL     OW 1867   1.241   4.063   2.000
  323SOL    HW1 1868   1.336   4.080   1.974
  323SOL    HW2 1869   1.239   4.004   2.081
  324SOL     OW 1870   6.387   0.654   3.970
  324SOL    HW1 1871   6.482   0.629   3.986
  324SOL    HW2 1872   6.337   0.573   3.938
  325SOL     OW 1873   5.990   3.504   0.991
  325SOL    HW1 1874   6.055   3.535   1.060
  325SOL    HW2 1875   5.951   3.416   1.020
  326SOL     OW 1876   0.009   5.448   6.802
  326SOL    HW1 1877   7.011   5.477   6.896
  326SOL    HW2 1878   0.101   5.478   6.778
  327SOL     OW 1879   4.578   6.119   6.464
  327SOL    HW1 1880   4.654   6.088   6.521
  327SOL    HW2 1881   4.525   6.188   6.514
  328SOL     OW 1882   1.658   4.505   3.190
  328SOL    HW1 1883   1.749   4.545   3.208
  328SOL    HW2 1884   1.641   4.505   3.091
  329SOL     OW 1885   3.398   2.840   2.181
  329SOL    HW1 1886   3.323   2.906   2.185
  329SOL    HW2 1887   3.397   2.791   2.094
  330SOL     OW 1888   2.480   3.493   6.356
  330SOL    HW1 1889   2.453   3.513   6.261
  330SOL    HW2 1890   2.399   3.485   6.413
  331SOL     OW 1891   4.957   5.502   3.827
  331SOL    HW1 1892   4.868   5.512   3.872
  331SOL    HW2 1893   5.029   5.500   3.896
  332SOL     OW 1894   5.770   1.524   2.657
  332SOL    HW1 1895   5.697   1.488   2.599
  332SOL    HW2 1896   5.843   1.456   2.667
  333SOL     OW 1897   3.957   6.242   3.634
  333SOL    HW1 1898   3.876   6.301   3.626
  333SOL    HW2 1899   3.956   6.175   3.560
  334SOL     OW 1900   3.609   3.382   4.096
  334SOL    HW1 1901   3.573   3.327   4.171
  334SOL    HW2 1902   3.647   3.467   4.133
  335SOL     OW 1903   4.302   1.161   0.636
  335SOL    HW1 1904   4.258   1.078   0.600
  335SOL    HW2 1905   4.273   1.177   0.730
  336SOL     OW 1906   3.880   1.841   4.846
  336SOL    HW1 1907   3.809   1.847   4.916
  336SOL    HW2 1908   3.916   1.932   4.826
  337SOL     OW 1909   0.136   1.522   5.492
  337SOL    HW1 1910   0.074   1.552   5.564
  337SOL    HW2 1911   0.126   1.423   5.477
  338SOL     OW 1912   4.943   1.055   1.853
  338SOL    HW1 1913   5.027   1.009   1.824
  338SOL    HW2 1914   4.884   1.070   1.773
  339SOL     OW 1915   4.094   4.920   6.147
  339SOL    HW1 1916   3.997   4.942   6.162
  339SOL    HW2 1917   4.101   4.842   6.086
  340SOL     OW 1918   4.855   3.077   4.958
  340SOL    HW1 1919   4.815   3.130   5.033
  340SOL    HW2 1920   4.911   3.138   4.901
  341SOL     OW 1921   0.110   0.412   1.703
  341SOL    HW1 1922   0.026   0.401   1.650
  341SOL    HW2 1923   0.189   0.416   1.642
  342SOL     OW 1924   4.607   1.139   1.914
  342SOL    HW1 1925   4.553   1.085   1.979
  342SOL    HW2 1926   4.640   1.222   1.958
  343SOL     OW 1927   5.884   6.841   1.515
  343SOL    HW1 1928   5.827   6.832   1.597
  343SOL    HW2 1929   5.830   6.820   1.434
  344SOL     OW 1930   6.773   2.697   1.459
  344SOL    HW1 1931   6.775   2.607   1.502
  344SOL    HW2 1932   6.849   2.705   1.394
  345SOL     OW 1933   0.105   2.413   4.572
  345SOL    HW1 1934   0.106   2.510   4.546
  345SOL    HW2 1935   0.160   2.400   4.655
  346SOL     OW 1936   1.750   5.716   2.628
  346SOL    HW1 1937   1.787   5.629   2.595
  346SOL    HW2 1938   1.807   5.750   2.702
  347SOL     OW 1939   2.362   4.538   1.453
  347SOL    HW1 1940   2.459   4.533   1.432
  347SOL    HW2 1941   2.349   4.540   1.553
  348SOL     OW 1942   5.229   4.798   1.643
  348SOL    HW1 1943   5.156   4.840   1.588
  348SOL    HW2 1944   5.315   4.845   1.625
  349SOL     OW 1945   5.975   5.109   0.846
  349SOL    HW1 1946   5.902   5.087   0.910
  349SOL    HW2 1947   5.941   5.178   0.781
  350SOL     OW 1948   2.799   1.432   0.958
  350SOL    HW1 1949   2.807   1.469   0.866
  350SOL    HW2 1950   2.753   1.498   1.017
  351SOL     OW 1951   3.667   4.276   1.429
  351SOL    HW1 1952   3.717   4.308   1.510
  351SOL    HW2 1953   3.682   4.340   1.353
  352SOL     OW 1954   4.071   6.451   2.383
  352SOL    HW1 1955   4.148   6.410   2.431
  352SOL    HW2 1956   4.014   6.501   2.448
  353SOL     OW 1957   2.065   6.542   0.109
  353SOL    HW1 1958   2.083   6.584   0.198
  353SOL    HW2 1959   1.970   6.512   0.104
  354SOL     OW 1960   1.241   2.155   0.765
  354SOL    HW1 1961   1.238   2.139   0.666
  354SOL    HW2 1962   1.154   2.192   0.796
  355SOL     OW 1963   0.105   2.996   3.280
  355SOL    HW1 1964   0.142   3.024   3.191
  355SOL    HW2 1965   0.124   2.899   3.294
  356SOL     OW 1966   2.646   0.784   5.613
  356SOL    HW1 1967   2.724   0.722   5.621
  356SOL    HW2 1968   2.602   0.794   5.702
  357SOL     OW 1969   5.290   5.997   4.219
  357SOL    HW1 1970   5.372   6.024   4.270
  357SOL    HW2 1971   5.276   5.899   4.228
  358SOL     OW 1972   3.207   6.230   0.133
  358SOL    HW1 1973   3.245   6.155   0.079
  358SOL    HW2 1974   3.210   6.315   0.081
  359SOL     OW 1975   2.146   2.327   1.372
  359SOL    HW1 1976   2.159   2.360   1.279
  359SOL    HW2 1977   2.235   2.314   1.416
  360SOL     OW 1978   2.157   4.129   3.381
  360SOL    HW1 1979   2.238   4.182   3.407
  360SOL    HW2 1980   2.151   4.048   3.439
  361SOL     OW 1981   0.199   2.204   2.759
  361SOL    HW1 1982   0.276   2.262   2.788
  361SOL    HW2 1983   0.235   2.121   2.716
  362SOL     OW 1984   3.988   3.634   2.281
  362SOL    HW1 1985   4.020   3.694   2.207
  362SOL    HW2 1986   3.973   3.687   2.363
  363SOL     OW 1987   4.586   4.835   0.619
  363SOL    HW1 1988   4.650   4.904   0.655
  363SOL    HW2 1989   4.493   4.860   0.643
  364SOL     OW 1990   1.225   0.405   0.176
  364SOL    HW1 1991   1.166   0.446   0.246
  364SOL    HW2 1992   1.241   0.470   0.102
  365SOL     OW 1993   5.565   0.539   3.771
  365SOL    HW1 1994   5.648   0.536   3.714
  365SOL    HW2 1995   5.504   0.610   3.736
  366SOL     OW 1996   5.090   1.367   6.969
  366SOL    HW1 1997   5.006   1.316   6.983
  366SOL    HW2 1998   5.087   1.414   6.880
  367SOL     OW 1999   5.393   0.887   6.953
  367SOL    HW1 2000   5.432   0.853   0.014
  367SOL    HW2 2001   5.443   0.968   6.923
  368SOL     OW 2002   2.753   1.775   6.091
  368SOL    HW1 2003   2.708   1.704   6.145
  368SOL    HW2 2004   2.707   1.862   6.105
  369SOL     OW 2005   4.889   4.655   0.470
  369SOL    HW1 2006   4.805   4.601   0.465
  369SOL    HW2 2007   4.945   4.624   0.547
  370SOL     OW 2008   1.943   2.354   3.210
  370SOL    HW1 2009   1.944   2.255   3.193
  370SOL    HW2 2010   1.956   2.403   3.124
  371SOL     OW 2011   2.401   5.799   6.989
  371SOL    HW1 2012   2.459   5.876   6.965
  371SOL    HW2 2013   2.329   5.789   6.920
  372SOL     OW 2014   2.287   6.104   6.245
  372SOL    HW1 2015   2.351   6.181   6.236
  372SOL    HW2 2016   2.236   6.113   6.330
  373SOL     OW 2017   6.168   4.722   3.022
  373SOL    HW1 2018   6.184   4.668   3.105
  373SOL    HW2 2019   6.164   4.660   2.943
  374SOL     OW 2020   2.799   2.296   2.302
  374SOL    HW1 2021   2.736   2.367   2.333
  374SOL    HW2 2022   2.822   2.312   2.206
  375SOL     OW 2023   0.494   6.078   3.965
  375SOL    HW1 2024   0.504   6.113   4.058
  375SOL    HW2 2025   0.422   6.130   3.918
  376SOL     OW 2026   4.339   0.207   3.701
  376SOL    HW1 2027   4.430   0.176   3.676
  376SOL    HW2 2028   4.345   0.297   3.745
  377SOL     OW 2029   2.835   2.920   6.351
  377SOL    HW1 2030   2.933   2.933   6.333
  377SOL    HW2 2031   2.797   2.856   6.284
  378SOL     OW 2032   4.259   1.109   2.259
  378SOL    HW1 2033   4.285   1.203   2.236
  378SOL    HW2 2034   4.242   1.103   2.357
  379SOL     OW 2035   3.998   2.946   6.664
  379SOL    HW1 2036   3.989   3.046   6.674
  379SOL    HW2 2037   3.985   2.922   6.568
  380SOL     OW 2038   4.723   1.944   0.658
  380SOL    HW1 2039   4.789   1.883   0.702
  380SOL    HW2 2040   4.657   1.890   0.606
  381SOL     OW 2041   1.653   3.879   2.594
  381SOL    HW1 2042   1.697   3.888   2.505
  381SOL    HW2 2043   1.723   3.869   2.665
  382SOL     OW 2044   5.797   6.887   0.516
  382SOL    HW1 2045   5.762   6.960   0.575
  382SOL    HW2 2046   5.727   6.816   0.506
  383SOL     OW 2047   4.874   3.255   0.597
  383SOL    HW1 2048   4.820   3.179   0.561
  383SOL    HW2 2049   4.948   3.219   0.654
  384SOL     OW 2050   0.771   2.997   5.129
  384SOL    HW1 2051   0.869   3.006   5.115
  384SOL    HW2 2052   0.753   2.937   5.206
  385SOL     OW 2053   4.322   1.891   6.823
  385SOL    HW1 2054   4.368   1.979   6.828
  385SOL    HW2 2055   4.235   1.896   6.872
  386SOL     OW 2056   4.182   6.533   5.159
  386SOL    HW1 2057   4.277   6.511   5.181
  386SOL    HW2 2058   4.179   6.614   5.101
  387SOL     OW 2059   2.234   6.393   4.111
  387SOL    HW1 2060   2.206   6.324   4.178
  387SOL    HW2 2061   2.288   6.464   4.156
  388SOL     OW 2062   1.538   4.941   6.063
  388SOL    HW1 2063   1.637   4.923   6.066
  388SOL    HW2 2064   1.494   4.872   6.005
  389SOL     OW 2065   2.755   3.369   0.754
  389SOL    HW1 2066   2.751   3.317   0.669
  389SOL    HW2 2067   2.807   3.318   0.822
  390SOL     OW 2068   2.633   1.382   4.509
  390SOL    HW1 2069   2.572   1.428   4.574
  390SOL    HW2 2070   2.660   1.446   4.437
  391SOL     OW 2071   0.822   2.486   7.002
  391SOL    HW1 2072   0.916   2.515   7.021
  391SOL    HW2 2073   0.771   2.563   6.964
  392SOL     OW 2074   3.192   5.520   4.816
  392SOL    HW1 2075   3.226   5.614   4.819
  392SOL    HW2 2076   3.237   5.471   4.741
  393SOL     OW 2077   6.020   3.889   5.628
  393SOL    HW1 2078   5.933   3.841   5.640
  393SOL    HW2 2079   6.052   3.922   5.717
  394SOL     OW 2080   1.955   1.633   6.029
  394SOL    HW1 2081   1.926   1.581   6.109
  394SOL    HW2 2082   2.020   1.704   6.057
  395SOL     OW 2083   6.943   2.943   1.007
  395SOL    HW1 2084   0.008   2.898   1.020
  395SOL    HW2 2085   6.880   2.879   0.961
  396SOL     OW 2086   3.366   2.599   5.853
  396SOL    HW1 2087   3.370   2.500   5.856
  396SOL    HW2 2088   3.321   2.628   5.769
  397SOL     OW 2089   4.469   1.103   6.776
  397SOL    HW1 2090   4.536   1.036   6.806
  397SOL    HW2 2091   4.419   1.138   6.856
  398SOL     OW 2092   0.488   4.237   2.330
  398SOL    HW1 2093   0.558   4.309   2.329
  398SOL    HW2 2094   0.415   4.263   2.394
  399SOL     OW 2095   5.035   5.394   1.866
  399SOL    HW1 2096   4.975   5.458   1.914
  399SOL    HW2 2097   5.084   5.441   1.793
  400SOL     OW 2098   2.192   4.727   4.799
  400SOL    HW1 2099   2.180   4.628   4.807
  400SOL    HW2 2100   2.126   4.773   4.857
  401SOL     OW 2101   5.909   1.540   1.282
  401SOL    HW1 2102   5.812   1.516   1.282
  401SOL    HW2 2103   5.964   1.457   1.281
  402SOL     OW 2104   0.088   4.911   0.889
  402SOL    HW1 2105   0.002   4.959   0.871
  402SOL    HW2 2106   0.147   4.917   0.809
  403SOL     OW 2107   4.525   4.857   0.947
  403SOL    HW1 2108   4.501   4.792   1.020
  403SOL    HW2 2109   4.483   4.827   0.861
  404SOL     OW 2110   0.078   5.776   4.877
  404SOL    HW1 2111   0.066   5.874   4.892
  404SOL    HW2 2112   0.073   5.728   4.964
  405SOL     OW 2113   1.307   2.304   1.401
  405SOL    HW1 2114   1.375   2.363   1.445
  405SOL    HW2 2115   1.242   2.360   1.350
  406SOL     OW 2116   1.010   2.756   3.553
  406SOL    HW1 2117   1.074   2.693   3.596
  406SOL    HW2 2118   1.050   2.794   3.470
  407SOL     OW 2119   3.722   2.156   4.253
  407SOL    HW1 2120   3.635   2.152   4.301
  407SOL    HW2 2121   3.784   2.219   4.300
  408SOL     OW 2122   2.526   0.461   3.708
  408SOL    HW1 2123   2.598   0.467   3.777
  408SOL    HW2 2124   2.542   0.382   3.649
  409SOL     OW 2125   6.793   3.920   4.038
  409SOL    HW1 2126   6.821   3.827   4.060
  409SOL    HW2 2127   6.746   3.960   4.117
  410SOL     OW 2128   3.046   6.586   6.098
  410SOL    HW1 2129   3.022   6.681   6.074
  410SOL    HW2 2130   3.027   6.571   6.195
  411SOL     OW 2131   0.616   4.199   5.494
  411SOL    HW1 2132   0.632   4.255   5.413
  411SOL    HW2 2133   0.550   4.245   5.554
  412SOL     OW 2134   4.241   6.618   2.734
  412SOL    HW1 2135   4.273   6.682   2.664
  412SOL    HW2 2136   4.142   6.607   2.728
  413SOL     OW 2137   2.309   1.147   2.597
  413SOL    HW1 2138   2.293   1.065   2.653
  413SOL    HW2 2139   2.226   1.170   2.548
  414SOL     OW 2140   4.991   4.874   0.790
  414SOL    HW1 2141   4.938   4.860   0.874
  414SOL    HW2 2142   5.086   4.895   0.814
  415SOL     OW 2143   3.880   6.678   1.966
  415SOL    HW1 2144   3.936   6.631   2.033
  415SOL    HW2 2145   3.935   6.746   1.917
  416SOL     OW 2146   3.797   5.906   0.325
  416SOL    HW1 2147   3.747   5.869   0.403
  416SOL    HW2 2148   3.798   5.839   0.251
  417SOL     OW 2149   5.254   5.037   1.163
  417SOL    HW1 2150   5.322   4.974   1.200
  417SOL    HW2 2151   5.207   5.084   1.238
  418SOL     OW 2152   6.286   4.823   6.454
  418SOL    HW1 2153   6.278   4.857   6.361
  418SOL    HW2 2154   6.215   4.865   6.511
  419SOL     OW 2155   5.266   5.886   0.366
  419SOL    HW1 2156   5.219   5.800   0.383
  419SOL    HW2 2157   5.317   5.913   0.448
  420SOL     OW 2158   4.889   4.085   6.770
  420SOL    HW1 2159   4.888   4.159   6.703
  420SOL    HW2 2160   4.859   4.120   6.859
  421SOL     OW 2161   1.687   6.685   6.619
  421SOL    HW1 2162   1.780   6.660   6.645
  421SOL    HW2 2163   1.631   6.697   6.702
  422SOL     OW 2164   6.076   3.882   0.110
  422SOL    HW1 2165   6.076   3.818   0.032
  422SOL    HW2 2166   6.128   3.842   0.185
  423SOL     OW 2167   1.118   3.574   6.305
  423SOL    HW1 2168   1.184   3.578   6.230
  423SOL    HW2 2169   1.154   3.516   6.378
  424SOL     OW 2170   1.611   4.366   6.921
  424SOL    HW1 2171   1.686   4.301   6.919
  424SOL    HW2 2172   1.607   4.416   6.834
  425SOL     OW 2173   3.394   0.216   0.076
  425SOL    HW1 2174   3.416   0.264   7.014
  425SOL    HW2 2175   3.297   0.229   0.097
  426SOL     OW 2176   6.972   3.946   6.094
  426SOL    HW1 2177   6.890   3.940   6.037
  426SOL    HW2 2178   0.027   3.969   6.036
  427SOL     OW 2179   4.368   3.529   0.472
  427SOL    HW1 2180   4.280   3.533   0.519
  427SOL    HW2 2181   4.442   3.531   0.539
  428SOL     OW 2182   3.948   1.486   5.500
  428SOL    HW1 2183   4.034   1.479   5.550
  428SOL    HW2 2184   3.964   1.529   5.411
  429SOL     OW 2185   2.843   6.845   0.413
  429SOL    HW1 2186   2.752   6.837   0.453
  429SOL    HW2 2187   2.882   6.933   0.436
  430SOL     OW 2188   3.043   0.286   4.251
  430SOL    HW1 2189   2.954   0.260   4.214
  430SOL    HW2 2190   3.113   0.275   4.180
  431SOL     OW 2191   3.500   0.900   0.002
  431SOL    HW1 2192   3.549   0.985   0.024
  431SOL    HW2 2193   3.543   0.856   6.947
  432SOL     OW 2194   6.888   1.050   1.136
  432SOL    HW1 2195   6.988   1.045   1.137
  432SOL    HW2 2196   6.859   1.118   1.069
  433SOL     OW 2197   2.805   6.034   4.962
  433SOL    HW1 2198   2.873   6.000   4.897
  433SOL    HW2 2199   2.841   6.115   5.008
  434SOL     OW 2200   6.168   3.564   1.212
  434SOL    HW1 2201   6.178   3.470   1.244
  434SOL    HW2 2202   6.117   3.617   1.280
  435SOL     OW 2203   3.709   3.704   0.864
  435SOL    HW1 2204   3.699   3.613   0.903
  435SOL    HW2 2205   3.715   3.772   0.938
  436SOL     OW 2206   3.129   0.808   0.478
  436SOL    HW1 2207   3.096   0.764   0.394
  436SOL    HW2 2208   3.088   0.763   0.557
  437SOL     OW 2209   6.571   0.009   5.953
  437SOL    HW1 2210   6.552   0.070   6.030
  437SOL    HW2 2211   6.668   7.009   5.952
  438SOL     OW 2212   1.737   3.493   1.101
  438SOL    HW1 2213   1.697   3.421   1.044
  438SOL    HW2 2214   1.835   3.476   1.112
  439SOL     OW 2215   6.175   4.674   2.041
  439SOL    HW1 2216   6.272   4.699   2.035
  439SOL    HW2 2217   6.129   4.735   2.106
  440SOL     OW 2218   1.746   2.944   3.111
  440SOL    HW1 2219   1.774   2.989   3.196
  440SOL    HW2 2220   1.646   2.935   3.109
  441SOL     OW 2221   0.690   0.874   3.080
  441SOL    HW1 2222   0.727   0.783   3.099
  441SOL    HW2 2223   0.727   0.909   2.994
  442SOL     OW 2224   0.333   5.045   6.422
  442SOL    HW1 2225   0.317   5.119   6.356
  442SOL    HW2 2226   0.246   5.019   6.465
  443SOL     OW 2227   0.357   4.308   5.509
  443SOL    HW1 2228   0.347   4.407   5.493
  443SOL    HW2 2229   0.373   4.262   5.422
  444SOL     OW 2230   4.793   2.887   6.346
  444SOL    HW1 2231   4.806   2.842   6.434
  444SOL    HW2 2232   4.764   2.981   6.360
  445SOL     OW 2233   1.844   3.887   3.529
  445SOL    HW1 2234   1.943   3.883   3.513
  445SOL    HW2 2235   1.814   3.804   3.574
  446SOL     OW 2236   2.939   5.158   4.249
  446SOL    HW1 2237   2.921   5.070   4.293
  446SOL    HW2 2238   2.868   5.224   4.274
  447SOL     OW 2239   6.851   6.319   0.796
  447SOL    HW1 2240   6.821   6.224   0.788
  447SOL    HW2 2241   6.949   6.325   0.773
  448SOL     OW 2242   4.120   0.122   6.199
  448SOL    HW1 2243   4.092   0.109   6.103
  448SOL    HW2 2244   4.184   0.198   6.205
  449SOL     OW 2245   5.045   0.222   4.269
  449SOL    HW1 2246   5.006   0.230   4.177
  449SOL    HW2 2247   5.035   0.308   4.318
  450SOL     OW 2248   6.590   6.473   3.131
  450SOL    HW1 2249   6.581   6.560   3.179
  450SOL    HW2 2250   6.656   6.483   3.057
  451SOL     OW 2251   6.391   3.101   3.806
  451SOL    HW1 2252   6.435   3.071   3.890
  451SOL    HW2 2253   6.409   3.198   3.791
  452SOL     OW 2254   6.763   5.320   5.782
  452SOL    HW1 2255   6.806   5.232   5.800
  452SOL    HW2 2256   6.830   5.393   5.795
  453SOL     OW 2257   3.255   1.865   5.677
  453SOL    HW1 2258   3.226   1.849   5.772
  453SOL    HW2 2259   3.352   1.886   5.676
  454SOL     OW 2260   1.021   6.239   0.613
  454SOL    HW1 2261   1.113   6.251   0.577
  454SOL    HW2 2262   1.021   6.261   0.711
  455SOL     OW 2263   5.268   0.868   4.771
  455SOL    HW1 2264   5.185   0.881   4.826
  455SOL    HW2 2265   5.286   0.771   4.760
  456SOL     OW 2266   4.114   5.245   0.067
  456SOL    HW1 2267   4.075   5.162   0.108
  456SOL    HW2 2268   4.061   5.271   7.010
  457SOL     OW 2269   0.810   4.691   1.589
  457SOL    HW1 2270   0.784   4.787   1.605
  457SOL    HW2 2271   0.904   4.677   1.621
  458SOL     OW 2272   0.486   6.307   5.218
  458SOL    HW1 2273   0.496   6.351   5.308
  458SOL    HW2 2274   0.442   6.371   5.155
  459SOL     OW 2275   1.961   0.844   3.374
  459SOL    HW1 2276   1.952   0.804   3.283
  459SOL    HW2 2277   1.913   0.932   3.377
  460SOL     OW 2278   6.570   2.146   3.926
  460SOL    HW1 2279   6.528   2.220   3.978
  460SOL    HW2 2280   6.565   2.061   3.980
  461SOL     OW 2281   5.484   5.562   5.548
  461SOL    HW1 2282   5.476   5.651   5.594
  461SOL    HW2 2283   5.562   5.564   5.485
  462SOL     OW 2284   2.586   1.957   6.933
  462SOL    HW1 2285   2.625   1.886   6.874
  462SOL    HW2 2286   2.648   1.974   7.010
  463SOL     OW 2287   6.753   5.835   2.006
  463SOL    HW1 2288   6.753   5.932   1.981
  463SOL    HW2 2289   6.836   5.791   1.971
  464SOL     OW 2290   1.814   1.633   5.793
  464SOL    HW1 2291   1.726   1.672   5.817
  464SOL    HW2 2292   1.875   1.637   5.872
  465SOL     OW 2293   0.263   3.121   5.770
  465SOL    HW1 2294   0.202   3.094   5.695
  465SOL    HW2 2295   0.333   3.183   5.736
  466SOL     OW 2296   2.831   0.822   3.348
  466SOL    HW1 2297   2.845   0.883   3.426
  466SOL    HW2 2298   2.852   0.871   3.264
  467SOL     OW 2299   1.686   2.015   5.411
  467SOL    HW1 2300   1.717   1.961   5.489
  467SOL    HW2 2301   1.708   1.968   5.326
  468SOL     OW 2302   3.224   3.584   2.386
  468SOL    HW1 2303   3.301   3.626   2.338
  468SOL    HW2 2304   3.145   3.644   2.384
  469SOL     OW 2305   3.325   5.776   0.337
  469SOL    HW1 2306   3.380   5.695   0.317
  469SOL    HW2 2307   3.234   5.766   0.296
  470SOL     OW 2308   4.257   6.826   2.925
  470SOL    HW1 2309   4.284   6.754   2.861
  470SOL    HW2 2310   4.324   6.900   2.922
  471SOL     OW 2311   2.914   1.958   4.349
  471SOL    HW1 2312   2.977   2.034   4.331
  471SOL    HW2 2313   2.963   1.872   4.345
  472SOL     OW 2314   4.124   4.361   5.373
  472SOL    HW1 2315   4.059   4.291   5.345
  472SOL    HW2 2316   4.193   4.373   5.301
  473SOL     OW 2317   1.139   4.100   3.789
  473SOL    HW1 2318   1.168   4.145   3.704
  473SOL    HW2 2319   1.040   4.110   3.800
  474SOL     OW 2320   5.199   4.527   5.093
  474SOL    HW1 2321   5.113   4.478   5.078
  474SOL    HW2 2322   5.183   4.625   5.091
  475SOL     OW 2323   1.589   6.742   6.369
  475SOL    HW1 2324   1.611   6.716   6.463
  475SOL    HW2 2325   1.670   6.729   6.311
  476SOL     OW 2326   0.668   5.674   1.750
  476SOL    HW1 2327   0.578   5.639   1.775
  476SOL    HW2 2328   0.701   5.627   1.668
  477SOL     OW 2329   1.561   5.155   3.630
  477SOL    HW1 2330   1.606   5.245   3.631
  477SOL    HW2 2331   1.535   5.132   3.537
  478SOL     OW 2332   1.740   5.568   3.084
  478SOL    HW1 2333   1.714   5.548   3.178
  478SOL    HW2 2334   1.694   5.652   3.054
  479SOL     OW 2335   3.420   1.567   1.636
  479SOL    HW1 2336   3.442   1.645   1.695
  479SOL    HW2 2337   3.464   1.485   1.672
  480SOL     OW 2338   1.814   6.488   2.949
  480SOL    HW1 2339   1.739   6.457   3.007
  480SOL    HW2 2340   1.901   6.477   2.997
  481SOL     OW 2341   2.929   6.822   1.418
  481SOL    HW1 2342   2.839   6.778   1.422
  481SOL    HW2 2343   2.985   6.792   1.495
  482SOL     OW 2344   5.885   5.337   1.240
  482SOL    HW1 2345   5.931   5.383   1.317
  482SOL    HW2 2346   5.792   5.313   1.267
  483SOL     OW 2347   6.068   1.710   1.677
  483SOL    HW1 2348   5.989   1.659   1.712
  483SOL    HW2 2349   6.051   1.737   1.582
  484SOL     OW 2350   0.057   2.423   5.008
  484SOL    HW1 2351   0.048   2.477   4.924
  484SOL    HW2 2352   0.130   2.462   5.065
  485SOL     OW 2353   3.408   6.063   1.856
  485SOL    HW1 2354   3.405   5.963   1.858
  485SOL    HW2 2355   3.391   6.095   1.763
  486SOL     OW 2356   0.248   0.658   6.177
  486SOL    HW1 2357   0.327   0.705   6.138
  486SOL    HW2 2358   0.234   0.691   6.271
  487SOL     OW 2359   6.393   2.645   6.527
  487SOL    HW1 2360   6.423   2.685   6.614
  487SOL    HW2 2361   6.296   2.624   6.532
  488SOL     OW 2362   0.935   3.660   2.309
  488SOL    HW1 2363   0.891   3.574   2.336
  488SOL    HW2 2364   0.865   3.725   2.280
  489SOL     OW 2365   3.217   5.966   6.236
  489SOL    HW1 2366   3.315   5.952   6.229
  489SOL    HW2 2367   3.198   6.038   6.303
  490SOL     OW 2368   5.301   6.665   4.193
  490SOL    HW1 2369   5.209   6.642   4.224
  490SOL    HW2 2370   5.332   6.748   4.239
  491SOL     OW 2371   0.140   2.304   3.556
  491SOL    HW1 2372   0.178   2.395   3.574
  491SOL    HW2 2373   0.212   2.235   3.564
  492SOL     OW 2374   1.900   1.120   4.757
  492SOL    HW1 2375   1.950   1.140   4.673
  492SOL    HW2 2376   1.945   1.165   4.834
  493SOL     OW 2377   6.251   4.086   4.528
  493SOL    HW1 2378   6.267   4.142   4.447
  493SOL    HW2 2379   6.160   4.046   4.523
  494SOL     OW 2380   6.361   1.576   6.653
  494SOL    HW1 2381   6.407   1.600   6.738
  494SOL    HW2 2382   6.275   1.529   6.673
  495SOL     OW 2383   4.152   4.105   0.454
  495SOL    HW1 2384   4.137   4.037   0.525
  495SOL    HW2 2385   4.077   4.171   0.455
  496SOL     OW 2386   6.073   2.886   2.785
  496SOL    HW1 2387   5.984   2.856   2.753
  496SOL    HW2 2388   6.137   2.890   2.709
  497SOL     OW 2389   3.333   6.830   4.518
  497SOL    HW1 2390   3.417   6.884   4.506
  497SOL    HW2 2391   3.266   6.884   4.569
  498SOL     OW 2392   1.189   3.036   2.423
  498SOL    HW1 2393   1.107   3.058   2.476
  498SOL    HW2 2394   1.256   3.110   2.433
  499SOL     OW 2395   3.068   0.894   5.014
  499SOL    HW1 2396   3.118   0.924   5.095
  499SOL    HW2 2397   2.986   0.951   5.002
  500SOL     OW 2398   1.818   4.583   2.051
  500SOL    HW1 2399   1.726   4.553   2.030
  500SOL    HW2 2400   1.823   4.683   2.045
  501SOL     OW 2401   1.494   5.034   6.931
  501SOL    HW1 2402   1.399   5.004   6.940
  501SOL    HW2 2403   1.511   5.108   6.995
  502SOL     OW 2404   3.797   4.936   6.218
  502SOL    HW1 2405   3.806   4.939   6.118
  502SOL    HW2 2406   3.798   5.030   6.254
  503SOL     OW 2407   5.962   5.902   4.947
  503SOL    HW1 2408   6.055   5.876   4.973
  503SOL    HW2 2409   5.906   5.819   4.939
  504SOL     OW 2410   1.696   5.776   4.391
  504SOL    HW1 2411   1.783   5.826   4.384
  504SOL    HW2 2412   1.666   5.774   4.487
  505SOL     OW 2413   3.911   6.473   5.177
  505SOL    HW1 2414   4.002   6.514   5.187
  505SOL    HW2 2415   3.918   6.374   5.189
  506SOL     OW 2416   1.937   3.699   0.309
  506SOL    HW1 2417   1.928   3.600   0.297
  506SOL    HW2 2418   1.848   3.739   0.331
  507SOL     OW 2419   4.013   2.203   4.177
  507SOL    HW1 2420   3.939   2.158   4.126
  507SOL    HW2 2421   3.995   2.195   4.275
  508SOL     OW 2422   5.988   4.343   3.775
  508SOL    HW1 2423   5.977   4.246   3.800
  508SOL    HW2 2424   5.914   4.370   3.715
  509SOL     OW 2425   4.512   2.690   1.143
  509SOL    HW1 2426   4.606   2.656   1.134
  509SOL    HW2 2427   4.483   2.684   1.238
  510SOL     OW 2428   0.911   3.829   4.632
  510SOL    HW1 2429   0.948   3.862   4.720
  510SOL    HW2 2430   0.850   3.752   4.648
  511SOL     OW 2431   0.366   6.750   1.121
  511SOL    HW1 2432   0.326   6.776   1.209
  511SOL    HW2 2433   0.399   6.655   1.126
  512SOL     OW 2434   0.903   3.976   6.610
  512SOL    HW1 2435   0.827   3.979   6.546
  512SOL    HW2 2436   0.975   3.916   6.574
  513SOL     OW 2437   0.966   5.331   4.701
  513SOL    HW1 2438   0.988   5.239   4.669
  513SOL    HW2 2439   1.013   5.349   4.787
  514SOL     OW 2440   6.280   1.845   3.296
  514SOL    HW1 2441   6.320   1.763   3.338
  514SOL    HW2 2442   6.180   1.839   3.301
  515SOL     OW 2443   1.953   5.617   0.014
  515SOL    HW1 2444   2.048   5.586   0.021
  515SOL    HW2 2445   1.914   5.626   0.106
  516SOL     OW 2446   1.337   5.131   2.754
  516SOL    HW1 2447   1.277   5.182   2.815
  516SOL    HW2 2448   1.388   5.194   2.696
  517SOL     OW 2449   4.907   0.507   6.419
  517SOL    HW1 2450   4.921   0.536   6.514
  517SOL    HW2 2451   4.950   0.573   6.357
  518SOL     OW 2452   2.501   1.865   1.079
  518SOL    HW1 2453   2.494   1.930   1.003
  518SOL    HW2 2454   2.416   1.812   1.085
  519SOL     OW 2455   0.676   0.246   0.164
  519SOL    HW1 2456   0.725   0.231   0.077
  519SOL    HW2 2457   0.735   0.219   0.240
  520SOL     OW 2458   6.086   4.342   4.179
  520SOL    HW1 2459   6.118   4.371   4.269
  520SOL    HW2 2460   6.000   4.387   4.158
  521SOL     OW 2461   5.876   0.760   0.662
  521SOL    HW1 2462   5.887   0.808   0.749
  521SOL    HW2 2463   5.933   0.804   0.593
  522SOL     OW 2464   3.714   3.650   5.697
  522SOL    HW1 2465   3.701   3.642   5.598
  522SOL    HW2 2466   3.669   3.573   5.743
  523SOL     OW 2467   6.578   7.020   4.318
  523SOL    HW1 2468   6.582   0.073   4.383
  523SOL    HW2 2469   6.508   6.956   4.347
  524SOL     OW 2470   4.164   1.403   5.904
  524SOL    HW1 2471   4.130   1.309   5.913
  524SOL    HW2 2472   4.261   1.405   5.930
  525SOL     OW 2473   2.604   2.541   6.752
  525SOL    HW1 2474   2.511   2.505   6.752
  525SOL    HW2 2475   2.602   2.640   6.767
  526SOL     OW 2476   4.436   5.499   4.617
  526SOL    HW1 2477   4.528   5.516   4.581
  526SOL    HW2 2478   4.393   5.425   4.566
  527SOL     OW 2479   0.706   2.163   0.092
  527SOL    HW1 2480   0.664   2.241   0.045
  527SOL    HW2 2481   0.731   2.190   0.185
  528SOL     OW 2482   2.154   1.354   5.562
  528SOL    HW1 2483   2.205   1.278   5.520
  528SOL    HW2 2484   2.204   1.387   5.642
  529SOL     OW 2485   6.752   4.888   4.035
  529SOL    HW1 2486   6.652   4.883   4.032
  529SOL    HW2 2487   6.781   4.984   4.031
  530SOL     OW 2488   0.845   2.275   5.215
  530SOL    HW1 2489   0.859   2.345   5.145
  530SOL    HW2 2490   0.915   2.283   5.285
  531SOL     OW 2491   0.068   0.769   0.235
  531SOL    HW1 2492   7.007   0.734   0.193
  531SOL    HW2 2493   0.046   0.851   0.288
  532SOL     OW 2494   2.023   0.434   5.900
  532SOL    HW1 2495   2.037   0.518   5.847
  532SOL    HW2 2496   2.111   0.405   5.939
  533SOL     OW 2497   5.296   0.360   4.736
  533SOL    HW1 2498   5.290   0.332   4.640
  533SOL    HW2 2499   5.248   0.447   4.748
  534SOL     OW 2500   3.124   5.057   3.050
  534SOL    HW1 2501   3.159   5.003   3.127
  534SOL    HW2 2502   3.054   5.005   3.002
  535SOL     OW 2503   6.257   4.101   2.546
  535SOL    HW1 2504   6.264   4.022   2.607
  535SOL    HW2 2505   6.177   4.090   2.486
  536SOL     OW 2506   0.755   6.500   0.826
  536SOL    HW1 2507   0.733   6.594   0.853
  536SOL    HW2 2508   0.789   6.450   0.906
  537SOL     OW 2509   2.206   6.973   3.508
  537SOL    HW1 2510   2.161   6.884   3.518
  537SOL    HW2 2511   2.161   0.002   3.437
  538SOL     OW 2512   1.558   4.632   4.022
  538SOL    HW1 2513   1.492   4.701   4.053
  538SOL    HW2 2514   1.509   4.555   3.981
  539SOL     OW 2515   1.541   6.006   1.260
  539SOL    HW1 2516   1.587   5.924   1.225
  539SOL    HW2 2517   1.442   5.996   1.248
  540SOL     OW 2518   1.628   3.155   1.250
  540SOL    HW1 2519   1.618   3.241   1.299
  540SOL    HW2 2520   1.620   3.079   1.315
  541SOL     OW 2521   3.712   5.183   5.323
  541SOL    HW1 2522   3.723   5.125   5.242
  541SOL    HW2 2523   3.614   5.198   5.341
  542SOL     OW 2524   5.852   6.574   6.182
  542SOL    HW1 2525   5.813   6.489   6.218
  542SOL    HW2 2526   5.915   6.612   6.250
  543SOL     OW 2527   6.450   6.030   0.784
  543SOL    HW1 2528   6.477   6.125   0.797
  543SOL    HW2 2529   6.508   5.971   0.841
  544SOL     OW 2530   0.857   5.531   0.435
  544SOL    HW1 2531   0.902   5.620   0.442
  544SOL    HW2 2532   0.816   5.521   0.344
  545SOL     OW 2533   3.705   1.542   4.276
  545SOL    HW1 2534   3.732   1.634   4.306
  545SOL    HW2 2535   3.633   1.508   4.337
  546SOL     OW 2536   1.486   2.771   0.461
  546SOL    HW1 2537   1.522   2.678   0.452
  546SOL    HW2 2538   1.386   2.769   0.455
  547SOL     OW 2539   3.095   1.734   0.313
  547SOL    HW1 2540   3.119   1.639   0.334
  547SOL    HW2 2541   3.074   1.743   0.216
  548SOL     OW 2542   3.029   3.045   5.219
  548SOL    HW1 2543   3.093   3.095   5.277
  548SOL    HW2 2544   2.935   3.070   5.244
  549SOL     OW 2545   0.877   3.955   1.084
  549SOL    HW1 2546   0.954   4.019   1.075
  549SOL    HW2 2547   0.858   3.940   1.181
  550SOL     OW 2548   6.620   3.483   0.490
  550SOL    HW1 2549   6.546   3.464   0.426
  550SOL    HW2 2550   6.602   3.570   0.537
  551SOL     OW 2551   0.367   1.375   0.428
  551SOL    HW1 2552   0.459   1.409   0.451
  551SOL    HW2 2553   0.336   1.418   0.343
  552SOL     OW 2554   4.601   4.551   0.687
  552SOL    HW1 2555   4.617   4.648   0.668
  552SOL    HW2 2556   4.669   4.517   0.752
  553SOL     OW 2557   1.175   2.505   1.238
  553SOL    HW1 2558   1.157   2.459   1.151
  553SOL    HW2 2559   1.190   2.602   1.222
  554SOL     OW 2560   4.742   4.906   4.896
  554SOL    HW1 2561   4.840   4.915   4.914
  554SOL    HW2 2562   4.728   4.845   4.819
  555SOL     OW 2563   1.346   4.432   5.039
  555SOL    HW1 2564   1.269   4.406   5.099
  555SOL    HW2 2565   1.320   4.416   4.944
  556SOL     OW 2566   5.894   3.454   2.871
  556SOL    HW1 2567   5.834   3.515   2.819
  556SOL    HW2 2568   5.933   3.385   2.810
  557SOL     OW 2569   0.157   5.674   6.048
  557SOL    HW1 2570   0.180   5.698   6.142
  557SOL    HW2 2571   0.202   5.589   6.023
  558SOL     OW 2572   4.292   3.668   5.543
  558SOL    HW1 2573   4.296   3.763   5.573
  558SOL    HW2 2574   4.330   3.660   5.451
  559SOL     OW 2575   6.120   5.488   6.377
  559SOL    HW1 2576   6.022   5.493   6.361
  559SOL    HW2 2577   6.166   5.452   6.296
  560SOL     OW 2578   4.295   6.600   6.904
  560SOL    HW1 2579   4.319   6.532   6.973
  560SOL    HW2 2580   4.206   6.640   6.925
  561SOL     OW 2581   5.453   6.511   1.992
  561SOL    HW1 2582   5.397   6.440   1.950
  561SOL    HW2 2583   5.549   6.498   1.964
  562SOL     OW 2584   6.372   1.101   0.197
  562SOL    HW1 2585   6.445   1.150   0.150
  562SOL    HW2 2586   6.408   1.062   0.282
  563SOL     OW 2587   3.146   0.509   4.715
  563SOL    HW1 2588   3.240   0.536   4.693
  563SOL    HW2 2589   3.107   0.459   4.637
  564SOL     OW 2590   0.697   2.164   6.273
  564SOL    HW1 2591   0.684   2.132   6.179
  564SOL    HW2 2592   0.674   2.091   6.337
  565SOL     OW 2593   4.560   4.418   5.706
  565SOL    HW1 2594   4.558   4.343   5.773
  565SOL    HW2 2595   4.646   4.468   5.715
  566SOL     OW 2596   6.219   4.903   2.400
  566SOL    HW1 2597   6.192   4.925   2.306
  566SOL    HW2 2598   6.306   4.854   2.400
  567SOL     OW 2599   3.646   3.828   5.070
  567SOL    HW1 2600   3.720   3.853   5.132
  567SOL    HW2 2601   3.558   3.848   5.113
  568SOL     OW 2602   1.696   1.197   6.322
  568SOL    HW1 2603   1.775   1.198   6.260
  568SOL    HW2 2604   1.682   1.104   6.356
  569SOL     OW 2605   2.042   4.167   6.644
  569SOL    HW1 2606   2.077   4.081   6.607
  569SOL    HW2 2607   2.058   4.240   6.578
  570SOL     OW 2608   7.008   6.570   0.729
  570SOL    HW1 2609   0.081   6.578   0.751
  570SOL    HW2 2610   6.956   6.552   0.813
  571SOL     OW 2611   4.059   5.776   2.824
  571SOL    HW1 2612   4.150   5.785   2.783
  571SOL    HW2 2613   4.020   5.867   2.839
  572SOL     OW 2614   1.649   4.478   4.816
  572SOL    HW1 2615   1.700   4.551   4.770
  572SOL    HW2 2616   1.628   4.505   4.909
  573SOL     OW 2617   2.949   2.033   0.027
  573SOL    HW1 2618   2.881   2.086   0.078
  573SOL    HW2 2619   2.972   1.951   0.080
  574SOL     OW 2620   2.571   2.082   4.108
  574SOL    HW1 2621   2.528   2.161   4.064
  574SOL    HW2 2622   2.604   2.020   4.037
  575SOL     OW 2623   5.277   2.275   6.467
  575SOL    HW1 2624   5.342   2.243   6.536
  575SOL    HW2 2625   5.253   2.371   6.485
  576SOL     OW 2626   1.034   2.781   2.621
  576SOL    HW1 2627   1.098   2.753   2.549
  576SOL    HW2 2628   1.080   2.775   2.709
  577SOL     OW 2629   3.854   1.907   4.514
  577SOL    HW1 2630   3.765   1.862   4.500
  577SOL    HW2 2631   3.842   1.983   4.577
  578SOL     OW 2632   6.922   3.685   4.188
  578SOL    HW1 2633   6.939   3.729   4.276
  578SOL    HW2 2634   7.008   3.673   4.140
  579SOL     OW 2635   3.886   3.758   0.545
  579SOL    HW1 2636   3.882   3.799   0.453
  579SOL    HW2 2637   3.795   3.727   0.571
  580SOL     OW 2638   0.627   6.638   0.145
  580SOL    HW1 2639   0.605   6.652   0.241
  580SOL    HW2 2640   0.720   6.603   0.136
  581SOL     OW 2641   4.060   3.244   2.664
  581SOL    HW1 2642   4.008   3.166   2.629
  581SOL    HW2 2643   4.094   3.298   2.588
  582SOL     OW 2644   6.441   4.168   1.176
  582SOL    HW1 2645   6.476   4.075   1.166
  582SOL    HW2 2646   6.358   4.178   1.121
  583SOL     OW 2647   2.708   6.368   6.888
  583SOL    HW1 2648   2.641   6.332   6.953
  583SOL    HW2 2649   2.701   6.467   6.884
  584SOL     OW 2650   0.936   4.907   4.881
  584SOL    HW1 2651   0.965   4.864   4.966
  584SOL    HW2 2652   0.858   4.967   4.898
  585SOL     OW 2653   5.854   0.639   5.714
  585SOL    HW1 2654   5.908   0.722   5.698
  585SOL    HW2 2655   5.779   0.636   5.648
  586SOL     OW 2656   2.767   6.017   1.634
  586SOL    HW1 2657   2.865   6.003   1.616
  586SOL    HW2 2658   2.735   6.095   1.581
  587SOL     OW 2659   1.795   3.814   5.886
  587SOL    HW1 2660   1.748   3.900   5.906
  587SOL    HW2 2661   1.798   3.758   5.968
  588SOL     OW 2662   2.188   0.332   1.348
  588SOL    HW1 2663   2.190   0.391   1.428
  588SOL    HW2 2664   2.195   0.388   1.265
  589SOL     OW 2665   4.267   5.047   1.954
  589SOL    HW1 2666   4.224   5.126   1.998
  589SOL    HW2 2667   4.299   5.072   1.863
  590SOL     OW 2668   6.367   2.898   1.923
  590SOL    HW1 2669   6.454   2.937   1.893
  590SOL    HW2 2670   6.306   2.972   1.952
  591SOL     OW 2671   2.612   0.033   2.920
  591SOL    HW1 2672   2.709   0.018   2.941
  591SOL    HW2 2673   2.595   0.008   2.825
  592SOL     OW 2674   4.994   0.111   5.829
  592SOL    HW1 2675   4.930   0.099   5.905
  592SOL    HW2 2676   5.086   0.129   5.865
  593SOL     OW 2677   6.829   1.239   4.567
  593SOL    HW1 2678   6.909   1.224   4.624
  593SOL    HW2 2679   6.806   1.336   4.565
  594SOL     OW 2680   5.524   2.474   1.199
  594SOL    HW1 2681   5.593   2.466   1.126
  594SOL    HW2 2682   5.480   2.385   1.211
  595SOL     OW 2683   4.096   6.826   4.018
  595SOL    HW1 2684   4.068   6.745   3.967
  595SOL    HW2 2685   4.172   6.871   3.972
  596SOL     OW 2686   0.668   4.143   1.313
  596SOL    HW1 2687   0.758   4.187   1.304
  596SOL    HW2 2688   0.619   4.149   1.226
  597SOL     OW 2689   4.230   2.443   5.868
  597SOL    HW1 2690   4.148   2.408   5.822
  597SOL    HW2 2691   4.214   2.447   5.967
  598SOL     OW 2692   3.006   4.049   1.264
  598SOL    HW1 2693   2.919   4.096   1.279
  598SOL    HW2 2694   2.989   3.951   1.250
  599SOL     OW 2695   6.324   5.856   3.423
  599SOL    HW1 2696   6.348   5.949   3.451
  599SOL    HW2 2697   6.320   5.797   3.504
  600SOL     OW 2698   2.801   1.349   1.631
  600SOL    HW1 2699   2.854   1.433   1.640
  600SOL    HW2 2700   2.773   1.318   1.722
  601SOL     OW 2701   1.801   4.769   3.140
  601SOL    HW1 2702   1.897   4.798   3.144
  601SOL    HW2 2703   1.760   4.803   3.055
  602SOL     OW 2704   6.660   0.340   2.073
  602SOL    HW1 2705   6.607   0.372   2.151
  602SOL    HW2 2706   6.756   0.367   2.084
  603SOL     OW 2707   4.297   1.604   3.347
  603SOL    HW1 2708   4.210   1.566   3.378
  603SOL    HW2 2709   4.298   1.703   3.366
  604SOL     OW 2710   0.615   3.685   5.812
  604SOL    HW1 2711   0.630   3.741   5.893
  604SOL    HW2 2712   0.519   3.658   5.808
  605SOL     OW 2713   5.597   0.348   4.364
  605SOL    HW1 2714   5.571   0.394   4.449
  605SOL    HW2 2715   5.651   0.267   4.386
  606SOL     OW 2716   2.975   0.183   2.891
  606SOL    HW1 2717   3.037   0.120   2.844
  606SOL    HW2 2718   2.916   0.132   2.953
  607SOL     OW 2719   3.806   0.641   4.100
  607SOL    HW1 2720   3.818   0.686   4.012
  607SOL    HW2 2721   3.788   0.544   4.085
  608SOL     OW 2722   5.218   2.976   1.450
  608SOL    HW1 2723   5.296   2.972   1.388
  608SOL    HW2 2724   5.214   2.892   1.504
  609SOL     OW 2725   2.991   3.963   4.695
  609SOL    HW1 2726   2.939   4.034   4.744
  609SOL    HW2 2727   2.940   3.877   4.697
  610SOL     OW 2728   6.274   1.677   4.509
  610SOL    HW1 2729   6.204   1.621   4.553
  610SOL    HW2 2730   6.279   1.654   4.412
  611SOL     OW 2731   5.424   6.786   6.994
  611SOL    HW1 2732   5.465   6.780   0.062
  611SOL    HW2 2733   5.469   6.859   6.942
  612SOL     OW 2734   2.067   5.474   6.011
  612SOL    HW1 2735   2.099   5.406   5.945
  612SOL    HW2 2736   2.146   5.523   6.048
  613SOL     OW 2737   3.895   1.048   6.705
  613SOL    HW1 2738   3.862   0.999   6.624
  613SOL    HW2 2739   3.965   1.114   6.678
  614SOL     OW 2740   4.718   3.150   0.919
  614SOL    HW1 2741   4.791   3.172   0.984
  614SOL    HW2 2742   4.700   3.052   0.922
  615SOL     OW 2743   5.199   6.626   0.642
  615SOL    HW1 2744   5.204   6.533   0.680
  615SOL    HW2 2745   5.110   6.666   0.664
  616SOL     OW 2746   4.911   0.912   4.580
  616SOL    HW1 2747   4.851   0.891   4.503
  616SOL    HW2 2748   5.005   0.889   4.556
  617SOL     OW 2749   6.595   6.540   4.803
  617SOL    HW1 2750   6.662   6.593   4.750
  617SOL    HW2 2751   6.641   6.492   4.877
  618SOL     OW 2752   5.512   4.650   0.899
  618SOL    HW1 2753   5.452   4.621   0.824
  618SOL    HW2 2754   5.604   4.668   0.862
  619SOL     OW 2755   2.455   6.932   6.416
  619SOL    HW1 2756   2.522   6.858   6.418
  619SOL    HW2 2757   2.414   6.943   6.506
  620SOL     OW 2758   4.518   1.931   2.264
  620SOL    HW1 2759   4.487   1.994   2.192
  620SOL    HW2 2760   4.610   1.899   2.242
  621SOL     OW 2761   3.318   0.630   6.672
  621SOL    HW1 2762   3.232   0.663   6.634
  621SOL    HW2 2763   3.310   0.619   6.771
  622SOL     OW 2764   0.389   3.529   5.754
  622SOL    HW1 2765   0.384   3.513   5.853
  622SOL    HW2 2766   0.428   3.449   5.709
  623SOL     OW 2767   6.656   0.995   2.917
  623SOL    HW1 2768   6.584   1.006   2.848
  623SOL    HW2 2769   6.620   1.019   3.006
  624SOL     OW 2770   6.692   1.517   6.396
  624SOL    HW1 2771   6.657   1.424   6.389
  624SOL    HW2 2772   6.678   1.551   6.489
  625SOL     OW 2773   3.194   1.214   1.670
  625SOL    HW1 2774   3.183   1.311   1.690
  625SOL    HW2 2775   3.278   1.200   1.617
  626SOL     OW 2776   0.748   5.993   3.471
  626SOL    HW1 2777   0.699   6.031   3.549
  626SOL    HW2 2778   0.684   5.948   3.410
  627SOL     OW 2779   6.464   5.467   6.429
  627SOL    HW1 2780   6.513   5.482   6.343
  627SOL    HW2 2781   6.422   5.377   6.428
  628SOL     OW 2782   3.650   4.536   6.424
  628SOL    HW1 2783   3.635   4.485   6.510
  628SOL    HW2 2784   3.697   4.477   6.359
  629SOL     OW 2785   1.504   6.895   0.289
  629SOL    HW1 2786   1.413   6.889   0.331
  629SOL    HW2 2787   1.505   6.969   0.221
  630SOL     OW 2788   6.795   2.193   1.558
  630SOL    HW1 2789   6.725   2.133   1.597
  630SOL    HW2 2790   6.872   2.137   1.525
  631SOL     OW 2791   2.001   3.172   3.109
  631SOL    HW1 2792   1.952   3.131   3.032
  631SOL    HW2 2793   2.099   3.162   3.095
  632SOL     OW 2794   2.989   4.549   1.080
  632SOL    HW1 2795   2.935   4.561   0.997
  632SOL    HW2 2796   3.062   4.617   1.083
  633SOL     OW 2797   1.019   5.798   0.471
  633SOL    HW1 2798   1.103   5.776   0.521
  633SOL    HW2 2799   0.957   5.850   0.530
  634SOL     OW 2800   3.039   3.354   5.528
  634SOL    HW1 2801   3.080   3.444   5.513
  634SOL    HW2 2802   3.067   3.292   5.455
  635SOL     OW 2803   6.037   6.837   6.885
  635SOL    HW1 2804   6.011   6.830   6.981
  635SOL    HW2 2805   6.136   6.835   6.877
  636SOL     OW 2806   2.369   1.336   4.728
  636SOL    HW1 2807   2.465   1.350   4.756
  636SOL    HW2 2808   2.323   1.424   4.723
  637SOL     OW 2809   6.984   1.592   2.298
  637SOL    HW1 2810   0.042   1.634   2.338
  637SOL    HW2 2811   6.921   1.566   2.371
  638SOL     OW 2812   6.660   3.619   5.228
  638SOL    HW1 2813   6.723   3.691   5.257
  638SOL    HW2 2814   6.650   3.552   5.302
  639SOL     OW 2815   5.789   3.212   1.672
  639SOL    HW1 2816   5.692   3.190   1.665
  639SOL    HW2 2817   5.806   3.265   1.755
  640SOL     OW 2818   6.862   3.558   2.830
  640SOL    HW1 2819   6.844   3.602   2.742
  640SOL    HW2 2820   6.775   3.535   2.874
  641SOL     OW 2821   2.280   5.493   4.457
  641SOL    HW1 2822   2.317   5.429   4.524
  641SOL    HW2 2823   2.183   5.510   4.476
  642SOL     OW 2824   0.577   5.269   5.086
  642SOL    HW1 2825   0.627   5.198   5.037
  642SOL    HW2 2826   0.625   5.356   5.077
  643SOL     OW 2827   4.373   5.336   0.417
  643SOL    HW1 2828   4.387   5.371   0.510
  643SOL    HW2 2829   4.345   5.240   0.421
  644SOL     OW 2830   6.226   0.078   4.261
  644SOL    HW1 2831   6.279   7.018   4.274
  644SOL    HW2 2832   6.276   0.155   4.300
  645SOL     OW 2833   4.030   6.127   1.954
  645SOL    HW1 2834   4.092   6.205   1.954
  645SOL    HW2 2835   4.052   6.067   1.877
  646SOL     OW 2836   3.649   1.946   5.301
  646SOL    HW1 2837   3.669   2.044   5.307
  646SOL    HW2 2838   3.698   1.898   5.374
  647SOL     OW 2839   2.834   2.222   0.309
  647SOL    HW1 2840   2.899   2.146   0.321
  647SOL    HW2 2841   2.818   2.266   0.398
  648SOL     OW 2842   5.678   1.459   4.053
  648SOL    HW1 2843   5.644   1.443   3.960
  648SOL    HW2 2844   5.647   1.548   4.085
  649SOL     OW 2845   2.578   5.945   0.363
  649SOL    HW1 2846   2.492   5.995   0.349
  649SOL    HW2 2847   2.630   5.943   0.278
  650SOL     OW 2848   1.624   3.316   0.884
  650SOL    HW1 2849   1.684   3.248   0.842
  650SOL    HW2 2850   1.540   3.272   0.915
  651SOL     OW 2851   0.467   1.181   3.425
  651SOL    HW1 2852   0.423   1.172   3.515
  651SOL    HW2 2853   0.404   1.223   3.361
  652SOL     OW 2854   3.753   5.827   0.598
  652SOL    HW1 2855   3.743   5.919   0.636
  652SOL    HW2 2856   3.805   5.770   0.661
  653SOL     OW 2857   1.350   0.313   2.614
  653SOL    HW1 2858   1.327   0.322   2.517
  653SOL    HW2 2859   1.391   0.223   2.630
  654SOL     OW 2860   0.796   6.924   5.963
  654SOL    HW1 2861   0.768   6.934   5.868
  654SOL    HW2 2862   0.760   6.838   5.999
  655SOL     OW 2863   0.859   3.591   0.809
  655SOL    HW1 2864   0.912   3.661   0.761
  655SOL    HW2 2865   0.864   3.607   0.907
  656SOL     OW 2866   2.487   0.446   6.730
  656SOL    HW1 2867   2.448   0.498   6.806
  656SOL    HW2 2868   2.418   0.382   6.695
  657SOL     OW 2869   3.727   3.651   4.065
  657SOL    HW1 2870   3.827   3.648   4.070
  657SOL    HW2 2871   3.698   3.636   3.970
  658SOL     OW 2872   1.855   0.457   3.849
  658SOL    HW1 2873   1.864   0.466   3.948
  658SOL    HW2 2874   1.855   0.548   3.807
  659SOL     OW 2875   1.694   5.783   6.432
  659SOL    HW1 2876   1.691   5.862   6.493
  659SOL    HW2 2877   1.788   5.752   6.422
  660SOL     OW 2878   5.361   4.001   2.575
  660SOL    HW1 2879   5.319   3.941   2.507
  660SOL    HW2 2880   5.401   3.947   2.648
  661SOL     OW 2881   4.411   5.549   3.793
  661SOL    HW1 2882   4.476   5.477   3.769
  661SOL    HW2 2883   4.341   5.557   3.722
  662SOL     OW 2884   5.684   3.612   0.165
  662SOL    HW1 2885   5.676   3.513   0.174
  662SOL    HW2 2886   5.656   3.640   0.073
  663SOL     OW 2887   1.066   4.872   6.639
  663SOL    HW1 2888   1.073   4.937   6.563
  663SOL    HW2 2889   0.978   4.883   6.685
  664SOL     OW 2890   1.837   0.166   5.873
  664SOL    HW1 2891   1.816   0.253   5.828
  664SOL    HW2 2892   1.900   0.181   5.948
  665SOL     OW 2893   2.514   4.490   3.341
  665SOL    HW1 2894   2.540   4.562   3.405
  665SOL    HW2 2895   2.541   4.517   3.248
  666SOL     OW 2896   3.575   0.786   6.779
  666SOL    HW1 2897   3.505   0.810   6.712
  666SOL    HW2 2898   3.653   0.847   6.770
  667SOL     OW 2899   1.314   3.264   2.488
  667SOL    HW1 2900   1.247   3.337   2.505
  667SOL    HW2 2901   1.406   3.299   2.503
  668SOL     OW 2902   5.372   0.128   0.978
  668SOL    HW1 2903   5.362   0.155   0.882
  668SOL    HW2 2904   5.383   0.029   0.984
  669SOL     OW 2905   0.130   5.511   2.745
  669SOL    HW1 2906   0.053   5.449   2.760
  669SOL    HW2 2907   0.150   5.560   2.830
  670SOL     OW 2908   3.973   3.845   2.453
  670SOL    HW1 2909   3.961   3.908   2.530
  670SOL    HW2 2910   3.959   3.893   2.367
  671SOL     OW 2911   2.313   0.364   6.259
  671SOL    HW1 2912   2.311   0.264   6.272
  671SOL    HW2 2913   2.395   0.401   6.303
  672SOL     OW 2914   1.421   2.684   2.892
  672SOL    HW1 2915   1.513   2.722   2.881
  672SOL    HW2 2916   1.426   2.601   2.948
  673SOL     OW 2917   4.919   0.251   6.947
  673SOL    HW1 2918   4.838   0.205   6.912
  673SOL    HW2 2919   4.915   0.348   6.923
  674SOL     OW 2920   0.273   2.443   4.780
  674SOL    HW1 2921   0.289   2.344   4.783
  674SOL    HW2 2922   0.331   2.488   4.848
  675SOL     OW 2923   6.015   6.089   3.792
  675SOL    HW1 2924   5.923   6.124   3.812
  675SOL    HW2 2925   6.040   6.112   3.698
  676SOL     OW 2926   2.568   5.463   4.416
  676SOL    HW1 2927   2.603   5.426   4.331
  676SOL    HW2 2928   2.480   5.509   4.399
  677SOL     OW 2929   4.423   6.247   0.410
  677SOL    HW1 2930   4.344   6.247   0.472
  677SOL    HW2 2931   4.434   6.157   0.369
  678SOL     OW 2932   2.055   1.195   5.899
  678SOL    HW1 2933   2.144   1.155   5.874
  678SOL    HW2 2934   1.983   1.148   5.849
  679SOL     OW 2935   6.231   0.415   2.187
  679SOL    HW1 2936   6.280   0.328   2.188
  679SOL    HW2 2937   6.203   0.437   2.094
  680SOL     OW 2938   5.673   4.326   4.992
  680SOL    HW1 2939   5.617   4.250   5.026
  680SOL    HW2 2940   5.669   4.329   4.892
  681SOL     OW 2941   1.359   6.640   1.910
  681SOL    HW1 2942   1.455   6.649   1.883
  681SOL    HW2 2943   1.304   6.708   1.862
  682SOL     OW 2944   0.055   0.252   6.227
  682SOL    HW1 2945   0.048   0.156   6.201
  682SOL    HW2 2946   0.002   0.268   6.311
  683SOL     OW 2947   4.986   1.392   1.771
  683SOL    HW1 2948   4.953   1.364   1.681
  683SOL    HW2 2949   5.080   1.361   1.783
  684SOL     OW 2950   0.289   5.983   6.620
  684SOL    HW1 2951   0.374   5.932   6.633
  684SOL    HW2 2952   0.221   5.951   6.686
  685SOL     OW 2953   6.442   0.721   6.504
  685SOL    HW1 2954   6.471   0.714   6.600
  685SOL    HW2 2955   6.344   0.741   6.499
  686SOL     OW 2956   5.591   5.153   2.474
  686SOL    HW1 2957   5.688   5.149   2.450
  686SOL    HW2 2958   5.580   5.123   2.569
  687SOL     OW 2959   5.431   2.052   5.925
  687SOL    HW1 2960   5.365   2.106   5.976
  687SOL    HW2 2961   5.507   2.026   5.985
  688SOL     OW 2962   6.322   3.368   5.077
  688SOL    HW1 2963   6.282   3.347   4.987
  688SOL    HW2 2964   6.249   3.385   5.143
  689SOL     OW 2965   5.446   4.272   4.511
  689SOL    HW1 2966   5.534   4.286   4.465
  689SOL    HW2 2967   5.392   4.205   4.461
  690SOL     OW 2968   0.171   3.341   4.389
  690SOL    HW1 2969   0.146   3.265   4.448
  690SOL    HW2 2970   0.105   3.350   4.315
  691SOL     OW 2971   7.017   2.995   6.622
  691SOL    HW1 2972   0.093   2.987   6.630
  691SOL    HW2 2973   6.994   3.049   6.541
  692SOL     OW 2974   2.543   0.215   3.589
  692SOL    HW1 2975   2.520   0.238   3.494
  692SOL    HW2 2976   2.504   0.126   3.612
  693SOL     OW 2977   6.722   1.782   3.124
  693SOL    HW1 2978   6.672   1.833   3.194
  693SOL    HW2 2979   6.819   1.808   3.127
  694SOL     OW 2980   1.671   0.521   2.158
  694SOL    HW1 2981   1.763   0.551   2.184
  694SOL    HW2 2982   1.624   0.594   2.110
  695SOL     OW 2983   4.513   5.531   6.342
  695SOL    HW1 2984   4.568   5.462   6.389
  695SOL    HW2 2985   4.519   5.618   6.391
  696SOL     OW 2986   5.243   6.228   2.205
  696SOL    HW1 2987   5.183   6.278   2.143
  696SOL    HW2 2988   5.298   6.294   2.257
  697SOL     OW 2989   1.567   3.676   3.816
  697SOL    HW1 2990   1.605   3.763   3.783
  697SOL    HW2 2991   1.510   3.636   3.744
  698SOL     OW 2992   4.642   5.591   3.924
  698SOL    HW1 2993   4.651   5.544   4.011
  698SOL    HW2 2994   4.546   5.619   3.911
  699SOL     OW 2995   1.065   4.623   6.542
  699SOL    HW1 2996   1.067   4.714   6.583
  699SOL    HW2 2997   1.010   4.562   6.599
  700SOL     OW 2998   1.791   1.960   4.804
  700SOL    HW1 2999   1.834   2.015   4.875
  700SOL    HW2 3000   1.858   1.897   4.764
  701SOL     OW 3001   0.870   4.598   4.965
  701SOL    HW1 3002   0.948   4.553   4.922
  701SOL    HW2 3003   0.902   4.671   5.025
  702SOL     OW 3004   5.858   5.936   5.305
  702SOL    HW1 3005   5.957   5.922   5.308
  702SOL    HW2 3006   5.817   5.900   5.388
  703SOL     OW 3007   4.995   4.283   6.349
  703SOL    HW1 3008   5.035   4.335   6.274
  703SOL    HW2 3009   5.043   4.196   6.359
  704SOL     OW 3010   2.312   6.924   2.144
  704SOL    HW1 3011   2.298   6.861   2.068
  704SOL    HW2 3012   2.362   6.877   2.217
  705SOL     OW 3013   0.585   1.859   3.754
  705SOL    HW1 3014   0.666   1.918   3.755
  705SOL    HW2 3015   0.611   1.768   3.788
  706SOL     OW 3016   5.169   3.329   4.395
  706SOL    HW1 3017   5.217   3.369   4.317
  706SOL    HW2 3018   5.229   3.264   4.442
  707SOL     OW 3019   5.094   2.610   2.992
  707SOL    HW1 3020   5.019   2.592   3.055
  707SOL    HW2 3021   5.176   2.635   3.044
  708SOL     OW 3022   4.282   0.742   2.484
  708SOL    HW1 3023   4.197   0.792   2.499
  708SOL    HW2 3024   4.350   0.804   2.445
  709SOL     OW 3025   1.111   5.473   6.918
  709SOL    HW1 3026   1.199   5.501   6.958
  709SOL    HW2 3027   1.040   5.474   6.989
  710SOL     OW 3028   3.083   3.897   2.777
  710SOL    HW1 3029   3.095   3.982   2.828
  710SOL    HW2 3030   3.152   3.831   2.805
  711SOL     OW 3031   0.420   0.964   5.072
  711SOL    HW1 3032   0.506   0.990   5.116
  711SOL    HW2 3033   0.378   0.889   5.123
  712SOL     OW 3034   0.354   3.575   2.984
  712SOL    HW1 3035   0.258   3.566   3.010
  712SOL    HW2 3036   0.366   3.654   2.923
  713SOL     OW 3037   3.257   3.696   4.565
  713SOL    HW1 3038   3.336   3.755   4.546
  713SOL    HW2 3039   3.231   3.705   4.661
  714SOL     OW 3040   4.874   4.695   5.265
  714SOL    HW1 3041   4.966   4.674   5.231
  714SOL    HW2 3042   4.868   4.671   5.362
  715SOL     OW 3043   6.177   0.112   6.459
  715SOL    HW1 3044   6.095   0.124   6.404
  715SOL    HW2 3045   6.250   0.073   6.402
  716SOL     OW 3046   6.201   5.202   0.925
  716SOL    HW1 3047   6.202   5.200   1.025
  716SOL    HW2 3048   6.110   5.177   0.891
  717SOL     OW 3049   6.234   3.285   6.273
  717SOL    HW1 3050   6.252   3.220   6.346
  717SOL    HW2 3051   6.320   3.309   6.227
  718SOL     OW 3052   2.661   2.805   6.819
  718SOL    HW1 3053   2.710   2.769   6.898
  718SOL    HW2 3054   2.724   2.815   6.742
  719SOL     OW 3055   5.301   4.488   0.116
  719SOL    HW1 3056   5.214   4.461   0.158
  719SOL    HW2 3057   5.304   4.588   0.108
  720SOL     OW 3058   3.715   1.427   5.866
  720SOL    HW1 3059   3.809   1.416   5.898
  720SOL    HW2 3060   3.653   1.376   5.925
  721SOL     OW 3061   1.061   7.016   5.316
  721SOL    HW1 3062   1.111   6.976   5.392
  721SOL    HW2 3063   0.965   0.005   5.341
  722SOL     OW 3064   4.846   6.957   5.166
  722SOL    HW1 3065   4.820   6.953   5.263
  722SOL    HW2 3066   4.765   6.941   5.109
  723SOL     OW 3067   1.409   3.589   1.735
  723SOL    HW1 3068   1.401   3.492   1.715
  723SOL    HW2 3069   1.340   3.615   1.803
  724SOL     OW 3070   0.368   1.604   5.254
  724SOL    HW1 3071   0.322   1.518   5.273
  724SOL    HW2 3072   0.342   1.672   5.323
  725SOL     OW 3073   2.481   5.374   2.210
  725SOL    HW1 3074   2.391   5.370   2.254
  725SOL    HW2 3075   2.509   5.283   2.183
  726SOL     OW 3076   5.215   6.125   5.385
  726SOL    HW1 3077   5.133   6.120   5.442
  726SOL    HW2 3078   5.262   6.036   5.386
  727SOL     OW 3079   2.299   4.378   4.417
  727SOL    HW1 3080   2.267   4.348   4.327
  727SOL    HW2 3081   2.279   4.307   4.485
  728SOL     OW 3082   6.707   2.922   5.706
  728SOL    HW1 3083   6.616   2.883   5.691
  728SOL    HW2 3084   6.756   2.866   5.773
  729SOL     OW 3085   4.205   1.245   0.883
  729SOL    HW1 3086   4.219   1.290   0.971
  729SOL    HW2 3087   4.111   1.262   0.852
  730SOL     OW 3088   5.813   1.604   4.590
  730SOL    HW1 3089   5.871   1.570   4.517
  730SOL    HW2 3090   5.833   1.701   4.606
  731SOL     OW 3091   7.011   2.584   4.258
  731SOL    HW1 3092   6.937   2.572   4.191
  731SOL    HW2 3093   0.044   2.661   4.230
  732SOL     OW 3094   0.663   3.532   3.562
  732SOL    HW1 3095   0.745   3.588   3.552
  732SOL    HW2 3096   0.623   3.547   3.653
  733SOL     OW 3097   4.347   5.286   4.437
  733SOL    HW1 3098   4.404   5.203   4.443
  733SOL    HW2 3099   4.256   5.266   4.472
  734SOL     OW 3100   0.926   5.909   0.011
  734SOL    HW1 3101   1.001   5.905   6.968
  734SOL    HW2 3102   0.839   5.919   6.987
  735SOL     OW 3103   2.768   4.779   6.821
  735SOL    HW1 3104   2.791   4.686   6.851
  735SOL    HW2 3105   2.669   4.793   6.828
  736SOL     OW 3106   5.848   0.641   2.635
  736SOL    HW1 3107   5.830   0.641   2.537
  736SOL    HW2 3108   5.765   0.614   2.685
  737SOL     OW 3109   5.412   4.117   0.423
  737SOL    HW1 3110   5.400   4.022   0.395
  737SOL    HW2 3111   5.466   4.166   0.355
  738SOL     OW 3112   0.920   4.217   3.108
  738SOL    HW1 3113   0.952   4.180   3.195
  738SOL    HW2 3114   0.963   4.305   3.091
  739SOL     OW 3115   4.738   6.422   6.505
  739SOL    HW1 3116   4.711   6.347   6.445
  739SOL    HW2 3117   4.831   6.407   6.538
  740SOL     OW 3118   5.318   0.062   0.025
  740SOL    HW1 3119   5.344   0.074   0.121
  740SOL    HW2 3120   5.399   0.039   6.995
  741SOL     OW 3121   2.699   0.526   3.992
  741SOL    HW1 3122   2.625   0.490   4.049
  741SOL    HW2 3123   2.780   0.541   4.048
  742SOL     OW 3124   1.206   6.862   2.709
  742SOL    HW1 3125   1.234   6.956   2.728
  742SOL    HW2 3126   1.217   6.843   2.612
  743SOL     OW 3127   1.625   3.104   4.115
  743SOL    HW1 3128   1.631   3.131   4.019
  743SOL    HW2 3129   1.539   3.056   4.131
  744SOL     OW 3130   6.501   5.207   0.495
  744SOL    HW1 3131   6.528   5.135   0.558
  744SOL    HW2 3132   6.482   5.291   0.546
  745SOL     OW 3133   1.627   5.812   3.018
  745SOL    HW1 3134   1.534   5.836   3.047
  745SOL    HW2 3135   1.683   5.894   3.012
  746SOL     OW 3136   3.583   0.516   3.193
  746SOL    HW1 3137   3.616   0.562   3.275
  746SOL    HW2 3138   3.484   0.530   3.185
  747SOL     OW 3139   6.420   3.471   0.956
  747SOL    HW1 3140   6.391   3.400   1.020
  747SOL    HW2 3141   6.392   3.560   0.991
  748SOL     OW 3142   3.791   2.983   2.759
  748SOL    HW1 3143   3.823   3.003   2.666
  748SOL    HW2 3144   3.770   2.886   2.767
  749SOL     OW 3145   5.875   2.436   5.046
  749SOL    HW1 3146   5.880   2.428   4.946
  749SOL    HW2 3147   5.781   2.457   5.073
  750SOL     OW 3148   3.152   3.277   1.652
  750SOL    HW1 3149   3.226   3.302   1.590
  750SOL    HW2 3150   3.075   3.242   1.599
  751SOL     OW 3151   5.291   1.488   0.539
  751SOL    HW1 3152   5.288   1.588   0.532
  751SOL    HW2 3153   5.229   1.448   0.472
  752SOL     OW 3154   4.549   0.840   1.631
  752SOL    HW1 3155   4.466   0.829   1.686
  752SOL    HW2 3156   4.629   0.822   1.689
  753SOL     OW 3157   4.025   1.657   2.735
  753SOL    HW1 3158   4.040   1.562   2.706
  753SOL    HW2 3159   3.965   1.703   2.669
  754SOL     OW 3160   5.446   5.591   0.399
  754SOL    HW1 3161   5.524   5.572   0.340
  754SOL    HW2 3162   5.421   5.688   0.391
  755SOL     OW 3163   6.432   5.637   2.713
  755SOL    HW1 3164   6.518   5.625   2.664
  755SOL    HW2 3165   6.361   5.580   2.671
  756SOL     OW 3166   3.241   6.366   3.598
  756SOL    HW1 3167   3.188   6.415   3.666
  756SOL    HW2 3168   3.249   6.270   3.625
  757SOL     OW 3169   6.751   1.179   3.478
  757SOL    HW1 3170   6.752   1.082   3.453
  757SOL    HW2 3171   6.656   1.209   3.488
  758SOL     OW 3172   4.547   2.280   1.009
  758SOL    HW1 3173   4.554   2.205   0.943
  758SOL    HW2 3174   4.511   2.245   1.096
  759SOL     OW 3175   2.039   1.116   1.146
  759SOL    HW1 3176   2.107   1.143   1.077
  759SOL    HW2 3177   1.948   1.142   1.115
  760SOL     OW 3178   5.006   2.209   5.743
  760SOL    HW1 3179   4.967   2.172   5.828
  760SOL    HW2 3180   4.934   2.217   5.674
  761SOL     OW 3181   5.387   1.124   6.595
  761SOL    HW1 3182   5.310   1.178   6.560
  761SOL    HW2 3183   5.465   1.135   6.534
  762SOL     OW 3184   2.189   4.703   4.387
  762SOL    HW1 3185   2.132   4.750   4.454
  762SOL    HW2 3186   2.142   4.620   4.356
  763SOL     OW 3187   6.184   5.205   6.848
  763SOL    HW1 3188   6.180   5.288   6.792
  763SOL    HW2 3189   6.126   5.216   6.929
  764SOL     OW 3190   5.619   1.122   2.970
  764SOL    HW1 3191   5.540   1.166   3.010
  764SOL    HW2 3192   5.643   1.040   3.023
  765SOL     OW 3193   0.202   6.748   3.045
  765SOL    HW1 3194   0.222   6.696   3.128
  765SOL    HW2 3195   0.105   6.743   3.024
  766SOL     OW 3196   6.798   6.722   0.152
  766SOL    HW1 3197   6.770   6.754   0.061
  766SOL    HW2 3198   6.761   6.631   0.168
  767SOL     OW 3199   6.068   5.914   1.598
  767SOL    HW1 3200   6.019   5.902   1.684
  767SOL    HW2 3201   6.015   5.976   1.538
  768SOL     OW 3202   3.083   6.733   4.065
  768SOL    HW1 3203   3.174   6.769   4.043
  768SOL    HW2 3204   3.013   6.789   4.020
  769SOL     OW 3205   3.896   0.891   0.497
  769SOL    HW1 3206   3.818   0.944   0.465
  769SOL    HW2 3207   3.888   0.797   0.463
  770SOL     OW 3208   2.977   4.837   4.338
  770SOL    HW1 3209   3.030   4.866   4.258
  770SOL    HW2 3210   2.884   4.814   4.309
  771SOL     OW 3211   0.596   5.841   4.727
  771SOL    HW1 3212   0.576   5.831   4.824
  771SOL    HW2 3213   0.631   5.933   4.709
  772SOL     OW 3214   0.001   4.347   6.028
  772SOL    HW1 3215   0.060   4.425   6.051
  772SOL    HW2 3216   6.933   4.380   6.005
  773SOL     OW 3217   0.148   3.376   2.316
  773SOL    HW1 3218   0.181   3.286   2.343
  773SOL    HW2 3219   0.175   3.444   2.385
  774SOL     OW 3220   1.503   1.142   1.750
  774SOL    HW1 3221   1.559   1.185   1.679
  774SOL    HW2 3222   1.431   1.088   1.707
  775SOL     OW 3223   1.820   2.606   4.171
  775SOL    HW1 3224   1.744   2.587   4.233
  775SOL    HW2 3225   1.784   2.626   4.079
  776SOL     OW 3226   2.218   0.607   5.048
  776SOL    HW1 3227   2.272   0.548   5.108
  776SOL    HW2 3228   2.133   0.632   5.094
  777SOL     OW 3229   4.337   6.884   6.610
  777SOL    HW1 3230   4.279   6.802   6.611
  777SOL    HW2 3231   4.367   6.903   6.704
  778SOL     OW 3232   4.420   5.397   4.884
  778SOL    HW1 3233   4.326   5.364   4.884
  778SOL    HW2 3234   4.446   5.425   4.791
  779SOL     OW 3235   0.581   0.524   2.214
  779SOL    HW1 3236   0.654   0.462   2.186
  779SOL    HW2 3237   0.541   0.568   2.134
  780SOL     OW 3238   5.234   2.785   4.829
  780SOL    HW1 3239   5.146   2.800   4.875
  780SOL    HW2 3240   5.220   2.782   4.730
  781SOL     OW 3241   0.594   2.695   6.425
  781SOL    HW1 3242   0.693   2.706   6.431
  781SOL    HW2 3243   0.571   2.646   6.341
  782SOL     OW 3244   0.053   4.526   0.371
  782SOL    HW1 3245   0.140   4.484   0.347
  782SOL    HW2 3246   7.022   4.539   0.288
  783SOL     OW 3247   2.305   4.705   6.974
  783SOL    HW1 3248   2.225   4.765   6.968
  783SOL    HW2 3249   2.283   4.616   6.934
  784SOL     OW 3250   5.106   5.220   3.430
  784SOL    HW1 3251   5.028   5.232   3.491
  784SOL    HW2 3252   5.166   5.149   3.466
  785SOL     OW 3253   6.140   2.229   4.147
  785SOL    HW1 3254   6.240   2.228   4.151
  785SOL    HW2 3255   6.111   2.212   4.053
  786SOL     OW 3256   6.015   6.745   0.462
  786SOL    HW1 3257   5.951   6.821   0.454
  786SOL    HW2 3258   6.082   6.764   0.534
  787SOL     OW 3259   4.624   0.900   6.882
  787SOL    HW1 3260   4.650   0.859   6.969
  787SOL    HW2 3261   4.706   0.922   6.829
  788SOL     OW 3262   1.012   4.465   3.078
  788SOL    HW1 3263   1.028   4.538   3.012
  788SOL    HW2 3264   0.997   4.504   3.168
  789SOL     OW 3265   5.394   2.775   0.964
  789SOL    HW1 3266   5.322   2.843   0.957
  789SOL    HW2 3267   5.460   2.803   1.034
  790SOL     OW 3268   3.327   0.368   3.823
  790SOL    HW1 3269   3.321   0.282   3.772
  790SOL    HW2 3270   3.404   0.421   3.789
  791SOL     OW 3271   4.226   1.560   5.085
  791SOL    HW1 3272   4.196   1.467   5.105
  791SOL    HW2 3273   4.171   1.598   5.011
  792SOL     OW 3274   5.142   0.433   3.506
  792SOL    HW1 3275   5.104   0.526   3.501
  792SOL    HW2 3276   5.155   0.408   3.602
  793SOL     OW 3277   0.011   0.387   6.488
  793SOL    HW1 3278   7.021   0.441   6.571
  793SOL    HW2 3279   6.988   0.431   6.411
  794SOL     OW 3280   3.696   4.907   5.116
  794SOL    HW1 3281   3.787   4.911   5.157
  794SOL    HW2 3282   3.705   4.905   5.016
  795SOL     OW 3283   4.947   4.831   6.755
  795SOL    HW1 3284   4.971   4.880   6.840
  795SOL    HW2 3285   4.992   4.875   6.678
  796SOL     OW 3286   0.243   1.387   5.838
  796SOL    HW1 3287   0.271   1.470   5.791
  796SOL    HW2 3288   0.198   1.410   5.924
  797SOL     OW 3289   6.158   2.867   5.652
  797SOL    HW1 3290   6.152   2.963   5.628
  797SOL    HW2 3291   6.241   2.851   5.706
  798SOL     OW 3292   6.644   0.713   4.872
  798SOL    HW1 3293   6.550   0.745   4.878
  798SOL    HW2 3294   6.696   0.773   4.810
  799SOL     OW 3295   6.864   3.635   3.363
  799SOL    HW1 3296   6.954   3.674   3.341
  799SOL    HW2 3297   6.845   3.560   3.300
  800SOL     OW 3298   6.961   1.613   1.885
  800SOL    HW1 3299   6.895   1.566   1.943
  800SOL    HW2 3300   6.970   1.565   1.798
  801SOL     OW 3301   0.447   2.513   3.940
  801SOL    HW1 3302   0.502   2.434   3.967
  801SOL    HW2 3303   0.499   2.569   3.876
  802SOL     OW 3304   6.290   1.783   1.800
  802SOL    HW1 3305   6.205   1.780   1.748
  802SOL    HW2 3306   6.280   1.844   1.878
  803SOL     OW 3307   1.514   0.130   5.039
  803SOL    HW1 3308   1.585   0.192   5.073
  803SOL    HW2 3309   1.455   0.102   5.115
  804SOL     OW 3310   6.228   6.839   0.603
  804SOL    HW1 3311   6.300   6.807   0.664
  804SOL    HW2 3312   6.222   6.939   0.608
  805SOL     OW 3313   1.838   3.208   5.327
  805SOL    HW1 3314   1.896   3.290   5.333
  805SOL    HW2 3315   1.878   3.144   5.262
  806SOL     OW 3316   5.083   0.279   0.220
  806SOL    HW1 3317   5.108   0.306   0.127
  806SOL    HW2 3318   5.041   0.188   0.219
  807SOL     OW 3319   0.813   0.006   2.837
  807SOL    HW1 3320   0.854   0.084   2.788
  807SOL    HW2 3321   0.775   0.038   2.924
  808SOL     OW 3322   6.091   3.754   5.150
  808SOL    HW1 3323   6.139   3.688   5.092
  808SOL    HW2 3324   6.087   3.843   5.103
  809SOL     OW 3325   0.715   5.624   6.087
  809SOL    HW1 3326   0.747   5.616   6.181
  809SOL    HW2 3327   0.793   5.619   6.024
  810SOL     OW 3328   6.668   5.390   6.242
  810SOL    HW1 3329   6.689   5.297   6.212
  810SOL    HW2 3330   6.628   5.441   6.166
  811SOL     OW 3331   3.732   5.194   3.346
  811SOL    HW1 3332   3.804   5.162   3.284
  811SOL    HW2 3333   3.719   5.128   3.420
  812SOL     OW 3334   6.956   0.464   2.442
  812SOL    HW1 3335   6.940   0.365   2.449
  812SOL    HW2 3336   6.883   0.513   2.490
  813SOL     OW 3337   5.634   5.484   1.883
  813SOL    HW1 3338   5.632   5.584   1.884
  813SOL    HW2 3339   5.542   5.449   1.864
  814SOL     OW 3340   5.382   5.473   1.281
  814SOL    HW1 3341   5.349   5.443   1.191
  814SOL    HW2 3342   5.305   5.506   1.336
  815SOL     OW 3343   0.748   1.095   0.384
  815SOL    HW1 3344   0.650   1.078   0.375
  815SOL    HW2 3345   0.785   1.035   0.455
  816SOL     OW 3346   5.387   0.406   1.688
  816SOL    HW1 3347   5.400   0.462   1.606
  816SOL    HW2 3348   5.467   0.348   1.702
  817SOL     OW 3349   0.514   2.133   1.906
  817SOL    HW1 3350   0.443   2.173   1.963
  817SOL    HW2 3351   0.557   2.204   1.851
  818SOL     OW 3352   5.256   1.642   2.152
  818SOL    HW1 3353   5.214   1.614   2.238
  818SOL    HW2 3354   5.270   1.741   2.153
  819SOL     OW 3355   0.077   5.361   2.160
  819SOL    HW1 3356   0.060   5.343   2.257
  819SOL    HW2 3357   0.125   5.284   2.119
  820SOL     OW 3358   1.361   2.648   4.944
  820SOL    HW1 3359   1.287   2.649   5.011
  820SOL    HW2 3360   1.440   2.699   4.979
  821SOL     OW 3361   1.044   4.191   0.350
  821SOL    HW1 3362   0.985   4.148   0.281
  821SOL    HW2 3363   1.092   4.120   0.401
  822SOL     OW 3364   1.392   3.184   4.609
  822SOL    HW1 3365   1.314   3.153   4.664
  822SOL    HW2 3366   1.466   3.117   4.616
  823SOL     OW 3367   3.473   3.677   1.631
  823SOL    HW1 3368   3.467   3.700   1.728
  823SOL    HW2 3369   3.510   3.584   1.621
  824SOL     OW 3370   6.323   2.502   6.103
  824SOL    HW1 3371   6.271   2.546   6.029
  824SOL    HW2 3372   6.406   2.554   6.122
  825SOL     OW 3373   1.403   3.764   1.513
  825SOL    HW1 3374   1.385   3.697   1.584
  825SOL    HW2 3375   1.317   3.794   1.472
  826SOL     OW 3376   1.321   3.590   5.877
  826SOL    HW1 3377   1.271   3.675   5.863
  826SOL    HW2 3378   1.383   3.574   5.800
  827SOL     OW 3379   3.143   4.980   0.914
  827SOL    HW1 3380   3.109   4.985   1.007
  827SOL    HW2 3381   3.099   4.905   0.866
  828SOL     OW 3382   6.346   0.354   5.968
  828SOL    HW1 3383   6.356   0.381   5.872
  828SOL    HW2 3384   6.295   0.424   6.017
  829SOL     OW 3385   3.368   3.403   5.174
  829SOL    HW1 3386   3.376   3.441   5.266
  829SOL    HW2 3387   3.400   3.308   5.175
  830SOL     OW 3388   4.418   3.707   5.961
  830SOL    HW1 3389   4.429   3.624   6.015
  830SOL    HW2 3390   4.320   3.723   5.943
  831SOL     OW 3391   5.992   0.209   4.158
  831SOL    HW1 3392   6.070   0.146   4.167
  831SOL    HW2 3393   6.024   0.297   4.124
  832SOL     OW 3394   2.057   1.631   5.466
  832SOL    HW1 3395   2.131   1.697   5.469
  832SOL    HW2 3396   2.087   1.545   5.509
  833SOL     OW 3397   1.224   0.505   5.922
  833SOL    HW1 3398   1.237   0.484   6.019
  833SOL    HW2 3399   1.136   0.468   5.891
  834SOL     OW 3400   3.323   4.466   5.991
  834SOL    HW1 3401   3.290   4.436   6.081
  834SOL    HW2 3402   3.359   4.388   5.941
  835SOL     OW 3403   4.154   1.100   2.906
  835SOL    HW1 3404   4.063   1.129   2.877
  835SOL    HW2 3405   4.199   1.175   2.954
  836SOL     OW 3406   2.580   0.962   6.664
  836SOL    HW1 3407   2.545   0.887   6.719
  836SOL    HW2 3408   2.557   0.947   6.568
  837SOL     OW 3409   4.014   1.424   4.762
  837SOL    HW1 3410   4.055   1.507   4.800
  837SOL    HW2 3411   4.069   1.392   4.685
  838SOL     OW 3412   0.875   6.273   2.341
  838SOL    HW1 3413   0.875   6.344   2.412
  838SOL    HW2 3414   0.964   6.229   2.338
  839SOL     OW 3415   3.148   1.450   1.915
  839SOL    HW1 3416   3.101   1.496   1.840
  839SOL    HW2 3417   3.091   1.376   1.950
  840SOL     OW 3418   0.570   1.752   5.611
  840SOL    HW1 3419   0.493   1.815   5.603
  840SOL    HW2 3420   0.610   1.736   5.520
  841SOL     OW 3421   0.302   3.498   1.020
  841SOL    HW1 3422   0.364   3.549   0.960
  841SOL    HW2 3423   0.311   3.532   1.113
  842SOL     OW 3424   3.341   5.239   3.979
  842SOL    HW1 3425   3.358   5.327   3.936
  842SOL    HW2 3426   3.411   5.174   3.950
  843SOL     OW 3427   0.071   3.902   1.993
  843SOL    HW1 3428   0.103   3.813   2.026
  843SOL    HW2 3429   0.128   3.974   2.031
  844SOL     OW 3430   5.675   4.697   7.023
  844SOL    HW1 3431   5.741   4.772   0.004
  844SOL    HW2 3432   5.718   4.612   0.027
  845SOL     OW 3433   1.660   5.089   5.477
  845SOL    HW1 3434   1.738   5.030   5.499
  845SOL    HW2 3435   1.621   5.126   5.561
  846SOL     OW 3436   4.458   2.574   7.018
  846SOL    HW1 3437   4.410   2.558   6.931
  846SOL    HW2 3438   4.552   2.603   6.999
  847SOL     OW 3439   5.257   3.814   2.398
  847SOL    HW1 3440   5.212   3.728   2.423
  847SOL    HW2 3441   5.269   3.818   2.299
  848SOL     OW 3442   6.167   6.722   5.275
  848SOL    HW1 3443   6.207   6.811   5.295
  848SOL    HW2 3444   6.090   6.706   5.337
  849SOL     OW 3445   0.920   5.474   3.889
  849SOL    HW1 3446   0.864   5.537   3.942
  849SOL    HW2 3447   0.932   5.389   3.940
  850SOL     OW 3448   4.009   0.465   3.317
  850SOL    HW1 3449   3.927   0.439   3.367
  850SOL    HW2 3450   4.032   0.394   3.251
  851SOL     OW 3451   6.952   0.791   5.718
  851SOL    HW1 3452   6.856   0.794   5.691
  851SOL    HW2 3453   6.958   0.767   5.815
  852SOL     OW 3454   2.879   4.543   5.609
  852SOL    HW1 3455   2.933   4.625   5.627
  852SOL    HW2 3456   2.805   4.565   5.545
  853SOL     OW 3457   0.792   3.997   0.557
  853SOL    HW1 3458   0.874   4.037   0.517
  853SOL    HW2 3459   0.795   4.008   0.657
  854SOL     OW 3460   6.025   5.040   1.434
  854SOL    HW1 3461   6.050   4.945   1.456
  854SOL    HW2 3462   6.057   5.101   1.506
  855SOL     OW 3463   5.415   0.508   0.484
  855SOL    HW1 3464   5.484   0.550   0.424
  855SOL    HW2 3465   5.417   0.409   0.473
  856SOL     OW 3466   1.488   0.665   5.218
  856SOL    HW1 3467   1.458   0.695   5.127
  856SOL    HW2 3468   1.553   0.731   5.255
  857SOL     OW 3469   5.526   3.358   1.372
  857SOL    HW1 3470   5.479   3.367   1.460
  857SOL    HW2 3471   5.576   3.272   1.370
  858SOL     OW 3472   3.733   3.501   1.761
  858SOL    HW1 3473   3.655   3.497   1.823
  858SOL    HW2 3474   3.806   3.442   1.796
  859SOL     OW 3475   0.051   4.316   0.915
  859SOL    HW1 3476   0.014   4.350   0.828
  859SOL    HW2 3477   0.137   4.362   0.935
  860SOL     OW 3478   1.613   4.139   6.634
  860SOL    HW1 3479   1.658   4.195   6.703
  860SOL    HW2 3480   1.663   4.053   6.622
  861SOL     OW 3481   3.641   4.332   5.750
  861SOL    HW1 3482   3.697   4.382   5.815
  861SOL    HW2 3483   3.678   4.343   5.658
  862SOL     OW 3484   4.589   4.454   3.106
  862SOL    HW1 3485   4.556   4.483   3.016
  862SOL    HW2 3486   4.684   4.484   3.118
  863SOL     OW 3487   5.789   2.333   1.148
  863SOL    HW1 3488   5.800   2.318   1.246
  863SOL    HW2 3489   5.795   2.246   1.099
  864SOL     OW 3490   0.349   5.191   2.930
  864SOL    HW1 3491   0.335   5.289   2.947
  864SOL    HW2 3492   0.405   5.153   3.004
  865SOL     OW 3493   2.139   1.000   3.594
  865SOL    HW1 3494   2.119   0.932   3.523
  865SOL    HW2 3495   2.237   1.003   3.611
  866SOL     OW 3496   4.951   0.898   1.208
  866SOL    HW1 3497   4.893   0.916   1.288
  866SOL    HW2 3498   4.893   0.881   1.129
  867SOL     OW 3499   2.344   1.743   6.434
  867SOL    HW1 3500   2.345   1.754   6.335
  867SOL    HW2 3501   2.373   1.650   6.458
  868SOL     OW 3502   5.595   2.605   3.474
  868SOL    HW1 3503   5.516   2.550   3.501
  868SOL    HW2 3504   5.621   2.583   3.380
  869SOL     OW 3505   6.527   3.920   1.139
  869SOL    HW1 3506   6.455   3.855   1.114
  869SOL    HW2 3507   6.609   3.900   1.085
  870SOL     OW 3508   6.457   2.031   0.413
  870SOL    HW1 3509   6.457   2.101   0.341
  870SOL    HW2 3510   6.546   1.986   0.415
  871SOL     OW 3511   6.214   4.406   0.645
  871SOL    HW1 3512   6.188   4.333   0.581
  871SOL    HW2 3513   6.311   4.428   0.634
  872SOL     OW 3514   0.214   1.950   1.803
  872SOL    HW1 3515   0.161   1.955   1.719
  872SOL    HW2 3516   0.311   1.936   1.781
  873SOL     OW 3517   3.369   6.608   4.823
  873SOL    HW1 3518   3.354   6.599   4.724
  873SOL    HW2 3519   3.407   6.698   4.843
  874SOL     OW 3520   0.676   4.267   6.727
  874SOL    HW1 3521   0.643   4.287   6.635
  874SOL    HW2 3522   0.766   4.222   6.721
  875SOL     OW 3523   6.546   5.555   6.056
  875SOL    HW1 3524   6.510   5.523   5.968
  875SOL    HW2 3525   6.478   5.612   6.101
  876SOL     OW 3526   2.136   1.822   1.346
  876SOL    HW1 3527   2.117   1.782   1.257
  876SOL    HW2 3528   2.055   1.814   1.405
  877SOL     OW 3529   5.191   5.482   6.866
  877SOL    HW1 3530   5.238   5.492   6.954
  877SOL    HW2 3531   5.259   5.465   6.794
  878SOL     OW 3532   3.757   2.885   0.826
  878SOL    HW1 3533   3.702   2.810   0.863
  878SOL    HW2 3534   3.755   2.963   0.890
  879SOL     OW 3535   4.792   3.007   3.214
  879SOL    HW1 3536   4.889   2.982   3.218
  879SOL    HW2 3537   4.736   2.925   3.216
  880SOL     OW 3538   4.394   5.606   1.690
  880SOL    HW1 3539   4.446   5.642   1.768
  880SOL    HW2 3540   4.436   5.636   1.605
  881SOL     OW 3541   4.878   4.527   3.071
  881SOL    HW1 3542   4.915   4.465   3.140
  881SOL    HW2 3543   4.827   4.600   3.117
  882SOL     OW 3544   0.637   2.232   4.487
  882SOL    HW1 3545   0.571   2.261   4.417
  882SOL    HW2 3546   0.727   2.220   4.446
  883SOL     OW 3547   3.099   4.803   6.937
  883SOL    HW1 3548   3.004   4.824   6.914
  883SOL    HW2 3549   3.125   4.852   7.020
  884SOL     OW 3550   4.037   4.111   1.740
  884SOL    HW1 3551   3.964   4.043   1.743
  884SOL    HW2 3552   4.001   4.200   1.767
  885SOL     OW 3553   4.826   5.774   5.383
  885SOL    HW1 3554   4.744   5.726   5.353
  885SOL    HW2 3555   4.801   5.868   5.409
  886SOL     OW 3556   3.869   2.212   6.690
  886SOL    HW1 3557   3.780   2.252   6.667
  886SOL    HW2 3558   3.942   2.272   6.657
  887SOL     OW 3559   5.900   6.126   5.097
  887SOL    HW1 3560   5.932   6.044   5.049
  887SOL    HW2 3561   5.846   6.098   5.176
  888SOL     OW 3562   6.402   0.483   3.487
  888SOL    HW1 3563   6.475   0.497   3.554
  888SOL    HW2 3564   6.393   0.386   3.467
  889SOL     OW 3565   0.740   0.206   4.625
  889SOL    HW1 3566   0.640   0.208   4.620
  889SOL    HW2 3567   0.769   0.135   4.688
  890SOL     OW 3568   1.628   3.988   1.930
  890SOL    HW1 3569   1.599   4.036   2.013
  890SOL    HW2 3570   1.558   3.923   1.902
  891SOL     OW 3571   5.741   3.767   6.638
  891SOL    HW1 3572   5.678   3.691   6.625
  891SOL    HW2 3573   5.826   3.749   6.589
  892SOL     OW 3574   1.969   5.590   1.802
  892SOL    HW1 3575   1.894   5.615   1.741
  892SOL    HW2 3576   2.056   5.604   1.756
  893SOL     OW 3577   2.137   0.437   2.169
  893SOL    HW1 3578   2.168   0.408   2.259
  893SOL    HW2 3579   2.169   0.372   2.100
  894SOL     OW 3580   1.305   5.442   4.535
  894SOL    HW1 3581   1.289   5.532   4.576
  894SOL    HW2 3582   1.223   5.412   4.486
  895SOL     OW 3583   2.320   0.621   4.608
  895SOL    HW1 3584   2.297   0.701   4.663
  895SOL    HW2 3585   2.313   0.645   4.511
  896SOL     OW 3586   5.023   6.404   3.422
  896SOL    HW1 3587   5.016   6.455   3.508
  896SOL    HW2 3588   5.118   6.404   3.391
  897SOL     OW 3589   5.497   1.346   6.181
  897SOL    HW1 3590   5.575   1.401   6.211
  897SOL    HW2 3591   5.443   1.397   6.115
  898SOL     OW 3592   5.438   6.506   3.595
  898SOL    HW1 3593   5.456   6.550   3.507
  898SOL    HW2 3594   5.346   6.530   3.626
  899SOL     OW 3595   1.648   4.773   0.197
  899SOL    HW1 3596   1.665   4.860   0.242
  899SOL    HW2 3597   1.658   4.784   0.098
  900SOL     OW 3598   0.438   5.061   3.382
  900SOL    HW1 3599   0.484   5.099   3.301
  900SOL    HW2 3600   0.349   5.025   3.355
  901SOL     OW 3601   6.069   2.024   3.880
  901SOL    HW1 3602   6.138   2.085   3.840
  901SOL    HW2 3603   5.982   2.073   3.887
  902SOL     OW 3604   1.280   6.369   0.075
  902SOL    HW1 3605   1.232   6.296   0.125
  902SOL    HW2 3606   1.359   6.330   0.028
  903SOL     OW 3607   0.623   5.078   6.594
  903SOL    HW1 3608   0.532   5.062   6.557
  903SOL    HW2 3609   0.669   5.148   6.540
  904SOL     OW 3610   2.187   1.021   4.376
  904SOL    HW1 3611   2.201   0.922   4.371
  904SOL    HW2 3612   2.256   1.067   4.321
  905SOL     OW 3613   6.163   2.996   4.023
  905SOL    HW1 3614   6.211   3.054   3.957
  905SOL    HW2 3615   6.080   3.042   4.054
  906SOL     OW 3616   6.317   3.833   5.560
  906SOL    HW1 3617   6.347   3.875   5.475
  906SOL    HW2 3618   6.228   3.870   5.586
  907SOL     OW 3619   0.522   3.313   2.337
  907SOL    HW1 3620   0.458   3.246   2.300
  907SOL    HW2 3621   0.472   3.380   2.391
  908SOL     OW 3622   2.727   1.258   3.800
  908SOL    HW1 3623   2.667   1.323   3.754
  908SOL    HW2 3624   2.724   1.170   3.752
  909SOL     OW 3625   4.078   6.413   1.089
  909SOL    HW1 3626   4.177   6.420   1.077
  909SOL    HW2 3627   4.031   6.441   1.005
  910SOL     OW 3628   1.870   1.199   1.854
  910SOL    HW1 3629   1.954   1.253   1.842
  910SOL    HW2 3630   1.894   1.109   1.891
  911SOL     OW 3631   0.401   3.343   0.647
  911SOL    HW1 3632   0.400   3.260   0.703
  911SOL    HW2 3633   0.478   3.338   0.583
  912SOL     OW 3634   1.668   1.330   0.044
  912SOL    HW1 3635   1.597   1.399   0.032
  912SOL    HW2 3636   1.740   1.343   6.999
  913SOL     OW 3637   2.175   1.709   2.703
  913SOL    HW1 3638   2.088   1.676   2.666
  913SOL    HW2 3639   2.172   1.808   2.714
  914SOL     OW 3640   2.749   5.070   1.940
  914SOL    HW1 3641   2.677   5.063   1.871
  914SOL    HW2 3642   2.821   5.004   1.920
  915SOL     OW 3643   2.457   2.045   0.888
  915SOL    HW1 3644   2.391   2.116   0.913
  915SOL    HW2 3645   2.502   2.070   0.802
  916SOL     OW 3646   1.111   3.397   2.678
  916SOL    HW1 3647   1.044   3.326   2.653
  916SOL    HW2 3648   1.103   3.417   2.775
  917SOL     OW 3649   3.730   0.939   6.128
  917SOL    HW1 3650   3.823   0.907   6.112
  917SOL    HW2 3651   3.666   0.864   6.113
  918SOL     OW 3652   0.477   2.022   4.597
  918SOL    HW1 3653   0.538   2.098   4.573
  918SOL    HW2 3654   0.452   1.972   4.515
  919SOL     OW 3655   1.384   0.272   1.041
  919SOL    HW1 3656   1.444   0.344   1.075
  919SOL    HW2 3657   1.294   0.281   1.083
  920SOL     OW 3658   1.503   1.509   2.763
  920SOL    HW1 3659   1.528   1.598   2.727
  920SOL    HW2 3660   1.486   1.446   2.687
  921SOL     OW 3661   3.840   4.425   0.229
  921SOL    HW1 3662   3.807   4.358   0.296
  921SOL    HW2 3663   3.936   4.407   0.209
  922SOL     OW 3664   2.534   6.062   6.944
  922SOL    HW1 3665   2.561   6.129   7.013
  922SOL    HW2 3666   2.443   6.085   6.908
  923SOL     OW 3667   4.246   1.186   0.038
  923SOL    HW1 3668   4.222   1.283   0.037
  923SOL    HW2 3669   4.308   1.168   0.114
  924SOL     OW 3670   6.079   4.853   2.620
  924SOL    HW1 3671   6.114   4.875   2.529
  924SOL    HW2 3672   6.148   4.875   2.689
  925SOL     OW 3673   6.961   1.895   2.333
  925SOL    HW1 3674   6.992   1.959   2.263
  925SOL    HW2 3675   7.002   1.919   2.421
  926SOL     OW 3676   3.776   5.896   1.468
  926SOL    HW1 3677   3.692   5.893   1.522
  926SOL    HW2 3678   3.790   5.988   1.431
  927SOL     OW 3679   4.764   5.405   4.764
  927SOL    HW1 3680   4.735   5.342   4.692
  927SOL    HW2 3681   4.749   5.363   4.853
  928SOL     OW 3682   0.398   1.604   1.759
  928SOL    HW1 3683   0.475   1.666   1.768
  928SOL    HW2 3684   0.328   1.627   1.828
  929SOL     OW 3685   0.192   1.996   2.081
  929SOL    HW1 3686   0.170   1.996   1.983
  929SOL    HW2 3687   0.260   2.066   2.100
  930SOL     OW 3688   6.130   4.950   2.148
  930SOL    HW1 3689   6.176   5.033   2.118
  930SOL    HW2 3690   6.032   4.965   2.151
  931SOL     OW 3691   1.065   3.100   1.911
  931SOL    HW1 3692   1.157   3.139   1.920
  931SOL    HW2 3693   1.062   3.040   1.832
  932SOL     OW 3694   4.776   5.779   1.519
  932SOL    HW1 3695   4.728   5.691   1.516
  932SOL    HW2 3696   4.720   5.845   1.569
  933SOL     OW 3697   0.953   6.540   3.303
  933SOL    HW1 3698   0.996   6.531   3.213
  933SOL    HW2 3699   0.908   6.454   3.328
  934SOL     OW 3700   3.129   1.588   5.575
  934SOL    HW1 3701   3.192   1.661   5.598
  934SOL    HW2 3702   3.096   1.600   5.481
  935SOL     OW 3703   1.388   4.149   4.662
  935SOL    HW1 3704   1.364   4.071   4.604
  935SOL    HW2 3705   1.486   4.146   4.683
  936SOL     OW 3706   1.287   1.678   1.955
  936SOL    HW1 3707   1.238   1.715   1.876
  936SOL    HW2 3708   1.369   1.630   1.924
  937SOL     OW 3709   5.016   1.971   3.556
  937SOL    HW1 3710   4.945   2.019   3.504
  937SOL    HW2 3711   5.038   2.024   3.638
  938SOL     OW 3712   0.621   1.190   6.482
  938SOL    HW1 3713   0.524   1.188   6.455
  938SOL    HW2 3714   0.677   1.152   6.408
  939SOL     OW 3715   6.012   1.018   4.973
  939SOL    HW1 3716   6.047   0.983   5.060
  939SOL    HW2 3717   6.088   1.035   4.910
  940SOL     OW 3718   6.645   0.625   3.975
  940SOL    HW1 3719   6.719   0.676   4.018
  940SOL    HW2 3720   6.658   0.624   3.876
  941SOL     OW 3721   5.961   2.665   5.332
  941SOL    HW1 3722   5.961   2.567   5.313
  941SOL    HW2 3723   5.877   2.689   5.381
  942SOL     OW 3724   4.657   0.192   4.973
  942SOL    HW1 3725   4.634   0.139   5.054
  942SOL    HW2 3726   4.664   0.289   4.997
  943SOL     OW 3727   5.216   2.405   0.444
  943SOL    HW1 3728   5.133   2.388   0.497
  943SOL    HW2 3729   5.290   2.349   0.480
  944SOL     OW 3730   4.968   4.528   4.019
  944SOL    HW1 3731   5.046   4.507   3.959
  944SOL    HW2 3732   4.979   4.480   4.106
  945SOL     OW 3733   5.562   3.563   6.540
  945SOL    HW1 3734   5.471   3.579   6.580
  945SOL    HW2 3735   5.578   3.465   6.534
  946SOL     OW 3736   5.661   3.662   6.925
  946SOL    HW1 3737   5.596   3.622   6.860
  946SOL    HW2 3738   5.697   3.747   6.886
  947SOL     OW 3739   0.554   2.643   5.261
  947SOL    HW1 3740   0.458   2.663   5.244
  947SOL    HW2 3741   0.561   2.578   5.337
  948SOL     OW 3742   3.810   1.366   1.058
  948SOL    HW1 3743   3.854   1.453   1.078
  948SOL    HW2 3744   3.720   1.363   1.102
  949SOL     OW 3745   5.337   6.396   6.020
  949SOL    HW1 3746   5.354   6.357   6.111
  949SOL    HW2 3747   5.418   6.447   5.991
  950SOL     OW 3748   3.375   5.114   0.837
  950SOL    HW1 3749   3.344   5.194   0.785
  950SOL    HW2 3750   3.295   5.061   0.867
  951SOL     OW 3751   1.490   2.925   3.826
  951SOL    HW1 3752   1.434   2.965   3.899
  951SOL    HW2 3753   1.572   2.884   3.866
  952SOL     OW 3754   5.123   1.286   1.268
  952SOL    HW1 3755   5.149   1.202   1.221
  952SOL    HW2 3756   5.037   1.321   1.231
  953SOL     OW 3757   4.409   6.516   5.816
  953SOL    HW1 3758   4.322   6.482   5.850
  953SOL    HW2 3759   4.430   6.474   5.728
  954SOL     OW 3760   6.349   0.582   1.090
  954SOL    HW1 3761   6.418   0.650   1.063
  954SOL    HW2 3762   6.281   0.626   1.150
  955SOL     OW 3763   0.712   5.856   2.708
  955SOL    HW1 3764   0.636   5.918   2.694
  955SOL    HW2 3765   0.682   5.762   2.692
  956SOL     OW 3766   1.588   2.731   0.854
  956SOL    HW1 3767   1.530   2.788   0.796
  956SOL    HW2 3768   1.628   2.657   0.799
  957SOL     OW 3769   2.025   6.659   4.972
  957SOL    HW1 3770   2.009   6.678   5.069
  957SOL    HW2 3771   2.095   6.588   4.964
  958SOL     OW 3772   4.709   2.618   6.952
  958SOL    HW1 3773   4.717   2.574   6.863
  958SOL    HW2 3774   4.771   2.696   6.957
  959SOL     OW 3775   1.622   3.745   0.719
  959SOL    HW1 3776   1.656   3.835   0.748
  959SOL    HW2 3777   1.544   3.757   0.657
  960SOL     OW 3778   1.646   4.746   5.716
  960SOL    HW1 3779   1.662   4.651   5.688
  960SOL    HW2 3780   1.628   4.749   5.815
  961SOL     OW 3781   3.271   6.449   7.011
  961SOL    HW1 3782   3.364   6.415   6.998
  961SOL    HW2 3783   3.217   6.431   6.929
  962SOL     OW 3784   1.027   0.148   3.367
  962SOL    HW1 3785   1.004   0.146   3.464
  962SOL    HW2 3786   0.987   0.230   3.325
  963SOL     OW 3787   5.708   6.930   2.055
  963SOL    HW1 3788   5.676   7.022   2.075
  963SOL    HW2 3789   5.630   6.870   2.042
  964SOL     OW 3790   5.947   3.665   1.373
  964SOL    HW1 3791   5.923   3.597   1.443
  964SOL    HW2 3792   5.899   3.751   1.392
  965SOL     OW 3793   1.764   1.697   0.484
  965SOL    HW1 3794   1.677   1.679   0.530
  965SOL    HW2 3795   1.838   1.694   0.551
  966SOL     OW 3796   6.338   2.629   2.600
  966SOL    HW1 3797   6.404   2.623   2.525
  966SOL    HW2 3798   6.266   2.561   2.588
  967SOL     OW 3799   1.385   5.532   2.573
  967SOL    HW1 3800   1.305   5.578   2.612
  967SOL    HW2 3801   1.468   5.561   2.621
  968SOL     OW 3802   6.326   4.082   0.485
  968SOL    HW1 3803   6.259   4.045   0.421
  968SOL    HW2 3804   6.410   4.105   0.436
  969SOL     OW 3805   4.017   6.150   6.194
  969SOL    HW1 3806   4.053   6.107   6.111
  969SOL    HW2 3807   4.031   6.089   6.272
  970SOL     OW 3808   5.097   3.240   5.868
  970SOL    HW1 3809   5.066   3.286   5.951
  970SOL    HW2 3810   5.103   3.142   5.885
  971SOL     OW 3811   0.172   2.880   6.980
  971SOL    HW1 3812   0.107   2.955   6.973
  971SOL    HW2 3813   0.263   2.913   6.955
  972SOL     OW 3814   4.967   6.718   0.738
  972SOL    HW1 3815   4.877   6.677   0.744
  972SOL    HW2 3816   4.958   6.815   0.715
  973SOL     OW 3817   6.090   3.478   6.434
  973SOL    HW1 3818   6.141   3.416   6.374
  973SOL    HW2 3819   6.132   3.479   6.525
  974SOL     OW 3820   1.848   0.545   4.546
  974SOL    HW1 3821   1.785   0.468   4.549
  974SOL    HW2 3822   1.937   0.517   4.583
  975SOL     OW 3823   2.879   0.238   5.592
  975SOL    HW1 3824   2.955   0.285   5.547
  975SOL    HW2 3825   2.795   0.290   5.577
  976SOL     OW 3826   0.328   4.535   3.624
  976SOL    HW1 3827   0.237   4.576   3.621
  976SOL    HW2 3828   0.323   4.444   3.664
  977SOL     OW 3829   0.729   2.454   2.251
  977SOL    HW1 3830   0.753   2.430   2.157
  977SOL    HW2 3831   0.771   2.542   2.275
  978SOL     OW 3832   5.562   2.870   4.645
  978SOL    HW1 3833   5.523   2.899   4.558
  978SOL    HW2 3834   5.539   2.937   4.716
  979SOL     OW 3835   5.935   1.633   3.157
  979SOL    HW1 3836   5.908   1.602   3.248
  979SOL    HW2 3837   6.011   1.577   3.124
  980SOL     OW 3838   6.863   0.072   5.659
  980SOL    HW1 3839   6.885   0.060   5.756
  980SOL    HW2 3840   6.776   0.027   5.639
  981SOL     OW 3841   6.276   2.869   5.996
  981SOL    HW1 3842   6.227   2.786   5.971
  981SOL    HW2 3843   6.323   2.857   6.083
  982SOL     OW 3844   1.269   4.267   0.900
  982SOL    HW1 3845   1.364   4.279   0.929
  982SOL    HW2 3846   1.267   4.238   0.804
  983SOL     OW 3847   5.283   1.652   3.597
  983SOL    HW1 3848   5.329   1.566   3.572
  983SOL    HW2 3849   5.307   1.723   3.530
  984SOL     OW 3850   4.798   3.011   5.621
  984SOL    HW1 3851   4.762   2.972   5.706
  984SOL    HW2 3852   4.805   3.110   5.630
  985SOL     OW 3853   1.786   4.476   0.596
  985SOL    HW1 3854   1.766   4.412   0.522
  985SOL    HW2 3855   1.704   4.527   0.619
  986SOL     OW 3856   4.708   4.314   6.246
  986SOL    HW1 3857   4.787   4.255   6.262
  986SOL    HW2 3858   4.736   4.410   6.255
  987SOL     OW 3859   3.949   6.613   2.682
  987SOL    HW1 3860   3.927   6.677   2.608
  987SOL    HW2 3861   3.908   6.646   2.767
  988SOL     OW 3862   3.538   2.827   1.275
  988SOL    HW1 3863   3.479   2.889   1.328
  988SOL    HW2 3864   3.488   2.743   1.256
  989SOL     OW 3865   0.534   0.654   4.695
  989SOL    HW1 3866   0.461   0.700   4.644
  989SOL    HW2 3867   0.502   0.635   4.788
  990SOL     OW 3868   5.348   6.313   1.814
  990SOL    HW1 3869   5.388   6.362   1.737
  990SOL    HW2 3870   5.372   6.216   1.808
  991SOL     OW 3871   5.906   1.731   5.459
  991SOL    HW1 3872   5.937   1.654   5.404
  991SOL    HW2 3873   5.974   1.805   5.455
  992SOL     OW 3874   7.013   2.777   1.300
  992SOL    HW1 3875   0.065   2.743   1.244
  992SOL    HW2 3876   0.025   2.813   1.386
  993SOL     OW 3877   3.798   6.619   4.922
  993SOL    HW1 3878   3.844   6.592   5.007
  993SOL    HW2 3879   3.715   6.565   4.910
  994SOL     OW 3880   3.010   3.281   2.609
  994SOL    HW1 3881   3.033   3.191   2.647
  994SOL    HW2 3882   3.068   3.300   2.530
  995SOL     OW 3883   0.512   1.239   4.574
  995SOL    HW1 3884   0.487   1.220   4.479
  995SOL    HW2 3885   0.466   1.322   4.606
  996SOL     OW 3886   0.789   3.213   0.227
  996SOL    HW1 3887   0.815   3.297   0.274
  996SOL    HW2 3888   0.707   3.175   0.271
  997SOL     OW 3889   0.155   1.895   0.812
  997SOL    HW1 3890   0.238   1.931   0.854
  997SOL    HW2 3891   0.121   1.817   0.864
  998SOL     OW 3892   5.154   6.896   3.365
  998SOL    HW1 3893   5.071   6.933   3.325
  998SOL    HW2 3894   5.204   6.842   3.297
  999SOL     OW 3895   6.147   5.481   1.390
  999SOL    HW1 3896   6.072   5.493   1.454
  999SOL    HW2 3897   6.226   5.534   1.420
 1000SOL     OW 3898   4.393   2.031   4.597
 1000SOL    HW1 3899   4.464   1.966   4.623
 1000SOL    HW2 3900   4.361   2.009   4.504
 1001SOL     OW 3901   4.609   1.426   5.588
 1001SOL    HW1 3902   4.685   1.448   5.527
 1001SOL    HW2 3903   4.594   1.327   5.587
 1002SOL     OW 3904   0.436   1.494   0.844
 1002SOL    HW1 3905   0.348   1.498   0.797
 1002SOL    HW2 3906   0.424   1.515   0.941
 1003SOL     OW 3907   4.117   5.108   2.739
 1003SOL    HW1 3908   4.093   5.037   2.673
 1003SOL    HW2 3909   4.159   5.066   2.820
 1004SOL     OW 3910   5.903   5.931   7.012
 1004SOL    HW1 3911   5.997   5.926   0.020
 1004SOL    HW2 3912   5.894   5.882   6.925
 1005SOL     OW 3913   6.667   5.590   3.544
 1005SOL    HW1 3914   6.652   5.661   3.475
 1005SOL    HW2 3915   6.583   5.575   3.595
 1006SOL     OW 3916   2.039   4.768   6.939
 1006SOL    HW1 3917   2.028   4.684   6.885
 1006SOL    HW2 3918   1.996   4.756   0.005
 1007SOL     OW 3919   0.339   1.295   3.161
 1007SOL    HW1 3920   0.337   1.373   3.099
 1007SOL    HW2 3921   0.422   1.241   3.145
 1008SOL     OW 3922   2.815   2.227   5.054
 1008SOL    HW1 3923   2.912   2.245   5.039
 1008SOL    HW2 3924   2.763   2.312   5.041
 1009SOL     OW 3925   3.187   6.085   5.834
 1009SOL    HW1 3926   3.194   6.007   5.896
 1009SOL    HW2 3927   3.278   6.119   5.812
 1010SOL     OW 3928   5.398   6.972   5.104
 1010SOL    HW1 3929   5.336   0.026   5.091
 1010SOL    HW2 3930   5.460   6.992   5.180
 1011SOL     OW 3931   2.908   5.577   3.950
 1011SOL    HW1 3932   2.901   5.674   3.930
 1011SOL    HW2 3933   2.957   5.564   4.036
 1012SOL     OW 3934   3.757   6.052   0.734
 1012SOL    HW1 3935   3.779   6.045   0.831
 1012SOL    HW2 3936   3.779   6.144   0.702
 1013SOL     OW 3937   0.867   0.507   0.050
 1013SOL    HW1 3938   0.887   0.514   0.147
 1013SOL    HW2 3939   0.900   0.590   0.004
 1014SOL     OW 3940   5.740   6.900   5.558
 1014SOL    HW1 3941   5.722   6.817   5.611
 1014SOL    HW2 3942   5.722   6.980   5.615
 1015SOL     OW 3943   2.771   0.603   4.779
 1015SOL    HW1 3944   2.835   0.571   4.709
 1015SOL    HW2 3945   2.689   0.639   4.734
 1016SOL     OW 3946   4.450   2.575   1.689
 1016SOL    HW1 3947   4.426   2.669   1.713
 1016SOL    HW2 3948   4.532   2.548   1.739
 1017SOL     OW 3949   4.947   0.708   6.116
 1017SOL    HW1 3950   5.002   0.696   6.199
 1017SOL    HW2 3951   4.872   0.772   6.135
 1018SOL     OW 3952   1.772   3.075   1.632
 1018SOL    HW1 3953   1.854   3.027   1.599
 1018SOL    HW2 3954   1.796   3.132   1.711
 1019SOL     OW 3955   6.444   1.819   0.754
 1019SOL    HW1 3956   6.448   1.733   0.703
 1019SOL    HW2 3957   6.526   1.872   0.736
 1020SOL     OW 3958   3.454   2.154   1.761
 1020SOL    HW1 3959   3.526   2.212   1.798
 1020SOL    HW2 3960   3.433   2.081   1.826
 1021SOL     OW 3961   6.539   1.225   1.216
 1021SOL    HW1 3962   6.567   1.192   1.306
 1021SOL    HW2 3963   6.588   1.309   1.194
 1022SOL     OW 3964   3.031   2.594   6.902
 1022SOL    HW1 3965   2.975   2.598   6.819
 1022SOL    HW2 3966   3.087   2.511   6.900
 1023SOL     OW 3967   6.770   0.842   4.671
 1023SOL    HW1 3968   6.755   0.822   4.574
 1023SOL    HW2 3969   6.867   0.837   4.692
 1024SOL     OW 3970   6.513   2.427   3.976
 1024SOL    HW1 3971   6.534   2.480   3.894
 1024SOL    HW2 3972   6.483   2.489   4.049
 1025SOL     OW 3973   3.027   4.754   1.482
 1025SOL    HW1 3974   3.055   4.688   1.552
 1025SOL    HW2 3975   2.928   4.764   1.484
 1026SOL     OW 3976   0.678   2.639   6.125
 1026SOL    HW1 3977   0.689   2.707   6.053
 1026SOL    HW2 3978   0.705   2.549   6.091
 1027SOL     OW 3979   2.387   4.825   0.944
 1027SOL    HW1 3980   2.389   4.781   0.855
 1027SOL    HW2 3981   2.440   4.771   1.009
 1028SOL     OW 3982   0.150   5.134   0.263
 1028SOL    HW1 3983   0.178   5.100   0.352
 1028SOL    HW2 3984   0.055   5.166   0.268
 1029SOL     OW 3985   3.535   0.411   4.975
 1029SOL    HW1 3986   3.441   0.430   5.000
 1029SOL    HW2 3987   3.563   0.323   5.013
 1030SOL     OW 3988   3.958   4.985   5.173
 1030SOL    HW1 3989   3.962   4.982   5.073
 1030SOL    HW2 3990   3.992   5.074   5.204
 1031SOL     OW 3991   2.473   5.622   0.607
 1031SOL    HW1 3992   2.373   5.618   0.602
 1031SOL    HW2 3993   2.512   5.587   0.522
 1032SOL     OW 3994   1.223   1.559   4.743
 1032SOL    HW1 3995   1.273   1.633   4.788
 1032SOL    HW2 3996   1.169   1.510   4.811
 1033SOL     OW 3997   2.377   6.829   2.379
 1033SOL    HW1 3998   2.311   6.898   2.411
 1033SOL    HW2 3999   2.351   6.739   2.415
 1034SOL     OW 4000   0.735   6.808   1.830
 1034SOL    HW1 4001   0.667   6.737   1.845
 1034SOL    HW2 4002   0.770   6.840   1.918
 1035SOL     OW 4003   3.764   1.832   2.787
 1035SOL    HW1 4004   3.789   1.776   2.866
 1035SOL    HW2 4005   3.795   1.787   2.703
 1036SOL     OW 4006   4.710   6.684   6.952
 1036SOL    HW1 4007   4.722   6.585   6.942
 1036SOL    HW2 4008   4.699   6.707   0.025
 1037SOL     OW 4009   3.487   1.627   6.236
 1037SOL    HW1 4010   3.522   1.666   6.322
 1037SOL    HW2 4011   3.560   1.630   6.167
 1038SOL     OW 4012   2.509   1.980   5.615
 1038SOL    HW1 4013   2.537   1.945   5.525
 1038SOL    HW2 4014   2.590   2.008   5.666
 1039SOL     OW 4015   4.779   1.652   3.519
 1039SOL    HW1 4016   4.752   1.725   3.582
 1039SOL    HW2 4017   4.869   1.672   3.481
 1040SOL     OW 4018   6.379   3.632   4.320
 1040SOL    HW1 4019   6.460   3.604   4.372
 1040SOL    HW2 4020   6.408   3.667   4.231
 1041SOL     OW 4021   1.657   6.663   4.373
 1041SOL    HW1 4022   1.607   6.749   4.384
 1041SOL    HW2 4023   1.735   6.677   4.313
 1042SOL     OW 4024   4.524   3.920   0.494
 1042SOL    HW1 4025   4.583   3.939   0.573
 1042SOL    HW2 4026   4.436   3.966   0.507
 1043SOL     OW 4027   4.005   0.583   6.959
 1043SOL    HW1 4028   4.082   0.586   7.023
 1043SOL    HW2 4029   3.928   0.634   6.997
 1044SOL     OW 4030   3.965   3.464   2.821
 1044SOL    HW1 4031   4.026   3.403   2.769
 1044SOL    HW2 4032   3.913   3.520   2.757
 1045SOL     OW 4033   4.292   0.582   3.323
 1045SOL    HW1 4034   4.248   0.571   3.411
 1045SOL    HW2 4035   4.237   0.538   3.252
 1046SOL     OW 4036   3.421   0.693   2.404
 1046SOL    HW1 4037   3.453   0.601   2.382
 1046SOL    HW2 4038   3.498   0.757   2.401
 1047SOL     OW 4039   0.588   5.875   1.569
 1047SOL    HW1 4040   0.634   5.826   1.643
 1047SOL    HW2 4041   0.586   5.973   1.590
 1048SOL     OW 4042   6.370   3.928   5.313
 1048SOL    HW1 4043   6.415   3.985   5.245
 1048SOL    HW2 4044   6.367   3.833   5.280
 1049SOL     OW 4045   0.480   3.260   5.639
 1049SOL    HW1 4046   0.455   3.268   5.543
 1049SOL    HW2 4047   0.580   3.267   5.648
 1050SOL     OW 4048   2.754   0.772   0.909
 1050SOL    HW1 4049   2.714   0.786   1.000
 1050SOL    HW2 4050   2.718   0.841   0.846
 1051SOL     OW 4051   4.937   4.578   2.045
 1051SOL    HW1 4052   4.888   4.602   2.129
 1051SOL    HW2 4053   5.019   4.635   2.038
 1052SOL     OW 4054   3.614   0.250   3.914
 1052SOL    HW1 4055   3.560   0.319   3.866
 1052SOL    HW2 4056   3.603   0.261   4.012
 1053SOL     OW 4057   3.188   4.895   3.774
 1053SOL    HW1 4058   3.186   4.825   3.846
 1053SOL    HW2 4059   3.278   4.894   3.730
 1054SOL     OW 4060   4.369   5.722   4.904
 1054SOL    HW1 4061   4.424   5.641   4.923
 1054SOL    HW2 4062   4.272   5.699   4.913
 1055SOL     OW 4063   3.445   4.950   4.663
 1055SOL    HW1 4064   3.380   4.932   4.737
 1055SOL    HW2 4065   3.395   4.961   4.577
 1056SOL     OW 4066   2.917   6.056   6.564
 1056SOL    HW1 4067   2.827   6.071   6.605
 1056SOL    HW2 4068   2.969   6.141   6.566
 1057SOL     OW 4069   3.881   4.324   1.189
 1057SOL    HW1 4070   3.842   4.246   1.140
 1057SOL    HW2 4071   3.863   4.408   1.138
 1058SOL     OW 4072   2.609   6.659   1.981
 1058SOL    HW1 4073   2.567   6.569   1.970
 1058SOL    HW2 4074   2.663   6.681   1.900
 1059SOL     OW 4075   3.708   0.528   0.302
 1059SOL    HW1 4076   3.652   0.500   0.224
 1059SOL    HW2 4077   3.789   0.470   0.308
 1060SOL     OW 4078   3.104   1.164   4.135
 1060SOL    HW1 4079   3.065   1.139   4.046
 1060SOL    HW2 4080   3.054   1.242   4.172
 1061SOL     OW 4081   2.423   5.937   1.341
 1061SOL    HW1 4082   2.372   6.015   1.304
 1061SOL    HW2 4083   2.376   5.853   1.317
 1062SOL     OW 4084   5.227   4.439   4.519
 1062SOL    HW1 4085   5.311   4.393   4.493
 1062SOL    HW2 4086   5.176   4.383   4.584
 1063SOL     OW 4087   3.030   2.422   6.241
 1063SOL    HW1 4088   3.037   2.341   6.183
 1063SOL    HW2 4089   3.013   2.502   6.184
 1064SOL     OW 4090   0.349   3.017   1.773
 1064SOL    HW1 4091   0.405   3.002   1.854
 1064SOL    HW2 4092   0.316   2.930   1.738
 1065SOL     OW 4093   4.845   5.105   5.790
 1065SOL    HW1 4094   4.872   5.024   5.842
 1065SOL    HW2 4095   4.926   5.155   5.760
 1066SOL     OW 4096   4.950   0.041   3.553
 1066SOL    HW1 4097   5.002   7.002   3.495
 1066SOL    HW2 4098   4.900   7.012   3.622
 1067SOL     OW 4099   2.896   3.727   0.465
 1067SOL    HW1 4100   2.929   3.645   0.513
 1067SOL    HW2 4101   2.801   3.713   0.437
 1068SOL     OW 4102   0.370   4.680   1.175
 1068SOL    HW1 4103   0.271   4.692   1.181
 1068SOL    HW2 4104   0.398   4.602   1.232
 1069SOL     OW 4105   3.891   3.025   2.489
 1069SOL    HW1 4106   3.961   3.039   2.419
 1069SOL    HW2 4107   3.822   2.962   2.453
 1070SOL     OW 4108   2.219   6.680   0.626
 1070SOL    HW1 4109   2.194   6.769   0.589
 1070SOL    HW2 4110   2.140   6.638   0.669
 1071SOL     OW 4111   5.085   5.421   3.243
 1071SOL    HW1 4112   5.091   5.339   3.300
 1071SOL    HW2 4113   5.012   5.480   3.278
 1072SOL     OW 4114   3.873   5.597   3.108
 1072SOL    HW1 4115   3.947   5.568   3.047
 1072SOL    HW2 4116   3.890   5.561   3.200
 1073SOL     OW 4117   2.840   5.468   3.492
 1073SOL    HW1 4118   2.755   5.431   3.454
 1073SOL    HW2 4119   2.914   5.453   3.427
 1074SOL     OW 4120   1.807   5.242   3.195
 1074SOL    HW1 4121   1.791   5.176   3.268
 1074SOL    HW2 4122   1.898   5.281   3.204
 1075SOL     OW 4123   0.673   3.940   2.881
 1075SOL    HW1 4124   0.617   4.018   2.908
 1075SOL    HW2 4125   0.759   3.941   2.932
 1076SOL     OW 4126   6.380   4.307   2.940
 1076SOL    HW1 4127   6.421   4.216   2.932
 1076SOL    HW2 4128   6.299   4.301   2.999
 1077SOL     OW 4129   4.488   6.942   1.832
 1077SOL    HW1 4130   4.565   6.983   1.783
 1077SOL    HW2 4131   4.416   6.917   1.767
 1078SOL     OW 4132   0.149   3.010   2.154
 1078SOL    HW1 4133   0.078   2.963   2.206
 1078SOL    HW2 4134   0.106   3.075   2.090
 1079SOL     OW 4135   1.721   4.758   3.377
 1079SOL    HW1 4136   1.761   4.776   3.287
 1079SOL    HW2 4137   1.622   4.775   3.374
 1080SOL     OW 4138   1.763   5.359   3.992
 1080SOL    HW1 4139   1.817   5.380   4.074
 1080SOL    HW2 4140   1.703   5.436   3.971
 1081SOL     OW 4141   1.294   0.640   0.030
 1081SOL    HW1 4142   1.331   0.581   6.982
 1081SOL    HW2 4143   1.369   0.677   0.085
 1082SOL     OW 4144   2.125   0.145   1.030
 1082SOL    HW1 4145   2.106   0.056   0.988
 1082SOL    HW2 4146   2.172   0.203   0.963
 1083SOL     OW 4147   3.587   2.562   1.695
 1083SOL    HW1 4148   3.616   2.651   1.730
 1083SOL    HW2 4149   3.619   2.491   1.758
 1084SOL     OW 4150   0.006   3.917   1.139
 1084SOL    HW1 4151   0.049   3.867   1.064
 1084SOL    HW2 4152   6.982   3.852   1.199
 1085SOL     OW 4153   1.681   5.588   4.206
 1085SOL    HW1 4154   1.628   5.504   4.223
 1085SOL    HW2 4155   1.667   5.651   4.282
 1086SOL     OW 4156   2.731   5.835   2.356
 1086SOL    HW1 4157   2.737   5.740   2.324
 1086SOL    HW2 4158   2.819   5.881   2.342
 1087SOL     OW 4159   3.749   3.127   4.842
 1087SOL    HW1 4160   3.826   3.078   4.800
 1087SOL    HW2 4161   3.663   3.095   4.802
 1088SOL     OW 4162   0.289   4.368   2.518
 1088SOL    HW1 4163   0.283   4.467   2.500
 1088SOL    HW2 4164   0.198   4.328   2.511
 1089SOL     OW 4165   6.806   0.247   3.179
 1089SOL    HW1 4166   6.786   0.177   3.248
 1089SOL    HW2 4167   6.870   0.211   3.112
 1090SOL     OW 4168   1.695   2.449   6.656
 1090SOL    HW1 4169   1.641   2.416   6.579
 1090SOL    HW2 4170   1.639   2.450   6.739
 1091SOL     OW 4171   0.861   2.271   5.616
 1091SOL    HW1 4172   0.868   2.249   5.713
 1091SOL    HW2 4173   0.827   2.192   5.566
 1092SOL     OW 4174   2.510   4.929   1.348
 1092SOL    HW1 4175   2.500   4.990   1.270
 1092SOL    HW2 4176   2.463   4.842   1.330
 1093SOL     OW 4177   0.015   2.809   1.799
 1093SOL    HW1 4178   6.942   2.831   1.811
 1093SOL    HW2 4179   0.042   2.824   1.704
 1094SOL     OW 4180   0.881   6.419   2.770
 1094SOL    HW1 4181   0.883   6.336   2.826
 1094SOL    HW2 4182   0.828   6.401   2.687
 1095SOL     OW 4183   0.590   3.526   6.362
 1095SOL    HW1 4184   0.559   3.548   6.269
 1095SOL    HW2 4185   0.685   3.496   6.360
 1096SOL     OW 4186   3.811   3.021   1.632
 1096SOL    HW1 4187   3.724   3.069   1.641
 1096SOL    HW2 4188   3.883   3.075   1.676
 1097SOL     OW 4189   2.680   4.768   6.058
 1097SOL    HW1 4190   2.610   4.779   6.129
 1097SOL    HW2 4191   2.727   4.855   6.043
 1098SOL     OW 4192   3.957   0.163   2.514
 1098SOL    HW1 4193   3.956   0.215   2.429
 1098SOL    HW2 4194   3.896   0.207   2.580
 1099SOL     OW 4195   3.736   0.009   2.338
 1099SOL    HW1 4196   3.760   6.968   2.265
 1099SOL    HW2 4197   3.812   0.073   2.353
 1100SOL     OW 4198   6.707   1.402   0.263
 1100SOL    HW1 4199   6.753   1.423   0.177
 1100SOL    HW2 4200   6.714   1.304   0.282
 1101SOL     OW 4201   5.154   2.905   0.953
 1101SOL    HW1 4202   5.139   3.003   0.965
 1101SOL    HW2 4203   5.081   2.867   0.897
 1102SOL     OW 4204   0.185   3.584   4.099
 1102SOL    HW1 4205   0.243   3.598   4.179
 1102SOL    HW2 4206   0.225   3.513   4.041
 1103SOL     OW 4207   6.841   3.345   6.972
 1103SOL    HW1 4208   6.784   3.426   6.985
 1103SOL    HW2 4209   6.889   3.323   0.033
 1104SOL     OW 4210   2.589   5.704   6.029
 1104SOL    HW1 4211   2.495   5.723   5.999
 1104SOL    HW2 4212   2.613   5.766   6.104
 1105SOL     OW 4213   4.013   5.245   1.138
 1105SOL    HW1 4214   3.995   5.332   1.184
 1105SOL    HW2 4215   3.932   5.186   1.146
 1106SOL     OW 4216   1.325   1.338   6.843
 1106SOL    HW1 4217   1.334   1.438   6.839
 1106SOL    HW2 4218   1.241   1.315   6.892
 1107SOL     OW 4219   6.853   0.375   1.581
 1107SOL    HW1 4220   6.862   0.462   1.533
 1107SOL    HW2 4221   6.765   0.371   1.628
 1108SOL     OW 4222   1.456   1.486   0.010
 1108SOL    HW1 4223   1.419   1.575   7.006
 1108SOL    HW2 4224   1.396   1.413   6.998
 1109SOL     OW 4225   4.321   0.686   3.978
 1109SOL    HW1 4226   4.344   0.605   4.032
 1109SOL    HW2 4227   4.404   0.740   3.961
 1110SOL     OW 4228   3.498   2.857   2.721
 1110SOL    HW1 4229   3.477   2.843   2.624
 1110SOL    HW2 4230   3.417   2.839   2.776
 1111SOL     OW 4231   4.438   6.867   6.927
 1111SOL    HW1 4232   4.534   6.838   6.931
 1111SOL    HW2 4233   4.379   6.786   6.930
 1112SOL     OW 4234   0.978   1.517   2.454
 1112SOL    HW1 4235   1.015   1.438   2.503
 1112SOL    HW2 4236   0.879   1.509   2.447
 1113SOL     OW 4237   6.266   3.427   1.438
 1113SOL    HW1 4238   6.249   3.450   1.533
 1113SOL    HW2 4239   6.271   3.327   1.428
 1114SOL     OW 4240   5.941   1.237   5.682
 1114SOL    HW1 4241   5.940   1.270   5.587
 1114SOL    HW2 4242   6.014   1.171   5.693
 1115SOL     OW 4243   2.107   4.826   0.653
 1115SOL    HW1 4244   2.123   4.731   0.680
 1115SOL    HW2 4245   2.194   4.874   0.647
 1116SOL     OW 4246   3.869   6.241   6.601
 1116SOL    HW1 4247   3.770   6.240   6.588
 1116SOL    HW2 4248   3.911   6.302   6.534
 1117SOL     OW 4249   2.330   3.434   1.052
 1117SOL    HW1 4250   2.344   3.531   1.075
 1117SOL    HW2 4251   2.268   3.426   0.974
 1118SOL     OW 4252   1.555   3.332   1.463
 1118SOL    HW1 4253   1.626   3.402   1.456
 1118SOL    HW2 4254   1.467   3.370   1.434
 1119SOL     OW 4255   3.005   3.737   3.437
 1119SOL    HW1 4256   3.094   3.706   3.404
 1119SOL    HW2 4257   2.957   3.660   3.479
 1120SOL     OW 4258   4.075   0.774   3.921
 1120SOL    HW1 4259   4.168   0.751   3.946
 1120SOL    HW2 4260   4.019   0.691   3.919
 1121SOL     OW 4261   5.202   3.564   3.431
 1121SOL    HW1 4262   5.264   3.486   3.418
 1121SOL    HW2 4263   5.244   3.646   3.394
 1122SOL     OW 4264   4.559   5.330   6.068
 1122SOL    HW1 4265   4.535   5.386   6.148
 1122SOL    HW2 4266   4.562   5.234   6.095
 1123SOL     OW 4267   4.086   1.022   2.079
 1123SOL    HW1 4268   4.135   1.045   2.163
 1123SOL    HW2 4269   4.003   1.076   2.074
 1124SOL     OW 4270   1.674   5.091   4.056
 1124SOL    HW1 4271   1.770   5.079   4.079
 1124SOL    HW2 4272   1.660   5.182   4.018
 1125SOL     OW 4273   2.958   3.376   4.928
 1125SOL    HW1 4274   3.039   3.420   4.966
 1125SOL    HW2 4275   2.953   3.396   4.830
 1126SOL     OW 4276   6.279   0.490   2.446
 1126SOL    HW1 4277   6.219   0.556   2.492
 1126SOL    HW2 4278   6.274   0.503   2.347
 1127SOL     OW 4279   1.945   6.251   6.235
 1127SOL    HW1 4280   1.976   6.339   6.200
 1127SOL    HW2 4281   1.953   6.181   6.164
 1128SOL     OW 4282   2.477   2.597   4.428
 1128SOL    HW1 4283   2.548   2.546   4.379
 1128SOL    HW2 4284   2.497   2.595   4.526
 1129SOL     OW 4285   4.140   6.002   5.987
 1129SOL    HW1 4286   4.237   6.019   5.973
 1129SOL    HW2 4287   4.105   5.947   5.911
 1130SOL     OW 4288   0.242   5.283   5.703
 1130SOL    HW1 4289   0.168   5.245   5.759
 1130SOL    HW2 4290   0.280   5.210   5.645
 1131SOL     OW 4291   7.001   5.039   5.757
 1131SOL    HW1 4292   7.001   5.088   5.669
 1131SOL    HW2 4293   0.025   4.952   5.746
 1132SOL     OW 4294   5.602   6.400   4.841
 1132SOL    HW1 4295   5.507   6.372   4.836
 1132SOL    HW2 4296   5.611   6.494   4.809
 1133SOL     OW 4297   6.670   2.590   6.855
 1133SOL    HW1 4298   6.713   2.567   6.943
 1133SOL    HW2 4299   6.663   2.507   6.799
 1134SOL     OW 4300   0.273   2.503   6.367
 1134SOL    HW1 4301   0.346   2.447   6.406
 1134SOL    HW2 4302   0.187   2.482   6.413
 1135SOL     OW 4303   6.971   1.555   4.393
 1135SOL    HW1 4304   6.873   1.551   4.411
 1135SOL    HW2 4305   6.990   1.519   4.302
 1136SOL     OW 4306   3.456   5.197   4.326
 1136SOL    HW1 4307   3.527   5.203   4.256
 1136SOL    HW2 4308   3.368   5.227   4.289
 1137SOL     OW 4309   1.386   0.907   6.692
 1137SOL    HW1 4310   1.459   0.967   6.725
 1137SOL    HW2 4311   1.302   0.926   6.742
 1138SOL     OW 4312   1.145   4.001   5.956
 1138SOL    HW1 4313   1.054   4.019   5.993
 1138SOL    HW2 4314   1.140   3.928   5.888
 1139SOL     OW 4315   0.918   0.478   2.623
 1139SOL    HW1 4316   0.828   0.513   2.594
 1139SOL    HW2 4317   0.984   0.493   2.550
 1140SOL     OW 4318   3.832   2.083   3.214
 1140SOL    HW1 4319   3.750   2.041   3.253
 1140SOL    HW2 4320   3.817   2.103   3.117
 1141SOL     OW 4321   6.806   5.951   6.095
 1141SOL    HW1 4322   6.795   5.894   6.177
 1141SOL    HW2 4323   6.894   5.930   6.052
 1142SOL     OW 4324   0.091   0.451   4.916
 1142SOL    HW1 4325   0.128   0.503   4.838
 1142SOL    HW2 4326   0.028   0.510   4.968
 1143SOL     OW 4327   4.825   2.143   1.365
 1143SOL    HW1 4328   4.727   2.138   1.380
 1143SOL    HW2 4329   4.844   2.213   1.296
 1144SOL     OW 4330   0.922   6.226   5.106
 1144SOL    HW1 4331   0.970   6.264   5.027
 1144SOL    HW2 4332   0.897   6.300   5.168
 1145SOL     OW 4333   2.035   4.948   4.893
 1145SOL    HW1 4334   2.068   5.006   4.968
 1145SOL    HW2 4335   1.935   4.954   4.888
 1146SOL     OW 4336   5.993   1.779   1.405
 1146SOL    HW1 4337   5.957   1.689   1.384
 1146SOL    HW2 4338   6.061   1.805   1.336
 1147SOL     OW 4339   6.653   3.202   2.160
 1147SOL    HW1 4340   6.694   3.286   2.125
 1147SOL    HW2 4341   6.626   3.143   2.083
 1148SOL     OW 4342   5.446   0.878   6.199
 1148SOL    HW1 4343   5.366   0.893   6.141
 1148SOL    HW2 4344   5.510   0.954   6.188
 1149SOL     OW 4345   5.710   2.785   3.027
 1149SOL    HW1 4346   5.659   2.699   3.026
 1149SOL    HW2 4347   5.808   2.766   3.026
 1150SOL     OW 4348   1.443   5.399   5.532
 1150SOL    HW1 4349   1.493   5.374   5.614
 1150SOL    HW2 4350   1.358   5.446   5.558
 1151SOL     OW 4351   2.627   5.295   0.105
 1151SOL    HW1 4352   2.618   5.292   0.204
 1151SOL    HW2 4353   2.537   5.282   0.063
 1152SOL     OW 4354   0.744   1.137   3.518
 1152SOL    HW1 4355   0.750   1.089   3.431
 1152SOL    HW2 4356   0.656   1.184   3.526
 1153SOL     OW 4357   2.323   4.610   2.495
 1153SOL    HW1 4358   2.383   4.620   2.416
 1153SOL    HW2 4359   2.327   4.516   2.528
 1154SOL     OW 4360   1.568   4.446   2.067
 1154SOL    HW1 4361   1.542   4.444   2.164
 1154SOL    HW2 4362   1.535   4.362   2.022
 1155SOL     OW 4363   4.166   0.150   2.086
 1155SOL    HW1 4364   4.251   0.142   2.034
 1155SOL    HW2 4365   4.185   0.134   2.183
 1156SOL     OW 4366   1.928   0.904   4.160
 1156SOL    HW1 4367   1.835   0.894   4.125
 1156SOL    HW2 4368   1.936   0.990   4.211
 1157SOL     OW 4369   1.799   2.899   4.235
 1157SOL    HW1 4370   1.708   2.896   4.277
 1157SOL    HW2 4371   1.793   2.942   4.145
 1158SOL     OW 4372   4.531   6.143   6.189
 1158SOL    HW1 4373   4.544   6.102   6.279
 1158SOL    HW2 4374   4.604   6.113   6.127
 1159SOL     OW 4375   5.829   4.443   2.540
 1159SOL    HW1 4376   5.911   4.458   2.484
 1159SOL    HW2 4377   5.820   4.517   2.606
 1160SOL     OW 4378   2.422   2.825   1.060
 1160SOL    HW1 4379   2.398   2.916   1.023
 1160SOL    HW2 4380   2.518   2.806   1.039
 1161SOL     OW 4381   4.196   0.598   3.569
 1161SOL    HW1 4382   4.125   0.662   3.540
 1161SOL    HW2 4383   4.154   0.515   3.604
 1162SOL     OW 4384   3.559   5.204   1.503
 1162SOL    HW1 4385   3.499   5.126   1.483
 1162SOL    HW2 4386   3.502   5.284   1.525
 1163SOL     OW 4387   4.911   0.104   2.378
 1163SOL    HW1 4388   4.986   0.152   2.423
 1163SOL    HW2 4389   4.946   0.020   2.336
 1164SOL     OW 4390   6.562   3.894   4.638
 1164SOL    HW1 4391   6.613   3.963   4.586
 1164SOL    HW2 4392   6.608   3.806   4.630
 1165SOL     OW 4393   1.081   4.771   2.197
 1165SOL    HW1 4394   1.036   4.735   2.278
 1165SOL    HW2 4395   1.097   4.696   2.132
 1166SOL     OW 4396   3.127   1.315   6.976
 1166SOL    HW1 4397   3.208   1.284   6.925
 1166SOL    HW2 4398   3.065   1.362   6.913
 1167SOL     OW 4399   4.247   2.077   5.683
 1167SOL    HW1 4400   4.223   2.154   5.623
 1167SOL    HW2 4401   4.220   1.991   5.639
 1168SOL     OW 4402   5.790   0.564   3.573
 1168SOL    HW1 4403   5.775   0.507   3.492
 1168SOL    HW2 4404   5.875   0.615   3.563
 1169SOL     OW 4405   1.049   3.086   1.225
 1169SOL    HW1 4406   1.122   3.018   1.224
 1169SOL    HW2 4407   0.968   3.049   1.182
 1170SOL     OW 4408   2.628   0.824   1.156
 1170SOL    HW1 4409   2.687   0.897   1.190
 1170SOL    HW2 4410   2.535   0.859   1.141
 1171SOL     OW 4411   3.624   0.959   0.472
 1171SOL    HW1 4412   3.582   0.869   0.463
 1171SOL    HW2 4413   3.582   1.023   0.408
 1172SOL     OW 4414   3.147   3.571   5.430
 1172SOL    HW1 4415   3.150   3.670   5.447
 1172SOL    HW2 4416   3.238   3.538   5.408
 1173SOL     OW 4417   5.402   7.006   5.549
 1173SOL    HW1 4418   5.440   0.068   5.583
 1173SOL    HW2 4419   5.302   7.015   5.544
 1174SOL     OW 4420   3.993   5.573   6.513
 1174SOL    HW1 4421   4.070   5.618   6.467
 1174SOL    HW2 4422   3.955   5.502   6.454
 1175SOL     OW 4423   0.151   5.156   4.698
 1175SOL    HW1 4424   0.073   5.139   4.758
 1175SOL    HW2 4425   0.163   5.078   4.637
 1176SOL     OW 4426   5.805   2.583   1.061
 1176SOL    HW1 4427   5.798   2.488   1.090
 1176SOL    HW2 4428   5.899   2.604   1.035
 1177SOL     OW 4429   6.489   3.333   6.707
 1177SOL    HW1 4430   6.440   3.297   6.786
 1177SOL    HW2 4431   6.558   3.266   6.677
 1178SOL     OW 4432   5.264   4.407   2.749
 1178SOL    HW1 4433   5.258   4.310   2.725
 1178SOL    HW2 4434   5.207   4.460   2.687
 1179SOL     OW 4435   1.407   5.427   6.098
 1179SOL    HW1 4436   1.427   5.499   6.165
 1179SOL    HW2 4437   1.334   5.457   6.037
 1180SOL     OW 4438   2.029   0.351   4.136
 1180SOL    HW1 4439   2.014   0.449   4.117
 1180SOL    HW2 4440   2.127   0.332   4.138
 1181SOL     OW 4441   1.850   4.939   2.111
 1181SOL    HW1 4442   1.843   5.031   2.072
 1181SOL    HW2 4443   1.829   4.943   2.208
 1182SOL     OW 4444   1.746   3.911   4.132
 1182SOL    HW1 4445   1.722   4.006   4.153
 1182SOL    HW2 4446   1.673   3.869   4.079
 1183SOL     OW 4447   4.269   5.508   1.114
 1183SOL    HW1 4448   4.328   5.566   1.057
 1183SOL    HW2 4449   4.211   5.452   1.056
 1184SOL     OW 4450   3.244   2.503   6.669
 1184SOL    HW1 4451   3.316   2.552   6.718
 1184SOL    HW2 4452   3.228   2.414   6.712
 1185SOL     OW 4453   2.745   1.211   6.517
 1185SOL    HW1 4454   2.693   1.251   6.593
 1185SOL    HW2 4455   2.833   1.257   6.509
 1186SOL     OW 4456   3.954   1.104   5.043
 1186SOL    HW1 4457   3.918   1.090   5.135
 1186SOL    HW2 4458   3.880   1.098   4.976
 1187SOL     OW 4459   1.269   1.884   4.654
 1187SOL    HW1 4460   1.224   1.809   4.605
 1187SOL    HW2 4461   1.349   1.915   4.602
 1188SOL     OW 4462   1.893   0.689   5.486
 1188SOL    HW1 4463   1.899   0.784   5.515
 1188SOL    HW2 4464   1.914   0.629   5.564
 1189SOL     OW 4465   0.463   0.982   1.202
 1189SOL    HW1 4466   0.405   1.063   1.207
 1189SOL    HW2 4467   0.407   0.900   1.195
 1190SOL     OW 4468   3.860   5.372   1.917
 1190SOL    HW1 4469   3.804   5.318   1.854
 1190SOL    HW2 4470   3.802   5.412   1.988
 1191SOL     OW 4471   2.371   4.343   1.685
 1191SOL    HW1 4472   2.451   4.402   1.691
 1191SOL    HW2 4473   2.356   4.297   1.772
 1192SOL     OW 4474   3.715   5.383   3.014
 1192SOL    HW1 4475   3.774   5.449   3.061
 1192SOL    HW2 4476   3.767   5.300   2.994
 1193SOL     OW 4477   3.264   0.309   4.092
 1193SOL    HW1 4478   3.266   0.318   3.992
 1193SOL    HW2 4479   3.328   0.238   4.120
 1194SOL     OW 4480   6.201   1.958   2.011
 1194SOL    HW1 4481   6.257   2.020   2.065
 1194SOL    HW2 4482   6.107   1.958   2.046
 1195SOL     OW 4483   3.187   6.863   0.003
 1195SOL    HW1 4484   3.164   6.802   0.079
 1195SOL    HW2 4485   3.278   6.841   6.992
 1196SOL     OW 4486   1.336   5.379   3.366
 1196SOL    HW1 4487   1.270   5.437   3.412
 1196SOL    HW2 4488   1.313   5.374   3.268
 1197SOL     OW 4489   3.680   4.781   0.037
 1197SOL    HW1 4490   3.612   4.854   0.048
 1197SOL    HW2 4491   3.659   4.706   0.100
 1198SOL     OW 4492   3.598   0.477   2.929
 1198SOL    HW1 4493   3.502   0.472   2.904
 1198SOL    HW2 4494   3.606   0.494   3.027
 1199SOL     OW 4495   3.547   3.806   3.530
 1199SOL    HW1 4496   3.592   3.808   3.440
 1199SOL    HW2 4497   3.549   3.897   3.571
 1200SOL     OW 4498   4.799   3.341   1.187
 1200SOL    HW1 4499   4.880   3.373   1.238
 1200SOL    HW2 4500   4.775   3.249   1.217
 1201SOL     OW 4501   1.642   2.101   5.051
 1201SOL    HW1 4502   1.740   2.119   5.047
 1201SOL    HW2 4503   1.605   2.094   4.958
 1202SOL     OW 4504   6.487   0.063   4.643
 1202SOL    HW1 4505   6.431   0.050   4.725
 1202SOL    HW2 4506   6.580   0.032   4.661
 1203SOL     OW 4507   6.249   0.028   2.671
 1203SOL    HW1 4508   6.259   0.121   2.634
 1203SOL    HW2 4509   6.206   0.033   2.761
 1204SOL     OW 4510   1.480   0.101   0.119
 1204SOL    HW1 4511   1.569   0.145   0.112
 1204SOL    HW2 4512   1.431   0.140   0.197
 1205SOL     OW 4513   0.695   2.919   5.384
 1205SOL    HW1 4514   0.750   3.003   5.390
 1205SOL    HW2 4515   0.605   2.941   5.347
 1206SOL     OW 4516   6.937   1.130   4.332
 1206SOL    HW1 4517   6.972   1.181   4.254
 1206SOL    HW2 4518   6.888   1.192   4.393
 1207SOL     OW 4519   6.122   6.616   6.370
 1207SOL    HW1 4520   6.122   6.704   6.323
 1207SOL    HW2 4521   6.179   6.552   6.319
 1208SOL     OW 4522   3.541   3.473   2.894
 1208SOL    HW1 4523   3.467   3.408   2.915
 1208SOL    HW2 4524   3.508   3.540   2.827
 1209SOL     OW 4525   6.875   3.899   4.791
 1209SOL    HW1 4526   6.786   3.905   4.836
 1209SOL    HW2 4527   6.936   3.840   4.845
 1210SOL     OW 4528   2.412   0.272   2.636
 1210SOL    HW1 4529   2.405   0.352   2.577
 1210SOL    HW2 4530   2.329   0.264   2.692
 1211SOL     OW 4531   1.006   3.099   3.330
 1211SOL    HW1 4532   1.032   3.066   3.239
 1211SOL    HW2 4533   0.978   3.194   3.324
 1212SOL     OW 4534   1.112   4.506   3.349
 1212SOL    HW1 4535   1.210   4.529   3.347
 1212SOL    HW2 4536   1.065   4.570   3.409
 1213SOL     OW 4537   5.458   3.896   5.336
 1213SOL    HW1 4538   5.514   3.823   5.298
 1213SOL    HW2 4539   5.378   3.856   5.382
 1214SOL     OW 4540   1.620   1.685   1.441
 1214SOL    HW1 4541   1.562   1.669   1.361
 1214SOL    HW2 4542   1.608   1.779   1.473
 1215SOL     OW 4543   0.455   5.476   1.693
 1215SOL    HW1 4544   0.531   5.413   1.675
 1215SOL    HW2 4545   0.423   5.515   1.606
 1216SOL     OW 4546   2.138   0.071   1.307
 1216SOL    HW1 4547   2.085   0.074   1.223
 1216SOL    HW2 4548   2.145   0.163   1.345
 1217SOL     OW 4549   1.958   2.829   2.972
 1217SOL    HW1 4550   1.938   2.861   2.880
 1217SOL    HW2 4551   1.891   2.866   3.036
 1218SOL     OW 4552   0.749   3.694   3.226
 1218SOL    HW1 4553   0.731   3.776   3.281
 1218SOL    HW2 4554   0.809   3.632   3.277
 1219SOL     OW 4555   2.523   5.860   3.211
 1219SOL    HW1 4556   2.596   5.856   3.143
 1219SOL    HW2 4557   2.461   5.935   3.190
 1220SOL     OW 4558   6.326   4.911   2.747
 1220SOL    HW1 4559   6.309   4.937   2.842
 1220SOL    HW2 4560   6.377   4.983   2.701
 1221SOL     OW 4561   4.890   4.737   5.575
 1221SOL    HW1 4562   4.852   4.828   5.565
 1221SOL    HW2 4563   4.988   4.744   5.596
 1222SOL     OW 4564   6.937   4.135   1.386
 1222SOL    HW1 4565   6.938   4.157   1.288
 1222SOL    HW2 4566   6.908   4.040   1.398
 1223SOL     OW 4567   6.862   4.848   4.948
 1223SOL    HW1 4568   6.864   4.877   4.853
 1223SOL    HW2 4569   6.925   4.772   4.962
 1224SOL     OW 4570   4.052   4.134   1.036
 1224SOL    HW1 4571   4.030   4.215   1.090
 1224SOL    HW2 4572   4.149   4.136   1.011
 1225SOL     OW 4573   4.451   1.628   0.196
 1225SOL    HW1 4574   4.519   1.699   0.217
 1225SOL    HW2 4575   4.454   1.557   0.266
 1226SOL     OW 4576   6.050   5.764   0.868
 1226SOL    HW1 4577   6.109   5.798   0.795
 1226SOL    HW2 4578   6.041   5.833   0.939
 1227SOL     OW 4579   4.828   4.318   6.951
 1227SOL    HW1 4580   4.886   4.280   7.023
 1227SOL    HW2 4581   4.879   4.388   6.901
 1228SOL     OW 4582   3.597   4.161   4.197
 1228SOL    HW1 4583   3.619   4.150   4.294
 1228SOL    HW2 4584   3.503   4.129   4.180
 1229SOL     OW 4585   2.275   5.251   2.843
 1229SOL    HW1 4586   2.310   5.296   2.925
 1229SOL    HW2 4587   2.188   5.293   2.817
 1230SOL     OW 4588   4.393   4.187   0.508
 1230SOL    HW1 4589   4.407   4.285   0.493
 1230SOL    HW2 4590   4.297   4.165   0.491
 1231SOL     OW 4591   2.223   1.594   0.350
 1231SOL    HW1 4592   2.238   1.575   0.253
 1231SOL    HW2 4593   2.176   1.682   0.359
 1232SOL     OW 4594   2.723   2.078   5.733
 1232SOL    HW1 4595   2.787   2.039   5.798
 1232SOL    HW2 4596   2.773   2.120   5.657
 1233SOL     OW 4597   0.380   5.257   4.596
 1233SOL    HW1 4598   0.399   5.193   4.521
 1233SOL    HW2 4599   0.297   5.229   4.643
 1234SOL     OW 4600   6.260   4.256   6.736
 1234SOL    HW1 4601   6.213   4.172   6.764
 1234SOL    HW2 4602   6.351   4.259   6.778
 1235SOL     OW 4603   6.171   4.911   0.728
 1235SOL    HW1 4604   6.240   4.973   0.690
 1235SOL    HW2 4605   6.107   4.963   0.785
 1236SOL     OW 4606   0.774   0.991   2.862
 1236SOL    HW1 4607   0.710   0.993   2.785
 1236SOL    HW2 4608   0.865   0.967   2.830
 1237SOL     OW 4609   1.239   0.332   4.110
 1237SOL    HW1 4610   1.148   0.367   4.088
 1237SOL    HW2 4611   1.230   0.249   4.166
 1238SOL     OW 4612   0.124   0.765   4.006
 1238SOL    HW1 4613   0.206   0.758   4.062
 1238SOL    HW2 4614   0.149   0.765   3.909
 1239SOL     OW 4615   5.198   4.476   3.856
 1239SOL    HW1 4616   5.181   4.573   3.837
 1239SOL    HW2 4617   5.163   4.420   3.781
 1240SOL     OW 4618   0.462   3.579   0.824
 1240SOL    HW1 4619   0.416   3.510   0.768
 1240SOL    HW2 4620   0.558   3.584   0.800
 1241SOL     OW 4621   3.536   5.189   5.721
 1241SOL    HW1 4622   3.501   5.283   5.728
 1241SOL    HW2 4623   3.482   5.139   5.654
 1242SOL     OW 4624   1.973   5.552   0.464
 1242SOL    HW1 4625   2.065   5.557   0.425
 1242SOL    HW2 4626   1.975   5.580   0.560
 1243SOL     OW 4627   0.405   3.962   3.369
 1243SOL    HW1 4628   0.412   3.922   3.460
 1243SOL    HW2 4629   0.453   3.905   3.303
 1244SOL     OW 4630   0.030   6.836   4.774
 1244SOL    HW1 4631   0.106   6.863   4.832
 1244SOL    HW2 4632   0.058   6.839   4.678
 1245SOL     OW 4633   4.890   6.373   1.388
 1245SOL    HW1 4634   4.981   6.353   1.352
 1245SOL    HW2 4635   4.838   6.426   1.321
 1246SOL     OW 4636   6.007   2.312   1.784
 1246SOL    HW1 4637   5.919   2.273   1.811
 1246SOL    HW2 4638   5.999   2.356   1.695
 1247SOL     OW 4639   5.020   6.904   2.284
 1247SOL    HW1 4640   5.097   6.935   2.228
 1247SOL    HW2 4641   5.047   6.822   2.334
 1248SOL     OW 4642   0.651   6.856   4.796
 1248SOL    HW1 4643   0.602   6.771   4.774
 1248SOL    HW2 4644   0.641   6.876   4.893
 1249SOL     OW 4645   6.144   6.486   6.650
 1249SOL    HW1 4646   6.108   6.532   6.569
 1249SOL    HW2 4647   6.087   6.508   6.729
 1250SOL     OW 4648   0.406   4.421   4.885
 1250SOL    HW1 4649   0.352   4.370   4.818
 1250SOL    HW2 4650   0.502   4.424   4.855
 1251SOL     OW 4651   2.956   0.363   2.699
 1251SOL    HW1 4652   2.990   0.328   2.611
 1251SOL    HW2 4653   2.962   0.290   2.768
 1252SOL     OW 4654   2.448   5.594   6.369
 1252SOL    HW1 4655   2.388   5.577   6.447
 1252SOL    HW2 4656   2.507   5.515   6.354
 1253SOL     OW 4657   2.701   5.964   0.114
 1253SOL    HW1 4658   2.667   5.993   0.024
 1253SOL    HW2 4659   2.800   5.976   0.118
 1254SOL     OW 4660   6.098   1.424   4.142
 1254SOL    HW1 4661   6.039   1.427   4.061
 1254SOL    HW2 4662   6.152   1.508   4.146
 1255SOL     OW 4663   6.014   1.957   5.813
 1255SOL    HW1 4664   6.040   1.904   5.893
 1255SOL    HW2 4665   6.077   1.937   5.738
 1256SOL     OW 4666   6.880   5.578   5.170
 1256SOL    HW1 4667   6.971   5.615   5.154
 1256SOL    HW2 4668   6.885   5.508   5.242
 1257SOL     OW 4669   0.226   6.244   3.308
 1257SOL    HW1 4670   0.250   6.164   3.362
 1257SOL    HW2 4671   0.212   6.322   3.368
 1258SOL     OW 4672   4.330   5.394   6.649
 1258SOL    HW1 4673   4.264   5.454   6.694
 1258SOL    HW2 4674   4.286   5.348   6.572
 1259SOL     OW 4675   5.098   6.492   5.278
 1259SOL    HW1 4676   5.161   6.483   5.201
 1259SOL    HW2 4677   5.041   6.574   5.266
 1260SOL     OW 4678   3.013   1.076   0.678
 1260SOL    HW1 4679   2.966   0.997   0.638
 1260SOL    HW2 4680   3.110   1.071   0.657
 1261SOL     OW 4681   0.034   4.159   4.402
 1261SOL    HW1 4682   0.005   4.131   4.310
 1261SOL    HW2 4683   0.134   4.160   4.406
 1262SOL     OW 4684   3.855   5.644   1.559
 1262SOL    HW1 4685   3.913   5.655   1.640
 1262SOL    HW2 4686   3.842   5.733   1.515
 1263SOL     OW 4687   7.009   1.458   1.675
 1263SOL    HW1 4688   0.069   1.404   1.665
 1263SOL    HW2 4689   6.929   1.401   1.657
 1264SOL     OW 4690   6.409   2.184   4.497
 1264SOL    HW1 4691   6.374   2.249   4.564
 1264SOL    HW2 4692   6.481   2.128   4.540
 1265SOL     OW 4693   6.206   5.789   4.894
 1265SOL    HW1 4694   6.302   5.767   4.875
 1265SOL    HW2 4695   6.147   5.729   4.839
 1266SOL     OW 4696   3.193   0.687   3.652
 1266SOL    HW1 4697   3.222   0.628   3.577
 1266SOL    HW2 4698   3.263   0.687   3.724
 1267SOL     OW 4699   0.611   4.681   2.130
 1267SOL    HW1 4700   0.555   4.598   2.131
 1267SOL    HW2 4701   0.677   4.676   2.055
 1268SOL     OW 4702   5.831   4.495   0.100
 1268SOL    HW1 4703   5.899   4.488   0.027
 1268SOL    HW2 4704   5.819   4.405   0.143
 1269SOL     OW 4705   6.723   4.988   6.496
 1269SOL    HW1 4706   6.682   4.960   6.409
 1269SOL    HW2 4707   6.668   4.953   6.572
 1270SOL     OW 4708   1.204   1.631   4.003
 1270SOL    HW1 4709   1.268   1.586   4.066
 1270SOL    HW2 4710   1.249   1.646   3.915
 1271SOL     OW 4711   5.653   2.506   3.188
 1271SOL    HW1 4712   5.613   2.534   3.101
 1271SOL    HW2 4713   5.717   2.431   3.173
 1272SOL     OW 4714   5.995   6.366   0.136
 1272SOL    HW1 4715   6.075   6.417   0.167
 1272SOL    HW2 4716   5.962   6.403   0.049
 1273SOL     OW 4717   2.525   0.227   5.230
 1273SOL    HW1 4718   2.427   0.231   5.248
 1273SOL    HW2 4719   2.544   0.256   5.136
 1274SOL     OW 4720   5.811   2.303   2.170
 1274SOL    HW1 4721   5.830   2.359   2.251
 1274SOL    HW2 4722   5.721   2.327   2.133
 1275SOL     OW 4723   3.862   1.652   4.072
 1275SOL    HW1 4724   3.806   1.604   4.140
 1275SOL    HW2 4725   3.868   1.596   3.989
 1276SOL     OW 4726   5.868   0.097   2.386
 1276SOL    HW1 4727   5.940   0.061   2.444
 1276SOL    HW2 4728   5.779   0.065   2.418
 1277SOL     OW 4729   1.098   1.690   4.549
 1277SOL    HW1 4730   1.117   1.619   4.616
 1277SOL    HW2 4731   1.004   1.680   4.515
 1278SOL     OW 4732   3.077   1.571   5.317
 1278SOL    HW1 4733   3.009   1.643   5.324
 1278SOL    HW2 4734   3.070   1.526   5.228
 1279SOL     OW 4735   2.267   5.211   0.442
 1279SOL    HW1 4736   2.243   5.209   0.539
 1279SOL    HW2 4737   2.280   5.306   0.414
 1280SOL     OW 4738   1.066   5.944   2.957
 1280SOL    HW1 4739   1.132   5.931   2.883
 1280SOL    HW2 4740   1.112   5.936   3.045
 1281SOL     OW 4741   0.515   6.883   3.779
 1281SOL    HW1 4742   0.543   6.851   3.688
 1281SOL    HW2 4743   0.415   6.891   3.782
 1282SOL     OW 4744   1.160   6.318   2.763
 1282SOL    HW1 4745   1.110   6.231   2.765
 1282SOL    HW2 4746   1.096   6.392   2.784
 1283SOL     OW 4747   5.069   4.167   5.068
 1283SOL    HW1 4748   5.029   4.241   5.121
 1283SOL    HW2 4749   5.148   4.200   5.018
 1284SOL     OW 4750   3.239   1.922   3.066
 1284SOL    HW1 4751   3.141   1.935   3.049
 1284SOL    HW2 4752   3.253   1.883   3.157
 1285SOL     OW 4753   5.900   2.931   6.340
 1285SOL    HW1 4754   5.992   2.938   6.379
 1285SOL    HW2 4755   5.862   2.842   6.363
 1286SOL     OW 4756   6.318   5.827   1.275
 1286SOL    HW1 4757   6.232   5.797   1.233
 1286SOL    HW2 4758   6.317   5.926   1.288
 1287SOL     OW 4759   6.502   3.924   5.770
 1287SOL    HW1 4760   6.510   4.015   5.731
 1287SOL    HW2 4761   6.447   3.866   5.710
 1288SOL     OW 4762   6.400   3.358   3.792
 1288SOL    HW1 4763   6.495   3.378   3.770
 1288SOL    HW2 4764   6.352   3.442   3.816
 1289SOL     OW 4765   0.423   5.068   2.663
 1289SOL    HW1 4766   0.439   5.061   2.762
 1289SOL    HW2 4767   0.394   5.160   2.640
 1290SOL     OW 4768   0.718   0.213   1.226
 1290SOL    HW1 4769   0.750   0.121   1.248
 1290SOL    HW2 4770   0.635   0.233   1.278
 1291SOL     OW 4771   1.705   6.251   1.214
 1291SOL    HW1 4772   1.626   6.190   1.220
 1291SOL    HW2 4773   1.737   6.274   1.306
 1292SOL     OW 4774   1.117   6.316   6.607
 1292SOL    HW1 4775   1.140   6.403   6.651
 1292SOL    HW2 4776   1.018   6.303   6.608
 1293SOL     OW 4777   6.050   2.212   6.495
 1293SOL    HW1 4778   6.052   2.193   6.397
 1293SOL    HW2 4779   6.016   2.305   6.510
 1294SOL     OW 4780   0.633   1.567   3.381
 1294SOL    HW1 4781   0.696   1.511   3.327
 1294SOL    HW2 4782   0.547   1.577   3.332
 1295SOL     OW 4783   4.988   3.419   1.384
 1295SOL    HW1 4784   5.043   3.498   1.411
 1295SOL    HW2 4785   5.032   3.335   1.414
 1296SOL     OW 4786   3.494   2.044   0.185
 1296SOL    HW1 4787   3.534   2.029   0.095
 1296SOL    HW2 4788   3.504   1.962   0.241
 1297SOL     OW 4789   6.585   0.570   6.054
 1297SOL    HW1 4790   6.541   0.604   6.137
 1297SOL    HW2 4791   6.633   0.645   6.008
 1298SOL     OW 4792   6.744   2.721   3.526
 1298SOL    HW1 4793   6.832   2.735   3.482
 1298SOL    HW2 4794   6.754   2.730   3.625
 1299SOL     OW 4795   1.520   2.911   4.359
 1299SOL    HW1 4796   1.432   2.958   4.360
 1299SOL    HW2 4797   1.560   2.914   4.451
 1300SOL     OW 4798   3.809   3.348   2.515
 1300SOL    HW1 4799   3.869   3.314   2.442
 1300SOL    HW2 4800   3.716   3.358   2.481
 1301SOL     OW 4801   1.207   1.573   2.348
 1301SOL    HW1 4802   1.250   1.494   2.306
 1301SOL    HW2 4803   1.117   1.548   2.383
 1302SOL     OW 4804   2.568   6.277   5.543
 1302SOL    HW1 4805   2.559   6.230   5.455
 1302SOL    HW2 4806   2.640   6.233   5.597
 1303SOL     OW 4807   3.228   0.429   1.456
 1303SOL    HW1 4808   3.173   0.498   1.410
 1303SOL    HW2 4809   3.188   0.339   1.441
 1304SOL     OW 4810   3.705   1.216   6.105
 1304SOL    HW1 4811   3.608   1.231   6.119
 1304SOL    HW2 4812   3.723   1.118   6.097
 1305SOL     OW 4813   5.866   6.686   3.592
 1305SOL    HW1 4814   5.844   6.773   3.549
 1305SOL    HW2 4815   5.796   6.665   3.661
 1306SOL     OW 4816   1.479   5.208   4.464
 1306SOL    HW1 4817   1.462   5.123   4.512
 1306SOL    HW2 4818   1.401   5.271   4.478
 1307SOL     OW 4819   0.875   0.983   4.130
 1307SOL    HW1 4820   0.874   1.043   4.050
 1307SOL    HW2 4821   0.872   1.038   4.214
 1308SOL     OW 4822   4.827   5.988   3.195
 1308SOL    HW1 4823   4.869   6.067   3.239
 1308SOL    HW2 4824   4.839   5.994   3.096
 1309SOL     OW 4825   5.362   3.132   4.472
 1309SOL    HW1 4826   5.447   3.138   4.523
 1309SOL    HW2 4827   5.306   3.057   4.507
 1310SOL     OW 4828   5.151   3.519   5.718
 1310SOL    HW1 4829   5.170   3.521   5.816
 1310SOL    HW2 4830   5.124   3.610   5.688
 1311SOL     OW 4831   5.099   4.928   5.393
 1311SOL    HW1 4832   5.167   4.996   5.420
 1311SOL    HW2 4833   5.035   4.969   5.328
 1312SOL     OW 4834   6.219   0.225   1.797
 1312SOL    HW1 4835   6.218   0.321   1.823
 1312SOL    HW2 4836   6.136   0.180   1.829
 1313SOL     OW 4837   2.945   5.115   4.865
 1313SOL    HW1 4838   2.993   5.028   4.854
 1313SOL    HW2 4839   2.874   5.105   4.934
 1314SOL     OW 4840   6.745   1.360   5.994
 1314SOL    HW1 4841   6.696   1.441   5.964
 1314SOL    HW2 4842   6.776   1.308   5.914
 1315SOL     OW 4843   1.621   6.691   3.578
 1315SOL    HW1 4844   1.568   6.631   3.638
 1315SOL    HW2 4845   1.560   6.757   3.534
 1316SOL     OW 4846   3.333   6.185   3.144
 1316SOL    HW1 4847   3.409   6.176   3.079
 1316SOL    HW2 4848   3.257   6.232   3.100
 1317SOL     OW 4849   0.594   3.423   3.956
 1317SOL    HW1 4850   0.545   3.352   4.008
 1317SOL    HW2 4851   0.691   3.398   3.950
 1318SOL     OW 4852   1.077   6.249   1.596
 1318SOL    HW1 4853   1.129   6.172   1.559
 1318SOL    HW2 4854   1.056   6.233   1.692
 1319SOL     OW 4855   6.356   0.225   0.452
 1319SOL    HW1 4856   6.406   0.287   0.392
 1319SOL    HW2 4857   6.257   0.240   0.441
 1320SOL     OW 4858   4.941   5.543   4.582
 1320SOL    HW1 4859   4.890   5.492   4.652
 1320SOL    HW2 4860   5.021   5.585   4.623
 1321SOL     OW 4861   3.640   1.384   0.738
 1321SOL    HW1 4862   3.700   1.461   0.760
 1321SOL    HW2 4863   3.632   1.376   0.639
 1322SOL     OW 4864   5.109   1.385   6.182
 1322SOL    HW1 4865   5.014   1.358   6.195
 1322SOL    HW2 4866   5.113   1.481   6.154
 1323SOL     OW 4867   6.879   0.748   4.101
 1323SOL    HW1 4868   6.971   0.737   4.065
 1323SOL    HW2 4869   6.883   0.767   4.199
 1324SOL     OW 4870   1.205   2.764   0.476
 1324SOL    HW1 4871   1.145   2.685   0.487
 1324SOL    HW2 4872   1.172   2.821   0.400
 1325SOL     OW 4873   4.206   5.503   3.608
 1325SOL    HW1 4874   4.114   5.467   3.591
 1325SOL    HW2 4875   4.223   5.582   3.550
 1326SOL     OW 4876   5.681   3.869   4.904
 1326SOL    HW1 4877   5.613   3.820   4.850
 1326SOL    HW2 4878   5.636   3.934   4.965
 1327SOL     OW 4879   2.591   6.477   4.253
 1327SOL    HW1 4880   2.534   6.480   4.335
 1327SOL    HW2 4881   2.658   6.551   4.257
 1328SOL     OW 4882   2.432   1.210   1.307
 1328SOL    HW1 4883   2.402   1.170   1.394
 1328SOL    HW2 4884   2.525   1.245   1.316
 1329SOL     OW 4885   0.888   6.484   1.909
 1329SOL    HW1 4886   0.944   6.560   1.941
 1329SOL    HW2 4887   0.945   6.403   1.896
 1330SOL     OW 4888   4.573   6.159   1.028
 1330SOL    HW1 4889   4.555   6.068   1.064
 1330SOL    HW2 4890   4.672   6.175   1.026
 1331SOL     OW 4891   0.849   2.132   1.952
 1331SOL    HW1 4892   0.791   2.211   1.973
 1331SOL    HW2 4893   0.918   2.122   2.023
 1332SOL     OW 4894   4.403   2.127   1.303
 1332SOL    HW1 4895   4.330   2.195   1.310
 1332SOL    HW2 4896   4.471   2.144   1.375
 1333SOL     OW 4897   4.070   3.671   4.749
 1333SOL    HW1 4898   4.117   3.593   4.789
 1333SOL    HW2 4899   4.063   3.659   4.650
 1334SOL     OW 4900   1.201   3.614   3.945
 1334SOL    HW1 4901   1.128   3.632   4.010
 1334SOL    HW2 4902   1.240   3.524   3.962
 1335SOL     OW 4903   1.880   5.986   3.255
 1335SOL    HW1 4904   1.780   5.991   3.255
 1335SOL    HW2 4905   1.908   5.890   3.254
 1336SOL     OW 4906   6.972   0.132   5.427
 1336SOL    HW1 4907   6.901   0.085   5.375
 1336SOL    HW2 4908   6.953   0.124   5.525
 1337SOL     OW 4909   3.906   0.180   0.084
 1337SOL    HW1 4910   3.909   0.122   0.002
 1337SOL    HW2 4911   3.994   0.224   0.098
 1338SOL     OW 4912   3.031   5.401   1.558
 1338SOL    HW1 4913   3.096   5.344   1.508
 1338SOL    HW2 4914   3.012   5.484   1.506
 1339SOL     OW 4915   0.208   4.402   6.690
 1339SOL    HW1 4916   0.167   4.453   6.765
 1339SOL    HW2 4917   0.275   4.459   6.643
 1340SOL     OW 4918   2.306   1.424   6.170
 1340SOL    HW1 4919   2.339   1.451   6.079
 1340SOL    HW2 4920   2.211   1.455   6.181
 1341SOL     OW 4921   5.806   2.260   4.389
 1341SOL    HW1 4922   5.854   2.320   4.326
 1341SOL    HW2 4923   5.829   2.285   4.483
 1342SOL     OW 4924   0.856   7.003   1.473
 1342SOL    HW1 4925   0.889   0.040   1.545
 1342SOL    HW2 4926   0.851   6.909   1.508
 1343SOL     OW 4927   2.723   6.006   4.146
 1343SOL    HW1 4928   2.677   5.984   4.232
 1343SOL    HW2 4929   2.699   6.099   4.118
 1344SOL     OW 4930   5.172   1.508   3.310
 1344SOL    HW1 4931   5.138   1.597   3.339
 1344SOL    HW2 4932   5.127   1.436   3.363
 1345SOL     OW 4933   0.424   5.555   2.469
 1345SOL    HW1 4934   0.492   5.621   2.437
 1345SOL    HW2 4935   0.335   5.575   2.427
 1346SOL     OW 4936   0.186   1.286   3.427
 1346SOL    HW1 4937   0.112   1.332   3.476
 1346SOL    HW2 4938   0.190   1.319   3.333
 1347SOL     OW 4939   4.458   0.551   3.648
 1347SOL    HW1 4940   4.484   0.540   3.744
 1347SOL    HW2 4941   4.360   0.571   3.642
 1348SOL     OW 4942   4.342   5.751   4.335
 1348SOL    HW1 4943   4.383   5.839   4.363
 1348SOL    HW2 4944   4.336   5.748   4.235
 1349SOL     OW 4945   4.446   2.102   0.153
 1349SOL    HW1 4946   4.458   2.032   0.223
 1349SOL    HW2 4947   4.528   2.104   0.094
 1350SOL     OW 4948   3.138   0.637   4.996
 1350SOL    HW1 4949   3.130   0.620   4.898
 1350SOL    HW2 4950   3.142   0.736   5.012
 1351SOL     OW 4951   1.716   1.648   3.475
 1351SOL    HW1 4952   1.704   1.580   3.403
 1351SOL    HW2 4953   1.780   1.719   3.444
 1352SOL     OW 4954   0.958   6.468   4.277
 1352SOL    HW1 4955   1.035   6.416   4.240
 1352SOL    HW2 4956   0.928   6.536   4.210
 1353SOL     OW 4957   2.274   3.048   5.529
 1353SOL    HW1 4958   2.359   3.088   5.494
 1353SOL    HW2 4959   2.205   3.120   5.538
 1354SOL     OW 4960   0.387   0.213   0.158
 1354SOL    HW1 4961   0.349   0.184   0.246
 1354SOL    HW2 4962   0.487   0.214   0.164
 1355SOL     OW 4963   3.718   2.800   0.029
 1355SOL    HW1 4964   3.769   2.726   7.010
 1355SOL    HW2 4965   3.732   2.885   7.001
 1356SOL     OW 4966   3.357   3.013   1.413
 1356SOL    HW1 4967   3.317   2.971   1.494
 1356SOL    HW2 4968   3.295   3.004   1.336
 1357SOL     OW 4969   3.307   2.857   5.983
 1357SOL    HW1 4970   3.281   2.809   6.067
 1357SOL    HW2 4971   3.342   2.791   5.916
 1358SOL     OW 4972   1.517   4.236   5.725
 1358SOL    HW1 4973   1.565   4.282   5.650
 1358SOL    HW2 4974   1.447   4.296   5.762
 1359SOL     OW 4975   0.116   1.904   6.217
 1359SOL    HW1 4976   0.172   1.884   6.298
 1359SOL    HW2 4977   0.074   1.819   6.185
 1360SOL     OW 4978   3.299   3.383   3.949
 1360SOL    HW1 4979   3.386   3.381   3.899
 1360SOL    HW2 4980   3.233   3.437   3.898
 1361SOL     OW 4981   0.731   6.353   1.171
 1361SOL    HW1 4982   0.695   6.287   1.105
 1361SOL    HW2 4983   0.755   6.306   1.256
 1362SOL     OW 4984   3.412   1.529   0.230
 1362SOL    HW1 4985   3.493   1.477   0.205
 1362SOL    HW2 4986   3.440   1.617   0.268
 1363SOL     OW 4987   7.005   6.684   1.051
 1363SOL    HW1 4988   6.945   6.722   1.122
 1363SOL    HW2 4989   7.018   6.751   0.978
 1364SOL     OW 4990   1.242   3.805   0.924
 1364SOL    HW1 4991   1.322   3.864   0.914
 1364SOL    HW2 4992   1.221   3.794   1.021
 1365SOL     OW 4993   0.827   3.781   6.240
 1365SOL    HW1 4994   0.869   3.771   6.331
 1365SOL    HW2 4995   0.831   3.693   6.192
 1366SOL     OW 4996   3.566   0.119   1.511
 1366SOL    HW1 4997   3.531   0.212   1.521
 1366SOL    HW2 4998   3.635   0.101   1.582
 1367SOL     OW 4999   1.198   0.107   4.254
 1367SOL    HW1 5000   1.273   0.118   4.319
 1367SOL    HW2 5001   1.113   0.088   4.304
 1368SOL     OW 5002   1.804   6.386   4.744
 1368SOL    HW1 5003   1.873   6.342   4.686
 1368SOL    HW2 5004   1.824   6.365   4.840
 1369SOL     OW 5005   2.209   5.417   3.985
 1369SOL    HW1 5006   2.115   5.386   3.972
 1369SOL    HW2 5007   2.211   5.491   4.053
 1370SOL     OW 5008   6.704   2.664   3.146
 1370SOL    HW1 5009   6.751   2.630   3.064
 1370SOL    HW2 5010   6.757   2.739   3.186
 1371SOL     OW 5011   6.070   1.932   5.518
 1371SOL    HW1 5012   6.157   1.914   5.564
 1371SOL    HW2 5013   6.088   1.964   5.425
 1372SOL     OW 5014   5.578   2.640   1.419
 1372SOL    HW1 5015   5.539   2.597   1.500
 1372SOL    HW2 5016   5.567   2.579   1.341
 1373SOL     OW 5017   6.059   3.146   1.793
 1373SOL    HW1 5018   5.990   3.137   1.721
 1373SOL    HW2 5019   6.020   3.117   1.881
 1374SOL     OW 5020   4.037   3.202   2.297
 1374SOL    HW1 5021   4.116   3.259   2.319
 1374SOL    HW2 5022   4.045   3.170   2.202
 1375SOL     OW 5023   5.160   4.921   4.250
 1375SOL    HW1 5024   5.115   5.010   4.251
 1375SOL    HW2 5025   5.110   4.858   4.309
 1376SOL     OW 5026   3.202   4.267   5.490
 1376SOL    HW1 5027   3.185   4.301   5.397
 1376SOL    HW2 5028   3.119   4.224   5.525
 1377SOL     OW 5029   1.210   1.828   3.007
 1377SOL    HW1 5030   1.110   1.830   3.011
 1377SOL    HW2 5031   1.243   1.905   2.953
 1378SOL     OW 5032   5.002   2.055   4.567
 1378SOL    HW1 5033   4.925   2.119   4.573
 1378SOL    HW2 5034   5.088   2.105   4.576
 1379SOL     OW 5035   4.522   5.466   0.156
 1379SOL    HW1 5036   4.617   5.497   0.156
 1379SOL    HW2 5037   4.499   5.428   0.246
 1380SOL     OW 5038   0.441   5.997   3.573
 1380SOL    HW1 5039   0.457   6.092   3.599
 1380SOL    HW2 5040   0.362   5.992   3.512
 1381SOL     OW 5041   6.515   2.610   5.693
 1381SOL    HW1 5042   6.482   2.701   5.670
 1381SOL    HW2 5043   6.594   2.587   5.635
 1382SOL     OW 5044   4.304   2.298   6.610
 1382SOL    HW1 5045   4.338   2.233   6.677
 1382SOL    HW2 5046   4.371   2.372   6.597
 1383SOL     OW 5047   6.539   0.474   0.680
 1383SOL    HW1 5048   6.555   0.494   0.776
 1383SOL    HW2 5049   6.452   0.425   0.669
 1384SOL     OW 5050   6.315   2.184   2.102
 1384SOL    HW1 5051   6.265   2.195   2.188
 1384SOL    HW2 5052   6.289   2.257   2.039
 1385SOL     OW 5053   0.075   5.932   1.751
 1385SOL    HW1 5054   0.032   5.907   1.838
 1385SOL    HW2 5055   0.103   5.849   1.703
 1386SOL     OW 5056   2.053   6.274   3.915
 1386SOL    HW1 5057   2.130   6.286   3.978
 1386SOL    HW2 5058   2.083   6.224   3.835
 1387SOL     OW 5059   2.154   5.992   1.841
 1387SOL    HW1 5060   2.057   5.980   1.860
 1387SOL    HW2 5061   2.167   6.069   1.778
 1388SOL     OW 5062   6.369   0.438   1.350
 1388SOL    HW1 5063   6.405   0.513   1.405
 1388SOL    HW2 5064   6.369   0.464   1.253
 1389SOL     OW 5065   6.336   0.719   1.785
 1389SOL    HW1 5066   6.403   0.779   1.742
 1389SOL    HW2 5067   6.273   0.773   1.840
 1390SOL     OW 5068   1.274   1.795   4.355
 1390SOL    HW1 5069   1.213   1.803   4.276
 1390SOL    HW2 5070   1.222   1.759   4.433
 1391SOL     OW 5071   0.328   3.172   3.402
 1391SOL    HW1 5072   0.409   3.135   3.448
 1391SOL    HW2 5073   0.284   3.099   3.349
 1392SOL     OW 5074   5.277   4.149   4.346
 1392SOL    HW1 5075   5.258   4.097   4.262
 1392SOL    HW2 5076   5.196   4.203   4.370
 1393SOL     OW 5077   3.900   4.848   6.635
 1393SOL    HW1 5078   3.812   4.841   6.589
 1393SOL    HW2 5079   3.972   4.863   6.567
 1394SOL     OW 5080   1.518   6.204   6.990
 1394SOL    HW1 5081   1.594   6.189   0.030
 1394SOL    HW2 5082   1.468   6.118   6.978
 1395SOL     OW 5083   4.202   4.731   5.826
 1395SOL    HW1 5084   4.143   4.712   5.905
 1395SOL    HW2 5085   4.255   4.649   5.804
 1396SOL     OW 5086   6.105   6.121   3.508
 1396SOL    HW1 5087   6.046   6.155   3.435
 1396SOL    HW2 5088   6.201   6.131   3.481
 1397SOL     OW 5089   4.811   6.053   5.344
 1397SOL    HW1 5090   4.844   6.142   5.374
 1397SOL    HW2 5091   4.845   6.034   5.252
 1398SOL     OW 5092   1.818   0.647   4.280
 1398SOL    HW1 5093   1.773   0.736   4.284
 1398SOL    HW2 5094   1.847   0.620   4.372
 1399SOL     OW 5095   2.912   5.523   2.237
 1399SOL    HW1 5096   2.914   5.516   2.137
 1399SOL    HW2 5097   2.818   5.534   2.268
 1400SOL     OW 5098   1.522   0.158   2.898
 1400SOL    HW1 5099   1.555   0.108   2.819
 1400SOL    HW2 5100   1.435   0.119   2.929
 1401SOL     OW 5101   6.830   1.745   3.981
 1401SOL    HW1 5102   6.916   1.745   4.032
 1401SOL    HW2 5103   6.762   1.800   4.030
 1402SOL     OW 5104   6.360   3.333   6.944
 1402SOL    HW1 5105   6.324   3.281   7.021
 1402SOL    HW2 5106   6.318   3.424   6.941
 1403SOL     OW 5107   3.723   0.270   2.014
 1403SOL    HW1 5108   3.679   0.187   2.049
 1403SOL    HW2 5109   3.658   0.346   2.018
 1404SOL     OW 5110   4.814   1.620   0.187
 1404SOL    HW1 5111   4.798   1.592   0.092
 1404SOL    HW2 5112   4.801   1.718   0.196
 1405SOL     OW 5113   3.148   3.001   1.220
 1405SOL    HW1 5114   3.064   3.053   1.239
 1405SOL    HW2 5115   3.157   2.989   1.121
 1406SOL     OW 5116   1.254   4.412   1.710
 1406SOL    HW1 5117   1.315   4.483   1.747
 1406SOL    HW2 5118   1.192   4.381   1.783
 1407SOL     OW 5119   6.651   2.227   2.850
 1407SOL    HW1 5120   6.749   2.210   2.837
 1407SOL    HW2 5121   6.636   2.272   2.938
 1408SOL     OW 5122   6.346   6.441   6.313
 1408SOL    HW1 5123   6.358   6.517   6.378
 1408SOL    HW2 5124   6.382   6.468   6.224
 1409SOL     OW 5125   0.517   1.452   3.608
 1409SOL    HW1 5126   0.431   1.501   3.622
 1409SOL    HW2 5127   0.560   1.486   3.524
 1410SOL     OW 5128   6.263   2.394   6.914
 1410SOL    HW1 5129   6.305   2.353   6.833
 1410SOL    HW2 5130   6.253   2.325   6.985
 1411SOL     OW 5131   1.921   0.618   2.123
 1411SOL    HW1 5132   1.989   0.548   2.144
 1411SOL    HW2 5133   1.921   0.635   2.024
 1412SOL     OW 5134   1.189   2.529   6.749
 1412SOL    HW1 5135   1.217   2.443   6.706
 1412SOL    HW2 5136   1.134   2.582   6.685
 1413SOL     OW 5137   2.915   6.669   3.327
 1413SOL    HW1 5138   2.855   6.680   3.248
 1413SOL    HW2 5139   3.007   6.645   3.297
 1414SOL     OW 5140   2.986   0.958   2.020
 1414SOL    HW1 5141   2.912   0.970   1.954
 1414SOL    HW2 5142   3.044   0.882   1.991
 1415SOL     OW 5143   4.691   5.939   5.055
 1415SOL    HW1 5144   4.673   5.916   4.959
 1415SOL    HW2 5145   4.783   5.977   5.063
 1416SOL     OW 5146   4.004   5.419   3.306
 1416SOL    HW1 5147   3.994   5.332   3.257
 1416SOL    HW2 5148   3.950   5.417   3.390
 1417SOL     OW 5149   3.121   2.932   6.359
 1417SOL    HW1 5150   3.173   2.863   6.309
 1417SOL    HW2 5151   3.171   2.957   6.442
 1418SOL     OW 5152   3.661   4.123   2.692
 1418SOL    HW1 5153   3.744   4.177   2.706
 1418SOL    HW2 5154   3.629   4.087   2.780
 1419SOL     OW 5155   3.871   6.082   3.846
 1419SOL    HW1 5156   3.956   6.030   3.854
 1419SOL    HW2 5157   3.886   6.161   3.787
 1420SOL     OW 5158   0.200   5.717   1.625
 1420SOL    HW1 5159   0.177   5.620   1.635
 1420SOL    HW2 5160   0.272   5.728   1.557
 1421SOL     OW 5161   4.022   0.830   2.555
 1421SOL    HW1 5162   3.981   0.739   2.555
 1421SOL    HW2 5163   4.039   0.858   2.650
 1422SOL     OW 5164   2.932   0.424   0.312
 1422SOL    HW1 5165   2.991   0.383   0.382
 1422SOL    HW2 5166   2.863   0.358   0.284
 1423SOL     OW 5167   4.963   0.442   2.040
 1423SOL    HW1 5168   5.039   0.455   1.976
 1423SOL    HW2 5169   4.877   0.452   1.990
 1424SOL     OW 5170   0.168   5.074   2.408
 1424SOL    HW1 5171   0.140   4.982   2.436
 1424SOL    HW2 5172   0.091   5.137   2.419
 1425SOL     OW 5173   1.666   0.022   4.454
 1425SOL    HW1 5174   1.687   0.048   4.360
 1425SOL    HW2 5175   1.748   0.028   4.510
 1426SOL     OW 5176   1.837   1.113   5.755
 1426SOL    HW1 5177   1.815   1.183   5.687
 1426SOL    HW2 5178   1.758   1.099   5.815
 1427SOL     OW 5179   5.855   0.652   5.050
 1427SOL    HW1 5180   5.762   0.615   5.051
 1427SOL    HW2 5181   5.856   0.740   5.096
 1428SOL     OW 5182   5.405   1.236   0.293
 1428SOL    HW1 5183   5.363   1.256   0.204
 1428SOL    HW2 5184   5.404   1.319   0.349
 1429SOL     OW 5185   5.997   6.565   6.871
 1429SOL    HW1 5186   5.990   6.664   6.863
 1429SOL    HW2 5187   5.918   6.530   6.923
 1430SOL     OW 5188   2.017   4.104   3.156
 1430SOL    HW1 5189   2.080   4.116   3.233
 1430SOL    HW2 5190   2.066   4.066   3.078
 1431SOL     OW 5191   1.310   0.536   1.348
 1431SOL    HW1 5192   1.280   0.593   1.271
 1431SOL    HW2 5193   1.375   0.468   1.315
 1432SOL     OW 5194   2.700   0.144   0.816
 1432SOL    HW1 5195   2.698   0.080   0.740
 1432SOL    HW2 5196   2.642   0.223   0.794
 1433SOL     OW 5197   4.202   0.296   4.502
 1433SOL    HW1 5198   4.172   0.214   4.453
 1433SOL    HW2 5199   4.172   0.377   4.452
 1434SOL     OW 5200   1.097   0.870   5.241
 1434SOL    HW1 5201   1.052   0.804   5.182
 1434SOL    HW2 5202   1.064   0.962   5.221
 1435SOL     OW 5203   6.815   2.131   3.350
 1435SOL    HW1 5204   6.810   2.098   3.444
 1435SOL    HW2 5205   6.739   2.092   3.297
 1436SOL     OW 5206   4.298   3.778   0.871
 1436SOL    HW1 5207   4.200   3.766   0.859
 1436SOL    HW2 5208   4.335   3.703   0.926
 1437SOL     OW 5209   4.510   1.457   2.146
 1437SOL    HW1 5210   4.533   1.414   2.233
 1437SOL    HW2 5211   4.461   1.542   2.163
 1438SOL     OW 5212   2.510   0.680   1.579
 1438SOL    HW1 5213   2.476   0.606   1.636
 1438SOL    HW2 5214   2.567   0.643   1.506
 1439SOL     OW 5215   0.352   5.821   2.014
 1439SOL    HW1 5216   0.335   5.723   2.021
 1439SOL    HW2 5217   0.324   5.853   1.924
 1440SOL     OW 5218   2.177   3.064   1.775
 1440SOL    HW1 5219   2.178   3.012   1.861
 1440SOL    HW2 5220   2.259   3.043   1.722
 1441SOL     OW 5221   5.150   6.218   0.476
 1441SOL    HW1 5222   5.121   6.282   0.547
 1441SOL    HW2 5223   5.070   6.187   0.425
 1442SOL     OW 5224   5.358   5.260   0.709
 1442SOL    HW1 5225   5.448   5.230   0.741
 1442SOL    HW2 5226   5.303   5.289   0.787
 1443SOL     OW 5227   0.475   2.527   2.294
 1443SOL    HW1 5228   0.440   2.461   2.361
 1443SOL    HW2 5229   0.566   2.499   2.265
 1444SOL     OW 5230   0.720   5.095   6.174
 1444SOL    HW1 5231   0.687   5.016   6.224
 1444SOL    HW2 5232   0.679   5.178   6.212
 1445SOL     OW 5233   1.015   3.342   1.370
 1445SOL    HW1 5234   1.092   3.279   1.372
 1445SOL    HW2 5235   1.027   3.411   1.441
 1446SOL     OW 5236   6.647   5.929   0.954
 1446SOL    HW1 5237   6.736   5.969   0.973
 1446SOL    HW2 5238   6.632   5.851   1.015
 1447SOL     OW 5239   6.490   5.635   4.360
 1447SOL    HW1 5240   6.442   5.577   4.427
 1447SOL    HW2 5241   6.576   5.592   4.334
 1448SOL     OW 5242   1.242   1.918   6.213
 1448SOL    HW1 5243   1.150   1.939   6.247
 1448SOL    HW2 5244   1.235   1.859   6.133
 1449SOL     OW 5245   2.076   3.423   2.879
 1449SOL    HW1 5246   2.081   3.431   2.979
 1449SOL    HW2 5247   2.052   3.512   2.840
 1450SOL     OW 5248   3.229   2.132   3.930
 1450SOL    HW1 5249   3.320   2.167   3.906
 1450SOL    HW2 5250   3.232   2.088   4.019
 1451SOL     OW 5251   3.460   1.378   2.769
 1451SOL    HW1 5252   3.408   1.308   2.719
 1451SOL    HW2 5253   3.407   1.463   2.772
 1452SOL     OW 5254   4.034   2.699   6.761
 1452SOL    HW1 5255   3.963   2.669   6.825
 1452SOL    HW2 5256   4.022   2.797   6.741
 1453SOL     OW 5257   0.470   3.922   5.634
 1453SOL    HW1 5258   0.489   4.018   5.655
 1453SOL    HW2 5259   0.546   3.865   5.666
 1454SOL     OW 5260   3.497   2.076   2.758
 1454SOL    HW1 5261   3.578   2.102   2.811
 1454SOL    HW2 5262   3.525   2.047   2.666
 1455SOL     OW 5263   0.380   5.395   2.212
 1455SOL    HW1 5264   0.315   5.469   2.223
 1455SOL    HW2 5265   0.413   5.393   2.118
 1456SOL     OW 5266   6.526   5.493   4.080
 1456SOL    HW1 5267   6.474   5.454   4.155
 1456SOL    HW2 5268   6.624   5.474   4.093
 1457SOL     OW 5269   1.186   5.284   6.333
 1457SOL    HW1 5270   1.238   5.277   6.247
 1457SOL    HW2 5271   1.197   5.198   6.384
 1458SOL     OW 5272   5.765   5.506   5.182
 1458SOL    HW1 5273   5.852   5.470   5.148
 1458SOL    HW2 5274   5.779   5.546   5.272
 1459SOL     OW 5275   6.602   6.479   5.092
 1459SOL    HW1 5276   6.535   6.529   5.038
 1459SOL    HW2 5277   6.571   6.385   5.105
 1460SOL     OW 5278   1.736   6.616   4.980
 1460SOL    HW1 5279   1.804   6.681   4.947
 1460SOL    HW2 5280   1.782   6.533   5.013
 1461SOL     OW 5281   6.209   2.724   4.046
 1461SOL    HW1 5282   6.126   2.669   4.047
 1461SOL    HW2 5283   6.185   2.820   4.030
 1462SOL     OW 5284   0.391   1.367   2.165
 1462SOL    HW1 5285   0.336   1.441   2.203
 1462SOL    HW2 5286   0.344   1.329   2.085
 1463SOL     OW 5287   1.463   5.716   6.853
 1463SOL    HW1 5288   1.430   5.668   6.934
 1463SOL    HW2 5289   1.421   5.676   6.771
 1464SOL     OW 5290   1.047   4.439   4.074
 1464SOL    HW1 5291   1.098   4.356   4.048
 1464SOL    HW2 5292   1.103   4.519   4.056
 1465SOL     OW 5293   1.123   2.817   4.871
 1465SOL    HW1 5294   1.197   2.875   4.906
 1465SOL    HW2 5295   1.159   2.757   4.800
 1466SOL     OW 5296   5.328   1.221   2.782
 1466SOL    HW1 5297   5.270   1.183   2.854
 1466SOL    HW2 5298   5.402   1.275   2.823
 1467SOL     OW 5299   0.478   0.336   3.545
 1467SOL    HW1 5300   0.548   0.384   3.598
 1467SOL    HW2 5301   0.521   0.264   3.490
 1468SOL     OW 5302   3.158   5.481   2.731
 1468SOL    HW1 5303   3.071   5.485   2.682
 1468SOL    HW2 5304   3.218   5.553   2.698
 1469SOL     OW 5305   5.720   4.169   3.194
 1469SOL    HW1 5306   5.666   4.222   3.128
 1469SOL    HW2 5307   5.807   4.143   3.153
 1470SOL     OW 5308   6.140   1.987   2.540
 1470SOL    HW1 5309   6.208   1.963   2.471
 1470SOL    HW2 5310   6.114   1.906   2.591
 1471SOL     OW 5311   5.016   0.068   0.845
 1471SOL    HW1 5312   5.065   7.007   0.865
 1471SOL    HW2 5313   5.081   0.137   0.812
 1472SOL     OW 5314   1.949   0.800   6.481
 1472SOL    HW1 5315   1.972   0.703   6.491
 1472SOL    HW2 5316   2.026   0.856   6.513
 1473SOL     OW 5317   1.545   5.851   3.544
 1473SOL    HW1 5318   1.588   5.932   3.582
 1473SOL    HW2 5319   1.450   5.872   3.519
 1474SOL     OW 5320   2.388   5.028   1.551
 1474SOL    HW1 5321   2.438   4.962   1.496
 1474SOL    HW2 5322   2.377   5.113   1.500
 1475SOL     OW 5323   5.929   0.459   6.392
 1475SOL    HW1 5324   5.964   0.388   6.453
 1475SOL    HW2 5325   5.945   0.432   6.297
 1476SOL     OW 5326   5.402   0.248   6.433
 1476SOL    HW1 5327   5.326   0.313   6.441
 1476SOL    HW2 5328   5.417   0.225   6.337
 1477SOL     OW 5329   3.406   4.207   1.630
 1477SOL    HW1 5330   3.365   4.294   1.655
 1477SOL    HW2 5331   3.352   4.132   1.668
 1478SOL     OW 5332   4.656   4.989   6.587
 1478SOL    HW1 5333   4.733   5.030   6.636
 1478SOL    HW2 5334   4.580   5.054   6.584
 1479SOL     OW 5335   4.795   3.621   1.372
 1479SOL    HW1 5336   4.848   3.540   1.397
 1479SOL    HW2 5337   4.769   3.616   1.276
 1480SOL     OW 5338   2.758   0.732   4.339
 1480SOL    HW1 5339   2.680   0.751   4.279
 1480SOL    HW2 5340   2.836   0.703   4.284
 1481SOL     OW 5341   4.573   2.418   6.107
 1481SOL    HW1 5342   4.482   2.423   6.149
 1481SOL    HW2 5343   4.566   2.370   6.020
 1482SOL     OW 5344   6.132   1.157   1.490
 1482SOL    HW1 5345   6.143   1.208   1.576
 1482SOL    HW2 5346   6.086   1.070   1.509
 1483SOL     OW 5347   6.187   0.773   0.168
 1483SOL    HW1 5348   6.284   0.760   0.147
 1483SOL    HW2 5349   6.164   0.870   0.161
 1484SOL     OW 5350   3.918   5.729   5.523
 1484SOL    HW1 5351   3.876   5.638   5.523
 1484SOL    HW2 5352   3.847   5.798   5.532
 1485SOL     OW 5353   4.893   3.542   3.458
 1485SOL    HW1 5354   4.794   3.530   3.467
 1485SOL    HW2 5355   4.919   3.533   3.362
 1486SOL     OW 5356   4.316   5.741   4.078
 1486SOL    HW1 5357   4.240   5.796   4.043
 1486SOL    HW2 5358   4.316   5.651   4.034
 1487SOL     OW 5359   6.608   1.465   0.912
 1487SOL    HW1 5360   6.607   1.445   0.814
 1487SOL    HW2 5361   6.514   1.470   0.947
 1488SOL     OW 5362   6.563   2.349   2.628
 1488SOL    HW1 5363   6.620   2.341   2.546
 1488SOL    HW2 5364   6.601   2.291   2.701
 1489SOL     OW 5365   3.055   4.922   0.168
 1489SOL    HW1 5366   3.085   4.953   0.259
 1489SOL    HW2 5367   2.992   4.989   0.130
 1490SOL     OW 5368   6.260   3.178   2.610
 1490SOL    HW1 5369   6.257   3.078   2.610
 1490SOL    HW2 5370   6.350   3.208   2.581
 1491SOL     OW 5371   5.300   2.872   3.398
 1491SOL    HW1 5372   5.336   2.810   3.469
 1491SOL    HW2 5373   5.268   2.957   3.442
 1492SOL     OW 5374   0.043   1.954   2.588
 1492SOL    HW1 5375   0.128   1.902   2.592
 1492SOL    HW2 5376   6.991   1.900   2.625
 1493SOL     OW 5377   6.059   2.101   6.244
 1493SOL    HW1 5378   6.062   2.142   6.153
 1493SOL    HW2 5379   6.144   2.049   6.260
 1494SOL     OW 5380   0.246   4.753   6.291
 1494SOL    HW1 5381   0.208   4.844   6.277
 1494SOL    HW2 5382   0.223   4.721   6.383
 1495SOL     OW 5383   6.696   3.990   4.274
 1495SOL    HW1 5384   6.747   3.981   4.360
 1495SOL    HW2 5385   6.602   3.960   4.288
 1496SOL     OW 5386   6.695   6.718   5.848
 1496SOL    HW1 5387   6.791   6.721   5.873
 1496SOL    HW2 5388   6.682   6.765   5.761
 1497SOL     OW 5389   6.153   2.419   2.572
 1497SOL    HW1 5390   6.177   2.325   2.598
 1497SOL    HW2 5391   6.054   2.427   2.566
 1498SOL     OW 5392   3.465   4.296   0.639
 1498SOL    HW1 5393   3.435   4.385   0.672
 1498SOL    HW2 5394   3.386   4.236   0.627
 1499SOL     OW 5395   0.253   4.337   4.438
 1499SOL    HW1 5396   0.263   4.340   4.538
 1499SOL    HW2 5397   0.222   4.426   4.405
 1500SOL     OW 5398   1.577   5.670   1.908
 1500SOL    HW1 5399   1.583   5.572   1.931
 1500SOL    HW2 5400   1.614   5.723   1.984
 1501SOL     OW 5401   6.754   1.650   1.050
 1501SOL    HW1 5402   6.762   1.740   1.007
 1501SOL    HW2 5403   6.716   1.585   0.984
 1502SOL     OW 5404   0.001   6.625   6.505
 1502SOL    HW1 5405   6.959   6.698   6.520
 1502SOL    HW2 5406   0.059   6.648   6.427
 1503SOL     OW 5407   0.193   4.424   1.731
 1503SOL    HW1 5408   0.166   4.328   1.727
 1503SOL    HW2 5409   0.152   4.474   1.654
 1504SOL     OW 5410   1.968   0.023   2.983
 1504SOL    HW1 5411   1.904   0.095   3.009
 1504SOL    HW2 5412   2.062   0.052   3.003
 1505SOL     OW 5413   6.208   5.508   5.037
 1505SOL    HW1 5414   6.246   5.502   4.945
 1505SOL    HW2 5415   6.140   5.582   5.040
 1506SOL     OW 5416   1.195   0.778   0.242
 1506SOL    HW1 5417   1.215   0.732   0.156
 1506SOL    HW2 5418   1.157   0.713   0.307
 1507SOL     OW 5419   3.022   2.218   3.455
 1507SOL    HW1 5420   2.932   2.181   3.434
 1507SOL    HW2 5421   3.070   2.239   3.369
 1508SOL     OW 5422   2.095   0.476   1.560
 1508SOL    HW1 5423   2.009   0.470   1.610
 1508SOL    HW2 5424   2.118   0.572   1.545
 1509SOL     OW 5425   5.140   0.891   3.780
 1509SOL    HW1 5426   5.058   0.850   3.820
 1509SOL    HW2 5427   5.185   0.949   3.848
 1510SOL     OW 5428   3.930   5.903   5.100
 1510SOL    HW1 5429   3.981   5.878   5.182
 1510SOL    HW2 5430   3.988   5.959   5.041
 1511SOL     OW 5431   3.148   3.508   5.074
 1511SOL    HW1 5432   3.093   3.564   5.137
 1511SOL    HW2 5433   3.233   3.481   5.120
 1512SOL     OW 5434   5.181   6.384   0.800
 1512SOL    HW1 5435   5.091   6.347   0.777
 1512SOL    HW2 5436   5.249   6.311   0.797
 1513SOL     OW 5437   2.654   1.020   5.484
 1513SOL    HW1 5438   2.737   1.068   5.510
 1513SOL    HW2 5439   2.654   0.929   5.525
 1514SOL     OW 5440   3.020   2.100   6.613
 1514SOL    HW1 5441   2.972   2.089   6.700
 1514SOL    HW2 5442   2.971   2.165   6.556
 1515SOL     OW 5443   3.666   0.744   2.682
 1515SOL    HW1 5444   3.755   0.708   2.653
 1515SOL    HW2 5445   3.610   0.669   2.716
 1516SOL     OW 5446   6.058   6.958   5.976
 1516SOL    HW1 5447   6.095   6.875   5.935
 1516SOL    HW2 5448   5.958   6.951   5.979
 1517SOL     OW 5449   2.928   5.929   3.404
 1517SOL    HW1 5450   2.830   5.910   3.409
 1517SOL    HW2 5451   2.974   5.854   3.356
 1518SOL     OW 5452   0.626   3.105   6.500
 1518SOL    HW1 5453   0.637   3.068   6.408
 1518SOL    HW2 5454   0.562   3.182   6.497
 1519SOL     OW 5455   0.091   4.551   6.873
 1519SOL    HW1 5456   0.081   4.643   6.834
 1519SOL    HW2 5457   0.108   4.558   6.971
 1520SOL     OW 5458   0.153   6.470   3.528
 1520SOL    HW1 5459   0.152   6.493   3.625
 1520SOL    HW2 5460   0.077   6.515   3.482
 1521SOL     OW 5461   1.935   5.387   6.274
 1521SOL    HW1 5462   1.843   5.353   6.254
 1521SOL    HW2 5463   1.996   5.364   6.199
 1522SOL     OW 5464   5.323   6.369   4.193
 1522SOL    HW1 5465   5.308   6.468   4.185
 1522SOL    HW2 5466   5.416   6.347   4.163
 1523SOL     OW 5467   2.949   6.568   0.514
 1523SOL    HW1 5468   2.863   6.592   0.558
 1523SOL    HW2 5469   2.976   6.641   0.451
 1524SOL     OW 5470   2.022   1.557   3.691
 1524SOL    HW1 5471   2.120   1.541   3.689
 1524SOL    HW2 5472   1.997   1.606   3.774
 1525SOL     OW 5473   4.988   4.529   6.102
 1525SOL    HW1 5474   4.986   4.429   6.098
 1525SOL    HW2 5475   4.932   4.560   6.179
 1526SOL     OW 5476   1.256   1.907   1.261
 1526SOL    HW1 5477   1.283   1.981   1.323
 1526SOL    HW2 5478   1.275   1.933   1.167
 1527SOL     OW 5479   5.014   1.736   4.491
 1527SOL    HW1 5480   5.018   1.836   4.497
 1527SOL    HW2 5481   4.920   1.706   4.508
 1528SOL     OW 5482   3.754   3.581   2.179
 1528SOL    HW1 5483   3.763   3.481   2.177
 1528SOL    HW2 5484   3.839   3.622   2.212
 1529SOL     OW 5485   4.665   1.524   6.124
 1529SOL    HW1 5486   4.688   1.589   6.196
 1529SOL    HW2 5487   4.622   1.572   6.048
 1530SOL     OW 5488   2.216   6.797   0.961
 1530SOL    HW1 5489   2.259   6.730   0.901
 1530SOL    HW2 5490   2.146   6.848   0.911
 1531SOL     OW 5491   4.732   5.779   4.324
 1531SOL    HW1 5492   4.707   5.715   4.252
 1531SOL    HW2 5493   4.692   5.868   4.305
 1532SOL     OW 5494   2.777   5.738   1.390
 1532SOL    HW1 5495   2.769   5.835   1.411
 1532SOL    HW2 5496   2.786   5.685   1.475
 1533SOL     OW 5497   5.598   6.020   1.184
 1533SOL    HW1 5498   5.672   6.032   1.117
 1533SOL    HW2 5499   5.537   6.100   1.180
 1534SOL     OW 5500   2.631   5.274   6.529
 1534SOL    HW1 5501   2.680   5.359   6.513
 1534SOL    HW2 5502   2.696   5.198   6.530
 1535SOL     OW 5503   5.534   4.045   3.675
 1535SOL    HW1 5504   5.577   4.072   3.588
 1535SOL    HW2 5505   5.437   4.071   3.674
 1536SOL     OW 5506   4.360   3.584   6.705
 1536SOL    HW1 5507   4.348   3.649   6.780
 1536SOL    HW2 5508   4.334   3.492   6.735
 1537SOL     OW 5509   2.732   5.026   2.529
 1537SOL    HW1 5510   2.742   5.002   2.433
 1537SOL    HW2 5511   2.753   5.123   2.542
 1538SOL     OW 5512   2.919   1.354   0.563
 1538SOL    HW1 5513   2.943   1.284   0.630
 1538SOL    HW2 5514   3.003   1.394   0.525
 1539SOL     OW 5515   6.293   3.014   0.887
 1539SOL    HW1 5516   6.271   2.916   0.886
 1539SOL    HW2 5517   6.209   3.068   0.885
 1540SOL     OW 5518   3.368   6.574   3.077
 1540SOL    HW1 5519   3.435   6.518   3.126
 1540SOL    HW2 5520   3.369   6.549   2.980
 1541SOL     OW 5521   4.428   2.824   5.592
 1541SOL    HW1 5522   4.402   2.734   5.628
 1541SOL    HW2 5523   4.516   2.817   5.544
 1542SOL     OW 5524   6.965   5.210   3.010
 1542SOL    HW1 5525   6.969   5.245   2.917
 1542SOL    HW2 5526   0.016   5.249   3.064
 1543SOL     OW 5527   3.007   5.407   0.434
 1543SOL    HW1 5528   2.943   5.480   0.411
 1543SOL    HW2 5529   3.097   5.428   0.398
 1544SOL     OW 5530   4.020   3.396   3.777
 1544SOL    HW1 5531   3.931   3.382   3.734
 1544SOL    HW2 5532   4.033   3.329   3.849
 1545SOL     OW 5533   5.681   5.346   1.655
 1545SOL    HW1 5534   5.677   5.377   1.750
 1545SOL    HW2 5535   5.614   5.396   1.601
 1546SOL     OW 5536   6.036   6.257   5.652
 1546SOL    HW1 5537   6.131   6.287   5.643
 1546SOL    HW2 5538   6.003   6.278   5.744
 1547SOL     OW 5539   2.400   3.553   6.105
 1547SOL    HW1 5540   2.454   3.565   6.023
 1547SOL    HW2 5541   2.319   3.498   6.084
 1548SOL     OW 5542   6.820   2.103   1.047
 1548SOL    HW1 5543   6.802   2.108   1.145
 1548SOL    HW2 5544   6.737   2.124   0.996
 1549SOL     OW 5545   5.126   0.552   4.759
 1549SOL    HW1 5546   5.032   0.578   4.735
 1549SOL    HW2 5547   5.144   0.577   4.854
 1550SOL     OW 5548   3.721   2.936   4.083
 1550SOL    HW1 5549   3.718   2.837   4.082
 1550SOL    HW2 5550   3.629   2.973   4.077
 1551SOL     OW 5551   6.606   5.152   5.551
 1551SOL    HW1 5552   6.637   5.083   5.617
 1551SOL    HW2 5553   6.606   5.242   5.595
 1552SOL     OW 5554   1.788   4.295   1.382
 1552SOL    HW1 5555   1.767   4.287   1.479
 1552SOL    HW2 5556   1.833   4.211   1.350
 1553SOL     OW 5557   1.810   2.282   6.188
 1553SOL    HW1 5558   1.738   2.213   6.187
 1553SOL    HW2 5559   1.844   2.296   6.095
 1554SOL     OW 5560   4.213   1.807   3.651
 1554SOL    HW1 5561   4.285   1.744   3.679
 1554SOL    HW2 5562   4.212   1.815   3.551
 1555SOL     OW 5563   6.048   5.071   5.304
 1555SOL    HW1 5564   6.145   5.065   5.279
 1555SOL    HW2 5565   6.015   4.979   5.328
 1556SOL     OW 5566   2.032   0.878   5.866
 1556SOL    HW1 5567   2.074   0.889   5.957
 1556SOL    HW2 5568   1.939   0.913   5.868
 1557SOL     OW 5569   0.633   1.955   5.023
 1557SOL    HW1 5570   0.694   1.921   4.952
 1557SOL    HW2 5571   0.572   2.024   4.984
 1558SOL     OW 5572   0.065   6.771   4.473
 1558SOL    HW1 5573   0.081   6.740   4.379
 1558SOL    HW2 5574   0.150   6.761   4.526
 1559SOL     OW 5575   1.407   1.427   5.611
 1559SOL    HW1 5576   1.447   1.374   5.537
 1559SOL    HW2 5577   1.440   1.521   5.607
 1560SOL     OW 5578   6.976   0.514   6.793
 1560SOL    HW1 5579   0.049   0.489   6.785
 1560SOL    HW2 5580   6.958   0.594   6.736
 1561SOL     OW 5581   6.007   6.238   2.020
 1561SOL    HW1 5582   6.010   6.226   1.921
 1561SOL    HW2 5583   5.917   6.210   2.054
 1562SOL     OW 5584   5.541   0.996   3.811
 1562SOL    HW1 5585   5.474   1.028   3.878
 1562SOL    HW2 5586   5.625   0.971   3.858
 1563SOL     OW 5587   3.354   6.921   5.828
 1563SOL    HW1 5588   3.317   6.841   5.876
 1563SOL    HW2 5589   3.436   6.895   5.779
 1564SOL     OW 5590   0.948   2.141   3.415
 1564SOL    HW1 5591   1.010   2.115   3.489
 1564SOL    HW2 5592   0.887   2.064   3.395
 1565SOL     OW 5593   6.205   4.301   1.650
 1565SOL    HW1 5594   6.268   4.305   1.572
 1565SOL    HW2 5595   6.222   4.218   1.702
 1566SOL     OW 5596   5.774   4.185   2.436
 1566SOL    HW1 5597   5.817   4.158   2.350
 1566SOL    HW2 5598   5.764   4.284   2.438
 1567SOL     OW 5599   6.420   5.876   5.351
 1567SOL    HW1 5600   6.482   5.800   5.371
 1567SOL    HW2 5601   6.447   5.919   5.265
 1568SOL     OW 5602   0.002   6.974   7.017
 1568SOL    HW1 5603   0.086   6.965   6.964
 1568SOL    HW2 5604   0.017   0.015   0.069
 1569SOL     OW 5605   3.281   6.277   5.221
 1569SOL    HW1 5606   3.372   6.295   5.259
 1569SOL    HW2 5607   3.285   6.283   5.121
 1570SOL     OW 5608   3.096   2.222   1.738
 1570SOL    HW1 5609   3.025   2.267   1.793
 1570SOL    HW2 5610   3.121   2.281   1.661
 1571SOL     OW 5611   0.357   3.707   0.603
 1571SOL    HW1 5612   0.352   3.660   0.515
 1571SOL    HW2 5613   0.403   3.647   0.669
 1572SOL     OW 5614   1.090   5.598   2.703
 1572SOL    HW1 5615   1.081   5.541   2.621
 1572SOL    HW2 5616   1.022   5.570   2.771
 1573SOL     OW 5617   4.257   0.006   0.298
 1573SOL    HW1 5618   4.274   0.045   0.208
 1573SOL    HW2 5619   4.170   6.980   0.298
 1574SOL     OW 5620   5.224   2.636   2.393
 1574SOL    HW1 5621   5.294   2.672   2.454
 1574SOL    HW2 5622   5.140   2.690   2.403
 1575SOL     OW 5623   3.557   1.748   0.610
 1575SOL    HW1 5624   3.478   1.699   0.647
 1575SOL    HW2 5625   3.639   1.691   0.618
 1576SOL     OW 5626   5.958   5.433   3.103
 1576SOL    HW1 5627   5.968   5.376   3.184
 1576SOL    HW2 5628   6.045   5.478   3.082
 1577SOL     OW 5629   1.340   0.199   0.321
 1577SOL    HW1 5630   1.283   0.258   0.263
 1577SOL    HW2 5631   1.318   0.216   0.417
 1578SOL     OW 5632   6.010   5.602   4.726
 1578SOL    HW1 5633   5.932   5.595   4.789
 1578SOL    HW2 5634   6.037   5.510   4.697
 1579SOL     OW 5635   0.059   0.201   2.976
 1579SOL    HW1 5636   0.138   0.195   3.038
 1579SOL    HW2 5637   0.090   0.226   2.885
 1580SOL     OW 5638   3.361   3.863   5.979
 1580SOL    HW1 5639   3.376   3.927   6.055
 1580SOL    HW2 5640   3.362   3.913   5.893
 1581SOL     OW 5641   6.400   3.227   4.536
 1581SOL    HW1 5642   6.444   3.192   4.453
 1581SOL    HW2 5643   6.344   3.306   4.513
 1582SOL     OW 5644   6.103   6.299   4.881
 1582SOL    HW1 5645   6.118   6.394   4.851
 1582SOL    HW2 5646   6.059   6.248   4.807
 1583SOL     OW 5647   2.174   2.252   2.268
 1583SOL    HW1 5648   2.127   2.307   2.198
 1583SOL    HW2 5649   2.271   2.243   2.243
 1584SOL     OW 5650   2.411   0.787   6.384
 1584SOL    HW1 5651   2.508   0.767   6.368
 1584SOL    HW2 5652   2.367   0.707   6.425
 1585SOL     OW 5653   5.977   1.168   6.020
 1585SOL    HW1 5654   5.884   1.180   5.985
 1585SOL    HW2 5655   5.978   1.188   6.118
 1586SOL     OW 5656   3.992   3.642   3.026
 1586SOL    HW1 5657   4.046   3.622   3.108
 1586SOL    HW2 5658   3.987   3.560   2.969
 1587SOL     OW 5659   2.660   6.874   6.087
 1587SOL    HW1 5660   2.659   6.777   6.111
 1587SOL    HW2 5661   2.569   6.912   6.099
 1588SOL     OW 5662   5.841   3.919   1.380
 1588SOL    HW1 5663   5.917   3.980   1.404
 1588SOL    HW2 5664   5.754   3.962   1.407
 1589SOL     OW 5665   5.054   5.053   3.221
 1589SOL    HW1 5666   5.079   5.129   3.280
 1589SOL    HW2 5667   5.052   5.084   3.126
 1590SOL     OW 5668   2.033   6.687   5.252
 1590SOL    HW1 5669   1.992   6.702   5.341
 1590SOL    HW2 5670   2.119   6.636   5.262
 1591SOL     OW 5671   1.072   3.749   0.700
 1591SOL    HW1 5672   1.094   3.807   0.779
 1591SOL    HW2 5673   1.153   3.695   0.675
 1592SOL     OW 5674   3.664   3.957   3.790
 1592SOL    HW1 5675   3.699   4.001   3.874
 1592SOL    HW2 5676   3.709   3.869   3.778
 1593SOL     OW 5677   1.611   4.562   4.285
 1593SOL    HW1 5678   1.527   4.544   4.336
 1593SOL    HW2 5679   1.592   4.557   4.187
 1594SOL     OW 5680   1.476   5.151   3.378
 1594SOL    HW1 5681   1.423   5.236   3.371
 1594SOL    HW2 5682   1.447   5.088   3.305
 1595SOL     OW 5683   6.802   4.551   5.070
 1595SOL    HW1 5684   6.883   4.559   5.010
 1595SOL    HW2 5685   6.733   4.617   5.041
 1596SOL     OW 5686   2.888   5.602   0.287
 1596SOL    HW1 5687   2.912   5.518   0.238
 1596SOL    HW2 5688   2.814   5.649   0.238
 1597SOL     OW 5689   2.080   0.174   0.181
 1597SOL    HW1 5690   2.003   0.112   0.168
 1597SOL    HW2 5691   2.166   0.125   0.164
 1598SOL     OW 5692   6.748   5.210   1.401
 1598SOL    HW1 5693   6.675   5.181   1.463
 1598SOL    HW2 5694   6.786   5.297   1.432
 1599SOL     OW 5695   2.954   5.108   0.434
 1599SOL    HW1 5696   2.948   5.201   0.397
 1599SOL    HW2 5697   3.018   5.107   0.510
 1600SOL     OW 5698   3.147   1.082   5.402
 1600SOL    HW1 5699   3.183   0.996   5.365
 1600SOL    HW2 5700   3.160   1.155   5.335
 1601SOL     OW 5701   1.531   5.181   4.843
 1601SOL    HW1 5702   1.510   5.198   4.939
 1601SOL    HW2 5703   1.584   5.258   4.807
 1602SOL     OW 5704   0.792   3.873   2.166
 1602SOL    HW1 5705   0.803   3.965   2.128
 1602SOL    HW2 5706   0.709   3.870   2.222
 1603SOL     OW 5707   5.628   6.662   0.591
 1603SOL    HW1 5708   5.673   6.640   0.678
 1603SOL    HW2 5709   5.649   6.591   0.524
 1604SOL     OW 5710   0.612   5.645   5.047
 1604SOL    HW1 5711   0.630   5.743   5.044
 1604SOL    HW2 5712   0.683   5.596   4.995
 1605SOL     OW 5713   5.430   5.863   2.668
 1605SOL    HW1 5714   5.385   5.787   2.621
 1605SOL    HW2 5715   5.375   5.892   2.746
 1606SOL     OW 5716   5.609   5.850   5.184
 1606SOL    HW1 5717   5.590   5.943   5.153
 1606SOL    HW2 5718   5.708   5.840   5.199
 1607SOL     OW 5719   4.440   3.167   0.881
 1607SOL    HW1 5720   4.436   3.101   0.956
 1607SOL    HW2 5721   4.530   3.210   0.879
 1608SOL     OW 5722   2.849   0.803   0.594
 1608SOL    HW1 5723   2.838   0.841   0.502
 1608SOL    HW2 5724   2.784   0.849   0.656
 1609SOL     OW 5725   5.150   0.979   5.573
 1609SOL    HW1 5726   5.132   0.896   5.522
 1609SOL    HW2 5727   5.184   1.050   5.512
 1610SOL     OW 5728   5.085   6.435   2.862
 1610SOL    HW1 5729   5.091   6.478   2.951
 1610SOL    HW2 5730   5.177   6.414   2.828
 1611SOL     OW 5731   4.346   3.069   1.550
 1611SOL    HW1 5732   4.283   3.141   1.523
 1611SOL    HW2 5733   4.363   3.009   1.472
 1612SOL     OW 5734   3.521   0.864   4.661
 1612SOL    HW1 5735   3.547   0.791   4.724
 1612SOL    HW2 5736   3.601   0.919   4.639
 1613SOL     OW 5737   1.576   0.391   0.595
 1613SOL    HW1 5738   1.501   0.457   0.602
 1613SOL    HW2 5739   1.612   0.372   0.687
 1614SOL     OW 5740   0.154   2.375   5.551
 1614SOL    HW1 5741   0.222   2.312   5.513
 1614SOL    HW2 5742   0.177   2.393   5.647
 1615SOL     OW 5743   6.326   4.695   5.595
 1615SOL    HW1 5744   6.409   4.669   5.643
 1615SOL    HW2 5745   6.335   4.789   5.563
 1616SOL     OW 5746   2.335   2.437   6.408
 1616SOL    HW1 5747   2.305   2.346   6.377
 1616SOL    HW2 5748   2.282   2.463   6.489
 1617SOL     OW 5749   4.102   0.422   3.992
 1617SOL    HW1 5750   4.177   0.410   4.057
 1617SOL    HW2 5751   4.019   0.382   4.030
 1618SOL     OW 5752   5.425   2.460   2.301
 1618SOL    HW1 5753   5.486   2.490   2.375
 1618SOL    HW2 5754   5.336   2.503   2.311
 1619SOL     OW 5755   1.874   2.658   4.539
 1619SOL    HW1 5756   1.926   2.609   4.468
 1619SOL    HW2 5757   1.894   2.755   4.533
 1620SOL     OW 5758   3.597   5.905   1.689
 1620SOL    HW1 5759   3.564   5.810   1.686
 1620SOL    HW2 5760   3.639   5.922   1.779
 1621SOL     OW 5761   1.904   1.597   1.911
 1621SOL    HW1 5762   1.912   1.667   1.982
 1621SOL    HW2 5763   1.907   1.641   1.821
 1622SOL     OW 5764   2.272   2.450   4.835
 1622SOL    HW1 5765   2.283   2.412   4.927
 1622SOL    HW2 5766   2.207   2.526   4.838
 1623SOL     OW 5767   2.071   2.181   4.709
 1623SOL    HW1 5768   2.139   2.223   4.648
 1623SOL    HW2 5769   2.114   2.159   4.797
 1624SOL     OW 5770   2.315   1.000   0.783
 1624SOL    HW1 5771   2.385   1.055   0.828
 1624SOL    HW2 5772   2.338   0.903   0.791
 1625SOL     OW 5773   0.790   6.164   1.395
 1625SOL    HW1 5774   0.793   6.101   1.318
 1625SOL    HW2 5775   0.874   6.217   1.399
 1626SOL     OW 5776   2.330   3.065   5.951
 1626SOL    HW1 5777   2.417   3.070   5.901
 1626SOL    HW2 5778   2.349   3.049   6.048
 1627SOL     OW 5779   4.937   3.574   3.941
 1627SOL    HW1 5780   4.932   3.661   3.892
 1627SOL    HW2 5781   4.951   3.592   4.039
 1628SOL     OW 5782   2.811   3.411   0.119
 1628SOL    HW1 5783   2.906   3.422   0.148
 1628SOL    HW2 5784   2.807   3.395   0.020
 1629SOL     OW 5785   3.207   2.110   2.797
 1629SOL    HW1 5786   3.305   2.121   2.786
 1629SOL    HW2 5787   3.182   2.014   2.782
 1630SOL     OW 5788   6.132   4.828   4.617
 1630SOL    HW1 5789   6.098   4.875   4.535
 1630SOL    HW2 5790   6.086   4.740   4.627
 1631SOL     OW 5791   0.689   0.022   5.733
 1631SOL    HW1 5792   0.639   7.006   5.656
 1631SOL    HW2 5793   0.625   0.056   5.801
 1632SOL     OW 5794   4.670   6.775   0.216
 1632SOL    HW1 5795   4.688   6.869   0.186
 1632SOL    HW2 5796   4.744   6.744   0.275
 1633SOL     OW 5797   6.123   3.622   3.341
 1633SOL    HW1 5798   6.138   3.556   3.414
 1633SOL    HW2 5799   6.185   3.602   3.265
 1634SOL     OW 5800   4.300   0.993   1.054
 1634SOL    HW1 5801   4.295   1.054   1.133
 1634SOL    HW2 5802   4.228   0.924   1.061
 1635SOL     OW 5803   1.083   4.846   3.756
 1635SOL    HW1 5804   1.050   4.754   3.734
 1635SOL    HW2 5805   1.021   4.914   3.717
 1636SOL     OW 5806   2.682   6.563   0.238
 1636SOL    HW1 5807   2.769   6.521   0.213
 1636SOL    HW2 5808   2.642   6.514   0.314
 1637SOL     OW 5809   0.863   2.406   2.636
 1637SOL    HW1 5810   0.826   2.499   2.640
 1637SOL    HW2 5811   0.788   2.340   2.637
 1638SOL     OW 5812   1.379   2.674   5.680
 1638SOL    HW1 5813   1.364   2.612   5.603
 1638SOL    HW2 5814   1.306   2.743   5.682
 1639SOL     OW 5815   4.353   5.308   2.690
 1639SOL    HW1 5816   4.265   5.261   2.697
 1639SOL    HW2 5817   4.337   5.405   2.674
 1640SOL     OW 5818   5.544   0.536   0.916
 1640SOL    HW1 5819   5.561   0.614   0.976
 1640SOL    HW2 5820   5.469   0.557   0.853
 1641SOL     OW 5821   6.668   2.865   5.210
 1641SOL    HW1 5822   6.758   2.893   5.244
 1641SOL    HW2 5823   6.599   2.886   5.279
 1642SOL     OW 5824   0.595   2.498   1.494
 1642SOL    HW1 5825   0.627   2.568   1.557
 1642SOL    HW2 5826   0.521   2.446   1.536
 1643SOL     OW 5827   3.834   0.835   5.753
 1643SOL    HW1 5828   3.749   0.814   5.801
 1643SOL    HW2 5829   3.838   0.933   5.734
 1644SOL     OW 5830   4.151   0.957   0.577
 1644SOL    HW1 5831   4.167   0.878   0.636
 1644SOL    HW2 5832   4.069   0.941   0.522
 1645SOL     OW 5833   1.836   6.460   6.407
 1645SOL    HW1 5834   1.746   6.457   6.364
 1645SOL    HW2 5835   1.892   6.385   6.373
 1646SOL     OW 5836   1.749   3.844   0.437
 1646SOL    HW1 5837   1.744   3.813   0.532
 1646SOL    HW2 5838   1.809   3.923   0.431
 1647SOL     OW 5839   5.865   2.825   2.608
 1647SOL    HW1 5840   5.790   2.856   2.549
 1647SOL    HW2 5841   5.870   2.725   2.605
 1648SOL     OW 5842   3.831   6.750   2.467
 1648SOL    HW1 5843   3.752   6.810   2.457
 1648SOL    HW2 5844   3.808   6.659   2.433
 1649SOL     OW 5845   2.516   0.253   3.060
 1649SOL    HW1 5846   2.570   0.183   3.012
 1649SOL    HW2 5847   2.489   0.323   2.995
 1650SOL     OW 5848   3.227   6.927   3.700
 1650SOL    HW1 5849   3.247   6.888   3.790
 1650SOL    HW2 5850   3.226   6.855   3.631
 1651SOL     OW 5851   1.344   0.494   1.803
 1651SOL    HW1 5852   1.289   0.472   1.723
 1651SOL    HW2 5853   1.423   0.432   1.807
 1652SOL     OW 5854   2.962   3.151   1.837
 1652SOL    HW1 5855   2.996   3.220   1.773
 1652SOL    HW2 5856   2.875   3.114   1.804
 1653SOL     OW 5857   1.604   5.088   0.926
 1653SOL    HW1 5858   1.552   5.027   0.986
 1653SOL    HW2 5859   1.549   5.110   0.845
 1654SOL     OW 5860   0.345   1.895   3.582
 1654SOL    HW1 5861   0.443   1.875   3.584
 1654SOL    HW2 5862   0.294   1.810   3.563
 1655SOL     OW 5863   4.770   4.295   5.567
 1655SOL    HW1 5864   4.688   4.320   5.619
 1655SOL    HW2 5865   4.837   4.254   5.627
 1656SOL     OW 5866   0.281   3.672   2.285
 1656SOL    HW1 5867   0.242   3.666   2.194
 1656SOL    HW2 5868   0.369   3.720   2.280
 1657SOL     OW 5869   1.291   0.411   5.031
 1657SOL    HW1 5870   1.337   0.345   5.090
 1657SOL    HW2 5871   1.358   0.474   4.993
 1658SOL     OW 5872   6.416   6.441   2.738
 1658SOL    HW1 5873   6.380   6.524   2.782
 1658SOL    HW2 5874   6.512   6.455   2.715
 1659SOL     OW 5875   4.978   2.027   6.534
 1659SOL    HW1 5876   4.955   2.077   6.450
 1659SOL    HW2 5877   5.027   2.088   6.597
 1660SOL     OW 5878   2.327   6.433   3.113
 1660SOL    HW1 5879   2.359   6.339   3.110
 1660SOL    HW2 5880   2.361   6.477   3.196
 1661SOL     OW 5881   3.288   0.521   3.217
 1661SOL    HW1 5882   3.197   0.560   3.235
 1661SOL    HW2 5883   3.279   0.423   3.201
 1662SOL     OW 5884   6.318   1.006   2.937
 1662SOL    HW1 5885   6.262   0.945   2.881
 1662SOL    HW2 5886   6.259   1.076   2.978
 1663SOL     OW 5887   1.869   0.265   3.661
 1663SOL    HW1 5888   1.856   0.330   3.735
 1663SOL    HW2 5889   1.962   0.226   3.666
 1664SOL     OW 5890   2.368   5.415   4.716
 1664SOL    HW1 5891   2.453   5.366   4.700
 1664SOL    HW2 5892   2.316   5.369   4.788
 1665SOL     OW 5893   0.996   0.921   3.741
 1665SOL    HW1 5894   1.039   0.867   3.669
 1665SOL    HW2 5895   0.991   0.868   3.825
 1666SOL     OW 5896   5.702   2.984   6.146
 1666SOL    HW1 5897   5.785   2.978   6.201
 1666SOL    HW2 5898   5.661   2.894   6.136
 1667SOL     OW 5899   6.807   0.849   0.097
 1667SOL    HW1 5900   6.856   0.936   0.101
 1667SOL    HW2 5901   6.736   0.847   0.166
 1668SOL     OW 5902   1.896   0.490   4.907
 1668SOL    HW1 5903   1.938   0.481   4.817
 1668SOL    HW2 5904   1.915   0.409   4.961
 1669SOL     OW 5905   5.934   5.939   6.195
 1669SOL    HW1 5906   5.957   5.878   6.271
 1669SOL    HW2 5907   5.986   6.024   6.204
 1670SOL     OW 5908   6.554   3.584   6.622
 1670SOL    HW1 5909   6.477   3.617   6.566
 1670SOL    HW2 5910   6.530   3.496   6.662
 1671SOL     OW 5911   5.820   5.183   0.408
 1671SOL    HW1 5912   5.897   5.247   0.419
 1671SOL    HW2 5913   5.740   5.220   0.454
 1672SOL     OW 5914   2.013   5.340   2.241
 1672SOL    HW1 5915   2.080   5.322   2.312
 1672SOL    HW2 5916   2.042   5.298   2.155
 1673SOL     OW 5917   6.278   2.685   3.331
 1673SOL    HW1 5918   6.368   2.680   3.374
 1673SOL    HW2 5919   6.233   2.770   3.357
 1674SOL     OW 5920   2.251   5.778   6.760
 1674SOL    HW1 5921   2.280   5.851   6.698
 1674SOL    HW2 5922   2.157   5.796   6.791
 1675SOL     OW 5923   4.462   2.221   0.519
 1675SOL    HW1 5924   4.482   2.319   0.520
 1675SOL    HW2 5925   4.379   2.203   0.571
 1676SOL     OW 5926   2.727   1.111   4.174
 1676SOL    HW1 5927   2.694   1.089   4.266
 1676SOL    HW2 5928   2.782   1.035   4.139
 1677SOL     OW 5929   5.944   0.396   5.644
 1677SOL    HW1 5930   5.911   0.477   5.692
 1677SOL    HW2 5931   6.043   0.388   5.656
 1678SOL     OW 5932   4.874   0.172   1.534
 1678SOL    HW1 5933   4.960   0.207   1.569
 1678SOL    HW2 5934   4.885   0.075   1.509
 1679SOL     OW 5935   5.494   4.317   0.220
 1679SOL    HW1 5936   5.516   4.238   0.162
 1679SOL    HW2 5937   5.437   4.381   0.168
 1680SOL     OW 5938   1.070   2.333   5.356
 1680SOL    HW1 5939   1.116   2.359   5.441
 1680SOL    HW2 5940   1.134   2.284   5.297
 1681SOL     OW 5941   4.796   5.506   0.204
 1681SOL    HW1 5942   4.810   5.565   0.283
 1681SOL    HW2 5943   4.881   5.498   0.152
 1682SOL     OW 5944   6.679   3.307   5.242
 1682SOL    HW1 5945   6.601   3.270   5.294
 1682SOL    HW2 5946   6.764   3.268   5.277
 1683SOL     OW 5947   5.339   5.453   6.094
 1683SOL    HW1 5948   5.303   5.480   6.005
 1683SOL    HW2 5949   5.280   5.384   6.135
 1684SOL     OW 5950   0.363   6.547   4.139
 1684SOL    HW1 5951   0.366   6.553   4.039
 1684SOL    HW2 5952   0.456   6.541   4.175
 1685SOL     OW 5953   1.073   1.379   0.443
 1685SOL    HW1 5954   1.026   1.413   0.525
 1685SOL    HW2 5955   1.006   1.364   0.370
 1686SOL     OW 5956   2.463   6.472   6.574
 1686SOL    HW1 5957   2.562   6.457   6.577
 1686SOL    HW2 5958   2.436   6.492   6.479
 1687SOL     OW 5959   2.454   6.259   2.105
 1687SOL    HW1 5960   2.478   6.162   2.103
 1687SOL    HW2 5961   2.412   6.280   2.193
 1688SOL     OW 5962   0.795   1.310   3.269
 1688SOL    HW1 5963   0.807   1.226   3.217
 1688SOL    HW2 5964   0.863   1.313   3.343
 1689SOL     OW 5965   3.464   1.716   2.009
 1689SOL    HW1 5966   3.527   1.783   2.048
 1689SOL    HW2 5967   3.381   1.764   1.976
 1690SOL     OW 5968   1.005   2.526   0.748
 1690SOL    HW1 5969   0.931   2.591   0.735
 1690SOL    HW2 5970   1.038   2.493   0.659
 1691SOL     OW 5971   4.117   4.864   2.538
 1691SOL    HW1 5972   4.071   4.831   2.455
 1691SOL    HW2 5973   4.205   4.906   2.513
 1692SOL     OW 5974   1.465   6.886   3.444
 1692SOL    HW1 5975   1.390   6.936   3.488
 1692SOL    HW2 5976   1.479   6.922   3.352
 1693SOL     OW 5977   3.624   1.796   3.932
 1693SOL    HW1 5978   3.723   1.810   3.938
 1693SOL    HW2 5979   3.605   1.715   3.876
 1694SOL     OW 5980   5.799   5.827   5.548
 1694SOL    HW1 5981   5.722   5.831   5.611
 1694SOL    HW2 5982   5.883   5.808   5.599
 1695SOL     OW 5983   3.899   1.372   6.172
 1695SOL    HW1 5984   3.983   1.333   6.211
 1695SOL    HW2 5985   3.837   1.297   6.149
 1696SOL     OW 5986   2.918   5.939   1.987
 1696SOL    HW1 5987   2.909   6.012   1.920
 1696SOL    HW2 5988   2.945   5.855   1.940
 1697SOL     OW 5989   0.999   2.140   1.718
 1697SOL    HW1 5990   0.934   2.152   1.793
 1697SOL    HW2 5991   0.997   2.220   1.659
 1698SOL     OW 5992   4.804   2.260   0.774
 1698SOL    HW1 5993   4.837   2.204   0.850
 1698SOL    HW2 5994   4.714   2.298   0.797
 1699SOL     OW 5995   2.461   4.797   0.687
 1699SOL    HW1 5996   2.507   4.719   0.730
 1699SOL    HW2 5997   2.492   4.805   0.592
 1700SOL     OW 5998   6.456   2.590   4.810
 1700SOL    HW1 5999   6.424   2.681   4.784
 1700SOL    HW2 6000   6.549   2.576   4.775
 1701SOL     OW 6001   6.245   2.866   5.190
 1701SOL    HW1 6002   6.147   2.881   5.180
 1701SOL    HW2 6003   6.294   2.922   5.123
 1702SOL     OW 6004   4.681   2.752   1.823
 1702SOL    HW1 6005   4.639   2.680   1.877
 1702SOL    HW2 6006   4.663   2.841   1.865
 1703SOL     OW 6007   1.605   3.914   0.214
 1703SOL    HW1 6008   1.623   3.889   0.309
 1703SOL    HW2 6009   1.509   3.942   0.205
 1704SOL     OW 6010   6.944   1.112   2.168
 1704SOL    HW1 6011   7.003   1.191   2.150
 1704SOL    HW2 6012   7.000   1.029   2.171
 1705SOL     OW 6013   3.998   3.078   2.951
 1705SOL    HW1 6014   4.081   3.055   2.900
 1705SOL    HW2 6015   3.920   3.075   2.889
 1706SOL     OW 6016   2.294   0.603   6.539
 1706SOL    HW1 6017   2.194   0.601   6.548
 1706SOL    HW2 6018   2.331   0.512   6.558
 1707SOL     OW 6019   5.015   1.319   2.652
 1707SOL    HW1 6020   4.942   1.383   2.677
 1707SOL    HW2 6021   4.974   1.230   2.629
 1708SOL     OW 6022   0.133   4.620   1.454
 1708SOL    HW1 6023   0.073   4.560   1.401
 1708SOL    HW2 6024   0.098   4.714   1.450
 1709SOL     OW 6025   2.554   5.461   5.114
 1709SOL    HW1 6026   2.590   5.403   5.188
 1709SOL    HW2 6027   2.601   5.439   5.029
 1710SOL     OW 6028   6.838   5.185   4.255
 1710SOL    HW1 6029   6.864   5.282   4.254
 1710SOL    HW2 6030   6.862   5.145   4.344
 1711SOL     OW 6031   1.493   4.293   5.385
 1711SOL    HW1 6032   1.592   4.286   5.371
 1711SOL    HW2 6033   1.446   4.272   5.299
 1712SOL     OW 6034   2.143   4.877   1.636
 1712SOL    HW1 6035   2.221   4.930   1.604
 1712SOL    HW2 6036   2.059   4.913   1.597
 1713SOL     OW 6037   1.792   3.134   0.772
 1713SOL    HW1 6038   1.867   3.171   0.716
 1713SOL    HW2 6039   1.825   3.056   0.825
 1714SOL     OW 6040   4.124   1.047   1.578
 1714SOL    HW1 6041   4.126   1.127   1.518
 1714SOL    HW2 6042   4.207   1.044   1.633
 1715SOL     OW 6043   0.403   3.212   3.754
 1715SOL    HW1 6044   0.395   3.137   3.820
 1715SOL    HW2 6045   0.468   3.187   3.683
 1716SOL     OW 6046   0.315   0.193   6.752
 1716SOL    HW1 6047   0.341   0.105   6.713
 1716SOL    HW2 6048   0.397   0.241   6.784
 1717SOL     OW 6049   3.225   0.038   6.802
 1717SOL    HW1 6050   3.224   6.992   6.874
 1717SOL    HW2 6051   3.169   0.115   6.831
 1718SOL     OW 6052   1.814   4.479   5.132
 1718SOL    HW1 6053   1.812   4.379   5.132
 1718SOL    HW2 6054   1.722   4.515   5.117
 1719SOL     OW 6055   2.072   3.717   1.429
 1719SOL    HW1 6056   2.097   3.671   1.344
 1719SOL    HW2 6057   2.023   3.653   1.488
 1720SOL     OW 6058   6.795   1.763   2.142
 1720SOL    HW1 6059   6.865   1.763   2.213
 1720SOL    HW2 6060   6.767   1.857   2.124
 1721SOL     OW 6061   1.413   6.079   4.435
 1721SOL    HW1 6062   1.428   6.165   4.387
 1721SOL    HW2 6063   1.452   6.003   4.383
 1722SOL     OW 6064   5.633   0.298   1.749
 1722SOL    HW1 6065   5.654   0.337   1.839
 1722SOL    HW2 6066   5.639   0.198   1.753
 1723SOL     OW 6067   5.505   0.983   2.697
 1723SOL    HW1 6068   5.407   0.998   2.706
 1723SOL    HW2 6069   5.552   1.071   2.693
 1724SOL     OW 6070   5.278   0.232   0.442
 1724SOL    HW1 6071   5.339   0.168   0.396
 1724SOL    HW2 6072   5.209   0.265   0.378
 1725SOL     OW 6073   3.594   5.583   1.891
 1725SOL    HW1 6074   3.556   5.491   1.904
 1725SOL    HW2 6075   3.684   5.588   1.934
 1726SOL     OW 6076   6.716   3.671   4.655
 1726SOL    HW1 6077   6.802   3.626   4.635
 1726SOL    HW2 6078   6.706   3.681   4.754
 1727SOL     OW 6079   2.615   3.413   5.313
 1727SOL    HW1 6080   2.594   3.510   5.325
 1727SOL    HW2 6081   2.692   3.402   5.251
 1728SOL     OW 6082   4.225   5.204   3.331
 1728SOL    HW1 6083   4.318   5.232   3.307
 1728SOL    HW2 6084   4.222   5.182   3.429
 1729SOL     OW 6085   1.579   3.686   2.253
 1729SOL    HW1 6086   1.614   3.628   2.180
 1729SOL    HW2 6087   1.489   3.722   2.227
 1730SOL     OW 6088   5.622   2.052   4.639
 1730SOL    HW1 6089   5.587   1.999   4.562
 1730SOL    HW2 6090   5.580   2.019   4.724
 1731SOL     OW 6091   0.028   6.817   0.590
 1731SOL    HW1 6092   7.012   6.820   0.499
 1731SOL    HW2 6093   0.000   6.733   0.637
 1732SOL     OW 6094   0.633   4.527   6.869
 1732SOL    HW1 6095   0.702   4.529   6.797
 1732SOL    HW2 6096   0.643   4.443   6.922
 1733SOL     OW 6097   1.104   3.885   6.910
 1733SOL    HW1 6098   1.123   3.835   6.825
 1733SOL    HW2 6099   1.087   3.820   6.984
 1734SOL     OW 6100   5.197   3.922   1.461
 1734SOL    HW1 6101   5.135   3.967   1.397
 1734SOL    HW2 6102   5.182   3.824   1.459
 1735SOL     OW 6103   5.075   5.617   0.333
 1735SOL    HW1 6104   5.104   5.527   0.299
 1735SOL    HW2 6105   5.040   5.607   0.426
 1736SOL     OW 6106   3.079   3.687   0.237
 1736SOL    HW1 6107   3.017   3.716   0.311
 1736SOL    HW2 6108   3.107   3.592   0.252
 1737SOL     OW 6109   0.592   5.538   3.162
 1737SOL    HW1 6110   0.676   5.593   3.161
 1737SOL    HW2 6111   0.572   5.511   3.257
 1738SOL     OW 6112   0.979   1.461   2.042
 1738SOL    HW1 6113   1.039   1.518   1.986
 1738SOL    HW2 6114   0.925   1.401   1.982
 1739SOL     OW 6115   4.312   2.453   6.188
 1739SOL    HW1 6116   4.253   2.373   6.178
 1739SOL    HW2 6117   4.272   2.516   6.254
 1740SOL     OW 6118   0.774   1.364   5.290
 1740SOL    HW1 6119   0.839   1.435   5.315
 1740SOL    HW2 6120   0.683   1.404   5.281
 1741SOL     OW 6121   2.076   1.212   2.351
 1741SOL    HW1 6122   2.108   1.129   2.304
 1741SOL    HW2 6123   2.137   1.288   2.329
 1742SOL     OW 6124   5.801   6.584   4.216
 1742SOL    HW1 6125   5.788   6.661   4.154
 1742SOL    HW2 6126   5.898   6.577   4.241
 1743SOL     OW 6127   4.800   1.130   0.472
 1743SOL    HW1 6128   4.738   1.088   0.539
 1743SOL    HW2 6129   4.823   1.222   0.501
 1744SOL     OW 6130   2.978   6.151   1.818
 1744SOL    HW1 6131   2.967   6.110   1.728
 1744SOL    HW2 6132   2.919   6.231   1.826
 1745SOL     OW 6133   6.956   3.428   4.902
 1745SOL    HW1 6134   0.001   3.445   4.973
 1745SOL    HW2 6135   6.900   3.510   4.891
 1746SOL     OW 6136   2.363   1.106   5.902
 1746SOL    HW1 6137   2.393   1.185   5.850
 1746SOL    HW2 6138   2.353   1.132   5.998
 1747SOL     OW 6139   5.125   6.774   5.280
 1747SOL    HW1 6140   5.204   6.763   5.340
 1747SOL    HW2 6141   5.149   6.834   5.204
 1748SOL     OW 6142   5.758   1.110   1.523
 1748SOL    HW1 6143   5.677   1.117   1.581
 1748SOL    HW2 6144   5.761   1.188   1.460
 1749SOL     OW 6145   4.907   0.150   6.086
 1749SOL    HW1 6146   4.990   0.207   6.090
 1749SOL    HW2 6147   4.837   0.190   6.145
 1750SOL     OW 6148   4.717   0.240   4.541
 1750SOL    HW1 6149   4.629   0.239   4.493
 1750SOL    HW2 6150   4.711   0.184   4.624
 1751SOL     OW 6151   1.968   6.026   4.114
 1751SOL    HW1 6152   1.877   5.997   4.085
 1751SOL    HW2 6153   2.033   6.015   4.039
 1752SOL     OW 6154   6.902   2.035   6.221
 1752SOL    HW1 6155   6.890   2.118   6.167
 1752SOL    HW2 6156   6.999   2.018   6.235
 1753SOL     OW 6157   2.600   6.597   2.625
 1753SOL    HW1 6158   2.523   6.571   2.566
 1753SOL    HW2 6159   2.633   6.516   2.674
 1754SOL     OW 6160   3.394   2.915   1.858
 1754SOL    HW1 6161   3.341   2.993   1.892
 1754SOL    HW2 6162   3.360   2.889   1.768
 1755SOL     OW 6163   6.479   4.476   0.529
 1755SOL    HW1 6164   6.562   4.518   0.493
 1755SOL    HW2 6165   6.490   4.461   0.627
 1756SOL     OW 6166   5.533   5.434   4.513
 1756SOL    HW1 6167   5.517   5.502   4.584
 1756SOL    HW2 6168   5.609   5.463   4.455
 1757SOL     OW 6169   3.516   0.530   5.537
 1757SOL    HW1 6170   3.519   0.624   5.571
 1757SOL    HW2 6171   3.574   0.521   5.456
 1758SOL     OW 6172   3.213   1.929   3.360
 1758SOL    HW1 6173   3.229   1.894   3.452
 1758SOL    HW2 6174   3.122   1.900   3.329
 1759SOL     OW 6175   0.647   5.361   6.215
 1759SOL    HW1 6176   0.696   5.392   6.133
 1759SOL    HW2 6177   0.574   5.427   6.236
 1760SOL     OW 6178   4.776   6.836   2.173
 1760SOL    HW1 6179   4.743   6.923   2.136
 1760SOL    HW2 6180   4.848   6.854   2.240
 1761SOL     OW 6181   5.648   3.109   1.347
 1761SOL    HW1 6182   5.682   3.056   1.425
 1761SOL    HW2 6183   5.565   3.067   1.311
 1762SOL     OW 6184   5.663   2.720   0.608
 1762SOL    HW1 6185   5.593   2.666   0.656
 1762SOL    HW2 6186   5.688   2.798   0.665
 1763SOL     OW 6187   2.329   2.882   4.002
 1763SOL    HW1 6188   2.304   2.922   3.914
 1763SOL    HW2 6189   2.309   2.947   4.075
 1764SOL     OW 6190   6.547   3.300   4.176
 1764SOL    HW1 6191   6.486   3.223   4.160
 1764SOL    HW2 6192   6.586   3.294   4.268
 1765SOL     OW 6193   2.190   3.709   5.904
 1765SOL    HW1 6194   2.152   3.754   5.822
 1765SOL    HW2 6195   2.202   3.777   5.976
 1766SOL     OW 6196   6.077   3.296   5.898
 1766SOL    HW1 6197   6.077   3.224   5.968
 1766SOL    HW2 6198   6.101   3.383   5.941
 1767SOL     OW 6199   6.412   4.589   1.653
 1767SOL    HW1 6200   6.373   4.562   1.741
 1767SOL    HW2 6201   6.511   4.595   1.661
 1768SOL     OW 6202   6.329   6.727   3.312
 1768SOL    HW1 6203   6.308   6.787   3.389
 1768SOL    HW2 6204   6.256   6.734   3.244
 1769SOL     OW 6205   5.000   0.684   3.393
 1769SOL    HW1 6206   4.978   0.719   3.302
 1769SOL    HW2 6207   4.926   0.624   3.424
 1770SOL     OW 6208   3.473   5.560   5.318
 1770SOL    HW1 6209   3.492   5.649   5.277
 1770SOL    HW2 6210   3.408   5.510   5.259
 1771SOL     OW 6211   4.495   6.576   6.684
 1771SOL    HW1 6212   4.567   6.560   6.751
 1771SOL    HW2 6213   4.407   6.549   6.723
 1772SOL     OW 6214   3.011   6.153   3.200
 1772SOL    HW1 6215   2.953   6.089   3.250
 1772SOL    HW2 6216   3.107   6.134   3.222
 1773SOL     OW 6217   0.914   0.153   0.337
 1773SOL    HW1 6218   0.976   0.111   0.271
 1773SOL    HW2 6219   0.935   0.120   0.429
 1774SOL     OW 6220   2.783   4.689   2.866
 1774SOL    HW1 6221   2.747   4.695   2.959
 1774SOL    HW2 6222   2.837   4.771   2.846
 1775SOL     OW 6223   0.912   4.305   1.288
 1775SOL    HW1 6224   0.961   4.256   1.216
 1775SOL    HW2 6225   0.974   4.323   1.365
 1776SOL     OW 6226   3.125   6.527   5.506
 1776SOL    HW1 6227   3.158   6.610   5.551
 1776SOL    HW2 6228   3.092   6.462   5.575
 1777SOL     OW 6229   3.219   6.508   0.554
 1777SOL    HW1 6230   3.122   6.504   0.533
 1777SOL    HW2 6231   3.266   6.433   0.506
 1778SOL     OW 6232   6.851   3.376   5.613
 1778SOL    HW1 6233   6.935   3.355   5.661
 1778SOL    HW2 6234   6.776   3.385   5.678
 1779SOL     OW 6235   3.891   0.258   5.861
 1779SOL    HW1 6236   3.821   0.293   5.799
 1779SOL    HW2 6237   3.885   0.306   5.948
 1780SOL     OW 6238   3.008   3.347   6.954
 1780SOL    HW1 6239   2.946   3.349   6.875
 1780SOL    HW2 6240   3.064   3.429   6.955
 1781SOL     OW 6241   3.224   5.476   3.623
 1781SOL    HW1 6242   3.173   5.495   3.540
 1781SOL    HW2 6243   3.162   5.441   3.694
 1782SOL     OW 6244   3.051   1.731   4.402
 1782SOL    HW1 6245   3.039   1.675   4.484
 1782SOL    HW2 6246   3.025   1.678   4.321
 1783SOL     OW 6247   1.925   6.142   6.706
 1783SOL    HW1 6248   1.902   6.209   6.776
 1783SOL    HW2 6249   1.862   6.064   6.712
 1784SOL     OW 6250   3.147   0.448   6.179
 1784SOL    HW1 6251   3.243   0.456   6.205
 1784SOL    HW2 6252   3.130   0.501   6.096
 1785SOL     OW 6253   6.641   5.148   1.662
 1785SOL    HW1 6254   6.594   5.075   1.711
 1785SOL    HW2 6255   6.649   5.228   1.722
 1786SOL     OW 6256   4.080   2.439   1.502
 1786SOL    HW1 6257   3.994   2.478   1.471
 1786SOL    HW2 6258   4.153   2.466   1.439
 1787SOL     OW 6259   3.759   0.790   5.353
 1787SOL    HW1 6260   3.709   0.704   5.352
 1787SOL    HW2 6261   3.853   0.774   5.384
 1788SOL     OW 6262   1.353   4.720   5.977
 1788SOL    HW1 6263   1.284   4.766   5.920
 1788SOL    HW2 6264   1.307   4.661   6.044
 1789SOL     OW 6265   5.703   0.233   0.174
 1789SOL    HW1 6266   5.685   0.185   0.088
 1789SOL    HW2 6267   5.786   0.289   0.164
 1790SOL     OW 6268   3.057   6.804   3.073
 1790SOL    HW1 6269   3.112   6.880   3.107
 1790SOL    HW2 6270   3.091   6.718   3.112
 1791SOL     OW 6271   0.170   6.596   2.513
 1791SOL    HW1 6272   0.174   6.505   2.472
 1791SOL    HW2 6273   0.150   6.663   2.442
 1792SOL     OW 6274   1.335   3.658   4.243
 1792SOL    HW1 6275   1.374   3.689   4.156
 1792SOL    HW2 6276   1.373   3.569   4.267
 1793SOL     OW 6277   6.932   0.720   3.379
 1793SOL    HW1 6278   7.008   0.712   3.444
 1793SOL    HW2 6279   6.897   0.629   3.358
 1794SOL     OW 6280   4.205   5.353   6.313
 1794SOL    HW1 6281   4.253   5.440   6.303
 1794SOL    HW2 6282   4.179   5.319   6.223
 1795SOL     OW 6283   0.565   2.951   6.698
 1795SOL    HW1 6284   0.584   2.862   6.656
 1795SOL    HW2 6285   0.583   3.024   6.632
 1796SOL     OW 6286   4.018   0.894   6.053
 1796SOL    HW1 6287   3.998   0.806   6.010
 1796SOL    HW2 6288   4.031   0.882   6.151
 1797SOL     OW 6289   0.519   1.029   1.515
 1797SOL    HW1 6290   0.555   1.121   1.531
 1797SOL    HW2 6291   0.495   1.019   1.419
 1798SOL     OW 6292   5.553   1.883   3.179
 1798SOL    HW1 6293   5.647   1.879   3.147
 1798SOL    HW2 6294   5.492   1.842   3.111
 1799SOL     OW 6295   2.346   2.073   0.212
 1799SOL    HW1 6296   2.379   1.981   0.230
 1799SOL    HW2 6297   2.301   2.076   0.122
 1800SOL     OW 6298   3.031   4.840   2.738
 1800SOL    HW1 6299   3.112   4.887   2.702
 1800SOL    HW2 6300   3.049   4.806   2.830
 1801SOL     OW 6301   5.510   6.922   0.558
 1801SOL    HW1 6302   5.566   6.984   0.613
 1801SOL    HW2 6303   5.545   6.828   0.568
 1802SOL     OW 6304   6.109   4.932   3.749
 1802SOL    HW1 6305   6.173   4.856   3.740
 1802SOL    HW2 6306   6.078   4.960   3.658
 1803SOL     OW 6307   5.624   5.336   1.297
 1803SOL    HW1 6308   5.648   5.274   1.371
 1803SOL    HW2 6309   5.524   5.340   1.288
 1804SOL     OW 6310   3.105   3.479   6.085
 1804SOL    HW1 6311   3.041   3.492   6.161
 1804SOL    HW2 6312   3.124   3.381   6.074
 1805SOL     OW 6313   5.615   3.308   6.494
 1805SOL    HW1 6314   5.525   3.273   6.517
 1805SOL    HW2 6315   5.682   3.234   6.500
 1806SOL     OW 6316   6.786   0.586   0.346
 1806SOL    HW1 6317   6.690   0.603   0.370
 1806SOL    HW2 6318   6.797   0.492   0.315
 1807SOL     OW 6319   6.348   2.174   5.714
 1807SOL    HW1 6320   6.360   2.134   5.805
 1807SOL    HW2 6321   6.258   2.151   5.679
 1808SOL     OW 6322   2.244   4.760   4.128
 1808SOL    HW1 6323   2.158   4.808   4.111
 1808SOL    HW2 6324   2.256   4.748   4.227
 1809SOL     OW 6325   3.685   0.702   6.317
 1809SOL    HW1 6326   3.685   0.678   6.414
 1809SOL    HW2 6327   3.778   0.729   6.290
 1810SOL     OW 6328   3.312   6.177   2.555
 1810SOL    HW1 6329   3.224   6.156   2.513
 1810SOL    HW2 6330   3.384   6.126   2.508
 1811SOL     OW 6331   6.024   5.689   2.577
 1811SOL    HW1 6332   6.052   5.651   2.665
 1811SOL    HW2 6333   5.963   5.624   2.531
 1812SOL     OW 6334   4.603   5.083   6.191
 1812SOL    HW1 6335   4.690   5.109   6.232
 1812SOL    HW2 6336   4.536   5.065   6.263
 1813SOL     OW 6337   6.777   5.244   5.094
 1813SOL    HW1 6338   6.771   5.223   5.191
 1813SOL    HW2 6339   6.865   5.211   5.058
 1814SOL     OW 6340   4.850   6.540   2.518
 1814SOL    HW1 6341   4.761   6.497   2.519
 1814SOL    HW2 6342   4.869   6.578   2.609
 1815SOL     OW 6343   0.148   1.186   2.632
 1815SOL    HW1 6344   0.076   1.132   2.587
 1815SOL    HW2 6345   0.231   1.184   2.576
 1816SOL     OW 6346   1.271   4.932   0.813
 1816SOL    HW1 6347   1.250   4.836   0.798
 1816SOL    HW2 6348   1.331   4.941   0.892
 1817SOL     OW 6349   1.319   5.717   1.825
 1817SOL    HW1 6350   1.333   5.749   1.731
 1817SOL    HW2 6351   1.406   5.714   1.873
 1818SOL     OW 6352   1.228   1.552   3.058
 1818SOL    HW1 6353   1.281   1.481   3.011
 1818SOL    HW2 6354   1.210   1.628   2.996
 1819SOL     OW 6355   0.528   3.966   2.432
 1819SOL    HW1 6356   0.514   4.060   2.401
 1819SOL    HW2 6357   0.521   3.962   2.531
 1820SOL     OW 6358   5.774   0.316   2.977
 1820SOL    HW1 6359   5.703   0.257   2.937
 1820SOL    HW2 6360   5.735   0.406   2.995
 1821SOL     OW 6361   1.850   1.981   3.323
 1821SOL    HW1 6362   1.943   1.946   3.329
 1821SOL    HW2 6363   1.821   2.015   3.413
 1822SOL     OW 6364   3.181   3.660   1.961
 1822SOL    HW1 6365   3.214   3.589   2.024
 1822SOL    HW2 6366   3.254   3.724   1.942
 1823SOL     OW 6367   4.255   0.292   2.460
 1823SOL    HW1 6368   4.343   0.339   2.469
 1823SOL    HW2 6369   4.270   0.198   2.430
 1824SOL     OW 6370   5.237   2.191   1.554
 1824SOL    HW1 6371   5.215   2.199   1.651
 1824SOL    HW2 6372   5.313   2.251   1.531
 1825SOL     OW 6373   0.848   0.394   1.603
 1825SOL    HW1 6374   0.848   0.415   1.505
 1825SOL    HW2 6375   0.778   0.325   1.623
 1826SOL     OW 6376   2.830   6.149   6.247
 1826SOL    HW1 6377   2.844   6.076   6.314
 1826SOL    HW2 6378   2.861   6.117   6.157
 1827SOL     OW 6379   6.142   6.987   1.489
 1827SOL    HW1 6380   6.060   6.930   1.482
 1827SOL    HW2 6381   6.116   0.059   1.498
 1828SOL     OW 6382   1.683   2.402   0.092
 1828SOL    HW1 6383   1.753   2.470   0.114
 1828SOL    HW2 6384   1.593   2.445   0.096
 1829SOL     OW 6385   6.044   5.118   1.896
 1829SOL    HW1 6386   6.032   5.180   1.818
 1829SOL    HW2 6387   6.141   5.098   1.908
 1830SOL     OW 6388   5.255   6.397   3.844
 1830SOL    HW1 6389   5.224   6.432   3.756
 1830SOL    HW2 6390   5.180   6.348   3.889
 1831SOL     OW 6391   5.379   0.806   3.655
 1831SOL    HW1 6392   5.445   0.876   3.683
 1831SOL    HW2 6393   5.288   0.830   3.690
 1832SOL     OW 6394   4.641   2.410   0.364
 1832SOL    HW1 6395   4.571   2.444   0.427
 1832SOL    HW2 6396   4.669   2.318   0.392
 1833SOL     OW 6397   5.547   1.847   5.766
 1833SOL    HW1 6398   5.495   1.920   5.811
 1833SOL    HW2 6399   5.618   1.887   5.709
 1834SOL     OW 6400   2.590   3.842   0.550
 1834SOL    HW1 6401   2.591   3.899   0.633
 1834SOL    HW2 6402   2.604   3.900   0.470
 1835SOL     OW 6403   1.438   4.778   6.596
 1835SOL    HW1 6404   1.472   4.868   6.623
 1835SOL    HW2 6405   1.400   4.731   6.676
 1836SOL     OW 6406   1.136   6.501   0.268
 1836SOL    HW1 6407   1.138   6.419   0.325
 1836SOL    HW2 6408   1.195   6.487   0.188
 1837SOL     OW 6409   0.772   2.443   4.988
 1837SOL    HW1 6410   0.730   2.359   4.953
 1837SOL    HW2 6411   0.706   2.518   4.983
 1838SOL     OW 6412   0.861   2.818   4.916
 1838SOL    HW1 6413   0.960   2.807   4.912
 1838SOL    HW2 6414   0.827   2.783   5.003
 1839SOL     OW 6415   0.755   1.755   6.503
 1839SOL    HW1 6416   0.736   1.807   6.420
 1839SOL    HW2 6417   0.719   1.662   6.493
 1840SOL     OW 6418   1.060   5.144   0.825
 1840SOL    HW1 6419   1.117   5.224   0.807
 1840SOL    HW2 6420   1.118   5.065   0.844
 1841SOL     OW 6421   1.409   2.848   3.573
 1841SOL    HW1 6422   1.329   2.904   3.553
 1841SOL    HW2 6423   1.463   2.892   3.645
 1842SOL     OW 6424   0.858   5.611   6.315
 1842SOL    HW1 6425   0.878   5.514   6.309
 1842SOL    HW2 6426   0.807   5.630   6.399
 1843SOL     OW 6427   4.123   2.104   5.024
 1843SOL    HW1 6428   4.149   2.135   4.933
 1843SOL    HW2 6429   4.167   2.016   5.043
 1844SOL     OW 6430   5.299   3.730   3.869
 1844SOL    HW1 6431   5.391   3.766   3.854
 1844SOL    HW2 6432   5.271   3.678   3.788
 1845SOL     OW 6433   4.452   6.522   0.729
 1845SOL    HW1 6434   4.460   6.614   0.689
 1845SOL    HW2 6435   4.412   6.529   0.820
 1846SOL     OW 6436   3.691   1.478   5.584
 1846SOL    HW1 6437   3.717   1.462   5.679
 1846SOL    HW2 6438   3.767   1.522   5.536
 1847SOL     OW 6439   1.493   6.906   6.759
 1847SOL    HW1 6440   1.466   6.844   6.833
 1847SOL    HW2 6441   1.439   6.885   6.677
 1848SOL     OW 6442   2.238   0.284   2.839
 1848SOL    HW1 6443   2.224   0.217   2.912
 1848SOL    HW2 6444   2.216   0.376   2.874
 1849SOL     OW 6445   3.096   0.745   6.511
 1849SOL    HW1 6446   3.049   0.829   6.538
 1849SOL    HW2 6447   3.042   0.697   6.442
 1850SOL     OW 6448   5.439   1.857   1.897
 1850SOL    HW1 6449   5.392   1.883   1.982
 1850SOL    HW2 6450   5.398   1.773   1.861
 1851SOL     OW 6451   6.297   3.898   3.084
 1851SOL    HW1 6452   6.251   3.959   3.148
 1851SOL    HW2 6453   6.236   3.822   3.060
 1852SOL     OW 6454   4.946   2.356   6.126
 1852SOL    HW1 6455   5.032   2.407   6.127
 1852SOL    HW2 6456   4.882   2.401   6.064
 1853SOL     OW 6457   1.127   4.411   0.667
 1853SOL    HW1 6458   1.107   4.457   0.581
 1853SOL    HW2 6459   1.044   4.369   0.703
 1854SOL     OW 6460   2.665   5.203   3.795
 1854SOL    HW1 6461   2.703   5.296   3.797
 1854SOL    HW2 6462   2.599   5.192   3.869
 1855SOL     OW 6463   6.071   4.467   2.460
 1855SOL    HW1 6464   6.111   4.393   2.407
 1855SOL    HW2 6465   6.143   4.520   2.504
 1856SOL     OW 6466   5.189   2.951   6.463
 1856SOL    HW1 6467   5.106   3.006   6.448
 1856SOL    HW2 6468   5.251   2.964   6.386
 1857SOL     OW 6469   4.866   1.413   3.644
 1857SOL    HW1 6470   4.836   1.495   3.595
 1857SOL    HW2 6471   4.826   1.413   3.735
 1858SOL     OW 6472   5.691   3.702   2.984
 1858SOL    HW1 6473   5.671   3.688   2.887
 1858SOL    HW2 6474   5.781   3.743   2.994
 1859SOL     OW 6475   5.949   1.344   2.708
 1859SOL    HW1 6476   6.003   1.390   2.778
 1859SOL    HW2 6477   5.942   1.247   2.731
 1860SOL     OW 6478   3.877   2.172   4.987
 1860SOL    HW1 6479   3.880   2.271   5.003
 1860SOL    HW2 6480   3.966   2.132   5.012
 1861SOL     OW 6481   5.587   5.907   2.252
 1861SOL    HW1 6482   5.685   5.925   2.258
 1861SOL    HW2 6483   5.544   5.975   2.192
 1862SOL     OW 6484   2.033   1.787   0.633
 1862SOL    HW1 6485   1.992   1.716   0.690
 1862SOL    HW2 6486   1.988   1.875   0.650
 1863SOL     OW 6487   2.151   2.608   1.640
 1863SOL    HW1 6488   2.157   2.583   1.737
 1863SOL    HW2 6489   2.243   2.614   1.602
 1864SOL     OW 6490   0.725   6.670   2.902
 1864SOL    HW1 6491   0.728   6.711   2.993
 1864SOL    HW2 6492   0.800   6.707   2.847
 1865SOL     OW 6493   4.941   2.420   6.884
 1865SOL    HW1 6494   5.025   2.366   6.893
 1865SOL    HW2 6495   4.890   2.416   6.970
 1866SOL     OW 6496   4.982   5.339   2.340
 1866SOL    HW1 6497   5.004   5.244   2.363
 1866SOL    HW2 6498   4.944   5.342   2.247
 1867SOL     OW 6499   0.812   4.895   6.718
 1867SOL    HW1 6500   0.780   4.871   6.810
 1867SOL    HW2 6501   0.742   4.948   6.671
 1868SOL     OW 6502   6.760   4.325   5.463
 1868SOL    HW1 6503   6.832   4.324   5.533
 1868SOL    HW2 6504   6.745   4.419   5.434
 1869SOL     OW 6505   6.718   1.495   4.573
 1869SOL    HW1 6506   6.701   1.548   4.489
 1869SOL    HW2 6507   6.645   1.513   4.638
 1870SOL     OW 6508   2.221   4.232   4.634
 1870SOL    HW1 6509   2.212   4.155   4.697
 1870SOL    HW2 6510   2.129   4.265   4.610
 1871SOL     OW 6511   1.294   0.252   0.575
 1871SOL    HW1 6512   1.393   0.245   0.588
 1871SOL    HW2 6513   1.255   0.311   0.646
 1872SOL     OW 6514   2.209   5.063   6.672
 1872SOL    HW1 6515   2.278   5.002   6.635
 1872SOL    HW2 6516   2.229   5.157   6.644
 1873SOL     OW 6517   5.498   0.378   0.095
 1873SOL    HW1 6518   5.550   0.317   0.155
 1873SOL    HW2 6519   5.556   0.455   0.068
 1874SOL     OW 6520   0.880   4.098   2.495
 1874SOL    HW1 6521   0.932   4.102   2.409
 1874SOL    HW2 6522   0.811   4.170   2.495
 1875SOL     OW 6523   1.248   6.849   1.781
 1875SOL    HW1 6524   1.256   6.831   1.683
 1875SOL    HW2 6525   1.152   6.865   1.805
 1876SOL     OW 6526   2.392   6.979   3.930
 1876SOL    HW1 6527   2.365   6.885   3.948
 1876SOL    HW2 6528   2.312   0.015   3.931
 1877SOL     OW 6529   0.214   6.729   3.876
 1877SOL    HW1 6530   0.152   6.655   3.848
 1877SOL    HW2 6531   0.161   6.812   3.892
 1878SOL     OW 6532   6.291   2.446   5.749
 1878SOL    HW1 6533   6.366   2.505   5.721
 1878SOL    HW2 6534   6.307   2.353   5.715
 1879SOL     OW 6535   1.565   4.546   5.926
 1879SOL    HW1 6536   1.580   4.447   5.923
 1879SOL    HW2 6537   1.470   4.567   5.901
 1880SOL     OW 6538   6.183   0.291   4.822
 1880SOL    HW1 6539   6.251   0.263   4.890
 1880SOL    HW2 6540   6.137   0.374   4.853
 1881SOL     OW 6541   0.072   2.676   0.114
 1881SOL    HW1 6542   0.125   2.728   0.048
 1881SOL    HW2 6543   0.114   2.684   0.205
 1882SOL     OW 6544   1.535   6.321   6.748
 1882SOL    HW1 6545   1.517   6.295   6.843
 1882SOL    HW2 6546   1.522   6.241   6.689
 1883SOL     OW 6547   0.472   1.701   4.020
 1883SOL    HW1 6548   0.459   1.799   4.029
 1883SOL    HW2 6549   0.560   1.675   4.059
 1884SOL     OW 6550   0.129   2.352   1.068
 1884SOL    HW1 6551   0.090   2.434   1.111
 1884SOL    HW2 6552   0.076   2.329   0.986
 1885SOL     OW 6553   2.167   1.222   4.565
 1885SOL    HW1 6554   2.172   1.136   4.515
 1885SOL    HW2 6555   2.248   1.233   4.622
 1886SOL     OW 6556   0.551   6.270   3.348
 1886SOL    HW1 6557   0.521   6.201   3.282
 1886SOL    HW2 6558   0.529   6.361   3.313
 1887SOL     OW 6559   2.617   6.350   5.927
 1887SOL    HW1 6560   2.711   6.383   5.915
 1887SOL    HW2 6561   2.611   6.255   5.896
 1888SOL     OW 6562   2.746   0.430   3.387
 1888SOL    HW1 6563   2.687   0.376   3.448
 1888SOL    HW2 6564   2.758   0.522   3.424
 1889SOL     OW 6565   0.732   3.509   2.799
 1889SOL    HW1 6566   0.709   3.570   2.723
 1889SOL    HW2 6567   0.780   3.562   2.869
 1890SOL     OW 6568   1.314   6.035   4.955
 1890SOL    HW1 6569   1.289   6.113   5.012
 1890SOL    HW2 6570   1.290   5.950   5.002
 1891SOL     OW 6571   3.210   3.352   3.323
 1891SOL    HW1 6572   3.207   3.448   3.349
 1891SOL    HW2 6573   3.293   3.334   3.270
 1892SOL     OW 6574   0.830   0.067   2.467
 1892SOL    HW1 6575   0.762   7.019   2.480
 1892SOL    HW2 6576   0.790   0.142   2.413
 1893SOL     OW 6577   3.993   3.097   4.482
 1893SOL    HW1 6578   4.087   3.064   4.487
 1893SOL    HW2 6579   3.967   3.136   4.571
 1894SOL     OW 6580   3.366   3.517   4.214
 1894SOL    HW1 6581   3.361   3.460   4.132
 1894SOL    HW2 6582   3.451   3.570   4.212
 1895SOL     OW 6583   1.796   5.984   6.921
 1895SOL    HW1 6584   1.791   6.061   6.985
 1895SOL    HW2 6585   1.767   5.900   6.968
 1896SOL     OW 6586   6.388   2.512   1.763
 1896SOL    HW1 6587   6.335   2.474   1.839
 1896SOL    HW2 6588   6.417   2.438   1.703
 1897SOL     OW 6589   1.225   4.614   3.947
 1897SOL    HW1 6590   1.293   4.546   3.977
 1897SOL    HW2 6591   1.272   4.690   3.901
 1898SOL     OW 6592   1.314   5.950   2.806
 1898SOL    HW1 6593   1.272   5.909   2.725
 1898SOL    HW2 6594   1.398   5.997   2.780
 1899SOL     OW 6595   0.243   0.865   2.234
 1899SOL    HW1 6596   0.149   0.901   2.238
 1899SOL    HW2 6597   0.251   0.787   2.296
 1900SOL     OW 6598   2.879   6.990   6.452
 1900SOL    HW1 6599   2.887   0.004   6.360
 1900SOL    HW2 6600   2.867   0.042   6.517
 1901SOL     OW 6601   2.775   3.445   1.778
 1901SOL    HW1 6602   2.721   3.528   1.786
 1901SOL    HW2 6603   2.867   3.461   1.816
 1902SOL     OW 6604   1.311   6.751   4.996
 1902SOL    HW1 6605   1.360   6.770   5.082
 1902SOL    HW2 6606   1.363   6.683   4.943
 1903SOL     OW 6607   0.841   1.845   4.335
 1903SOL    HW1 6608   0.765   1.875   4.277
 1903SOL    HW2 6609   0.920   1.822   4.278
 1904SOL     OW 6610   5.658   5.851   1.662
 1904SOL    HW1 6611   5.681   5.935   1.711
 1904SOL    HW2 6612   5.682   5.861   1.565
 1905SOL     OW 6613   0.765   1.576   4.153
 1905SOL    HW1 6614   0.734   1.546   4.244
 1905SOL    HW2 6615   0.856   1.617   4.161
 1906SOL     OW 6616   0.836   6.308   4.490
 1906SOL    HW1 6617   0.858   6.373   4.417
 1906SOL    HW2 6618   0.864   6.216   4.461
 1907SOL     OW 6619   5.287   2.950   0.621
 1907SOL    HW1 6620   5.279   2.852   0.601
 1907SOL    HW2 6621   5.376   2.967   0.664
 1908SOL     OW 6622   3.873   0.502   1.703
 1908SOL    HW1 6623   3.933   0.581   1.702
 1908SOL    HW2 6624   3.779   0.531   1.724
 1909SOL     OW 6625   6.387   5.602   4.711
 1909SOL    HW1 6626   6.483   5.604   4.684
 1909SOL    HW2 6627   6.329   5.621   4.632
 1910SOL     OW 6628   0.509   6.278   5.880
 1910SOL    HW1 6629   0.595   6.272   5.829
 1910SOL    HW2 6630   0.433   6.255   5.819
 1911SOL     OW 6631   5.912   6.123   4.333
 1911SOL    HW1 6632   5.869   6.192   4.392
 1911SOL    HW2 6633   5.869   6.125   4.243
 1912SOL     OW 6634   3.603   5.043   2.357
 1912SOL    HW1 6635   3.627   5.082   2.445
 1912SOL    HW2 6636   3.529   5.096   2.315
 1913SOL     OW 6637   3.044   4.356   6.895
 1913SOL    HW1 6638   3.064   4.286   6.963
 1913SOL    HW2 6639   2.950   4.345   6.863
 1914SOL     OW 6640   3.459   4.181   6.886
 1914SOL    HW1 6641   3.476   4.225   6.974
 1914SOL    HW2 6642   3.452   4.082   6.899
 1915SOL     OW 6643   3.372   2.935   6.847
 1915SOL    HW1 6644   3.392   2.962   6.941
 1915SOL    HW2 6645   3.273   2.926   6.835
 1916SOL     OW 6646   4.601   0.666   2.536
 1916SOL    HW1 6647   4.558   0.754   2.519
 1916SOL    HW2 6648   4.666   0.646   2.463
 1917SOL     OW 6649   1.921   4.210   1.632
 1917SOL    HW1 6650   1.955   4.295   1.672
 1917SOL    HW2 6651   1.842   4.178   1.683
 1918SOL     OW 6652   5.385   2.353   3.599
 1918SOL    HW1 6653   5.289   2.325   3.602
 1918SOL    HW2 6654   5.409   2.402   3.683
 1919SOL     OW 6655   6.188   2.251   6.052
 1919SOL    HW1 6656   6.237   2.176   6.007
 1919SOL    HW2 6657   6.248   2.330   6.061
 1920SOL     OW 6658   4.514   2.989   0.698
 1920SOL    HW1 6659   4.601   3.006   0.652
 1920SOL    HW2 6660   4.487   3.070   0.750
 1921SOL     OW 6661   2.535   2.044   0.627
 1921SOL    HW1 6662   2.452   1.994   0.606
 1921SOL    HW2 6663   2.556   2.106   0.551
 1922SOL     OW 6664   3.265   3.094   3.987
 1922SOL    HW1 6665   3.304   3.185   3.975
 1922SOL    HW2 6666   3.232   3.085   4.081
 1923SOL     OW 6667   3.198   0.821   3.988
 1923SOL    HW1 6668   3.261   0.748   3.959
 1923SOL    HW2 6669   3.108   0.803   3.949
 1924SOL     OW 6670   5.450   0.887   0.744
 1924SOL    HW1 6671   5.374   0.952   0.747
 1924SOL    HW2 6672   5.416   0.797   0.720
 1925SOL     OW 6673   1.084   4.150   1.108
 1925SOL    HW1 6674   1.132   4.187   1.029
 1925SOL    HW2 6675   1.150   4.116   1.175
 1926SOL     OW 6676   3.753   0.013   1.656
 1926SOL    HW1 6677   3.813   7.009   1.581
 1926SOL    HW2 6678   3.789   0.096   1.700
 1927SOL     OW 6679   2.282   5.715   1.244
 1927SOL    HW1 6680   2.211   5.775   1.207
 1927SOL    HW2 6681   2.257   5.619   1.228
 1928SOL     OW 6682   0.029   4.274   2.497
 1928SOL    HW1 6683   6.995   4.232   2.567
 1928SOL    HW2 6684   7.001   4.344   2.448
 1929SOL     OW 6685   3.578   6.825   3.382
 1929SOL    HW1 6686   3.620   6.755   3.325
 1929SOL    HW2 6687   3.641   6.902   3.394
 1930SOL     OW 6688   3.506   3.162   0.315
 1930SOL    HW1 6689   3.482   3.090   0.250
 1930SOL    HW2 6690   3.590   3.137   0.363
 1931SOL     OW 6691   6.800   2.934   3.838
 1931SOL    HW1 6692   6.781   2.985   3.922
 1931SOL    HW2 6693   6.804   2.837   3.859
 1932SOL     OW 6694   5.042   0.923   2.163
 1932SOL    HW1 6695   5.119   0.957   2.109
 1932SOL    HW2 6696   5.000   0.999   2.213
 1933SOL     OW 6697   1.580   1.001   1.335
 1933SOL    HW1 6698   1.583   0.967   1.429
 1933SOL    HW2 6699   1.559   0.925   1.273
 1934SOL     OW 6700   6.983   1.079   0.113
 1934SOL    HW1 6701   6.975   1.149   0.042
 1934SOL    HW2 6702   6.963   1.119   0.202
 1935SOL     OW 6703   5.813   5.234   3.627
 1935SOL    HW1 6704   5.762   5.298   3.569
 1935SOL    HW2 6705   5.782   5.244   3.722
 1936SOL     OW 6706   4.995   3.331   6.107
 1936SOL    HW1 6707   5.051   3.369   6.180
 1936SOL    HW2 6708   4.928   3.399   6.077
 1937SOL     OW 6709   6.839   4.883   6.855
 1937SOL    HW1 6710   6.766   4.846   6.798
 1937SOL    HW2 6711   6.831   4.846   6.948
 1938SOL     OW 6712   6.851   2.296   6.984
 1938SOL    HW1 6713   6.862   2.378   0.017
 1938SOL    HW2 6714   6.825   2.219   0.017
 1939SOL     OW 6715   0.321   0.362   4.309
 1939SOL    HW1 6716   0.409   0.319   4.329
 1939SOL    HW2 6717   0.288   0.329   4.220
 1940SOL     OW 6718   0.593   5.168   1.050
 1940SOL    HW1 6719   0.674   5.168   0.990
 1940SOL    HW2 6720   0.545   5.081   1.040
 1941SOL     OW 6721   6.021   1.062   4.613
 1941SOL    HW1 6722   6.006   0.965   4.635
 1941SOL    HW2 6723   5.935   1.112   4.624
 1942SOL     OW 6724   0.451   5.152   1.972
 1942SOL    HW1 6725   0.359   5.153   2.011
 1942SOL    HW2 6726   0.481   5.246   1.954
 1943SOL     OW 6727   0.909   3.081   3.746
 1943SOL    HW1 6728   0.873   3.018   3.677
 1943SOL    HW2 6729   1.002   3.053   3.771
 1944SOL     OW 6730   0.837   2.990   3.497
 1944SOL    HW1 6731   0.865   2.898   3.524
 1944SOL    HW2 6732   0.899   3.024   3.426
 1945SOL     OW 6733   5.257   1.605   1.865
 1945SOL    HW1 6734   5.251   1.509   1.840
 1945SOL    HW2 6735   5.228   1.617   1.960
 1946SOL     OW 6736   5.884   5.469   0.995
 1946SOL    HW1 6737   5.833   5.555   1.002
 1946SOL    HW2 6738   5.885   5.424   1.085
 1947SOL     OW 6739   6.190   5.293   2.979
 1947SOL    HW1 6740   6.123   5.273   2.907
 1947SOL    HW2 6741   6.162   5.247   3.064
 1948SOL     OW 6742   5.288   3.471   3.723
 1948SOL    HW1 6743   5.219   3.464   3.651
 1948SOL    HW2 6744   5.372   3.425   3.694
 1949SOL     OW 6745   3.268   4.383   6.773
 1949SOL    HW1 6746   3.181   4.372   6.821
 1949SOL    HW2 6747   3.329   4.307   6.796
 1950SOL     OW 6748   3.904   3.992   3.255
 1950SOL    HW1 6749   3.830   3.930   3.280
 1950SOL    HW2 6750   3.969   3.998   3.331
 1951SOL     OW 6751   6.402   5.499   5.735
 1951SOL    HW1 6752   6.316   5.462   5.698
 1951SOL    HW2 6753   6.478   5.473   5.675
 1952SOL     OW 6754   5.586   4.160   6.859
 1952SOL    HW1 6755   5.534   4.130   6.779
 1952SOL    HW2 6756   5.633   4.246   6.838
 1953SOL     OW 6757   0.840   1.010   0.021
 1953SOL    HW1 6758   0.817   1.017   0.118
 1953SOL    HW2 6759   0.939   1.024   0.010
 1954SOL     OW 6760   3.757   6.490   2.359
 1954SOL    HW1 6761   3.820   6.433   2.306
 1954SOL    HW2 6762   3.724   6.437   2.438
 1955SOL     OW 6763   6.402   2.634   4.207
 1955SOL    HW1 6764   6.323   2.682   4.168
 1955SOL    HW2 6765   6.486   2.680   4.180
 1956SOL     OW 6766   4.728   1.130   1.681
 1956SOL    HW1 6767   4.687   1.212   1.640
 1956SOL    HW2 6768   4.674   1.102   1.760
 1957SOL     OW 6769   6.670   2.448   4.595
 1957SOL    HW1 6770   6.575   2.444   4.566
 1957SOL    HW2 6771   6.712   2.532   4.561
 1958SOL     OW 6772   4.003   1.718   0.714
 1958SOL    HW1 6773   4.088   1.678   0.750
 1958SOL    HW2 6774   4.019   1.814   0.692
 1959SOL     OW 6775   1.390   1.380   5.879
 1959SOL    HW1 6776   1.481   1.385   5.920
 1959SOL    HW2 6777   1.399   1.375   5.779
 1960SOL     OW 6778   5.084   4.065   2.913
 1960SOL    HW1 6779   5.120   4.080   2.821
 1960SOL    HW2 6780   5.132   4.124   2.978
 1961SOL     OW 6781   0.505   3.823   4.271
 1961SOL    HW1 6782   0.563   3.806   4.192
 1961SOL    HW2 6783   0.561   3.854   4.348
 1962SOL     OW 6784   0.560   6.998   2.242
 1962SOL    HW1 6785   0.589   6.994   2.338
 1962SOL    HW2 6786   0.542   6.906   2.209
 1963SOL     OW 6787   0.804   2.804   6.873
 1963SOL    HW1 6788   0.745   2.865   6.926
 1963SOL    HW2 6789   0.747   2.735   6.827
 1964SOL     OW 6790   5.494   3.276   0.851
 1964SOL    HW1 6791   5.493   3.180   0.823
 1964SOL    HW2 6792   5.407   3.319   0.826
 1965SOL     OW 6793   6.138   4.558   3.868
 1965SOL    HW1 6794   6.071   4.629   3.850
 1965SOL    HW2 6795   6.099   4.469   3.845
 1966SOL     OW 6796   0.888   5.290   6.732
 1966SOL    HW1 6797   0.897   5.381   6.773
 1966SOL    HW2 6798   0.810   5.243   6.772
 1967SOL     OW 6799   0.066   3.163   5.217
 1967SOL    HW1 6800   7.017   3.195   5.279
 1967SOL    HW2 6801   0.032   3.086   5.164
 1968SOL     OW 6802   1.924   1.171   6.141
 1968SOL    HW1 6803   1.965   1.176   6.050
 1968SOL    HW2 6804   1.939   1.080   6.179
 1969SOL     OW 6805   0.985   5.765   0.849
 1969SOL    HW1 6806   1.043   5.703   0.796
 1969SOL    HW2 6807   0.924   5.814   0.788
 1970SOL     OW 6808   5.523   4.497   3.701
 1970SOL    HW1 6809   5.461   4.491   3.622
 1970SOL    HW2 6810   5.471   4.482   3.785
 1971SOL     OW 6811   1.686   4.817   4.482
 1971SOL    HW1 6812   1.686   4.757   4.402
 1971SOL    HW2 6813   1.671   4.912   4.453
 1972SOL     OW 6814   6.368   2.346   2.881
 1972SOL    HW1 6815   6.435   2.386   2.818
 1972SOL    HW2 6816   6.291   2.309   2.829
 1973SOL     OW 6817   3.542   2.263   0.774
 1973SOL    HW1 6818   3.612   2.233   0.840
 1973SOL    HW2 6819   3.488   2.185   0.745
 1974SOL     OW 6820   2.462   6.580   4.829
 1974SOL    HW1 6821   2.541   6.523   4.850
 1974SOL    HW2 6822   2.454   6.652   4.898
 1975SOL     OW 6823   1.938   2.920   2.396
 1975SOL    HW1 6824   1.865   2.852   2.404
 1975SOL    HW2 6825   1.947   2.948   2.301
 1976SOL     OW 6826   1.647   1.003   5.013
 1976SOL    HW1 6827   1.675   1.092   5.047
 1976SOL    HW2 6828   1.719   0.936   5.033
 1977SOL     OW 6829   1.107   3.506   6.774
 1977SOL    HW1 6830   1.133   3.602   6.775
 1977SOL    HW2 6831   1.105   3.470   6.867
 1978SOL     OW 6832   3.109   0.227   2.020
 1978SOL    HW1 6833   3.017   0.265   2.015
 1978SOL    HW2 6834   3.149   0.247   2.110
 1979SOL     OW 6835   5.527   4.108   6.550
 1979SOL    HW1 6836   5.557   4.042   6.481
 1979SOL    HW2 6837   5.429   4.128   6.537
 1980SOL     OW 6838   4.162   0.365   1.449
 1980SOL    HW1 6839   4.153   0.394   1.544
 1980SOL    HW2 6840   4.139   0.268   1.442
 1981SOL     OW 6841   4.139   2.210   2.081
 1981SOL    HW1 6842   4.225   2.160   2.075
 1981SOL    HW2 6843   4.133   2.277   2.007
 1982SOL     OW 6844   1.492   3.054   6.282
 1982SOL    HW1 6845   1.519   3.046   6.186
 1982SOL    HW2 6846   1.407   3.106   6.289
 1983SOL     OW 6847   0.038   1.357   2.116
 1983SOL    HW1 6848   6.980   1.414   2.125
 1983SOL    HW2 6849   0.105   1.384   2.184
 1984SOL     OW 6850   4.941   3.866   5.988
 1984SOL    HW1 6851   4.980   3.858   5.896
 1984SOL    HW2 6852   4.979   3.794   6.046
 1985SOL     OW 6853   6.138   4.105   4.028
 1985SOL    HW1 6854   6.118   4.192   4.073
 1985SOL    HW2 6855   6.160   4.036   4.098
 1986SOL     OW 6856   2.867   3.563   2.209
 1986SOL    HW1 6857   2.807   3.624   2.157
 1986SOL    HW2 6858   2.845   3.468   2.188
 1987SOL     OW 6859   2.436   1.022   2.413
 1987SOL    HW1 6860   2.405   1.085   2.484
 1987SOL    HW2 6861   2.448   1.072   2.327
 1988SOL     OW 6862   0.847   2.139   2.687
 1988SOL    HW1 6863   0.912   2.215   2.682
 1988SOL    HW2 6864   0.813   2.130   2.781
 1989SOL     OW 6865   2.938   5.615   4.912
 1989SOL    HW1 6866   3.015   5.552   4.909
 1989SOL    HW2 6867   2.899   5.617   5.004
 1990SOL     OW 6868   4.408   6.691   0.259
 1990SOL    HW1 6869   4.367   6.781   0.272
 1990SOL    HW2 6870   4.507   6.701   0.251
 1991SOL     OW 6871   2.357   5.672   2.210
 1991SOL    HW1 6872   2.406   5.681   2.297
 1991SOL    HW2 6873   2.381   5.585   2.167
 1992SOL     OW 6874   1.036   6.553   3.017
 1992SOL    HW1 6875   0.980   6.516   2.943
 1992SOL    HW2 6876   1.038   6.653   3.010
 1993SOL     OW 6877   1.943   1.921   2.506
 1993SOL    HW1 6878   1.903   1.850   2.448
 1993SOL    HW2 6879   2.042   1.915   2.503
 1994SOL     OW 6880   3.314   3.312   1.426
 1994SOL    HW1 6881   3.359   3.349   1.345
 1994SOL    HW2 6882   3.294   3.215   1.411
 1995SOL     OW 6883   5.965   1.489   4.391
 1995SOL    HW1 6884   6.022   1.442   4.324
 1995SOL    HW2 6885   5.987   1.587   4.390
 1996SOL     OW 6886   4.992   0.535   0.278
 1996SOL    HW1 6887   4.987   0.559   0.375
 1996SOL    HW2 6888   5.007   0.437   0.269
 1997SOL     OW 6889   3.928   1.220   3.655
 1997SOL    HW1 6890   3.975   1.299   3.694
 1997SOL    HW2 6891   3.831   1.243   3.642
 1998SOL     OW 6892   2.581   3.831   1.212
 1998SOL    HW1 6893   2.593   3.746   1.264
 1998SOL    HW2 6894   2.640   3.829   1.132
 1999SOL     OW 6895   0.759   6.896   6.807
 1999SOL    HW1 6896   0.727   6.804   6.831
 1999SOL    HW2 6897   0.859   6.900   6.815
 2000SOL     OW 6898   4.299   4.567   6.305
 2000SOL    HW1 6899   4.224   4.555   6.370
 2000SOL    HW2 6900   4.385   4.545   6.350
 2001SOL     OW 6901   1.433   2.304   0.917
 2001SOL    HW1 6902   1.405   2.229   0.857
 2001SOL    HW2 6903   1.533   2.302   0.927
 2002SOL     OW 6904   5.906   5.362   0.743
 2002SOL    HW1 6905   5.893   5.458   0.717
 2002SOL    HW2 6906   5.902   5.355   0.843
 2003SOL     OW 6907   6.081   5.711   1.175
 2003SOL    HW1 6908   6.018   5.646   1.132
 2003SOL    HW2 6909   6.037   5.801   1.182
 2004SOL     OW 6910   4.030   6.877   3.386
 2004SOL    HW1 6911   4.105   6.928   3.428
 2004SOL    HW2 6912   4.043   6.779   3.401
 2005SOL     OW 6913   1.583   6.546   0.112
 2005SOL    HW1 6914   1.560   6.548   0.209
 2005SOL    HW2 6915   1.673   6.502   0.100
 2006SOL     OW 6916   5.809   0.239   2.165
 2006SOL    HW1 6917   5.712   0.214   2.156
 2006SOL    HW2 6918   5.845   0.202   2.250
 2007SOL     OW 6919   5.802   5.291   5.859
 2007SOL    HW1 6920   5.752   5.206   5.840
 2007SOL    HW2 6921   5.737   5.367   5.867
 2008SOL     OW 6922   1.817   3.350   2.847
 2008SOL    HW1 6923   1.910   3.375   2.875
 2008SOL    HW2 6924   1.822   3.284   2.772
 2009SOL     OW 6925   6.113   0.037   2.920
 2009SOL    HW1 6926   6.052   0.098   2.871
 2009SOL    HW2 6927   6.060   6.994   2.972
 2010SOL     OW 6928   0.440   1.420   1.553
 2010SOL    HW1 6929   0.527   1.371   1.553
 2010SOL    HW2 6930   0.430   1.470   1.639
 2011SOL     OW 6931   0.842   0.033   4.803
 2011SOL    HW1 6932   0.868   0.032   4.899
 2011SOL    HW2 6933   0.773   6.986   4.786
 2012SOL     OW 6934   0.287   2.742   0.832
 2012SOL    HW1 6935   0.197   2.708   0.805
 2012SOL    HW2 6936   0.315   2.816   0.770
 2013SOL     OW 6937   0.824   2.677   2.371
 2013SOL    HW1 6938   0.881   2.751   2.335
 2013SOL    HW2 6939   0.819   2.685   2.471
 2014SOL     OW 6940   3.608   1.424   4.025
 2014SOL    HW1 6941   3.550   1.343   4.021
 2014SOL    HW2 6942   3.648   1.432   4.116
 2015SOL     OW 6943   3.616   6.243   1.921
 2015SOL    HW1 6944   3.600   6.341   1.927
 2015SOL    HW2 6945   3.529   6.196   1.906
 2016SOL     OW 6946   1.943   0.944   5.556
 2016SOL    HW1 6947   2.005   1.005   5.506
 2016SOL    HW2 6948   1.887   0.998   5.619
 2017SOL     OW 6949   2.836   6.688   4.189
 2017SOL    HW1 6950   2.787   6.769   4.158
 2017SOL    HW2 6951   2.931   6.692   4.159
 2018SOL     OW 6952   0.508   0.386   4.611
 2018SOL    HW1 6953   0.429   0.355   4.663
 2018SOL    HW2 6954   0.514   0.486   4.614
 2019SOL     OW 6955   6.590   4.883   6.697
 2019SOL    HW1 6956   6.560   4.794   6.728
 2019SOL    HW2 6957   6.519   4.951   6.715
 2020SOL     OW 6958   1.782   6.662   0.942
 2020SOL    HW1 6959   1.749   6.616   1.024
 2020SOL    HW2 6960   1.712   6.725   0.908
 2021SOL     OW 6961   0.301   5.899   4.062
 2021SOL    HW1 6962   0.243   5.844   4.002
 2021SOL    HW2 6963   0.383   5.927   4.013
 2022SOL     OW 6964   1.508   3.410   4.369
 2022SOL    HW1 6965   1.455   3.384   4.450
 2022SOL    HW2 6966   1.506   3.335   4.303
 2023SOL     OW 6967   0.002   5.747   6.887
 2023SOL    HW1 6968   6.995   5.711   6.975
 2023SOL    HW2 6969   6.966   5.714   6.814
 2024SOL     OW 6970   6.802   5.364   3.570
 2024SOL    HW1 6971   6.753   5.450   3.559
 2024SOL    HW2 6972   6.780   5.325   3.660
 2025SOL     OW 6973   1.943   6.832   4.586
 2025SOL    HW1 6974   1.908   6.773   4.514
 2025SOL    HW2 6975   1.963   6.778   4.667
 2026SOL     OW 6976   1.352   0.056   5.240
 2026SOL    HW1 6977   1.374   0.081   5.334
 2026SOL    HW2 6978   1.253   0.045   5.231
 2027SOL     OW 6979   6.692   5.881   2.459
 2027SOL    HW1 6980   6.660   5.962   2.509
 2027SOL    HW2 6981   6.656   5.883   2.366
 2028SOL     OW 6982   2.385   5.712   4.955
 2028SOL    HW1 6983   2.375   5.678   5.048
 2028SOL    HW2 6984   2.479   5.696   4.924
 2029SOL     OW 6985   6.348   1.979   6.814
 2029SOL    HW1 6986   6.323   1.911   6.883
 2029SOL    HW2 6987   6.388   1.933   6.735
 2030SOL     OW 6988   1.882   7.013   2.721
 2030SOL    HW1 6989   1.921   0.008   2.811
 2030SOL    HW2 6990   1.945   0.022   2.650
 2031SOL     OW 6991   0.462   6.462   5.476
 2031SOL    HW1 6992   0.486   6.559   5.481
 2031SOL    HW2 6993   0.503   6.413   5.553
 2032SOL     OW 6994   2.343   3.066   6.231
 2032SOL    HW1 6995   2.376   3.159   6.246
 2032SOL    HW2 6996   2.414   3.001   6.257
 2033SOL     OW 6997   2.365   0.953   1.196
 2033SOL    HW1 6998   2.378   1.047   1.226
 2033SOL    HW2 6999   2.268   0.929   1.202
 2034SOL     OW 7000   0.617   4.394   5.122
 2034SOL    HW1 7001   0.581   4.419   5.032
 2034SOL    HW2 7002   0.549   4.339   5.171
 2035SOL     OW 7003   5.751   5.521   2.608
 2035SOL    HW1 7004   5.698   5.552   2.528
 2035SOL    HW2 7005   5.749   5.592   2.678
 2036SOL     OW 7006   0.474   4.158   6.287
 2036SOL    HW1 7007   0.554   4.105   6.315
 2036SOL    HW2 7008   0.504   4.236   6.232
 2037SOL     OW 7009   0.964   2.868   6.654
 2037SOL    HW1 7010   0.930   2.818   6.575
 2037SOL    HW2 7011   0.912   2.843   6.735
 2038SOL     OW 7012   1.095   0.958   5.875
 2038SOL    HW1 7013   1.092   1.019   5.796
 2038SOL    HW2 7014   1.122   0.867   5.846
 2039SOL     OW 7015   5.572   5.797   3.820
 2039SOL    HW1 7016   5.510   5.863   3.777
 2039SOL    HW2 7017   5.588   5.825   3.915
 2040SOL     OW 7018   2.790   1.931   0.644
 2040SOL    HW1 7019   2.691   1.940   0.637
 2040SOL    HW2 7020   2.824   1.993   0.715
 2041SOL     OW 7021   2.815   6.805   7.018
 2041SOL    HW1 7022   2.734   6.811   0.053
 2041SOL    HW2 7023   2.855   6.896   7.007
 2042SOL     OW 7024   0.055   6.937   6.126
 2042SOL    HW1 7025   6.993   6.918   6.173
 2042SOL    HW2 7026   0.092   6.853   6.087
 2043SOL     OW 7027   0.612   3.808   0.038
 2043SOL    HW1 7028   0.626   3.824   6.963
 2043SOL    HW2 7029   0.700   3.790   0.081
 2044SOL     OW 7030   3.868   0.230   1.788
 2044SOL    HW1 7031   3.846   0.310   1.733
 2044SOL    HW2 7032   3.810   0.228   1.869
 2045SOL     OW 7033   1.971   5.978   3.551
 2045SOL    HW1 7034   1.892   6.004   3.496
 2045SOL    HW2 7035   1.946   5.906   3.615
 2046SOL     OW 7036   1.061   2.921   5.594
 2046SOL    HW1 7037   1.055   2.823   5.573
 2046SOL    HW2 7038   0.971   2.953   5.623
 2047SOL     OW 7039   6.664   6.942   1.573
 2047SOL    HW1 7040   6.604   7.012   1.612
 2047SOL    HW2 7041   6.659   6.859   1.629
 2048SOL     OW 7042   2.299   0.756   3.407
 2048SOL    HW1 7043   2.323   0.842   3.362
 2048SOL    HW2 7044   2.356   0.743   3.488
 2049SOL     OW 7045   4.923   2.445   5.348
 2049SOL    HW1 7046   4.974   2.531   5.351
 2049SOL    HW2 7047   4.851   2.446   5.418
 2050SOL     OW 7048   0.569   0.939   2.685
 2050SOL    HW1 7049   0.491   0.952   2.746
 2050SOL    HW2 7050   0.547   0.976   2.594
 2051SOL     OW 7051   3.331   6.836   6.489
 2051SOL    HW1 7052   3.281   6.894   6.424
 2051SOL    HW2 7053   3.303   6.861   6.582
 2052SOL     OW 7054   0.479   4.002   0.899
 2052SOL    HW1 7055   0.530   4.046   0.824
 2052SOL    HW2 7056   0.384   3.990   0.871
 2053SOL     OW 7057   5.771   5.020   2.876
 2053SOL    HW1 7058   5.715   5.079   2.818
 2053SOL    HW2 7059   5.714   4.977   2.945
 2054SOL     OW 7060   3.214   4.037   2.562
 2054SOL    HW1 7061   3.171   3.980   2.632
 2054SOL    HW2 7062   3.194   4.133   2.581
 2055SOL     OW 7063   4.038   2.559   5.647
 2055SOL    HW1 7064   3.993   2.508   5.720
 2055SOL    HW2 7065   4.131   2.523   5.635
 2056SOL     OW 7066   2.879   4.857   1.837
 2056SOL    HW1 7067   2.877   4.780   1.901
 2056SOL    HW2 7068   2.809   4.845   1.767
 2057SOL     OW 7069   5.654   3.336   3.972
 2057SOL    HW1 7070   5.588   3.355   4.045
 2057SOL    HW2 7071   5.661   3.415   3.912
 2058SOL     OW 7072   5.331   6.943   3.560
 2058SOL    HW1 7073   5.403   6.929   3.492
 2058SOL    HW2 7074   5.242   6.932   3.515
 2059SOL     OW 7075   1.988   2.049   5.676
 2059SOL    HW1 7076   1.980   2.138   5.629
 2059SOL    HW2 7077   2.025   2.063   5.767
 2060SOL     OW 7078   1.512   2.358   6.461
 2060SOL    HW1 7079   1.530   2.274   6.411
 2060SOL    HW2 7080   1.419   2.356   6.498
 2061SOL     OW 7081   1.815   2.045   3.591
 2061SOL    HW1 7082   1.739   2.106   3.613
 2061SOL    HW2 7083   1.883   2.048   3.664
 2062SOL     OW 7084   5.619   5.251   3.815
 2062SOL    HW1 7085   5.632   5.333   3.871
 2062SOL    HW2 7086   5.545   5.267   3.749
 2063SOL     OW 7087   1.022   1.632   4.217
 2063SOL    HW1 7088   1.073   1.625   4.131
 2063SOL    HW2 7089   1.045   1.555   4.276
 2064SOL     OW 7090   0.754   4.218   4.595
 2064SOL    HW1 7091   0.759   4.184   4.689
 2064SOL    HW2 7092   0.811   4.161   4.536
 2065SOL     OW 7093   3.709   3.577   5.420
 2065SOL    HW1 7094   3.725   3.606   5.325
 2065SOL    HW2 7095   3.686   3.480   5.423
 2066SOL     OW 7096   1.812   2.722   4.822
 2066SOL    HW1 7097   1.813   2.675   4.733
 2066SOL    HW2 7098   1.871   2.802   4.818
 2067SOL     OW 7099   6.679   4.413   2.554
 2067SOL    HW1 7100   6.646   4.506   2.574
 2067SOL    HW2 7101   6.612   4.346   2.586
 2068SOL     OW 7102   3.636   6.402   4.120
 2068SOL    HW1 7103   3.605   6.335   4.052
 2068SOL    HW2 7104   3.726   6.375   4.154
 2069SOL     OW 7105   6.370   1.862   3.815
 2069SOL    HW1 7106   6.317   1.883   3.733
 2069SOL    HW2 7107   6.468   1.876   3.796
 2070SOL     OW 7108   0.429   4.731   1.706
 2070SOL    HW1 7109   0.439   4.637   1.737
 2070SOL    HW2 7110   0.499   4.788   1.750
 2071SOL     OW 7111   6.767   2.203   4.506
 2071SOL    HW1 7112   6.752   2.295   4.541
 2071SOL    HW2 7113   6.865   2.186   4.496
 2072SOL     OW 7114   5.289   3.501   5.481
 2072SOL    HW1 7115   5.234   3.494   5.564
 2072SOL    HW2 7116   5.383   3.524   5.504
 2073SOL     OW 7117   3.550   5.235   6.757
 2073SOL    HW1 7118   3.585   5.158   6.811
 2073SOL    HW2 7119   3.511   5.304   6.818
 2074SOL     OW 7120   3.949   4.660   5.497
 2074SOL    HW1 7121   4.009   4.628   5.571
 2074SOL    HW2 7122   3.870   4.707   5.537
 2075SOL     OW 7123   5.493   2.175   1.315
 2075SOL    HW1 7124   5.506   2.150   1.219
 2075SOL    HW2 7125   5.441   2.103   1.362
 2076SOL     OW 7126   6.819   6.561   3.768
 2076SOL    HW1 7127   6.841   6.650   3.809
 2076SOL    HW2 7128   6.766   6.575   3.685
 2077SOL     OW 7129   0.251   4.454   0.988
 2077SOL    HW1 7130   0.271   4.412   1.077
 2077SOL    HW2 7131   0.334   4.456   0.932
 2078SOL     OW 7132   0.578   2.979   6.250
 2078SOL    HW1 7133   0.485   2.953   6.224
 2078SOL    HW2 7134   0.641   2.953   6.176
 2079SOL     OW 7135   5.701   1.482   3.031
 2079SOL    HW1 7136   5.798   1.506   3.020
 2079SOL    HW2 7137   5.652   1.560   3.068
 2080SOL     OW 7138   2.224   3.890   6.137
 2080SOL    HW1 7139   2.278   3.974   6.143
 2080SOL    HW2 7140   2.273   3.816   6.183
 2081SOL     OW 7141   0.423   5.942   2.543
 2081SOL    HW1 7142   0.482   5.864   2.521
 2081SOL    HW2 7143   0.470   6.004   2.605
 2082SOL     OW 7144   6.948   5.712   3.607
 2082SOL    HW1 7145   6.904   5.632   3.648
 2082SOL    HW2 7146   0.019   5.689   3.584
 2083SOL     OW 7147   0.754   5.562   3.681
 2083SOL    HW1 7148   0.705   5.646   3.703
 2083SOL    HW2 7149   0.825   5.546   3.750
 2084SOL     OW 7150   6.471   2.294   1.577
 2084SOL    HW1 7151   6.517   2.358   1.516
 2084SOL    HW2 7152   6.478   2.202   1.539
 2085SOL     OW 7153   6.366   5.436   0.082
 2085SOL    HW1 7154   6.359   5.342   0.116
 2085SOL    HW2 7155   6.286   5.458   0.026
 2086SOL     OW 7156   5.851   0.120   5.988
 2086SOL    HW1 7157   5.931   0.114   5.929
 2086SOL    HW2 7158   5.779   0.172   5.941
 2087SOL     OW 7159   4.846   1.066   6.846
 2087SOL    HW1 7160   4.824   1.154   6.888
 2087SOL    HW2 7161   4.907   1.015   6.907
 2088SOL     OW 7162   0.412   3.949   6.117
 2088SOL    HW1 7163   0.415   4.017   6.191
 2088SOL    HW2 7164   0.506   3.921   6.094
 2089SOL     OW 7165   2.839   4.878   5.781
 2089SOL    HW1 7166   2.871   4.923   5.864
 2089SOL    HW2 7167   2.914   4.824   5.741
 2090SOL     OW 7168   4.971   2.641   6.723
 2090SOL    HW1 7169   4.961   2.556   6.776
 2090SOL    HW2 7170   5.068   2.662   6.713
 2091SOL     OW 7171   5.451   6.249   1.192
 2091SOL    HW1 7172   5.422   6.343   1.178
 2091SOL    HW2 7173   5.371   6.189   1.190
 2092SOL     OW 7174   3.525   3.214   1.880
 2092SOL    HW1 7175   3.556   3.308   1.892
 2092SOL    HW2 7176   3.430   3.206   1.910
 2093SOL     OW 7177   4.783   6.916   0.814
 2093SOL    HW1 7178   4.832   6.994   0.852
 2093SOL    HW2 7179   4.727   6.873   0.885
 2094SOL     OW 7180   5.027   2.505   0.776
 2094SOL    HW1 7181   4.934   2.472   0.760
 2094SOL    HW2 7182   5.062   2.545   0.691
 2095SOL     OW 7183   5.402   5.056   3.686
 2095SOL    HW1 7184   5.354   4.993   3.624
 2095SOL    HW2 7185   5.370   5.149   3.669
 2096SOL     OW 7186   4.039   6.523   3.082
 2096SOL    HW1 7187   4.002   6.614   3.063
 2096SOL    HW2 7188   4.084   6.487   3.001
 2097SOL     OW 7189   1.105   6.030   5.474
 2097SOL    HW1 7190   1.104   6.081   5.388
 2097SOL    HW2 7191   1.071   5.937   5.457
 2098SOL     OW 7192   1.870   6.819   3.711
 2098SOL    HW1 7193   1.847   6.779   3.623
 2098SOL    HW2 7194   1.821   6.906   3.723
 2099SOL     OW 7195   4.514   1.288   7.016
 2099SOL    HW1 7196   4.481   1.253   0.080
 2099SOL    HW2 7197   4.447   1.352   6.978
 2100SOL     OW 7198   4.880   0.507   6.872
 2100SOL    HW1 7199   4.795   0.536   6.914
 2100SOL    HW2 7200   4.914   0.578   6.811
 2101SOL     OW 7201   1.679   0.773   2.646
 2101SOL    HW1 7202   1.694   0.674   2.646
 2101SOL    HW2 7203   1.764   0.820   2.671
 2102SOL     OW 7204   3.630   2.814   1.737
 2102SOL    HW1 7205   3.677   2.869   1.668
 2102SOL    HW2 7206   3.549   2.863   1.770
 2103SOL     OW 7207   1.595   6.827   0.849
 2103SOL    HW1 7208   1.636   6.907   0.805
 2103SOL    HW2 7209   1.511   6.855   0.896
 2104SOL     OW 7210   1.224   4.323   2.523
 2104SOL    HW1 7211   1.273   4.252   2.575
 2104SOL    HW2 7212   1.138   4.344   2.569
 2105SOL     OW 7213   5.649   6.842   4.937
 2105SOL    HW1 7214   5.692   6.769   4.882
 2105SOL    HW2 7215   5.555   6.817   4.958
 2106SOL     OW 7216   3.491   2.354   1.225
 2106SOL    HW1 7217   3.456   2.324   1.314
 2106SOL    HW2 7218   3.542   2.279   1.183
 2107SOL     OW 7219   5.080   4.297   4.687
 2107SOL    HW1 7220   5.136   4.279   4.768
 2107SOL    HW2 7221   5.059   4.210   4.641
 2108SOL     OW 7222   4.383   6.898   4.937
 2108SOL    HW1 7223   4.300   6.851   4.966
 2108SOL    HW2 7224   4.383   6.905   4.837
 2109SOL     OW 7225   2.516   5.727   1.879
 2109SOL    HW1 7226   2.561   5.647   1.918
 2109SOL    HW2 7227   2.422   5.733   1.912
 2110SOL     OW 7228   3.759   6.016   6.979
 2110SOL    HW1 7229   3.675   6.061   6.948
 2110SOL    HW2 7230   3.736   5.939   0.015
 2111SOL     OW 7231   0.659   2.479   0.187
 2111SOL    HW1 7232   0.570   2.493   0.144
 2111SOL    HW2 7233   0.726   2.454   0.117
 2112SOL     OW 7234   0.751   0.122   6.661
 2112SOL    HW1 7235   0.788   0.111   6.568
 2112SOL    HW2 7236   0.748   0.033   6.706
 2113SOL     OW 7237   0.087   1.474   4.624
 2113SOL    HW1 7238   0.049   1.496   4.534
 2113SOL    HW2 7239   0.034   1.520   4.695
 2114SOL     OW 7240   2.727   1.587   5.246
 2114SOL    HW1 7241   2.634   1.554   5.230
 2114SOL    HW2 7242   2.752   1.654   5.177
 2115SOL     OW 7243   6.494   6.836   3.747
 2115SOL    HW1 7244   6.497   6.760   3.682
 2115SOL    HW2 7245   6.400   6.866   3.759
 2116SOL     OW 7246   2.142   1.402   6.453
 2116SOL    HW1 7247   2.090   1.487   6.467
 2116SOL    HW2 7248   2.210   1.417   6.381
 2117SOL     OW 7249   5.627   2.663   2.073
 2117SOL    HW1 7250   5.554   2.706   2.125
 2117SOL    HW2 7251   5.691   2.732   2.040
 2118SOL     OW 7252   0.478   3.123   2.721
 2118SOL    HW1 7253   0.431   3.206   2.753
 2118SOL    HW2 7254   0.489   3.059   2.797
 2119SOL     OW 7255   1.552   3.104   0.668
 2119SOL    HW1 7256   1.635   3.117   0.723
 2119SOL    HW2 7257   1.514   3.193   0.643
 2120SOL     OW 7258   5.199   1.729   0.304
 2120SOL    HW1 7259   5.267   1.731   0.378
 2120SOL    HW2 7260   5.236   1.680   0.226
 2121SOL     OW 7261   2.612   6.329   1.387
 2121SOL    HW1 7262   2.515   6.335   1.411
 2121SOL    HW2 7263   2.638   6.232   1.379
 2122SOL     OW 7264   0.189   0.549   4.693
 2122SOL    HW1 7265   0.194   0.469   4.633
 2122SOL    HW2 7266   0.230   0.628   4.647
 2123SOL     OW 7267   1.053   4.813   3.210
 2123SOL    HW1 7268   1.103   4.751   3.150
 2123SOL    HW2 7269   0.955   4.806   3.192
 2124SOL     OW 7270   4.684   3.148   5.936
 2124SOL    HW1 7271   4.773   3.112   5.909
 2124SOL    HW2 7272   4.642   3.086   6.002
 2125SOL     OW 7273   1.509   5.758   5.261
 2125SOL    HW1 7274   1.427   5.752   5.317
 2125SOL    HW2 7275   1.590   5.760   5.320
 2126SOL     OW 7276   3.173   5.202   1.462
 2126SOL    HW1 7277   3.246   5.145   1.426
 2126SOL    HW2 7278   3.161   5.184   1.560
 2127SOL     OW 7279   1.249   3.744   4.589
 2127SOL    HW1 7280   1.330   3.791   4.554
 2127SOL    HW2 7281   1.167   3.788   4.553
 2128SOL     OW 7282   5.411   2.991   1.272
 2128SOL    HW1 7283   5.363   3.026   1.191
 2128SOL    HW2 7284   5.466   2.911   1.247
 2129SOL     OW 7285   5.744   4.131   4.203
 2129SOL    HW1 7286   5.766   4.146   4.107
 2129SOL    HW2 7287   5.754   4.034   4.225
 2130SOL     OW 7288   2.390   0.544   2.542
 2130SOL    HW1 7289   2.475   0.536   2.490
 2130SOL    HW2 7290   2.345   0.630   2.520
 2131SOL     OW 7291   5.871   0.980   6.748
 2131SOL    HW1 7292   5.842   0.933   6.832
 2131SOL    HW2 7293   5.827   0.937   6.669
 2132SOL     OW 7294   2.844   2.894   0.279
 2132SOL    HW1 7295   2.853   2.794   0.284
 2132SOL    HW2 7296   2.868   2.925   0.188
 2133SOL     OW 7297   4.283   2.355   1.686
 2133SOL    HW1 7298   4.342   2.434   1.667
 2133SOL    HW2 7299   4.210   2.350   1.618
 2134SOL     OW 7300   2.717   0.402   5.413
 2134SOL    HW1 7301   2.778   0.368   5.342
 2134SOL    HW2 7302   2.641   0.451   5.370
 2135SOL     OW 7303   0.746   5.647   4.035
 2135SOL    HW1 7304   0.696   5.626   4.119
 2135SOL    HW2 7305   0.767   5.745   4.032
 2136SOL     OW 7306   0.875   4.960   3.612
 2136SOL    HW1 7307   0.904   5.003   3.526
 2136SOL    HW2 7308   0.776   4.968   3.622
 2137SOL     OW 7309   0.512   0.010   4.599
 2137SOL    HW1 7310   0.565   6.977   4.663
 2137SOL    HW2 7311   0.465   0.082   4.650
 2138SOL     OW 7312   1.229   2.069   6.493
 2138SOL    HW1 7313   1.235   1.992   6.556
 2138SOL    HW2 7314   1.221   2.036   6.399
 2139SOL     OW 7315   3.150   6.353   4.437
 2139SOL    HW1 7316   3.224   6.301   4.392
 2139SOL    HW2 7317   3.082   6.289   4.473
 2140SOL     OW 7318   1.255   5.724   3.720
 2140SOL    HW1 7319   1.212   5.793   3.779
 2140SOL    HW2 7320   1.354   5.721   3.739
 2141SOL     OW 7321   0.090   1.525   6.887
 2141SOL    HW1 7322   0.038   1.579   6.953
 2141SOL    HW2 7323   0.057   1.431   6.888
 2142SOL     OW 7324   4.342   1.183   3.130
 2142SOL    HW1 7325   4.394   1.125   3.193
 2142SOL    HW2 7326   4.376   1.277   3.135
 2143SOL     OW 7327   3.480   5.958   0.492
 2143SOL    HW1 7328   3.527   5.915   0.568
 2143SOL    HW2 7329   3.418   5.892   0.449
 2144SOL     OW 7330   1.176   1.292   1.717
 2144SOL    HW1 7331   1.199   1.333   1.806
 2144SOL    HW2 7332   1.189   1.193   1.723
 2145SOL     OW 7333   2.421   5.655   3.513
 2145SOL    HW1 7334   2.362   5.736   3.523
 2145SOL    HW2 7335   2.415   5.599   3.596
 2146SOL     OW 7336   2.775   2.550   0.879
 2146SOL    HW1 7337   2.718   2.470   0.858
 2146SOL    HW2 7338   2.723   2.634   0.862
 2147SOL     OW 7339   0.356   0.360   4.879
 2147SOL    HW1 7340   0.260   0.376   4.905
 2147SOL    HW2 7341   0.411   0.438   4.907
 2148SOL     OW 7342   6.597   3.522   4.455
 2148SOL    HW1 7343   6.607   3.566   4.544
 2148SOL    HW2 7344   6.627   3.426   4.462
 2149SOL     OW 7345   3.016   1.216   3.244
 2149SOL    HW1 7346   2.952   1.199   3.319
 2149SOL    HW2 7347   3.005   1.145   3.174
 2150SOL     OW 7348   5.070   6.960   2.983
 2150SOL    HW1 7349   5.005   6.960   2.907
 2150SOL    HW2 7350   5.136   0.011   2.971
 2151SOL     OW 7351   4.916   4.880   5.976
 2151SOL    HW1 7352   4.935   4.887   6.074
 2151SOL    HW2 7353   4.991   4.833   5.931
 2152SOL     OW 7354   0.207   6.725   2.253
 2152SOL    HW1 7355   0.183   6.820   2.273
 2152SOL    HW2 7356   0.294   6.723   2.203
 2153SOL     OW 7357   4.293   1.568   4.008
 2153SOL    HW1 7358   4.240   1.647   4.038
 2153SOL    HW2 7359   4.232   1.493   3.983
 2154SOL     OW 7360   3.580   6.467   4.910
 2154SOL    HW1 7361   3.574   6.401   4.836
 2154SOL    HW2 7362   3.506   6.534   4.902
 2155SOL     OW 7363   5.496   3.121   0.435
 2155SOL    HW1 7364   5.413   3.158   0.476
 2155SOL    HW2 7365   5.492   3.021   0.436
 2156SOL     OW 7366   6.639   6.704   2.751
 2156SOL    HW1 7367   6.651   6.626   2.691
 2156SOL    HW2 7368   6.610   6.783   2.697
 2157SOL     OW 7369   5.965   1.375   3.880
 2157SOL    HW1 7370   5.982   1.286   3.838
 2157SOL    HW2 7371   5.866   1.390   3.887
 2158SOL     OW 7372   4.231   6.977   3.810
 2158SOL    HW1 7373   4.131   6.970   3.808
 2158SOL    HW2 7374   4.259   0.038   3.764
 2159SOL     OW 7375   2.338   1.355   5.301
 2159SOL    HW1 7376   2.375   1.329   5.212
 2159SOL    HW2 7377   2.407   1.339   5.372
 2160SOL     OW 7378   2.380   3.523   0.726
 2160SOL    HW1 7379   2.430   3.595   0.776
 2160SOL    HW2 7380   2.440   3.486   0.655
 2161SOL     OW 7381   4.703   2.849   3.495
 2161SOL    HW1 7382   4.692   2.785   3.571
 2161SOL    HW2 7383   4.759   2.927   3.525
 2162SOL     OW 7384   2.739   1.534   2.048
 2162SOL    HW1 7385   2.706   1.504   2.137
 2162SOL    HW2 7386   2.739   1.456   1.984
 2163SOL     OW 7387   3.580   1.774   0.965
 2163SOL    HW1 7388   3.531   1.690   0.987
 2163SOL    HW2 7389   3.560   1.843   1.034
 2164SOL     OW 7390   6.851   0.814   1.495
 2164SOL    HW1 7391   6.791   0.823   1.575
 2164SOL    HW2 7392   6.844   0.898   1.440
 2165SOL     OW 7393   2.549   0.333   1.914
 2165SOL    HW1 7394   2.508   0.266   1.975
 2165SOL    HW2 7395   2.599   0.401   1.967
 2166SOL     OW 7396   5.454   2.574   5.586
 2166SOL    HW1 7397   5.390   2.551   5.660
 2166SOL    HW2 7398   5.417   2.542   5.499
 2167SOL     OW 7399   3.544   1.342   1.148
 2167SOL    HW1 7400   3.521   1.328   1.052
 2167SOL    HW2 7401   3.498   1.424   1.182
 2168SOL     OW 7402   5.672   6.093   4.592
 2168SOL    HW1 7403   5.658   6.114   4.689
 2168SOL    HW2 7404   5.746   6.148   4.555
 2169SOL     OW 7405   5.882   1.430   5.854
 2169SOL    HW1 7406   5.784   1.450   5.865
 2169SOL    HW2 7407   5.892   1.344   5.805
 2170SOL     OW 7408   5.063   5.144   4.005
 2170SOL    HW1 7409   4.975   5.097   4.017
 2170SOL    HW2 7410   5.135   5.077   3.990
 2171SOL     OW 7411   6.927   3.758   6.999
 2171SOL    HW1 7412   6.836   3.723   7.020
 2171SOL    HW2 7413   6.923   3.857   6.986
 2172SOL     OW 7414   2.636   0.573   2.379
 2172SOL    HW1 7415   2.636   0.669   2.404
 2172SOL    HW2 7416   2.579   0.559   2.298
 2173SOL     OW 7417   4.651   2.008   4.828
 2173SOL    HW1 7418   4.749   2.030   4.831
 2173SOL    HW2 7419   4.609   2.029   4.916
 2174SOL     OW 7420   0.901   5.601   4.974
 2174SOL    HW1 7421   0.948   5.516   4.950
 2174SOL    HW2 7422   0.883   5.603   5.072
 2175SOL     OW 7423   1.764   6.780   6.143
 2175SOL    HW1 7424   1.704   6.796   6.065
 2175SOL    HW2 7425   1.855   6.755   6.111
 2176SOL     OW 7426   1.973   2.505   2.975
 2176SOL    HW1 7427   1.972   2.595   2.931
 2176SOL    HW2 7428   2.055   2.455   2.947
 2177SOL     OW 7429   1.553   1.434   1.538
 2177SOL    HW1 7430   1.587   1.521   1.502
 2177SOL    HW2 7431   1.626   1.365   1.532
 2178SOL     OW 7432   6.374   6.343   0.344
 2178SOL    HW1 7433   6.327   6.424   0.311
 2178SOL    HW2 7434   6.432   6.367   0.422
 2179SOL     OW 7435   2.161   3.816   4.133
 2179SOL    HW1 7436   2.220   3.897   4.140
 2179SOL    HW2 7437   2.095   3.830   4.060
 2180SOL     OW 7438   3.207   2.922   1.619
 2180SOL    HW1 7439   3.170   3.002   1.666
 2180SOL    HW2 7440   3.135   2.854   1.606
 2181SOL     OW 7441   3.270   6.565   1.296
 2181SOL    HW1 7442   3.244   6.523   1.383
 2181SOL    HW2 7443   3.248   6.662   1.299
 2182SOL     OW 7444   4.259   3.350   0.769
 2182SOL    HW1 7445   4.329   3.411   0.733
 2182SOL    HW2 7446   4.300   3.284   0.831
 2183SOL     OW 7447   3.588   2.688   0.894
 2183SOL    HW1 7448   3.574   2.658   0.799
 2183SOL    HW2 7449   3.516   2.650   0.952
 2184SOL     OW 7450   5.273   2.724   6.127
 2184SOL    HW1 7451   5.198   2.785   6.152
 2184SOL    HW2 7452   5.350   2.778   6.094
 2185SOL     OW 7453   6.442   6.973   2.211
 2185SOL    HW1 7454   6.446   6.963   2.112
 2185SOL    HW2 7455   6.387   6.900   2.250
 2186SOL     OW 7456   0.477   4.335   3.117
 2186SOL    HW1 7457   0.393   4.352   3.168
 2186SOL    HW2 7458   0.494   4.411   3.054
 2187SOL     OW 7459   6.419   1.356   0.322
 2187SOL    HW1 7460   6.406   1.322   0.415
 2187SOL    HW2 7461   6.517   1.370   0.305
 2188SOL     OW 7462   5.094   1.615   3.932
 2188SOL    HW1 7463   5.009   1.624   3.985
 2188SOL    HW2 7464   5.102   1.521   3.898
 2189SOL     OW 7465   3.739   6.619   0.180
 2189SOL    HW1 7466   3.704   6.713   0.188
 2189SOL    HW2 7467   3.796   6.598   0.260
 2190SOL     OW 7468   5.246   2.743   0.317
 2190SOL    HW1 7469   5.148   2.726   0.310
 2190SOL    HW2 7470   5.288   2.735   0.227
 2191SOL     OW 7471   3.339   1.249   6.816
 2191SOL    HW1 7472   3.304   1.156   6.828
 2191SOL    HW2 7473   3.349   1.269   6.719
 2192SOL     OW 7474   3.616   5.880   2.148
 2192SOL    HW1 7475   3.655   5.952   2.091
 2192SOL    HW2 7476   3.555   5.822   2.094
 2193SOL     OW 7477   6.728   6.256   4.669
 2193SOL    HW1 7478   6.637   6.291   4.688
 2193SOL    HW2 7479   6.794   6.331   4.674
 2194SOL     OW 7480   2.618   6.973   1.936
 2194SOL    HW1 7481   2.526   7.000   1.909
 2194SOL    HW2 7482   2.617   6.877   1.966
 2195SOL     OW 7483   0.465   4.467   1.803
 2195SOL    HW1 7484   0.381   4.437   1.758
 2195SOL    HW2 7485   0.480   4.411   1.884
 2196SOL     OW 7486   4.579   3.953   7.007
 2196SOL    HW1 7487   4.575   4.040   6.958
 2196SOL    HW2 7488   4.585   3.971   0.082
 2197SOL     OW 7489   4.742   3.378   6.622
 2197SOL    HW1 7490   4.707   3.368   6.528
 2197SOL    HW2 7491   4.743   3.475   6.647
 2198SOL     OW 7492   6.879   4.311   0.111
 2198SOL    HW1 7493   6.958   4.254   0.134
 2198SOL    HW2 7494   6.799   4.252   0.096
 2199SOL     OW 7495   4.516   1.356   3.668
 2199SOL    HW1 7496   4.418   1.341   3.660
 2199SOL    HW2 7497   4.553   1.385   3.579
 2200SOL     OW 7498   3.261   6.918   4.225
 2200SOL    HW1 7499   3.332   6.857   4.262
 2200SOL    HW2 7500   3.242   6.990   4.292
 2201SOL     OW 7501   4.832   4.625   4.446
 2201SOL    HW1 7502   4.857   4.558   4.515
 2201SOL    HW2 7503   4.914   4.671   4.413
 2202SOL     OW 7504   4.652   5.583   3.562
 2202SOL    HW1 7505   4.574   5.526   3.533
 2202SOL    HW2 7506   4.683   5.552   3.652
 2203SOL     OW 7507   2.515   2.024   2.958
 2203SOL    HW1 7508   2.485   1.931   2.937
 2203SOL    HW2 7509   2.574   2.058   2.885
 2204SOL     OW 7510   3.074   2.258   0.818
 2204SOL    HW1 7511   3.115   2.280   0.906
 2204SOL    HW2 7512   3.144   2.223   0.756
 2205SOL     OW 7513   3.290   1.297   2.540
 2205SOL    HW1 7514   3.216   1.347   2.584
 2205SOL    HW2 7515   3.367   1.360   2.524
 2206SOL     OW 7516   1.398   3.807   0.503
 2206SOL    HW1 7517   1.372   3.852   0.418
 2206SOL    HW2 7518   1.366   3.713   0.503
 2207SOL     OW 7519   6.575   4.716   4.955
 2207SOL    HW1 7520   6.499   4.751   4.899
 2207SOL    HW2 7521   6.657   4.771   4.939
 2208SOL     OW 7522   6.314   5.458   1.655
 2208SOL    HW1 7523   6.310   5.549   1.614
 2208SOL    HW2 7524   6.363   5.396   1.593
 2209SOL     OW 7525   0.302   6.633   1.644
 2209SOL    HW1 7526   0.324   6.643   1.547
 2209SOL    HW2 7527   0.227   6.696   1.668
 2210SOL     OW 7528   1.959   5.160   4.130
 2210SOL    HW1 7529   1.921   5.143   4.221
 2210SOL    HW2 7530   1.994   5.254   4.125
 2211SOL     OW 7531   6.853   1.521   5.120
 2211SOL    HW1 7532   6.918   1.596   5.136
 2211SOL    HW2 7533   6.886   1.439   5.167
 2212SOL     OW 7534   3.270   0.194   5.935
 2212SOL    HW1 7535   3.280   0.096   5.918
 2212SOL    HW2 7536   3.359   0.239   5.925
 2213SOL     OW 7537   4.861   0.353   3.133
 2213SOL    HW1 7538   4.771   0.318   3.161
 2213SOL    HW2 7539   4.930   0.320   3.197
 2214SOL     OW 7540   3.467   6.853   4.892
 2214SOL    HW1 7541   3.394   6.918   4.912
 2214SOL    HW2 7542   3.550   6.878   4.941
 2215SOL     OW 7543   5.775   2.036   5.339
 2215SOL    HW1 7544   5.841   2.086   5.282
 2215SOL    HW2 7545   5.816   2.017   5.428
 2216SOL     OW 7546   3.109   1.867   2.749
 2216SOL    HW1 7547   3.042   1.874   2.676
 2216SOL    HW2 7548   3.129   1.770   2.767
 2217SOL     OW 7549   3.356   6.859   1.531
 2217SOL    HW1 7550   3.432   6.838   1.470
 2217SOL    HW2 7551   3.390   6.870   1.625
 2218SOL     OW 7552   0.164   0.608   2.304
 2218SOL    HW1 7553   0.090   0.550   2.336
 2218SOL    HW2 7554   0.245   0.593   2.360
 2219SOL     OW 7555   2.856   2.323   2.856
 2219SOL    HW1 7556   2.899   2.281   2.776
 2219SOL    HW2 7557   2.869   2.263   2.936
 2220SOL     OW 7558   1.280   0.180   2.189
 2220SOL    HW1 7559   1.200   0.171   2.248
 2220SOL    HW2 7560   1.277   0.268   2.141
 2221SOL     OW 7561   0.265   0.192   5.538
 2221SOL    HW1 7562   0.319   0.276   5.538
 2221SOL    HW2 7563   0.206   0.190   5.618
 2222SOL     OW 7564   6.007   4.946   4.004
 2222SOL    HW1 7565   6.050   4.920   3.917
 2222SOL    HW2 7566   5.908   4.949   3.992
 2223SOL     OW 7567   6.923   6.600   1.580
 2223SOL    HW1 7568   6.964   6.687   1.607
 2223SOL    HW2 7569   6.917   6.540   1.659
 2224SOL     OW 7570   0.550   5.677   0.415
 2224SOL    HW1 7571   0.616   5.610   0.450
 2224SOL    HW2 7572   0.544   5.754   0.478
 2225SOL     OW 7573   0.556   4.215   0.358
 2225SOL    HW1 7574   0.499   4.145   0.403
 2225SOL    HW2 7575   0.651   4.205   0.388
 2226SOL     OW 7576   4.112   3.440   2.452
 2226SOL    HW1 7577   4.141   3.515   2.511
 2226SOL    HW2 7578   4.074   3.477   2.367
 2227SOL     OW 7579   0.321   1.655   4.367
 2227SOL    HW1 7580   0.407   1.622   4.407
 2227SOL    HW2 7581   0.251   1.660   4.438
 2228SOL     OW 7582   2.579   4.528   4.137
 2228SOL    HW1 7583   2.577   4.520   4.237
 2228SOL    HW2 7584   2.651   4.593   4.111
 2229SOL     OW 7585   6.533   6.228   3.231
 2229SOL    HW1 7586   6.563   6.167   3.158
 2229SOL    HW2 7587   6.543   6.323   3.201
 2230SOL     OW 7588   1.855   5.047   2.767
 2230SOL    HW1 7589   1.943   5.038   2.813
 2230SOL    HW2 7590   1.867   5.031   2.669
 2231SOL     OW 7591   2.093   5.885   1.164
 2231SOL    HW1 7592   2.107   5.890   1.065
 2231SOL    HW2 7593   2.013   5.939   1.189
 2232SOL     OW 7594   5.607   2.227   4.162
 2232SOL    HW1 7595   5.569   2.138   4.187
 2232SOL    HW2 7596   5.678   2.252   4.228
 2233SOL     OW 7597   3.902   1.373   0.069
 2233SOL    HW1 7598   3.922   1.366   0.167
 2233SOL    HW2 7599   3.951   1.301   0.020
 2234SOL     OW 7600   3.896   2.466   0.904
 2234SOL    HW1 7601   3.883   2.539   0.971
 2234SOL    HW2 7602   3.986   2.477   0.860
 2235SOL     OW 7603   2.241   2.271   2.547
 2235SOL    HW1 7604   2.225   2.239   2.453
 2235SOL    HW2 7605   2.236   2.371   2.548
 2236SOL     OW 7606   1.152   4.369   5.216
 2236SOL    HW1 7607   1.172   4.336   5.308
 2236SOL    HW2 7608   1.059   4.343   5.190
 2237SOL     OW 7609   6.876   2.858   4.159
 2237SOL    HW1 7610   6.910   2.830   4.249
 2237SOL    HW2 7611   6.952   2.871   4.096
 2238SOL     OW 7612   5.345   6.121   0.069
 2238SOL    HW1 7613   5.407   6.112   0.147
 2238SOL    HW2 7614   5.391   6.169   7.019
 2239SOL     OW 7615   6.883   6.040   1.069
 2239SOL    HW1 7616   6.906   5.971   1.138
 2239SOL    HW2 7617   6.918   6.011   0.980
 2240SOL     OW 7618   6.218   3.783   1.615
 2240SOL    HW1 7619   6.266   3.780   1.702
 2240SOL    HW2 7620   6.176   3.694   1.597
 2241SOL     OW 7621   1.203   0.538   3.897
 2241SOL    HW1 7622   1.290   0.569   3.858
 2241SOL    HW2 7623   1.196   0.568   3.992
 2242SOL     OW 7624   2.997   1.471   3.176
 2242SOL    HW1 7625   3.024   1.414   3.254
 2242SOL    HW2 7626   2.901   1.496   3.184
 2243SOL     OW 7627   2.155   0.240   5.161
 2243SOL    HW1 7628   2.066   0.280   5.179
 2243SOL    HW2 7629   2.150   0.183   5.079
 2244SOL     OW 7630   3.855   0.719   5.041
 2244SOL    HW1 7631   3.855   0.786   5.115
 2244SOL    HW2 7632   3.871   0.628   5.078
 2245SOL     OW 7633   0.366   2.330   2.445
 2245SOL    HW1 7634   0.382   2.233   2.428
 2245SOL    HW2 7635   0.282   2.341   2.498
 2246SOL     OW 7636   1.010   4.137   5.447
 2246SOL    HW1 7637   1.007   4.237   5.448
 2246SOL    HW2 7638   1.022   4.105   5.353
 2247SOL     OW 7639   2.024   1.407   4.437
 2247SOL    HW1 7640   2.083   1.346   4.491
 2247SOL    HW2 7641   2.007   1.490   4.489
 2248SOL     OW 7642   5.664   4.118   6.065
 2248SOL    HW1 7643   5.709   4.057   5.999
 2248SOL    HW2 7644   5.732   4.154   6.129
 2249SOL     OW 7645   5.069   5.683   5.320
 2249SOL    HW1 7646   4.970   5.687   5.306
 2249SOL    HW2 7647   5.111   5.769   5.290
 2250SOL     OW 7648   4.566   4.886   1.760
 2250SOL    HW1 7649   4.484   4.890   1.703
 2250SOL    HW2 7650   4.547   4.929   1.848
 2251SOL     OW 7651   0.545   0.856   5.830
 2251SOL    HW1 7652   0.524   0.760   5.850
 2251SOL    HW2 7653   0.621   0.861   5.766
 2252SOL     OW 7654   3.470   1.096   6.362
 2252SOL    HW1 7655   3.460   1.066   6.267
 2252SOL    HW2 7656   3.490   1.017   6.420
 2253SOL     OW 7657   0.732   4.216   0.078
 2253SOL    HW1 7658   0.646   4.220   0.028
 2253SOL    HW2 7659   0.806   4.192   0.015
 2254SOL     OW 7660   1.810   4.688   6.310
 2254SOL    HW1 7661   1.878   4.717   6.242
 2254SOL    HW2 7662   1.719   4.685   6.268
 2255SOL     OW 7663   6.767   3.541   6.454
 2255SOL    HW1 7664   6.694   3.567   6.517
 2255SOL    HW2 7665   6.852   3.587   6.480
 2256SOL     OW 7666   2.565   5.026   1.748
 2256SOL    HW1 7667   2.499   5.083   1.700
 2256SOL    HW2 7668   2.584   4.943   1.694
 2257SOL     OW 7669   1.483   4.200   5.102
 2257SOL    HW1 7670   1.468   4.130   5.032
 2257SOL    HW2 7671   1.422   4.278   5.084
 2258SOL     OW 7672   1.870   5.275   5.281
 2258SOL    HW1 7673   1.825   5.250   5.195
 2258SOL    HW2 7674   1.879   5.194   5.338
 2259SOL     OW 7675   6.361   2.068   5.953
 2259SOL    HW1 7676   6.359   1.968   5.957
 2259SOL    HW2 7677   6.446   2.101   5.994
 2260SOL     OW 7678   3.730   3.026   0.437
 2260SOL    HW1 7679   3.824   3.062   0.436
 2260SOL    HW2 7680   3.729   2.939   0.485
 2261SOL     OW 7681   2.296   6.291   5.031
 2261SOL    HW1 7682   2.268   6.343   4.950
 2261SOL    HW2 7683   2.253   6.201   5.028
 2262SOL     OW 7684   3.436   1.855   2.901
 2262SOL    HW1 7685   3.486   1.925   2.851
 2262SOL    HW2 7686   3.364   1.897   2.955
 2263SOL     OW 7687   0.948   4.594   5.985
 2263SOL    HW1 7688   0.937   4.495   5.981
 2263SOL    HW2 7689   0.931   4.627   6.078
 2264SOL     OW 7690   3.690   3.640   3.056
 2264SOL    HW1 7691   3.643   3.576   2.995
 2264SOL    HW2 7692   3.788   3.641   3.034
 2265SOL     OW 7693   0.882   6.681   4.115
 2265SOL    HW1 7694   0.825   6.715   4.040
 2265SOL    HW2 7695   0.871   6.740   4.195
 2266SOL     OW 7696   6.573   0.544   5.615
 2266SOL    HW1 7697   6.563   0.560   5.516
 2266SOL    HW2 7698   6.661   0.500   5.633
 2267SOL     OW 7699   5.644   1.780   5.279
 2267SOL    HW1 7700   5.592   1.739   5.353
 2267SOL    HW2 7701   5.699   1.855   5.315
 2268SOL     OW 7702   6.911   5.769   0.268
 2268SOL    HW1 7703   6.999   5.749   0.311
 2268SOL    HW2 7704   6.880   5.689   0.217
 2269SOL     OW 7705   0.185   6.546   2.785
 2269SOL    HW1 7706   0.241   6.627   2.800
 2269SOL    HW2 7707   0.149   6.546   2.692
 2270SOL     OW 7708   3.422   3.282   3.147
 2270SOL    HW1 7709   3.504   3.249   3.194
 2270SOL    HW2 7710   3.399   3.219   3.072
 2271SOL     OW 7711   1.572   4.459   2.767
 2271SOL    HW1 7712   1.642   4.491   2.831
 2271SOL    HW2 7713   1.616   4.436   2.680
 2272SOL     OW 7714   4.971   0.636   5.583
 2272SOL    HW1 7715   4.896   0.648   5.648
 2272SOL    HW2 7716   5.049   0.593   5.629
 2273SOL     OW 7717   0.696   1.515   2.481
 2273SOL    HW1 7718   0.646   1.432   2.455
 2273SOL    HW2 7719   0.676   1.587   2.415
 2274SOL     OW 7720   0.992   4.082   3.357
 2274SOL    HW1 7721   0.963   3.990   3.332
 2274SOL    HW2 7722   0.947   4.109   3.442
 2275SOL     OW 7723   4.706   6.605   3.398
 2275SOL    HW1 7724   4.769   6.565   3.331
 2275SOL    HW2 7725   4.707   6.704   3.390
 2276SOL     OW 7726   3.299   5.593   2.378
 2276SOL    HW1 7727   3.273   5.604   2.474
 2276SOL    HW2 7728   3.233   5.534   2.332
 2277SOL     OW 7729   3.149   2.969   2.155
 2277SOL    HW1 7730   3.082   3.015   2.214
 2277SOL    HW2 7731   3.103   2.934   2.073
 2278SOL     OW 7732   3.861   5.564   1.020
 2278SOL    HW1 7733   3.927   5.510   1.072
 2278SOL    HW2 7734   3.774   5.568   1.070
 2279SOL     OW 7735   5.720   3.954   5.839
 2279SOL    HW1 7736   5.692   3.939   5.744
 2279SOL    HW2 7737   5.766   3.873   5.874
 2280SOL     OW 7738   5.708   0.389   5.951
 2280SOL    HW1 7739   5.653   0.450   5.894
 2280SOL    HW2 7740   5.649   0.346   6.020
 2281SOL     OW 7741   2.438   0.974   0.498
 2281SOL    HW1 7742   2.346   1.007   0.520
 2281SOL    HW2 7743   2.470   1.019   0.414
 2282SOL     OW 7744   3.987   6.076   2.457
 2282SOL    HW1 7745   3.934   6.125   2.388
 2282SOL    HW2 7746   4.015   5.987   2.420
 2283SOL     OW 7747   0.848   3.570   1.306
 2283SOL    HW1 7748   0.868   3.570   1.404
 2283SOL    HW2 7749   0.852   3.476   1.271
 2284SOL     OW 7750   2.223   2.542   1.116
 2284SOL    HW1 7751   2.265   2.615   1.169
 2284SOL    HW2 7752   2.207   2.573   1.022
 2285SOL     OW 7753   1.689   2.998   6.878
 2285SOL    HW1 7754   1.691   3.011   6.977
 2285SOL    HW2 7755   1.595   2.978   6.849
 2286SOL     OW 7756   6.446   6.501   3.986
 2286SOL    HW1 7757   6.503   6.583   3.994
 2286SOL    HW2 7758   6.474   6.448   3.906
 2287SOL     OW 7759   2.948   1.686   0.986
 2287SOL    HW1 7760   2.866   1.665   1.038
 2287SOL    HW2 7761   2.976   1.781   1.004
 2288SOL     OW 7762   2.777   6.414   4.572
 2288SOL    HW1 7763   2.681   6.403   4.548
 2288SOL    HW2 7764   2.811   6.499   4.534
 2289SOL     OW 7765   4.085   0.253   6.863
 2289SOL    HW1 7766   4.079   0.341   6.815
 2289SOL    HW2 7767   4.062   0.179   6.800
 2290SOL     OW 7768   3.052   3.290   4.383
 2290SOL    HW1 7769   3.033   3.363   4.318
 2290SOL    HW2 7770   3.112   3.323   4.455
 2291SOL     OW 7771   2.578   2.158   0.377
 2291SOL    HW1 7772   2.667   2.158   0.331
 2291SOL    HW2 7773   2.507   2.133   0.311
 2292SOL     OW 7774   5.208   2.490   3.397
 2292SOL    HW1 7775   5.187   2.425   3.471
 2292SOL    HW2 7776   5.169   2.457   3.311
 2293SOL     OW 7777   0.999   1.207   6.688
 2293SOL    HW1 7778   0.973   1.237   6.597
 2293SOL    HW2 7779   0.917   1.189   6.742
 2294SOL     OW 7780   6.459   2.213   5.184
 2294SOL    HW1 7781   6.509   2.289   5.144
 2294SOL    HW2 7782   6.401   2.246   5.258
 2295SOL     OW 7783   5.563   6.125   0.230
 2295SOL    HW1 7784   5.537   6.195   0.297
 2295SOL    HW2 7785   5.561   6.035   0.274
 2296SOL     OW 7786   3.757   5.694   4.796
 2296SOL    HW1 7787   3.751   5.677   4.895
 2296SOL    HW2 7788   3.676   5.656   4.752
 2297SOL     OW 7789   6.037   2.838   6.749
 2297SOL    HW1 7790   6.071   2.774   6.817
 2297SOL    HW2 7791   6.061   2.806   6.657
 2298SOL     OW 7792   2.857   3.852   5.071
 2298SOL    HW1 7793   2.773   3.850   5.126
 2298SOL    HW2 7794   2.854   3.931   5.009
 2299SOL     OW 7795   5.814   3.474   4.891
 2299SOL    HW1 7796   5.879   3.402   4.915
 2299SOL    HW2 7797   5.798   3.531   4.972
 2300SOL     OW 7798   5.311   0.028   2.721
 2300SOL    HW1 7799   5.319   0.066   2.813
 2300SOL    HW2 7800   5.356   6.962   2.718
 2301SOL     OW 7801   3.819   3.341   5.197
 2301SOL    HW1 7802   3.781   3.433   5.185
 2301SOL    HW2 7803   3.751   3.273   5.172
 2302SOL     OW 7804   6.527   3.525   5.792
 2302SOL    HW1 7805   6.549   3.582   5.871
 2302SOL    HW2 7806   6.432   3.541   5.765
 2303SOL     OW 7807   2.653   1.598   6.293
 2303SOL    HW1 7808   2.664   1.502   6.271
 2303SOL    HW2 7809   2.686   1.615   6.386
 2304SOL     OW 7810   5.342   0.191   2.383
 2304SOL    HW1 7811   5.254   0.169   2.424
 2304SOL    HW2 7812   5.413   0.135   2.425
 2305SOL     OW 7813   2.881   6.605   5.342
 2305SOL    HW1 7814   2.850   6.682   5.285
 2305SOL    HW2 7815   2.973   6.624   5.377
 2306SOL     OW 7816   0.665   4.450   4.836
 2306SOL    HW1 7817   0.693   4.448   4.740
 2306SOL    HW2 7818   0.736   4.496   4.890
 2307SOL     OW 7819   5.862   4.051   4.861
 2307SOL    HW1 7820   5.818   4.133   4.824
 2307SOL    HW2 7821   5.795   3.977   4.869
 2308SOL     OW 7822   1.165   5.917   1.958
 2308SOL    HW1 7823   1.162   5.818   1.941
 2308SOL    HW2 7824   1.154   5.934   2.056
 2309SOL     OW 7825   1.920   0.841   4.781
 2309SOL    HW1 7826   1.918   0.941   4.773
 2309SOL    HW2 7827   1.830   0.804   4.761
 2310SOL     OW 7828   4.761   6.366   0.245
 2310SOL    HW1 7829   4.834   6.407   0.192
 2310SOL    HW2 7830   4.673   6.403   0.216
 2311SOL     OW 7831   2.572   5.886   0.624
 2311SOL    HW1 7832   2.578   5.923   0.531
 2311SOL    HW2 7833   2.556   5.787   0.619
 2312SOL     OW 7834   2.741   4.775   3.116
 2312SOL    HW1 7835   2.757   4.786   3.214
 2312SOL    HW2 7836   2.697   4.857   3.080
 2313SOL     OW 7837   4.671   5.245   1.709
 2313SOL    HW1 7838   4.728   5.164   1.723
 2313SOL    HW2 7839   4.621   5.266   1.793
 2314SOL     OW 7840   2.343   4.370   3.098
 2314SOL    HW1 7841   2.371   4.396   3.190
 2314SOL    HW2 7842   2.422   4.367   3.038
 2315SOL     OW 7843   4.187   2.097   6.442
 2315SOL    HW1 7844   4.130   2.129   6.366
 2315SOL    HW2 7845   4.211   2.174   6.500
 2316SOL     OW 7846   5.096   3.186   1.589
 2316SOL    HW1 7847   5.116   3.095   1.553
 2316SOL    HW2 7848   5.021   3.181   1.655
 2317SOL     OW 7849   0.570   5.831   3.733
 2317SOL    HW1 7850   0.610   5.889   3.803
 2317SOL    HW2 7851   0.511   5.886   3.673
 2318SOL     OW 7852   6.632   1.831   3.745
 2318SOL    HW1 7853   6.623   1.752   3.685
 2318SOL    HW2 7854   6.692   1.808   3.821
 2319SOL     OW 7855   1.164   5.091   1.599
 2319SOL    HW1 7856   1.090   5.026   1.579
 2319SOL    HW2 7857   1.181   5.148   1.518
 2320SOL     OW 7858   6.362   4.729   4.080
 2320SOL    HW1 7859   6.351   4.730   3.981
 2320SOL    HW2 7860   6.279   4.765   4.123
 2321SOL     OW 7861   3.471   4.946   4.143
 2321SOL    HW1 7862   3.552   4.998   4.171
 2321SOL    HW2 7863   3.426   4.909   4.224
 2322SOL     OW 7864   2.610   0.689   4.560
 2322SOL    HW1 7865   2.649   0.687   4.468
 2322SOL    HW2 7866   2.543   0.764   4.566
 2323SOL     OW 7867   5.356   3.303   1.595
 2323SOL    HW1 7868   5.355   3.382   1.657
 2323SOL    HW2 7869   5.263   3.280   1.568
 2324SOL     OW 7870   0.192   5.204   4.059
 2324SOL    HW1 7871   0.286   5.237   4.065
 2324SOL    HW2 7872   0.180   5.150   3.976
 2325SOL     OW 7873   6.680   2.440   0.279
 2325SOL    HW1 7874   6.737   2.452   0.199
 2325SOL    HW2 7875   6.603   2.380   0.257
 2326SOL     OW 7876   0.380   4.643   0.672
 2326SOL    HW1 7877   0.339   4.680   0.588
 2326SOL    HW2 7878   0.399   4.546   0.659
 2327SOL     OW 7879   4.816   1.038   3.450
 2327SOL    HW1 7880   4.895   1.012   3.506
 2327SOL    HW2 7881   4.824   0.994   3.360
 2328SOL     OW 7882   6.137   5.201   3.832
 2328SOL    HW1 7883   6.139   5.204   3.932
 2328SOL    HW2 7884   6.109   5.110   3.802
 2329SOL     OW 7885   1.253   6.399   3.010
 2329SOL    HW1 7886   1.175   6.456   3.036
 2329SOL    HW2 7887   1.237   6.361   2.919
 2330SOL     OW 7888   1.554   4.511   0.374
 2330SOL    HW1 7889   1.515   4.444   0.311
 2330SOL    HW2 7890   1.603   4.581   0.322
 2331SOL     OW 7891   1.253   5.089   4.840
 2331SOL    HW1 7892   1.324   5.142   4.794
 2331SOL    HW2 7893   1.265   4.992   4.820
 2332SOL     OW 7894   6.204   3.179   5.684
 2332SOL    HW1 7895   6.208   3.243   5.607
 2332SOL    HW2 7896   6.146   3.217   5.756
 2333SOL     OW 7897   2.371   4.826   3.689
 2333SOL    HW1 7898   2.460   4.805   3.647
 2333SOL    HW2 7899   2.372   4.921   3.721
 2334SOL     OW 7900   2.416   0.555   5.830
 2334SOL    HW1 7901   2.355   0.609   5.772
 2334SOL    HW2 7902   2.363   0.491   5.885
 2335SOL     OW 7903   5.117   4.456   4.269
 2335SOL    HW1 7904   5.137   4.467   4.366
 2335SOL    HW2 7905   5.189   4.500   4.215
 2336SOL     OW 7906   4.209   2.043   5.963
 2336SOL    HW1 7907   4.145   1.970   5.987
 2336SOL    HW2 7908   4.215   2.051   5.864
 2337SOL     OW 7909   5.817   0.777   4.560
 2337SOL    HW1 7910   5.721   0.788   4.584
 2337SOL    HW2 7911   5.875   0.812   4.634
 2338SOL     OW 7912   1.113   0.056   6.802
 2338SOL    HW1 7913   1.212   0.069   6.809
 2338SOL    HW2 7914   1.089   6.987   6.833
 2339SOL     OW 7915   4.175   4.665   6.989
 2339SOL    HW1 7916   4.236   4.718   6.930
 2339SOL    HW2 7917   4.082   4.666   6.952
 2340SOL     OW 7918   3.441   5.341   4.568
 2340SOL    HW1 7919   3.374   5.295   4.626
 2340SOL    HW2 7920   3.472   5.278   4.497
 2341SOL     OW 7921   6.880   4.493   6.633
 2341SOL    HW1 7922   6.880   4.579   6.582
 2341SOL    HW2 7923   6.946   4.499   6.708
 2342SOL     OW 7924   6.525   1.527   5.658
 2342SOL    HW1 7925   6.592   1.465   5.617
 2342SOL    HW2 7926   6.541   1.620   5.625
 2343SOL     OW 7927   1.729   6.142   0.141
 2343SOL    HW1 7928   1.821   6.104   0.152
 2343SOL    HW2 7929   1.671   6.111   0.217
 2344SOL     OW 7930   2.861   0.947   3.113
 2344SOL    HW1 7931   2.772   0.971   3.072
 2344SOL    HW2 7932   2.926   0.925   3.040
 2345SOL     OW 7933   1.276   2.028   2.167
 2345SOL    HW1 7934   1.298   1.932   2.150
 2345SOL    HW2 7935   1.178   2.043   2.153
 2346SOL     OW 7936   4.711   3.110   5.349
 2346SOL    HW1 7937   4.791   3.049   5.354
 2346SOL    HW2 7938   4.740   3.204   5.364
 2347SOL     OW 7939   1.531   4.023   0.637
 2347SOL    HW1 7940   1.489   4.114   0.637
 2347SOL    HW2 7941   1.486   3.966   0.568
 2348SOL     OW 7942   2.341   6.959   1.124
 2348SOL    HW1 7943   2.286   6.898   1.067
 2348SOL    HW2 7944   2.287   0.017   1.146
 2349SOL     OW 7945   5.072   3.242   6.958
 2349SOL    HW1 7946   5.156   3.262   6.907
 2349SOL    HW2 7947   5.016   3.179   6.905
 2350SOL     OW 7948   1.810   6.281   5.006
 2350SOL    HW1 7949   1.844   6.240   5.091
 2350SOL    HW2 7950   1.725   6.235   4.979
 2351SOL     OW 7951   1.736   4.980   2.346
 2351SOL    HW1 7952   1.719   4.920   2.424
 2351SOL    HW2 7953   1.662   5.047   2.338
 2352SOL     OW 7954   5.554   5.272   6.980
 2352SOL    HW1 7955   5.482   5.259   0.025
 2352SOL    HW2 7956   5.589   5.365   6.986
 2353SOL     OW 7957   2.634   2.930   5.971
 2353SOL    HW1 7958   2.620   2.982   5.887
 2353SOL    HW2 7959   2.619   2.833   5.952
 2354SOL     OW 7960   4.224   1.526   2.425
 2354SOL    HW1 7961   4.255   1.439   2.464
 2354SOL    HW2 7962   4.294   1.562   2.363
 2355SOL     OW 7963   0.688   1.554   2.091
 2355SOL    HW1 7964   0.647   1.596   2.173
 2355SOL    HW2 7965   0.784   1.535   2.108
 2356SOL     OW 7966   3.062   5.226   4.558
 2356SOL    HW1 7967   3.116   5.246   4.640
 2356SOL    HW2 7968   3.035   5.129   4.560
 2357SOL     OW 7969   1.198   5.408   0.939
 2357SOL    HW1 7970   1.294   5.393   0.961
 2357SOL    HW2 7971   1.147   5.431   1.023
 2358SOL     OW 7972   2.692   0.984   5.191
 2358SOL    HW1 7973   2.726   1.041   5.117
 2358SOL    HW2 7974   2.683   1.039   5.274
 2359SOL     OW 7975   2.711   2.306   6.014
 2359SOL    HW1 7976   2.665   2.336   5.931
 2359SOL    HW2 7977   2.810   2.315   6.002
 2360SOL     OW 7978   3.121   5.151   0.658
 2360SOL    HW1 7979   3.128   5.248   0.680
 2360SOL    HW2 7980   3.070   5.104   0.730
 2361SOL     OW 7981   3.402   5.008   1.392
 2361SOL    HW1 7982   3.369   4.934   1.449
 2361SOL    HW2 7983   3.467   4.973   1.324
 2362SOL     OW 7984   2.593   5.278   4.626
 2362SOL    HW1 7985   2.597   5.343   4.550
 2362SOL    HW2 7986   2.659   5.204   4.610
 2363SOL     OW 7987   2.121   3.937   0.941
 2363SOL    HW1 7988   2.109   4.032   0.969
 2363SOL    HW2 7989   2.124   3.879   1.023
 2364SOL     OW 7990   4.685   0.674   2.279
 2364SOL    HW1 7991   4.649   0.645   2.190
 2364SOL    HW2 7992   4.633   0.753   2.311
 2365SOL     OW 7993   5.540   4.492   3.172
 2365SOL    HW1 7994   5.526   4.427   3.097
 2365SOL    HW2 7995   5.460   4.552   3.179
 2366SOL     OW 7996   3.441   5.031   5.035
 2366SOL    HW1 7997   3.381   5.076   5.101
 2366SOL    HW2 7998   3.523   4.997   5.082
 2367SOL     OW 7999   6.188   5.459   5.303
 2367SOL    HW1 8000   6.224   5.502   5.386
 2367SOL    HW2 8001   6.224   5.507   5.223
 2368SOL     OW 8002   5.539   0.285   4.859
 2368SOL    HW1 8003   5.506   0.217   4.924
 2368SOL    HW2 8004   5.462   0.331   4.816
 2369SOL     OW 8005   4.071   1.741   4.389
 2369SOL    HW1 8006   4.018   1.657   4.387
 2369SOL    HW2 8007   4.019   1.813   4.435
 2370SOL     OW 8008   4.655   1.619   1.644
 2370SOL    HW1 8009   4.656   1.717   1.664
 2370SOL    HW2 8010   4.606   1.571   1.717
 2371SOL     OW 8011   1.692   0.282   1.999
 2371SOL    HW1 8012   1.684   0.343   2.077
 2371SOL    HW2 8013   1.628   0.311   1.927
 2372SOL     OW 8014   6.514   6.904   5.206
 2372SOL    HW1 8015   6.512   6.804   5.198
 2372SOL    HW2 8016   6.599   6.932   5.252
 2373SOL     OW 8017   5.909   4.311   5.778
 2373SOL    HW1 8018   5.848   4.266   5.712
 2373SOL    HW2 8019   6.003   4.285   5.757
 2374SOL     OW 8020   0.076   6.269   2.098
 2374SOL    HW1 8021   0.098   6.366   2.096
 2374SOL    HW2 8022   7.018   6.252   2.043
 2375SOL     OW 8023   1.477   0.279   4.014
 2375SOL    HW1 8024   1.382   0.304   4.031
 2375SOL    HW2 8025   1.535   0.316   4.086
 2376SOL     OW 8026   5.060   3.318   3.600
 2376SOL    HW1 8027   4.995   3.322   3.676
 2376SOL    HW2 8028   5.025   3.373   3.524
 2377SOL     OW 8029   3.663   3.914   5.748
 2377SOL    HW1 8030   3.691   3.931   5.842
 2377SOL    HW2 8031   3.687   3.821   5.722
 2378SOL     OW 8032   0.433   0.623   0.592
 2378SOL    HW1 8033   0.399   0.662   0.507
 2378SOL    HW2 8034   0.511   0.563   0.572
 2379SOL     OW 8035   0.745   4.884   2.616
 2379SOL    HW1 8036   0.826   4.943   2.612
 2379SOL    HW2 8037   0.773   4.788   2.609
 2380SOL     OW 8038   4.167   5.186   6.529
 2380SOL    HW1 8039   4.115   5.106   6.500
 2380SOL    HW2 8040   4.180   5.247   6.451
 2381SOL     OW 8041   2.136   3.553   4.187
 2381SOL    HW1 8042   2.200   3.620   4.150
 2381SOL    HW2 8043   2.044   3.590   4.188
 2382SOL     OW 8044   0.096   5.399   3.151
 2382SOL    HW1 8045   0.028   5.421   3.221
 2382SOL    HW2 8046   0.125   5.483   3.104
 2383SOL     OW 8047   4.975   4.171   5.689
 2383SOL    HW1 8048   4.934   4.080   5.689
 2383SOL    HW2 8049   5.071   4.164   5.718
 2384SOL     OW 8050   0.256   2.728   3.166
 2384SOL    HW1 8051   0.327   2.690   3.106
 2384SOL    HW2 8052   0.183   2.769   3.111
 2385SOL     OW 8053   0.471   1.080   0.342
 2385SOL    HW1 8054   0.433   1.162   0.386
 2385SOL    HW2 8055   0.417   1.058   0.261
 2386SOL     OW 8056   6.750   5.466   4.925
 2386SOL    HW1 8057   6.777   5.549   4.975
 2386SOL    HW2 8058   6.743   5.389   4.988
 2387SOL     OW 8059   0.260   0.709   3.480
 2387SOL    HW1 8060   0.337   0.721   3.417
 2387SOL    HW2 8061   0.251   0.613   3.505
 2388SOL     OW 8062   1.078   3.558   4.927
 2388SOL    HW1 8063   0.981   3.577   4.945
 2388SOL    HW2 8064   1.094   3.560   4.829
 2389SOL     OW 8065   3.639   5.925   3.246
 2389SOL    HW1 8066   3.655   6.023   3.239
 2389SOL    HW2 8067   3.544   5.908   3.273
 2390SOL     OW 8068   5.586   2.518   5.897
 2390SOL    HW1 8069   5.555   2.426   5.920
 2390SOL    HW2 8070   5.634   2.517   5.809
 2391SOL     OW 8071   3.001   3.903   6.836
 2391SOL    HW1 8072   2.963   3.817   6.869
 2391SOL    HW2 8073   3.081   3.885   6.778
 2392SOL     OW 8074   4.258   5.228   5.733
 2392SOL    HW1 8075   4.332   5.293   5.747
 2392SOL    HW2 8076   4.285   5.160   5.665
 2393SOL     OW 8077   3.769   4.892   0.457
 2393SOL    HW1 8078   3.744   4.806   0.412
 2393SOL    HW2 8079   3.686   4.946   0.473
 2394SOL     OW 8080   6.433   2.047   3.541
 2394SOL    HW1 8081   6.386   2.095   3.467
 2394SOL    HW2 8082   6.523   2.017   3.509
 2395SOL     OW 8083   1.519   2.334   3.920
 2395SOL    HW1 8084   1.462   2.262   3.880
 2395SOL    HW2 8085   1.612   2.325   3.886
 2396SOL     OW 8086   6.814   0.161   6.167
 2396SOL    HW1 8087   6.862   0.245   6.193
 2396SOL    HW2 8088   6.781   0.115   6.249
 2397SOL     OW 8089   1.955   4.638   5.944
 2397SOL    HW1 8090   1.960   4.638   5.844
 2397SOL    HW2 8091   2.046   4.650   5.983
 2398SOL     OW 8092   4.069   5.676   4.981
 2398SOL    HW1 8093   4.031   5.759   5.021
 2398SOL    HW2 8094   4.016   5.597   5.012
 2399SOL     OW 8095   2.954   1.343   2.292
 2399SOL    HW1 8096   3.030   1.298   2.339
 2399SOL    HW2 8097   2.974   1.440   2.280
 2400SOL     OW 8098   0.711   2.818   0.355
 2400SOL    HW1 8099   0.776   2.859   0.418
 2400SOL    HW2 8100   0.638   2.773   0.406
 2401SOL     OW 8101   1.185   6.153   0.202
 2401SOL    HW1 8102   1.243   6.072   0.215
 2401SOL    HW2 8103   1.092   6.132   0.233
 2402SOL     OW 8104   0.739   3.617   1.897
 2402SOL    HW1 8105   0.657   3.602   1.841
 2402SOL    HW2 8106   0.725   3.576   1.988
 2403SOL     OW 8107   3.068   4.143   5.165
 2403SOL    HW1 8108   3.057   4.241   5.179
 2403SOL    HW2 8109   3.012   4.094   5.232
 2404SOL     OW 8110   6.193   1.527   1.932
 2404SOL    HW1 8111   6.195   1.618   1.891
 2404SOL    HW2 8112   6.286   1.491   1.936
 2405SOL     OW 8113   1.447   3.177   1.043
 2405SOL    HW1 8114   1.526   3.205   1.098
 2405SOL    HW2 8115   1.380   3.131   1.102
 2406SOL     OW 8116   4.173   5.653   4.709
 2406SOL    HW1 8117   4.145   5.670   4.804
 2406SOL    HW2 8118   4.257   5.598   4.709
 2407SOL     OW 8119   1.893   1.293   3.924
 2407SOL    HW1 8120   1.909   1.357   3.850
 2407SOL    HW2 8121   1.796   1.292   3.948
 2408SOL     OW 8122   3.721   0.238   6.147
 2408SOL    HW1 8123   3.701   0.274   6.238
 2408SOL    HW2 8124   3.741   0.140   6.154
 2409SOL     OW 8125   0.398   3.035   6.929
 2409SOL    HW1 8126   0.488   3.016   6.890
 2409SOL    HW2 8127   0.401   3.122   6.977
 2410SOL     OW 8128   6.994   3.555   4.626
 2410SOL    HW1 8129   0.052   3.590   4.672
 2410SOL    HW2 8130   6.973   3.464   4.660
 2411SOL     OW 8131   3.384   1.302   0.596
 2411SOL    HW1 8132   3.459   1.274   0.537
 2411SOL    HW2 8133   3.321   1.225   0.609
 2412SOL     OW 8134   3.231   1.806   6.806
 2412SOL    HW1 8135   3.173   1.874   6.851
 2412SOL    HW2 8136   3.190   1.716   6.816
 2413SOL     OW 8137   0.291   4.079   6.886
 2413SOL    HW1 8138   0.213   4.072   6.949
 2413SOL    HW2 8139   0.257   4.089   6.793
 2414SOL     OW 8140   0.297   1.812   5.055
 2414SOL    HW1 8141   0.340   1.750   5.120
 2414SOL    HW2 8142   0.346   1.811   4.968
 2415SOL     OW 8143   3.346   4.174   6.537
 2415SOL    HW1 8144   3.343   4.254   6.598
 2415SOL    HW2 8145   3.402   4.196   6.457
 2416SOL     OW 8146   0.070   3.597   3.804
 2416SOL    HW1 8147   0.109   3.653   3.730
 2416SOL    HW2 8148   0.119   3.510   3.809
 2417SOL     OW 8149   3.359   2.583   1.565
 2417SOL    HW1 8150   3.288   2.582   1.635
 2417SOL    HW2 8151   3.449   2.584   1.609
 2418SOL     OW 8152   5.762   3.791   6.196
 2418SOL    HW1 8153   5.826   3.856   6.237
 2418SOL    HW2 8154   5.704   3.752   6.268
 2419SOL     OW 8155   3.650   1.098   3.259
 2419SOL    HW1 8156   3.659   1.197   3.250
 2419SOL    HW2 8157   3.610   1.060   3.175
 2420SOL     OW 8158   1.217   3.899   2.220
 2420SOL    HW1 8159   1.191   3.804   2.202
 2420SOL    HW2 8160   1.300   3.901   2.276
 2421SOL     OW 8161   2.460   6.558   2.911
 2421SOL    HW1 8162   2.527   6.487   2.890
 2421SOL    HW2 8163   2.408   6.532   2.992
 2422SOL     OW 8164   4.114   6.109   0.339
 2422SOL    HW1 8165   4.025   6.148   0.314
 2422SOL    HW2 8166   4.162   6.079   0.257
 2423SOL     OW 8167   3.083   4.948   4.565
 2423SOL    HW1 8168   3.082   4.883   4.641
 2423SOL    HW2 8169   3.029   4.912   4.490
 2424SOL     OW 8170   5.338   6.701   6.295
 2424SOL    HW1 8171   5.253   6.677   6.249
 2424SOL    HW2 8172   5.414   6.653   6.251
 2425SOL     OW 8173   4.029   5.379   5.112
 2425SOL    HW1 8174   3.951   5.379   5.050
 2425SOL    HW2 8175   4.029   5.465   5.165
 2426SOL     OW 8176   3.039   2.391   5.432
 2426SOL    HW1 8177   3.008   2.484   5.415
 2426SOL    HW2 8178   3.094   2.359   5.355
 2427SOL     OW 8179   4.344   1.812   0.818
 2427SOL    HW1 8180   4.331   1.853   0.728
 2427SOL    HW2 8181   4.274   1.845   0.880
 2428SOL     OW 8182   1.828   1.767   2.832
 2428SOL    HW1 8183   1.802   1.769   2.929
 2428SOL    HW2 8184   1.755   1.810   2.778
 2429SOL     OW 8185   5.801   5.958   0.992
 2429SOL    HW1 8186   5.887   5.979   1.037
 2429SOL    HW2 8187   5.775   6.034   0.932
 2430SOL     OW 8188   6.766   0.046   7.019
 2430SOL    HW1 8189   6.856   0.008   0.014
 2430SOL    HW2 8190   6.771   0.146   7.022
 2431SOL     OW 8191   2.026   3.310   2.056
 2431SOL    HW1 8192   2.073   3.258   2.127
 2431SOL    HW2 8193   2.084   3.388   2.030
 2432SOL     OW 8194   2.516   5.971   2.128
 2432SOL    HW1 8195   2.578   5.901   2.162
 2432SOL    HW2 8196   2.423   5.934   2.122
 2433SOL     OW 8197   6.398   4.224   4.302
 2433SOL    HW1 8198   6.410   4.140   4.249
 2433SOL    HW2 8199   6.379   4.300   4.240
 2434SOL     OW 8200   4.723   1.616   2.922
 2434SOL    HW1 8201   4.721   1.558   3.003
 2434SOL    HW2 8202   4.644   1.678   2.923
 2435SOL     OW 8203   6.251   0.010   6.714
 2435SOL    HW1 8204   6.262   0.044   6.620
 2435SOL    HW2 8205   6.259   6.934   6.714
 2436SOL     OW 8206   6.794   2.752   0.842
 2436SOL    HW1 8207   6.756   2.659   0.837
 2436SOL    HW2 8208   6.764   2.804   0.763
 2437SOL     OW 8209   0.271   4.380   1.277
 2437SOL    HW1 8210   0.369   4.390   1.295
 2437SOL    HW2 8211   0.219   4.427   1.348
 2438SOL     OW 8212   3.889   1.383   5.005
 2438SOL    HW1 8213   3.926   1.310   5.063
 2438SOL    HW2 8214   3.936   1.381   4.916
 2439SOL     OW 8215   0.112   5.838   0.458
 2439SOL    HW1 8216   0.177   5.763   0.447
 2439SOL    HW2 8217   0.104   5.861   0.555
 2440SOL     OW 8218   6.044   1.541   5.307
 2440SOL    HW1 8219   6.029   1.548   5.208
 2440SOL    HW2 8220   6.035   1.445   5.334
 2441SOL     OW 8221   6.081   1.049   0.236
 2441SOL    HW1 8222   6.169   1.095   0.229
 2441SOL    HW2 8223   6.008   1.113   0.211
 2442SOL     OW 8224   4.997   2.795   2.409
 2442SOL    HW1 8225   5.059   2.861   2.451
 2442SOL    HW2 8226   4.945   2.748   2.481
 2443SOL     OW 8227   0.080   3.283   1.414
 2443SOL    HW1 8228   0.149   3.280   1.486
 2443SOL    HW2 8229   0.099   3.211   1.347
 2444SOL     OW 8230   3.487   4.963   3.257
 2444SOL    HW1 8231   3.472   5.056   3.289
 2444SOL    HW2 8232   3.515   4.905   3.334
 2445SOL     OW 8233   0.804   2.269   1.005
 2445SOL    HW1 8234   0.741   2.332   1.052
 2445SOL    HW2 8235   0.860   2.222   1.073
 2446SOL     OW 8236   6.840   5.437   1.526
 2446SOL    HW1 8237   6.938   5.420   1.534
 2446SOL    HW2 8238   6.794   5.406   1.609
 2447SOL     OW 8239   1.725   6.649   0.626
 2447SOL    HW1 8240   1.658   6.647   0.551
 2447SOL    HW2 8241   1.682   6.685   0.709
 2448SOL     OW 8242   5.392   1.226   3.923
 2448SOL    HW1 8243   5.369   1.289   3.997
 2448SOL    HW2 8244   5.451   1.272   3.857
 2449SOL     OW 8245   2.087   4.229   1.060
 2449SOL    HW1 8246   2.039   4.286   0.992
 2449SOL    HW2 8247   2.148   4.287   1.115
 2450SOL     OW 8248   0.804   6.749   5.149
 2450SOL    HW1 8249   0.750   6.834   5.153
 2450SOL    HW2 8250   0.893   6.768   5.107
 2451SOL     OW 8251   2.064   6.853   6.528
 2451SOL    HW1 8252   1.999   6.903   6.472
 2451SOL    HW2 8253   2.101   6.776   6.475
 2452SOL     OW 8254   2.439   1.717   4.456
 2452SOL    HW1 8255   2.455   1.776   4.535
 2452SOL    HW2 8256   2.396   1.771   4.383
 2453SOL     OW 8257   1.341   1.614   6.028
 2453SOL    HW1 8258   1.339   1.515   6.012
 2453SOL    HW2 8259   1.251   1.653   6.011
 2454SOL     OW 8260   3.103   5.992   0.583
 2454SOL    HW1 8261   3.052   5.911   0.553
 2454SOL    HW2 8262   3.136   6.042   0.503
 2455SOL     OW 8263   4.044   1.992   0.652
 2455SOL    HW1 8264   3.988   2.069   0.621
 2455SOL    HW2 8265   4.126   2.028   0.698
 2456SOL     OW 8266   0.672   3.927   6.397
 2456SOL    HW1 8267   0.606   3.880   6.455
 2456SOL    HW2 8268   0.712   3.862   6.332
 2457SOL     OW 8269   4.820   1.724   5.710
 2457SOL    HW1 8270   4.852   1.786   5.781
 2457SOL    HW2 8271   4.746   1.667   5.746
 2458SOL     OW 8272   1.064   0.179   2.364
 2458SOL    HW1 8273   0.989   0.130   2.408
 2458SOL    HW2 8274   1.029   0.263   2.322
 2459SOL     OW 8275   2.230   6.814   1.578
 2459SOL    HW1 8276   2.183   6.828   1.491
 2459SOL    HW2 8277   2.302   6.882   1.588
 2460SOL     OW 8278   0.785   0.664   3.971
 2460SOL    HW1 8279   0.784   0.732   4.045
 2460SOL    HW2 8280   0.703   0.607   3.977
 2461SOL     OW 8281   3.445   1.462   3.604
 2461SOL    HW1 8282   3.364   1.425   3.649
 2461SOL    HW2 8283   3.468   1.406   3.524
 2462SOL     OW 8284   0.565   6.223   0.992
 2462SOL    HW1 8285   0.500   6.290   0.956
 2462SOL    HW2 8286   0.548   6.134   0.950
 2463SOL     OW 8287   6.722   6.906   0.820
 2463SOL    HW1 8288   6.637   6.911   0.768
 2463SOL    HW2 8289   6.752   6.811   0.827
 2464SOL     OW 8290   0.788   2.969   4.690
 2464SOL    HW1 8291   0.753   2.877   4.673
 2464SOL    HW2 8292   0.855   2.965   4.764
 2465SOL     OW 8293   6.210   1.144   7.000
 2465SOL    HW1 8294   6.140   1.205   0.014
 2465SOL    HW2 8295   6.269   1.111   0.051
 2466SOL     OW 8296   0.686   2.728   1.640
 2466SOL    HW1 8297   0.747   2.785   1.586
 2466SOL    HW2 8298   0.704   2.742   1.737
 2467SOL     OW 8299   4.718   2.755   4.890
 2467SOL    HW1 8300   4.803   2.708   4.912
 2467SOL    HW2 8301   4.734   2.826   4.822
 2468SOL     OW 8302   3.639   0.127   4.972
 2468SOL    HW1 8303   3.688   0.077   4.900
 2468SOL    HW2 8304   3.676   0.101   5.061
 2469SOL     OW 8305   3.050   2.171   6.138
 2469SOL    HW1 8306   3.065   2.161   6.040
 2469SOL    HW2 8307   3.019   2.083   6.176
 2470SOL     OW 8308   2.123   6.155   6.506
 2470SOL    HW1 8309   2.053   6.129   6.573
 2470SOL    HW2 8310   2.116   6.253   6.488
 2471SOL     OW 8311   2.956   5.519   2.539
 2471SOL    HW1 8312   2.980   5.567   2.454
 2471SOL    HW2 8313   2.881   5.567   2.585
 2472SOL     OW 8314   4.581   1.118   2.553
 2472SOL    HW1 8315   4.513   1.083   2.617
 2472SOL    HW2 8316   4.555   1.209   2.523
 2473SOL     OW 8317   0.326   4.382   3.968
 2473SOL    HW1 8318   0.297   4.300   4.017
 2473SOL    HW2 8319   0.359   4.356   3.877
 2474SOL     OW 8320   1.346   6.354   1.564
 2474SOL    HW1 8321   1.248   6.340   1.552
 2474SOL    HW2 8322   1.372   6.443   1.526
 2475SOL     OW 8323   5.133   1.998   0.380
 2475SOL    HW1 8324   5.140   2.070   0.311
 2475SOL    HW2 8325   5.089   1.917   0.341
 2476SOL     OW 8326   4.690   6.814   1.028
 2476SOL    HW1 8327   4.778   6.771   1.008
 2476SOL    HW2 8328   4.645   6.764   1.102
 2477SOL     OW 8329   3.950   7.001   3.749
 2477SOL    HW1 8330   3.872   6.945   3.723
 2477SOL    HW2 8331   3.938   0.010   3.843
 2478SOL     OW 8332   3.403   0.369   4.496
 2478SOL    HW1 8333   3.382   0.467   4.499
 2478SOL    HW2 8334   3.327   0.321   4.451
 2479SOL     OW 8335   5.106   3.217   1.004
 2479SOL    HW1 8336   5.075   3.187   0.914
 2479SOL    HW2 8337   5.115   3.317   1.005
 2480SOL     OW 8338   3.428   2.334   1.504
 2480SOL    HW1 8339   3.457   2.275   1.579
 2480SOL    HW2 8340   3.417   2.428   1.537
 2481SOL     OW 8341   3.478   0.271   1.857
 2481SOL    HW1 8342   3.554   0.337   1.855
 2481SOL    HW2 8343   3.416   0.291   1.781
 2482SOL     OW 8344   6.561   3.125   0.324
 2482SOL    HW1 8345   6.659   3.137   0.341
 2482SOL    HW2 8346   6.512   3.126   0.411
 2483SOL     OW 8347   2.591   2.338   0.818
 2483SOL    HW1 8348   2.510   2.343   0.876
 2483SOL    HW2 8349   2.564   2.342   0.722
 2484SOL     OW 8350   4.366   0.507   6.721
 2484SOL    HW1 8351   4.350   0.518   6.819
 2484SOL    HW2 8352   4.433   0.574   6.690
 2485SOL     OW 8353   0.330   2.005   5.987
 2485SOL    HW1 8354   0.311   2.043   6.078
 2485SOL    HW2 8355   0.392   2.066   5.938
 2486SOL     OW 8356   0.284   5.453   3.356
 2486SOL    HW1 8357   0.231   5.416   3.280
 2486SOL    HW2 8358   0.348   5.383   3.390
 2487SOL     OW 8359   4.250   5.990   0.100
 2487SOL    HW1 8360   4.267   6.073   0.048
 2487SOL    HW2 8361   4.267   5.910   0.042
 2488SOL     OW 8362   6.926   3.889   0.741
 2488SOL    HW1 8363   7.013   3.938   0.735
 2488SOL    HW2 8364   6.876   3.897   0.654
 2489SOL     OW 8365   6.039   5.060   4.418
 2489SOL    HW1 8366   5.954   5.022   4.382
 2489SOL    HW2 8367   6.036   5.160   4.411
 2490SOL     OW 8368   2.230   5.575   2.939
 2490SOL    HW1 8369   2.236   5.580   2.840
 2490SOL    HW2 8370   2.258   5.662   2.979
 2491SOL     OW 8371   3.624   4.658   1.419
 2491SOL    HW1 8372   3.719   4.652   1.450
 2491SOL    HW2 8373   3.612   4.600   1.338
 2492SOL     OW 8374   6.624   5.317   1.109
 2492SOL    HW1 8375   6.681   5.242   1.142
 2492SOL    HW2 8376   6.531   5.307   1.145
 2493SOL     OW 8377   5.302   6.708   0.873
 2493SOL    HW1 8378   5.364   6.633   0.897
 2493SOL    HW2 8379   5.270   6.695   0.779
 2494SOL     OW 8380   6.710   3.848   0.940
 2494SOL    HW1 8381   6.691   3.750   0.947
 2494SOL    HW2 8382   6.787   3.863   0.877
 2495SOL     OW 8383   0.400   3.674   1.720
 2495SOL    HW1 8384   0.301   3.686   1.720
 2495SOL    HW2 8385   0.425   3.599   1.781
 2496SOL     OW 8386   5.672   4.433   6.809
 2496SOL    HW1 8387   5.576   4.458   6.800
 2496SOL    HW2 8388   5.715   4.493   6.877
 2497SOL     OW 8389   0.135   0.206   2.247
 2497SOL    HW1 8390   0.161   0.290   2.199
 2497SOL    HW2 8391   0.059   0.225   2.308
 2498SOL     OW 8392   1.776   3.425   4.973
 2498SOL    HW1 8393   1.712   3.348   4.977
 2498SOL    HW2 8394   1.773   3.476   5.058
 2499SOL     OW 8395   6.811   3.672   2.561
 2499SOL    HW1 8396   6.738   3.632   2.506
 2499SOL    HW2 8397   6.895   3.677   2.506
 2500SOL     OW 8398   4.079   3.129   1.678
 2500SOL    HW1 8399   4.136   3.156   1.755
 2500SOL    HW2 8400   4.105   3.182   1.597
 2501SOL     OW 8401   6.410   5.761   6.217
 2501SOL    HW1 8402   6.493   5.808   6.246
 2501SOL    HW2 8403   6.347   5.753   6.295
 2502SOL     OW 8404   2.132   6.659   4.377
 2502SOL    HW1 8405   2.063   6.662   4.304
 2502SOL    HW2 8406   2.220   6.689   4.341
 2503SOL     OW 8407   2.937   0.456   5.801
 2503SOL    HW1 8408   2.972   0.407   5.721
 2503SOL    HW2 8409   2.933   0.393   5.879
 2504SOL     OW 8410   3.546   0.251   3.428
 2504SOL    HW1 8411   3.570   0.189   3.502
 2504SOL    HW2 8412   3.449   0.242   3.407
 2505SOL     OW 8413   6.741   4.350   3.837
 2505SOL    HW1 8414   6.668   4.388   3.781
 2505SOL    HW2 8415   6.807   4.422   3.859
 2506SOL     OW 8416   5.854   5.177   6.504
 2506SOL    HW1 8417   5.836   5.262   6.553
 2506SOL    HW2 8418   5.949   5.150   6.519
 2507SOL     OW 8419   0.345   3.373   2.749
 2507SOL    HW1 8420   0.330   3.458   2.800
 2507SOL    HW2 8421   0.363   3.395   2.653
 2508SOL     OW 8422   5.865   0.960   4.160
 2508SOL    HW1 8423   5.955   0.970   4.203
 2508SOL    HW2 8424   5.814   1.046   4.171
 2509SOL     OW 8425   0.839   3.028   5.689
 2509SOL    HW1 8426   0.740   3.019   5.703
 2509SOL    HW2 8427   0.858   3.115   5.644
 2510SOL     OW 8428   3.019   3.744   2.372
 2510SOL    HW1 8429   2.974   3.748   2.461
 2510SOL    HW2 8430   2.964   3.688   2.309
 2511SOL     OW 8431   1.576   0.567   4.127
 2511SOL    HW1 8432   1.622   0.639   4.180
 2511SOL    HW2 8433   1.490   0.543   4.172
 2512SOL     OW 8434   4.131   4.736   3.799
 2512SOL    HW1 8435   4.092   4.785   3.877
 2512SOL    HW2 8436   4.082   4.761   3.716
 2513SOL     OW 8437   1.852   6.063   6.017
 2513SOL    HW1 8438   1.899   6.077   5.929
 2513SOL    HW2 8439   1.849   5.965   6.037
 2514SOL     OW 8440   1.369   1.777   3.236
 2514SOL    HW1 8441   1.405   1.864   3.271
 2514SOL    HW2 8442   1.294   1.795   3.173
 2515SOL     OW 8443   0.609   2.127   1.301
 2515SOL    HW1 8444   0.512   2.102   1.311
 2515SOL    HW2 8445   0.666   2.057   1.343
 2516SOL     OW 8446   5.955   2.341   4.805
 2516SOL    HW1 8447   5.996   2.257   4.768
 2516SOL    HW2 8448   5.974   2.417   4.742
 2517SOL     OW 8449   1.018   1.342   3.724
 2517SOL    HW1 8450   0.920   1.361   3.733
 2517SOL    HW2 8451   1.037   1.310   3.631
 2518SOL     OW 8452   2.436   4.454   1.020
 2518SOL    HW1 8453   2.373   4.462   1.097
 2518SOL    HW2 8454   2.418   4.368   0.971
 2519SOL     OW 8455   1.244   1.366   0.936
 2519SOL    HW1 8456   1.156   1.353   0.890
 2519SOL    HW2 8457   1.318   1.369   0.869
 2520SOL     OW 8458   2.526   2.232   1.177
 2520SOL    HW1 8459   2.618   2.263   1.200
 2520SOL    HW2 8460   2.515   2.136   1.203
 2521SOL     OW 8461   5.525   0.661   4.788
 2521SOL    HW1 8462   5.531   0.732   4.717
 2521SOL    HW2 8463   5.467   0.694   4.863
 2522SOL     OW 8464   1.109   1.811   6.695
 2522SOL    HW1 8465   1.094   1.756   6.613
 2522SOL    HW2 8466   1.057   1.896   6.688
 2523SOL     OW 8467   1.281   5.054   6.486
 2523SOL    HW1 8468   1.265   4.973   6.429
 2523SOL    HW2 8469   1.376   5.055   6.517
 2524SOL     OW 8470   1.021   0.691   4.519
 2524SOL    HW1 8471   0.983   0.599   4.532
 2524SOL    HW2 8472   1.059   0.699   4.428
 2525SOL     OW 8473   6.241   2.650   5.480
 2525SOL    HW1 8474   6.146   2.682   5.481
 2525SOL    HW2 8475   6.287   2.681   5.564
 2526SOL     OW 8476   1.801   0.089   0.716
 2526SOL    HW1 8477   1.845   0.177   0.737
 2526SOL    HW2 8478   1.721   0.105   0.659
 2527SOL     OW 8479   4.276   5.123   6.119
 2527SOL    HW1 8480   4.347   5.111   6.187
 2527SOL    HW2 8481   4.233   5.035   6.100
 2528SOL     OW 8482   4.707   5.781   5.984
 2528SOL    HW1 8483   4.610   5.766   6.002
 2528SOL    HW2 8484   4.746   5.700   5.940
 2529SOL     OW 8485   0.561   6.577   5.874
 2529SOL    HW1 8486   0.584   6.482   5.854
 2529SOL    HW2 8487   0.632   6.617   5.931
 2530SOL     OW 8488   2.690   6.311   6.619
 2530SOL    HW1 8489   2.710   6.330   6.715
 2530SOL    HW2 8490   2.634   6.229   6.612
 2531SOL     OW 8491   6.809   5.539   6.454
 2531SOL    HW1 8492   6.786   5.487   6.537
 2531SOL    HW2 8493   6.790   5.483   6.373
 2532SOL     OW 8494   5.624   6.216   1.546
 2532SOL    HW1 8495   5.559   6.291   1.556
 2532SOL    HW2 8496   5.698   6.244   1.484
 2533SOL     OW 8497   4.710   0.826   3.708
 2533SOL    HW1 8498   4.668   0.917   3.704
 2533SOL    HW2 8499   4.712   0.787   3.616
 2534SOL     OW 8500   4.401   1.304   2.742
 2534SOL    HW1 8501   4.478   1.307   2.805
 2534SOL    HW2 8502   4.393   1.393   2.695
 2535SOL     OW 8503   3.882   2.641   6.221
 2535SOL    HW1 8504   3.876   2.650   6.121
 2535SOL    HW2 8505   3.915   2.549   6.244
 2536SOL     OW 8506   1.347   0.717   1.589
 2536SOL    HW1 8507   1.356   0.660   1.671
 2536SOL    HW2 8508   1.310   0.663   1.514
 2537SOL     OW 8509   4.057   0.565   5.923
 2537SOL    HW1 8510   3.977   0.550   5.980
 2537SOL    HW2 8511   4.044   0.520   5.834
 2538SOL     OW 8512   5.949   3.372   3.649
 2538SOL    HW1 8513   5.886   3.300   3.678
 2538SOL    HW2 8514   6.036   3.331   3.622
 2539SOL     OW 8515   5.161   2.248   5.442
 2539SOL    HW1 8516   5.086   2.296   5.395
 2539SOL    HW2 8517   5.124   2.167   5.488
 2540SOL     OW 8518   2.825   1.709   1.744
 2540SOL    HW1 8519   2.882   1.711   1.825
 2540SOL    HW2 8520   2.809   1.803   1.712
 2541SOL     OW 8521   3.472   6.597   4.192
 2541SOL    HW1 8522   3.537   6.528   4.162
 2541SOL    HW2 8523   3.380   6.558   4.195
 2542SOL     OW 8524   1.891   5.632   5.855
 2542SOL    HW1 8525   1.927   5.555   5.908
 2542SOL    HW2 8526   1.960   5.705   5.853
 2543SOL     OW 8527   0.796   0.744   4.253
 2543SOL    HW1 8528   0.859   0.822   4.259
 2543SOL    HW2 8529   0.709   0.769   4.295
 2544SOL     OW 8530   0.448   5.446   6.850
 2544SOL    HW1 8531   0.425   5.458   6.753
 2544SOL    HW2 8532   0.371   5.475   6.907
 2545SOL     OW 8533   2.684   5.823   3.445
 2545SOL    HW1 8534   2.692   5.730   3.481
 2545SOL    HW2 8535   2.625   5.823   3.365
 2546SOL     OW 8536   0.204   1.295   1.645
 2546SOL    HW1 8537   0.293   1.315   1.603
 2546SOL    HW2 8538   0.175   1.204   1.618
 2547SOL     OW 8539   0.844   3.811   5.106
 2547SOL    HW1 8540   0.827   3.714   5.088
 2547SOL    HW2 8541   0.853   3.825   5.205
 2548SOL     OW 8542   1.135   0.535   5.268
 2548SOL    HW1 8543   1.157   0.467   5.338
 2548SOL    HW2 8544   1.189   0.518   5.186
 2549SOL     OW 8545   6.032   3.222   2.159
 2549SOL    HW1 8546   5.936   3.196   2.154
 2549SOL    HW2 8547   6.054   3.252   2.252
 2550SOL     OW 8548   6.089   5.512   0.015
 2550SOL    HW1 8549   6.087   5.422   0.059
 2550SOL    HW2 8550   6.031   5.575   0.066
 2551SOL     OW 8551   1.530   4.599   0.646
 2551SOL    HW1 8552   1.439   4.613   0.687
 2551SOL    HW2 8553   1.522   4.542   0.564
 2552SOL     OW 8554   1.673   5.404   3.624
 2552SOL    HW1 8555   1.767   5.368   3.625
 2552SOL    HW2 8556   1.648   5.430   3.530
 2553SOL     OW 8557   4.017   3.671   6.664
 2553SOL    HW1 8558   3.926   3.636   6.686
 2553SOL    HW2 8559   4.065   3.695   6.748
 2554SOL     OW 8560   1.274   1.802   0.422
 2554SOL    HW1 8561   1.278   1.854   0.507
 2554SOL    HW2 8562   1.179   1.796   0.390
 2555SOL     OW 8563   6.035   0.296   6.611
 2555SOL    HW1 8564   6.069   0.353   6.686
 2555SOL    HW2 8565   6.108   0.236   6.579
 2556SOL     OW 8566   3.800   5.067   1.121
 2556SOL    HW1 8567   3.739   5.009   1.175
 2556SOL    HW2 8568   3.770   5.067   1.026
 2557SOL     OW 8569   1.742   4.870   6.522
 2557SOL    HW1 8570   1.726   4.810   6.443
 2557SOL    HW2 8571   1.660   4.874   6.578
 2558SOL     OW 8572   4.132   0.464   5.658
 2558SOL    HW1 8573   4.144   0.404   5.579
 2558SOL    HW2 8574   4.180   0.426   5.737
 2559SOL     OW 8575   0.226   4.821   4.842
 2559SOL    HW1 8576   0.307   4.861   4.800
 2559SOL    HW2 8577   0.167   4.783   4.771
 2560SOL     OW 8578   5.922   1.606   0.188
 2560SOL    HW1 8579   6.013   1.576   0.217
 2560SOL    HW2 8580   5.890   1.679   0.249
 2561SOL     OW 8581   2.870   5.888   4.514
 2561SOL    HW1 8582   2.772   5.876   4.494
 2561SOL    HW2 8583   2.897   5.827   4.588
 2562SOL     OW 8584   2.367   3.702   6.704
 2562SOL    HW1 8585   2.297   3.738   6.765
 2562SOL    HW2 8586   2.449   3.758   6.711
 2563SOL     OW 8587   2.322   0.714   1.014
 2563SOL    HW1 8588   2.323   0.792   1.077
 2563SOL    HW2 8589   2.369   0.637   1.056
 2564SOL     OW 8590   1.301   6.619   2.261
 2564SOL    HW1 8591   1.395   6.611   2.227
 2564SOL    HW2 8592   1.302   6.657   2.353
 2565SOL     OW 8593   0.702   0.779   1.584
 2565SOL    HW1 8594   0.663   0.695   1.621
 2565SOL    HW2 8595   0.629   0.845   1.567
 2566SOL     OW 8596   2.588   0.326   5.739
 2566SOL    HW1 8597   2.539   0.410   5.762
 2566SOL    HW2 8598   2.608   0.275   5.822
 2567SOL     OW 8599   1.447   0.883   0.346
 2567SOL    HW1 8600   1.521   0.830   0.302
 2567SOL    HW2 8601   1.363   0.869   0.294
 2568SOL     OW 8602   5.386   3.941   0.128
 2568SOL    HW1 8603   5.370   3.878   0.204
 2568SOL    HW2 8604   5.475   3.984   0.140
 2569SOL     OW 8605   2.993   0.834   2.759
 2569SOL    HW1 8606   3.028   0.897   2.828
 2569SOL    HW2 8607   2.992   0.880   2.670
 2570SOL     OW 8608   5.804   2.612   6.028
 2570SOL    HW1 8609   5.721   2.605   5.973
 2570SOL    HW2 8610   5.827   2.521   6.064
 2571SOL     OW 8611   0.663   3.951   4.466
 2571SOL    HW1 8612   0.756   3.988   4.473
 2571SOL    HW2 8613   0.609   3.982   4.544
 2572SOL     OW 8614   1.349   4.781   3.747
 2572SOL    HW1 8615   1.423   4.837   3.785
 2572SOL    HW2 8616   1.264   4.833   3.748
 2573SOL     OW 8617   1.052   0.207   1.314
 2573SOL    HW1 8618   0.992   0.281   1.344
 2573SOL    HW2 8619   1.138   0.211   1.365
 2574SOL     OW 8620   6.249   3.369   0.510
 2574SOL    HW1 8621   6.296   3.283   0.530
 2574SOL    HW2 8622   6.208   3.405   0.594
 2575SOL     OW 8623   0.382   6.432   6.059
 2575SOL    HW1 8624   0.370   6.525   6.025
 2575SOL    HW2 8625   0.434   6.378   5.992
 2576SOL     OW 8626   4.311   5.898   4.635
 2576SOL    HW1 8627   4.237   5.831   4.642
 2576SOL    HW2 8628   4.282   5.984   4.678
 2577SOL     OW 8629   1.965   3.972   2.670
 2577SOL    HW1 8630   1.977   4.071   2.661
 2577SOL    HW2 8631   2.022   3.925   2.602
 2578SOL     OW 8632   4.180   1.835   2.872
 2578SOL    HW1 8633   4.122   1.870   2.946
 2578SOL    HW2 8634   4.126   1.776   2.813
 2579SOL     OW 8635   0.506   6.520   3.171
 2579SOL    HW1 8636   0.466   6.488   3.086
 2579SOL    HW2 8637   0.600   6.551   3.155
 2580SOL     OW 8638   2.429   2.410   5.773
 2580SOL    HW1 8639   2.410   2.372   5.683
 2580SOL    HW2 8640   2.451   2.507   5.765
 2581SOL     OW 8641   3.517   0.900   5.245
 2581SOL    HW1 8642   3.522   0.904   5.145
 2581SOL    HW2 8643   3.606   0.871   5.281
 2582SOL     OW 8644   6.872   3.400   1.437
 2582SOL    HW1 8645   6.964   3.362   1.424
 2582SOL    HW2 8646   6.870   3.455   1.520
 2583SOL     OW 8647   6.065   0.521   1.038
 2583SOL    HW1 8648   5.997   0.528   0.965
 2583SOL    HW2 8649   6.136   0.591   1.024
 2584SOL     OW 8650   3.757   4.416   6.219
 2584SOL    HW1 8651   3.849   4.414   6.180
 2584SOL    HW2 8652   3.692   4.442   6.148
 2585SOL     OW 8653   3.351   4.875   6.847
 2585SOL    HW1 8654   3.277   4.829   6.895
 2585SOL    HW2 8655   3.314   4.947   6.788
 2586SOL     OW 8656   2.788   1.007   3.690
 2586SOL    HW1 8657   2.875   0.965   3.664
 2586SOL    HW2 8658   2.744   0.953   3.761
 2587SOL     OW 8659   6.323   0.829   4.213
 2587SOL    HW1 8660   6.300   0.774   4.293
 2587SOL    HW2 8661   6.314   0.773   4.131
 2588SOL     OW 8662   4.464   0.238   6.738
 2588SOL    HW1 8663   4.430   0.319   6.690
 2588SOL    HW2 8664   4.405   0.160   6.718
 2589SOL     OW 8665   2.492   6.633   0.756
 2589SOL    HW1 8666   2.472   6.562   0.823
 2589SOL    HW2 8667   2.427   6.628   0.680
 2590SOL     OW 8668   2.891   5.755   0.550
 2590SOL    HW1 8669   2.808   5.731   0.600
 2590SOL    HW2 8670   2.892   5.707   0.462
 2591SOL     OW 8671   5.548   5.413   3.172
 2591SOL    HW1 8672   5.498   5.362   3.103
 2591SOL    HW2 8673   5.621   5.466   3.128
 2592SOL     OW 8674   2.665   3.992   0.802
 2592SOL    HW1 8675   2.742   4.056   0.795
 2592SOL    HW2 8676   2.685   3.923   0.871
 2593SOL     OW 8677   3.670   4.665   0.320
 2593SOL    HW1 8678   3.580   4.658   0.277
 2593SOL    HW2 8679   3.727   4.587   0.292
 2594SOL     OW 8680   2.063   2.760   4.136
 2594SOL    HW1 8681   2.103   2.842   4.178
 2594SOL    HW2 8682   1.971   2.746   4.173
 2595SOL     OW 8683   2.276   1.539   2.902
 2595SOL    HW1 8684   2.240   1.594   2.827
 2595SOL    HW2 8685   2.290   1.445   2.871
 2596SOL     OW 8686   0.922   1.534   0.619
 2596SOL    HW1 8687   0.943   1.596   0.544
 2596SOL    HW2 8688   0.831   1.555   0.655
 2597SOL     OW 8689   6.430   6.711   6.958
 2597SOL    HW1 8690   6.482   6.789   6.925
 2597SOL    HW2 8691   6.381   6.736   0.018
 2598SOL     OW 8692   4.972   2.455   2.831
 2598SOL    HW1 8693   5.002   2.429   2.739
 2598SOL    HW2 8694   5.045   2.508   2.876
 2599SOL     OW 8695   2.518   5.984   2.461
 2599SOL    HW1 8696   2.590   5.941   2.406
 2599SOL    HW2 8697   2.435   5.993   2.406
 2600SOL     OW 8698   5.659   4.012   4.536
 2600SOL    HW1 8699   5.635   4.009   4.633
 2600SOL    HW2 8700   5.700   4.100   4.514
 2601SOL     OW 8701   6.576   1.591   4.090
 2601SOL    HW1 8702   6.546   1.497   4.102
 2601SOL    HW2 8703   6.657   1.593   4.031
 2602SOL     OW 8704   1.022   4.615   2.414
 2602SOL    HW1 8705   1.005   4.530   2.364
 2602SOL    HW2 8706   0.979   4.610   2.504
 2603SOL     OW 8707   2.394   6.170   2.932
 2603SOL    HW1 8708   2.416   6.246   2.871
 2603SOL    HW2 8709   2.463   6.164   3.004
 2604SOL     OW 8710   4.736   2.585   3.702
 2604SOL    HW1 8711   4.684   2.534   3.770
 2604SOL    HW2 8712   4.799   2.648   3.748
 2605SOL     OW 8713   1.416   3.825   1.889
 2605SOL    HW1 8714   1.328   3.779   1.901
 2605SOL    HW2 8715   1.405   3.902   1.826
 2606SOL     OW 8716   5.167   3.706   0.924
 2606SOL    HW1 8717   5.112   3.746   0.998
 2606SOL    HW2 8718   5.151   3.757   0.840
 2607SOL     OW 8719   2.483   2.995   1.370
 2607SOL    HW1 8720   2.549   3.070   1.356
 2607SOL    HW2 8721   2.404   3.009   1.310
 2608SOL     OW 8722   2.513   5.210   5.567
 2608SOL    HW1 8723   2.508   5.128   5.625
 2608SOL    HW2 8724   2.509   5.291   5.625
 2609SOL     OW 8725   0.619   2.401   1.207
 2609SOL    HW1 8726   0.607   2.303   1.221
 2609SOL    HW2 8727   0.603   2.449   1.293
 2610SOL     OW 8728   1.450   3.985   4.948
 2610SOL    HW1 8729   1.475   4.008   4.854
 2610SOL    HW2 8730   1.480   3.892   4.969
 2611SOL     OW 8731   5.162   0.234   6.093
 2611SOL    HW1 8732   5.209   0.226   6.005
 2611SOL    HW2 8733   5.137   0.330   6.108
 2612SOL     OW 8734   6.599   6.617   6.632
 2612SOL    HW1 8735   6.633   6.543   6.574
 2612SOL    HW2 8736   6.589   6.583   6.726
 2613SOL     OW 8737   1.030   6.826   6.824
 2613SOL    HW1 8738   1.013   6.756   6.755
 2613SOL    HW2 8739   1.066   6.783   6.907
 2614SOL     OW 8740   5.915   1.970   0.011
 2614SOL    HW1 8741   5.957   2.045   0.063
 2614SOL    HW2 8742   5.838   2.006   6.982
 2615SOL     OW 8743   0.150   3.361   6.892
 2615SOL    HW1 8744   0.129   3.426   6.965
 2615SOL    HW2 8745   0.243   3.325   6.906
 2616SOL     OW 8746   1.409   1.083   4.981
 2616SOL    HW1 8747   1.492   1.028   4.985
 2616SOL    HW2 8748   1.334   1.028   4.944
 2617SOL     OW 8749   5.074   0.147   1.943
 2617SOL    HW1 8750   5.047   0.062   1.899
 2617SOL    HW2 8751   4.997   0.211   1.942
 2618SOL     OW 8752   1.500   0.060   6.301
 2618SOL    HW1 8753   1.527   6.999   6.347
 2618SOL    HW2 8754   1.517   0.138   6.361
 2619SOL     OW 8755   4.971   1.128   3.024
 2619SOL    HW1 8756   4.904   1.119   2.951
 2619SOL    HW2 8757   4.967   1.221   3.061
 2620SOL     OW 8758   6.189   2.108   1.789
 2620SOL    HW1 8759   6.180   2.075   1.883
 2620SOL    HW2 8760   6.115   2.173   1.769
 2621SOL     OW 8761   2.298   6.329   1.430
 2621SOL    HW1 8762   2.239   6.389   1.485
 2621SOL    HW2 8763   2.305   6.240   1.475
 2622SOL     OW 8764   2.717   3.840   0.081
 2622SOL    HW1 8765   2.791   3.901   0.110
 2622SOL    HW2 8766   2.672   3.802   0.162
 2623SOL     OW 8767   7.021   0.327   3.734
 2623SOL    HW1 8768   7.023   0.393   3.808
 2623SOL    HW2 8769   0.064   0.352   3.664
 2624SOL     OW 8770   1.001   1.544   5.405
 2624SOL    HW1 8771   1.093   1.509   5.419
 2624SOL    HW2 8772   0.980   1.612   5.475
 2625SOL     OW 8773   2.716   5.504   6.188
 2625SOL    HW1 8774   2.665   5.565   6.127
 2625SOL    HW2 8775   2.661   5.422   6.204
 2626SOL     OW 8776   6.892   6.876   6.566
 2626SOL    HW1 8777   6.948   6.960   6.565
 2626SOL    HW2 8778   6.795   6.901   6.565
 2627SOL     OW 8779   2.301   0.895   5.760
 2627SOL    HW1 8780   2.202   0.884   5.769
 2627SOL    HW2 8781   2.336   0.945   5.840
 2628SOL     OW 8782   0.122   4.895   1.501
 2628SOL    HW1 8783   0.219   4.896   1.477
 2628SOL    HW2 8784   0.112   4.889   1.600
 2629SOL     OW 8785   3.444   3.624   2.663
 2629SOL    HW1 8786   3.356   3.667   2.639
 2629SOL    HW2 8787   3.518   3.689   2.647
 2630SOL     OW 8788   3.558   0.486   3.705
 2630SOL    HW1 8789   3.526   0.552   3.637
 2630SOL    HW2 8790   3.658   0.483   3.704
 2631SOL     OW 8791   5.502   6.506   7.006
 2631SOL    HW1 8792   5.423   6.502   0.044
 2631SOL    HW2 8793   5.502   6.593   6.957
 2632SOL     OW 8794   5.765   4.553   1.809
 2632SOL    HW1 8795   5.857   4.592   1.822
 2632SOL    HW2 8796   5.707   4.622   1.765
 2633SOL     OW 8797   0.042   3.288   5.890
 2633SOL    HW1 8798   0.128   3.253   5.852
 2633SOL    HW2 8799   6.996   3.217   5.884
 2634SOL     OW 8800   0.919   1.604   5.708
 2634SOL    HW1 8801   0.843   1.551   5.747
 2634SOL    HW2 8802   0.997   1.543   5.693
 2635SOL     OW 8803   3.960   5.123   3.232
 2635SOL    HW1 8804   3.957   5.102   3.134
 2635SOL    HW2 8805   4.055   5.124   3.263
 2636SOL     OW 8806   3.522   6.312   6.265
 2636SOL    HW1 8807   3.575   6.255   6.328
 2636SOL    HW2 8808   3.441   6.346   6.312
 2637SOL     OW 8809   0.474   0.527   2.831
 2637SOL    HW1 8810   0.441   0.576   2.912
 2637SOL    HW2 8811   0.396   0.497   2.776
 2638SOL     OW 8812   0.658   6.653   4.469
 2638SOL    HW1 8813   0.650   6.624   4.564
 2638SOL    HW2 8814   0.572   6.693   4.439
 2639SOL     OW 8815   5.064   4.796   4.473
 2639SOL    HW1 8816   4.984   4.830   4.522
 2639SOL    HW2 8817   5.129   4.756   4.538
 2640SOL     OW 8818   2.581   1.454   3.670
 2640SOL    HW1 8819   2.504   1.490   3.617
 2640SOL    HW2 8820   2.664   1.460   3.616
 2641SOL     OW 8821   4.765   2.402   0.090
 2641SOL    HW1 8822   4.701   2.397   0.167
 2641SOL    HW2 8823   4.727   2.461   0.019
 2642SOL     OW 8824   0.142   6.976   2.333
 2642SOL    HW1 8825   0.158   0.044   2.295
 2642SOL    HW2 8826   0.158   6.978   2.432
 2643SOL     OW 8827   1.361   4.850   4.145
 2643SOL    HW1 8828   1.438   4.900   4.185
 2643SOL    HW2 8829   1.285   4.849   4.210
 2644SOL     OW 8830   5.699   5.563   4.314
 2644SOL    HW1 8831   5.719   5.465   4.303
 2644SOL    HW2 8832   5.766   5.616   4.262
 2645SOL     OW 8833   5.352   5.607   3.262
 2645SOL    HW1 8834   5.386   5.515   3.285
 2645SOL    HW2 8835   5.252   5.606   3.263
 2646SOL     OW 8836   0.869   2.409   6.537
 2646SOL    HW1 8837   0.833   2.374   6.451
 2646SOL    HW2 8838   0.946   2.470   6.518
 2647SOL     OW 8839   4.172   6.396   2.874
 2647SOL    HW1 8840   4.205   6.468   2.813
 2647SOL    HW2 8841   4.250   6.351   2.917
 2648SOL     OW 8842   1.528   0.298   5.984
 2648SOL    HW1 8843   1.618   0.340   5.996
 2648SOL    HW2 8844   1.479   0.298   6.071
 2649SOL     OW 8845   5.321   1.837   3.395
 2649SOL    HW1 8846   5.322   1.769   3.322
 2649SOL    HW2 8847   5.342   1.927   3.358
 2650SOL     OW 8848   2.169   0.092   3.911
 2650SOL    HW1 8849   2.155   0.124   3.817
 2650SOL    HW2 8850   2.081   0.063   3.949
 2651SOL     OW 8851   4.387   2.017   4.031
 2651SOL    HW1 8852   4.304   2.068   4.053
 2651SOL    HW2 8853   4.423   2.049   3.943
 2652SOL     OW 8854   5.122   3.902   5.431
 2652SOL    HW1 8855   5.187   3.967   5.470
 2652SOL    HW2 8856   5.063   3.949   5.365
 2653SOL     OW 8857   2.385   6.381   6.814
 2653SOL    HW1 8858   2.352   6.287   6.821
 2653SOL    HW2 8859   2.388   6.409   6.719
 2654SOL     OW 8860   0.135   1.192   0.896
 2654SOL    HW1 8861   0.154   1.287   0.918
 2654SOL    HW2 8862   0.162   1.133   0.972
 2655SOL     OW 8863   5.643   6.151   2.731
 2655SOL    HW1 8864   5.608   6.113   2.645
 2655SOL    HW2 8865   5.712   6.220   2.712
 2656SOL     OW 8866   4.602   5.898   4.100
 2656SOL    HW1 8867   4.527   5.853   4.051
 2656SOL    HW2 8868   4.610   5.992   4.069
 2657SOL     OW 8869   1.353   3.271   6.767
 2657SOL    HW1 8870   1.409   3.333   6.712
 2657SOL    HW2 8871   1.337   3.312   6.857
 2658SOL     OW 8872   3.455   4.920   0.110
 2658SOL    HW1 8873   3.413   4.938   0.021
 2658SOL    HW2 8874   3.438   4.997   0.171
 2659SOL     OW 8875   0.050   1.810   5.434
 2659SOL    HW1 8876   0.003   1.755   5.502
 2659SOL    HW2 8877   0.149   1.799   5.445
 2660SOL     OW 8878   0.651   1.219   1.211
 2660SOL    HW1 8879   0.749   1.231   1.193
 2660SOL    HW2 8880   0.618   1.136   1.165
 2661SOL     OW 8881   1.560   0.884   1.576
 2661SOL    HW1 8882   1.471   0.839   1.582
 2661SOL    HW2 8883   1.633   0.816   1.583
 2662SOL     OW 8884   2.545   1.596   1.833
 2662SOL    HW1 8885   2.611   1.643   1.774
 2662SOL    HW2 8886   2.588   1.578   1.922
 2663SOL     OW 8887   3.682   0.325   0.520
 2663SOL    HW1 8888   3.683   0.420   0.550
 2663SOL    HW2 8889   3.630   0.317   0.435
 2664SOL     OW 8890   5.053   3.153   5.530
 2664SOL    HW1 8891   5.089   3.207   5.454
 2664SOL    HW2 8892   4.958   3.179   5.547
 2665SOL     OW 8893   1.759   2.791   3.824
 2665SOL    HW1 8894   1.738   2.775   3.728
 2665SOL    HW2 8895   1.826   2.864   3.832
 2666SOL     OW 8896   1.827   4.284   2.008
 2666SOL    HW1 8897   1.869   4.337   1.934
 2666SOL    HW2 8898   1.832   4.338   2.093
 2667SOL     OW 8899   6.668   2.941   4.716
 2667SOL    HW1 8900   6.678   2.906   4.809
 2667SOL    HW2 8901   6.654   3.040   4.719
 2668SOL     OW 8902   5.752   0.870   3.939
 2668SOL    HW1 8903   5.794   0.900   4.024
 2668SOL    HW2 8904   5.820   0.875   3.865
 2669SOL     OW 8905   2.532   0.912   1.689
 2669SOL    HW1 8906   2.480   0.972   1.628
 2669SOL    HW2 8907   2.529   0.819   1.654
 2670SOL     OW 8908   0.354   0.445   7.022
 2670SOL    HW1 8909   0.443   0.479   6.992
 2670SOL    HW2 8910   0.366   0.360   0.050
 2671SOL     OW 8911   5.435   4.601   5.880
 2671SOL    HW1 8912   5.420   4.692   5.843
 2671SOL    HW2 8913   5.387   4.533   5.824
 2672SOL     OW 8914   2.482   1.370   2.573
 2672SOL    HW1 8915   2.579   1.354   2.554
 2672SOL    HW2 8916   2.431   1.286   2.556
 2673SOL     OW 8917   3.335   6.908   2.789
 2673SOL    HW1 8918   3.370   6.899   2.882
 2673SOL    HW2 8919   3.354   6.824   2.738
 2674SOL     OW 8920   6.874   5.612   3.128
 2674SOL    HW1 8921   6.869   5.535   3.191
 2674SOL    HW2 8922   6.787   5.661   3.129
 2675SOL     OW 8923   4.590   0.931   4.827
 2675SOL    HW1 8924   4.614   0.899   4.919
 2675SOL    HW2 8925   4.560   0.853   4.772
 2676SOL     OW 8926   4.004   3.646   4.231
 2676SOL    HW1 8927   4.063   3.573   4.196
 2676SOL    HW2 8928   4.029   3.732   4.188
 2677SOL     OW 8929   2.085   6.077   0.006
 2677SOL    HW1 8930   2.143   6.003   0.040
 2677SOL    HW2 8931   2.010   6.038   6.976
 2678SOL     OW 8932   3.436   1.713   2.511
 2678SOL    HW1 8933   3.517   1.669   2.472
 2678SOL    HW2 8934   3.425   1.683   2.606
 2679SOL     OW 8935   1.803   3.626   2.479
 2679SOL    HW1 8936   1.819   3.546   2.420
 2679SOL    HW2 8937   1.727   3.680   2.442
 2680SOL     OW 8938   5.512   2.397   6.889
 2680SOL    HW1 8939   5.592   2.441   6.849
 2680SOL    HW2 8940   5.523   2.393   6.989
 2681SOL     OW 8941   2.517   1.977   3.675
 2681SOL    HW1 8942   2.467   2.058   3.707
 2681SOL    HW2 8943   2.519   1.908   3.747
 2682SOL     OW 8944   3.408   3.824   1.916
 2682SOL    HW1 8945   3.387   3.897   1.851
 2682SOL    HW2 8946   3.485   3.852   1.973
 2683SOL     OW 8947   2.127   4.127   1.441
 2683SOL    HW1 8948   2.206   4.150   1.499
 2683SOL    HW2 8949   2.045   4.170   1.478
 2684SOL     OW 8950   6.225   0.850   3.649
 2684SOL    HW1 8951   6.275   0.798   3.580
 2684SOL    HW2 8952   6.285   0.867   3.728
 2685SOL     OW 8953   1.077   6.827   5.729
 2685SOL    HW1 8954   1.124   6.838   5.641
 2685SOL    HW2 8955   0.990   6.779   5.715
 2686SOL     OW 8956   1.403   1.097   5.745
 2686SOL    HW1 8957   1.305   1.114   5.733
 2686SOL    HW2 8958   1.446   1.083   5.655
 2687SOL     OW 8959   4.472   1.805   1.315
 2687SOL    HW1 8960   4.388   1.847   1.349
 2687SOL    HW2 8961   4.550   1.862   1.343
 2688SOL     OW 8962   3.803   2.594   6.878
 2688SOL    HW1 8963   3.772   2.625   6.788
 2688SOL    HW2 8964   3.726   2.555   6.928
 2689SOL     OW 8965   0.497   3.748   2.782
 2689SOL    HW1 8966   0.552   3.779   2.861
 2689SOL    HW2 8967   0.555   3.694   2.721
 2690SOL     OW 8968   5.418   1.258   5.148
 2690SOL    HW1 8969   5.351   1.330   5.129
 2690SOL    HW2 8970   5.503   1.278   5.099
 2691SOL     OW 8971   0.026   3.761   4.932
 2691SOL    HW1 8972   0.059   3.682   4.985
 2691SOL    HW2 8973   0.006   3.837   4.995
 2692SOL     OW 8974   2.628   5.464   1.948
 2692SOL    HW1 8975   2.604   5.383   2.001
 2692SOL    HW2 8976   2.580   5.461   1.860
 2693SOL     OW 8977   0.996   5.194   2.683
 2693SOL    HW1 8978   1.035   5.226   2.770
 2693SOL    HW2 8979   1.034   5.104   2.661
 2694SOL     OW 8980   2.437   0.394   2.259
 2694SOL    HW1 8981   2.355   0.364   2.307
 2694SOL    HW2 8982   2.498   0.316   2.245
 2695SOL     OW 8983   6.843   4.956   3.262
 2695SOL    HW1 8984   6.778   5.031   3.251
 2695SOL    HW2 8985   6.794   4.874   3.292
 2696SOL     OW 8986   4.376   4.807   6.517
 2696SOL    HW1 8987   4.394   4.719   6.474
 2696SOL    HW2 8988   4.376   4.796   6.616
 2697SOL     OW 8989   3.875   2.127   0.290
 2697SOL    HW1 8990   3.806   2.113   0.219
 2697SOL    HW2 8991   3.958   2.164   0.249
 2698SOL     OW 8992   1.291   5.762   6.199
 2698SOL    HW1 8993   1.242   5.705   6.133
 2698SOL    HW2 8994   1.375   5.716   6.226
 2699SOL     OW 8995   2.623   6.794   2.240
 2699SOL    HW1 8996   2.531   6.798   2.278
 2699SOL    HW2 8997   2.633   6.713   2.184
 2700SOL     OW 8998   4.353   1.915   1.641
 2700SOL    HW1 8999   4.338   1.929   1.543
 2700SOL    HW2 9000   4.286   1.849   1.676
 2701SOL     OW 9001   5.108   3.772   5.686
 2701SOL    HW1 9002   5.181   3.799   5.750
 2701SOL    HW2 9003   5.132   3.802   5.594
 2702SOL     OW 9004   2.624   1.204   4.868
 2702SOL    HW1 9005   2.706   1.255   4.894
 2702SOL    HW2 9006   2.647   1.107   4.856
 2703SOL     OW 9007   2.124   6.198   2.981
 2703SOL    HW1 9008   2.220   6.171   2.993
 2703SOL    HW2 9009   2.086   6.226   3.070
 2704SOL     OW 9010   4.502   0.442   3.401
 2704SOL    HW1 9011   4.493   0.459   3.499
 2704SOL    HW2 9012   4.422   0.475   3.353
 2705SOL     OW 9013   1.936   0.345   5.249
 2705SOL    HW1 9014   1.882   0.263   5.271
 2705SOL    HW2 9015   1.879   0.409   5.197
 2706SOL     OW 9016   7.011   4.414   4.176
 2706SOL    HW1 9017   0.032   4.494   4.135
 2706SOL    HW2 9018   0.036   4.331   4.149
 2707SOL     OW 9019   4.607   1.075   3.667
 2707SOL    HW1 9020   4.660   1.060   3.584
 2707SOL    HW2 9021   4.554   1.160   3.657
 2708SOL     OW 9022   4.883   3.498   5.761
 2708SOL    HW1 9023   4.852   3.514   5.855
 2708SOL    HW2 9024   4.979   3.471   5.762
 2709SOL     OW 9025   5.190   1.409   5.587
 2709SOL    HW1 9026   5.123   1.478   5.561
 2709SOL    HW2 9027   5.275   1.423   5.536
 2710SOL     OW 9028   1.296   2.423   4.081
 2710SOL    HW1 9029   1.376   2.414   4.021
 2710SOL    HW2 9030   1.323   2.463   4.168
 2711SOL     OW 9031   4.487   0.568   1.795
 2711SOL    HW1 9032   4.412   0.505   1.775
 2711SOL    HW2 9033   4.560   0.555   1.728
 2712SOL     OW 9034   5.901   6.064   1.456
 2712SOL    HW1 9035   5.852   5.978   1.441
 2712SOL    HW2 9036   5.879   6.128   1.382
 2713SOL     OW 9037   4.004   5.256   5.802
 2713SOL    HW1 9038   4.097   5.261   5.765
 2713SOL    HW2 9039   3.941   5.228   5.730
 2714SOL     OW 9040   3.159   4.273   5.784
 2714SOL    HW1 9041   3.165   4.313   5.693
 2714SOL    HW2 9042   3.245   4.227   5.806
 2715SOL     OW 9043   4.988   6.151   6.666
 2715SOL    HW1 9044   5.001   6.218   6.739
 2715SOL    HW2 9045   4.897   6.110   6.675
 2716SOL     OW 9046   4.228   0.660   2.996
 2716SOL    HW1 9047   4.269   0.751   3.002
 2716SOL    HW2 9048   4.296   0.595   2.961
 2717SOL     OW 9049   0.865   2.218   2.335
 2717SOL    HW1 9050   0.815   2.297   2.300
 2717SOL    HW2 9051   0.863   2.220   2.435
 2718SOL     OW 9052   6.251   1.251   6.034
 2718SOL    HW1 9053   6.284   1.325   5.975
 2718SOL    HW2 9054   6.158   1.226   6.006
 2719SOL     OW 9055   1.453   4.833   3.431
 2719SOL    HW1 9056   1.353   4.833   3.425
 2719SOL    HW2 9057   1.480   4.830   3.527
 2720SOL     OW 9058   2.243   5.824   6.299
 2720SOL    HW1 9059   2.215   5.919   6.288
 2720SOL    HW2 9060   2.337   5.820   6.332
 2721SOL     OW 9061   2.123   0.041   2.572
 2721SOL    HW1 9062   2.192   0.007   2.636
 2721SOL    HW2 9063   2.113   6.999   2.497
 2722SOL     OW 9064   3.392   4.623   6.395
 2722SOL    HW1 9065   3.367   4.612   6.491
 2722SOL    HW2 9066   3.491   4.613   6.386
 2723SOL     OW 9067   4.193   5.712   6.417
 2723SOL    HW1 9068   4.274   5.740   6.468
 2723SOL    HW2 9069   4.221   5.660   6.336
 2724SOL     OW 9070   6.808   5.736   1.723
 2724SOL    HW1 9071   6.796   5.696   1.632
 2724SOL    HW2 9072   6.724   5.783   1.750
 2725SOL     OW 9073   5.892   4.763   3.221
 2725SOL    HW1 9074   5.896   4.700   3.143
 2725SOL    HW2 9075   5.845   4.719   3.297
 2726SOL     OW 9076   6.466   2.045   2.754
 2726SOL    HW1 9077   6.462   2.092   2.666
 2726SOL    HW2 9078   6.537   2.086   2.811
 2727SOL     OW 9079   1.607   5.420   3.351
 2727SOL    HW1 9080   1.642   5.345   3.294
 2727SOL    HW2 9081   1.510   5.404   3.370
 2728SOL     OW 9082   4.902   5.694   5.731
 2728SOL    HW1 9083   4.802   5.686   5.732
 2728SOL    HW2 9084   4.940   5.631   5.663
 2729SOL     OW 9085   6.448   0.048   0.263
 2729SOL    HW1 9086   6.547   0.041   0.253
 2729SOL    HW2 9087   6.427   0.083   0.355
 2730SOL     OW 9088   1.327   5.862   2.395
 2730SOL    HW1 9089   1.259   5.858   2.469
 2730SOL    HW2 9090   1.337   5.771   2.355
 2731SOL     OW 9091   3.500   4.176   4.913
 2731SOL    HW1 9092   3.492   4.218   5.003
 2731SOL    HW2 9093   3.412   4.138   4.885
 2732SOL     OW 9094   4.762   0.483   1.797
 2732SOL    HW1 9095   4.741   0.446   1.706
 2732SOL    HW2 9096   4.701   0.443   1.864
 2733SOL     OW 9097   0.808   6.799   0.398
 2733SOL    HW1 9098   0.804   6.829   0.303
 2733SOL    HW2 9099   0.726   6.746   0.420
 2734SOL     OW 9100   3.461   6.416   2.545
 2734SOL    HW1 9101   3.399   6.339   2.557
 2734SOL    HW2 9102   3.408   6.501   2.540
 2735SOL     OW 9103   1.001   2.033   2.205
 2735SOL    HW1 9104   0.946   2.108   2.241
 2735SOL    HW2 9105   1.000   1.956   2.269
 2736SOL     OW 9106   5.793   3.785   2.477
 2736SOL    HW1 9107   5.874   3.735   2.507
 2736SOL    HW2 9108   5.748   3.735   2.403
 2737SOL     OW 9109   2.919   0.787   5.318
 2737SOL    HW1 9110   2.856   0.773   5.394
 2737SOL    HW2 9111   2.892   0.868   5.266
 2738SOL     OW 9112   5.070   6.081   0.876
 2738SOL    HW1 9113   5.025   5.996   0.847
 2738SOL    HW2 9114   5.043   6.102   0.970
 2739SOL     OW 9115   6.846   5.839   1.300
 2739SOL    HW1 9116   6.905   5.888   1.364
 2739SOL    HW2 9117   6.784   5.779   1.351
 2740SOL     OW 9118   0.119   4.993   3.908
 2740SOL    HW1 9119   0.036   4.938   3.914
 2740SOL    HW2 9120   0.190   4.942   3.860
 2741SOL     OW 9121   1.392   6.850   5.948
 2741SOL    HW1 9122   1.448   6.767   5.952
 2741SOL    HW2 9123   1.451   6.930   5.950
 2742SOL     OW 9124   2.939   5.254   3.152
 2742SOL    HW1 9125   2.873   5.219   3.218
 2742SOL    HW2 9126   3.009   5.185   3.134
 2743SOL     OW 9127   5.176   1.768   2.884
 2743SOL    HW1 9128   5.140   1.807   2.969
 2743SOL    HW2 9129   5.168   1.668   2.887
 2744SOL     OW 9130   3.443   4.112   1.984
 2744SOL    HW1 9131   3.350   4.116   1.947
 2744SOL    HW2 9132   3.440   4.074   2.076
 2745SOL     OW 9133   0.643   5.899   0.207
 2745SOL    HW1 9134   0.614   5.812   0.248
 2745SOL    HW2 9135   0.733   5.887   0.165
 2746SOL     OW 9136   1.652   1.019   3.806
 2746SOL    HW1 9137   1.597   1.014   3.890
 2746SOL    HW2 9138   1.743   0.982   3.825
 2747SOL     OW 9139   4.527   4.631   0.293
 2747SOL    HW1 9140   4.498   4.583   0.210
 2747SOL    HW2 9141   4.449   4.679   0.333
 2748SOL     OW 9142   4.086   0.487   1.184
 2748SOL    HW1 9143   4.006   0.449   1.138
 2748SOL    HW2 9144   4.084   0.461   1.280
 2749SOL     OW 9145   3.485   1.228   0.875
 2749SOL    HW1 9146   3.397   1.270   0.896
 2749SOL    HW2 9147   3.540   1.293   0.822
 2750SOL     OW 9148   2.990   5.722   3.233
 2750SOL    HW1 9149   3.041   5.677   3.160
 2750SOL    HW2 9150   2.892   5.704   3.220
 2751SOL     OW 9151   5.868   4.607   1.179
 2751SOL    HW1 9152   5.769   4.594   1.184
 2751SOL    HW2 9153   5.889   4.671   1.105
 2752SOL     OW 9154   4.115   5.533   6.748
 2752SOL    HW1 9155   4.052   5.573   6.681
 2752SOL    HW2 9156   4.109   5.584   6.834
 2753SOL     OW 9157   5.918   5.406   5.590
 2753SOL    HW1 9158   5.913   5.388   5.689
 2753SOL    HW2 9159   6.002   5.365   5.554
 2754SOL     OW 9160   1.338   0.441   5.661
 2754SOL    HW1 9161   1.273   0.439   5.736
 2754SOL    HW2 9162   1.423   0.398   5.689
 2755SOL     OW 9163   3.233   0.114   2.499
 2755SOL    HW1 9164   3.317   0.107   2.446
 2755SOL    HW2 9165   3.169   0.176   2.452
 2756SOL     OW 9166   4.352   5.786   6.970
 2756SOL    HW1 9167   4.428   5.784   0.011
 2756SOL    HW2 9168   4.373   5.727   6.892
 2757SOL     OW 9169   0.580   5.061   0.756
 2757SOL    HW1 9170   0.623   4.975   0.727
 2757SOL    HW2 9171   0.647   5.118   0.803
 2758SOL     OW 9172   5.352   0.726   5.009
 2758SOL    HW1 9173   5.366   0.820   5.040
 2758SOL    HW2 9174   5.269   0.689   5.052
 2759SOL     OW 9175   4.619   5.112   4.072
 2759SOL    HW1 9176   4.589   5.195   4.119
 2759SOL    HW2 9177   4.571   5.033   4.109
 2760SOL     OW 9178   0.916   6.424   3.669
 2760SOL    HW1 9179   0.949   6.369   3.592
 2760SOL    HW2 9180   0.990   6.483   3.701
 2761SOL     OW 9181   2.430   5.132   4.255
 2761SOL    HW1 9182   2.523   5.117   4.289
 2761SOL    HW2 9183   2.377   5.182   4.324
 2762SOL     OW 9184   2.050   1.356   5.230
 2762SOL    HW1 9185   1.985   1.336   5.303
 2762SOL    HW2 9186   2.141   1.372   5.268
 2763SOL     OW 9187   5.317   0.902   2.364
 2763SOL    HW1 9188   5.311   0.810   2.403
 2763SOL    HW2 9189   5.253   0.963   2.412
 2764SOL     OW 9190   5.790   0.431   1.573
 2764SOL    HW1 9191   5.703   0.397   1.611
 2764SOL    HW2 9192   5.776   0.519   1.529
 2765SOL     OW 9193   5.113   2.379   3.167
 2765SOL    HW1 9194   5.037   2.437   3.140
 2765SOL    HW2 9195   5.093   2.284   3.142
 2766SOL     OW 9196   5.626   0.120   2.621
 2766SOL    HW1 9197   5.718   0.123   2.659
 2766SOL    HW2 9198   5.608   0.030   2.581
 2767SOL     OW 9199   6.223   4.282   5.768
 2767SOL    HW1 9200   6.307   4.330   5.793
 2767SOL    HW2 9201   6.224   4.262   5.670
 2768SOL     OW 9202   6.127   1.452   6.673
 2768SOL    HW1 9203   6.029   1.452   6.696
 2768SOL    HW2 9204   6.170   1.372   6.716
 2769SOL     OW 9205   0.817   4.510   0.996
 2769SOL    HW1 9206   0.753   4.563   0.941
 2769SOL    HW2 9207   0.811   4.538   1.092
 2770SOL     OW 9208   5.862   5.982   2.253
 2770SOL    HW1 9209   5.871   6.064   2.309
 2770SOL    HW2 9210   5.940   5.921   2.268
 2771SOL     OW 9211   4.796   0.952   1.433
 2771SOL    HW1 9212   4.754   0.996   1.512
 2771SOL    HW2 9213   4.827   0.860   1.458
 2772SOL     OW 9214   3.535   1.953   6.949
 2772SOL    HW1 9215   3.471   1.896   6.898
 2772SOL    HW2 9216   3.623   1.956   6.902
 2773SOL     OW 9217   2.850   5.038   0.788
 2773SOL    HW1 9218   2.869   5.010   0.882
 2773SOL    HW2 9219   2.752   5.029   0.770
 2774SOL     OW 9220   5.476   2.946   2.107
 2774SOL    HW1 9221   5.470   2.927   2.009
 2774SOL    HW2 9222   5.504   3.041   2.122
 2775SOL     OW 9223   0.118   0.106   1.887
 2775SOL    HW1 9224   0.040   0.126   1.828
 2775SOL    HW2 9225   0.134   0.184   1.949
 2776SOL     OW 9226   3.009   6.292   6.620
 2776SOL    HW1 9227   3.016   6.380   6.573
 2776SOL    HW2 9228   3.021   6.305   6.718
 2777SOL     OW 9229   2.000   2.071   3.788
 2777SOL    HW1 9230   2.056   2.043   3.866
 2777SOL    HW2 9231   2.037   2.156   3.749
 2778SOL     OW 9232   2.655   2.186   4.667
 2778SOL    HW1 9233   2.740   2.209   4.619
 2778SOL    HW2 9234   2.674   2.174   4.764
 2779SOL     OW 9235   6.429   1.599   1.208
 2779SOL    HW1 9236   6.387   1.613   1.298
 2779SOL    HW2 9237   6.449   1.687   1.166
 2780SOL     OW 9238   3.503   5.910   0.100
 2780SOL    HW1 9239   3.503   6.002   0.141
 2780SOL    HW2 9240   3.439   5.852   0.149
 2781SOL     OW 9241   4.877   4.327   6.599
 2781SOL    HW1 9242   4.888   4.420   6.634
 2781SOL    HW2 9243   4.902   4.324   6.503
 2782SOL     OW 9244   3.246   1.634   5.921
 2782SOL    HW1 9245   3.330   1.632   5.867
 2782SOL    HW2 9246   3.262   1.681   6.007
 2783SOL     OW 9247   0.215   3.880   5.957
 2783SOL    HW1 9248   0.292   3.882   6.021
 2783SOL    HW2 9249   0.190   3.973   5.931
 2784SOL     OW 9250   2.470   2.564   1.820
 2784SOL    HW1 9251   2.490   2.560   1.722
 2784SOL    HW2 9252   2.372   2.577   1.833
 2785SOL     OW 9253   6.093   1.279   2.035
 2785SOL    HW1 9254   6.127   1.373   2.035
 2785SOL    HW2 9255   6.155   1.220   1.984
 2786SOL     OW 9256   3.249   0.829   6.967
 2786SOL    HW1 9257   3.337   0.861   7.001
 2786SOL    HW2 9258   3.255   0.731   6.948
 2787SOL     OW 9259   2.078   3.599   6.111
 2787SOL    HW1 9260   2.123   3.641   6.032
 2787SOL    HW2 9261   1.996   3.652   6.134
 2788SOL     OW 9262   0.054   3.651   6.766
 2788SOL    HW1 9263   0.110   3.601   6.832
 2788SOL    HW2 9264   0.007   3.726   6.813
 2789SOL     OW 9265   0.456   2.763   4.108
 2789SOL    HW1 9266   0.415   2.676   4.079
 2789SOL    HW2 9267   0.521   2.746   4.182
 2790SOL     OW 9268   3.449   6.364   4.374
 2790SOL    HW1 9269   3.488   6.342   4.463
 2790SOL    HW2 9270   3.522   6.361   4.305
 2791SOL     OW 9271   1.746   3.856   2.866
 2791SOL    HW1 9272   1.766   3.944   2.909
 2791SOL    HW2 9273   1.705   3.795   2.933
 2792SOL     OW 9274   1.091   2.508   4.930
 2792SOL    HW1 9275   1.099   2.525   5.028
 2792SOL    HW2 9276   1.010   2.451   4.913
 2793SOL     OW 9277   4.542   0.554   4.418
 2793SOL    HW1 9278   4.586   0.574   4.331
 2793SOL    HW2 9279   4.532   0.455   4.428
 2794SOL     OW 9280   0.874   1.680   1.563
 2794SOL    HW1 9281   0.915   1.729   1.486
 2794SOL    HW2 9282   0.885   1.735   1.647
 2795SOL     OW 9283   1.427   4.242   1.568
 2795SOL    HW1 9284   1.447   4.299   1.488
 2795SOL    HW2 9285   1.350   4.282   1.618
 2796SOL     OW 9286   5.128   4.085   2.356
 2796SOL    HW1 9287   5.168   4.017   2.294
 2796SOL    HW2 9288   5.055   4.043   2.409
 2797SOL     OW 9289   4.600   4.435   4.850
 2797SOL    HW1 9290   4.504   4.438   4.874
 2797SOL    HW2 9291   4.651   4.501   4.905
 2798SOL     OW 9292   1.802   3.617   3.608
 2798SOL    HW1 9293   1.897   3.625   3.638
 2798SOL    HW2 9294   1.745   3.591   3.686
 2799SOL     OW 9295   6.489   5.991   5.816
 2799SOL    HW1 9296   6.471   6.035   5.904
 2799SOL    HW2 9297   6.565   5.927   5.825
 2800SOL     OW 9298   2.689   1.639   6.609
 2800SOL    HW1 9299   2.601   1.613   6.568
 2800SOL    HW2 9300   2.684   1.627   6.708
 2801SOL     OW 9301   3.921   5.441   2.612
 2801SOL    HW1 9302   3.985   5.435   2.688
 2801SOL    HW2 9303   3.827   5.446   2.648
 2802SOL     OW 9304   6.226   0.535   6.185
 2802SOL    HW1 9305   6.131   0.511   6.163
 2802SOL    HW2 9306   6.233   0.634   6.195
 2803SOL     OW 9307   2.149   5.775   5.814
 2803SOL    HW1 9308   2.185   5.733   5.731
 2803SOL    HW2 9309   2.224   5.803   5.873
 2804SOL     OW 9310   0.267   4.720   2.232
 2804SOL    HW1 9311   0.218   4.766   2.158
 2804SOL    HW2 9312   0.341   4.665   2.195
 2805SOL     OW 9313   5.375   3.610   6.787
 2805SOL    HW1 9314   5.326   3.652   6.711
 2805SOL    HW2 9315   5.351   3.656   6.872
 2806SOL     OW 9316   6.639   5.458   2.576
 2806SOL    HW1 9317   6.547   5.430   2.602
 2806SOL    HW2 9318   6.684   5.382   2.528
 2807SOL     OW 9319   4.022   4.858   3.988
 2807SOL    HW1 9320   4.077   4.893   4.063
 2807SOL    HW2 9321   3.925   4.868   4.011
 2808SOL     OW 9322   4.460   5.974   4.408
 2808SOL    HW1 9323   4.459   5.951   4.505
 2808SOL    HW2 9324   4.508   6.062   4.395
 2809SOL     OW 9325   5.499   2.833   0.404
 2809SOL    HW1 9326   5.561   2.761   0.435
 2809SOL    HW2 9327   5.412   2.792   0.375
 2810SOL     OW 9328   1.424   0.888   6.113
 2810SOL    HW1 9329   1.408   0.856   6.019
 2810SOL    HW2 9330   1.398   0.984   6.120
 2811SOL     OW 9331   6.946   0.998   3.882
 2811SOL    HW1 9332   6.953   0.949   3.969
 2811SOL    HW2 9333   0.015   1.013   3.846
 2812SOL     OW 9334   4.678   4.364   2.512
 2812SOL    HW1 9335   4.663   4.289   2.447
 2812SOL    HW2 9336   4.614   4.438   2.493
 2813SOL     OW 9337   6.261   1.940   6.349
 2813SOL    HW1 9338   6.236   1.905   6.439
 2813SOL    HW2 9339   6.348   1.900   6.320
 2814SOL     OW 9340   5.603   4.402   4.722
 2814SOL    HW1 9341   5.590   4.494   4.758
 2814SOL    HW2 9342   5.536   4.384   4.649
 2815SOL     OW 9343   0.094   0.973   4.482
 2815SOL    HW1 9344   0.059   0.936   4.568
 2815SOL    HW2 9345   0.042   1.055   4.458
 2816SOL     OW 9346   5.407   6.395   2.885
 2816SOL    HW1 9347   5.396   6.345   2.799
 2816SOL    HW2 9348   5.443   6.333   2.956
 2817SOL     OW 9349   1.357   1.663   1.258
 2817SOL    HW1 9350   1.322   1.757   1.258
 2817SOL    HW2 9351   1.281   1.599   1.245
 2818SOL     OW 9352   0.659   3.301   6.778
 2818SOL    HW1 9353   0.756   3.314   6.760
 2818SOL    HW2 9354   0.606   3.367   6.724
 2819SOL     OW 9355   6.324   3.265   1.146
 2819SOL    HW1 9356   6.335   3.185   1.087
 2819SOL    HW2 9357   6.227   3.282   1.162
 2820SOL     OW 9358   5.413   2.663   3.855
 2820SOL    HW1 9359   5.468   2.580   3.844
 2820SOL    HW2 9360   5.474   2.743   3.861
 2821SOL     OW 9361   1.869   3.311   3.820
 2821SOL    HW1 9362   1.771   3.295   3.823
 2821SOL    HW2 9363   1.888   3.405   3.850
 2822SOL     OW 9364   3.188   1.832   0.822
 2822SOL    HW1 9365   3.230   1.744   0.847
 2822SOL    HW2 9366   3.122   1.818   0.747
 2823SOL     OW 9367   2.043   6.723   3.898
 2823SOL    HW1 9368   1.992   6.800   3.858
 2823SOL    HW2 9369   2.028   6.641   3.842
 2824SOL     OW 9370   2.859   2.194   5.488
 2824SOL    HW1 9371   2.925   2.121   5.473
 2824SOL    HW2 9372   2.902   2.282   5.473
 2825SOL     OW 9373   6.674   6.470   1.246
 2825SOL    HW1 9374   6.707   6.392   1.192
 2825SOL    HW2 9375   6.751   6.509   1.297
 2826SOL     OW 9376   4.946   3.058   4.397
 2826SOL    HW1 9377   4.961   2.993   4.322
 2826SOL    HW2 9378   4.922   3.148   4.359
 2827SOL     OW 9379   6.381   0.413   0.229
 2827SOL    HW1 9380   6.291   0.373   0.212
 2827SOL    HW2 9381   6.438   0.401   0.148
 2828SOL     OW 9382   3.793   2.062   6.887
 2828SOL    HW1 9383   3.845   2.105   6.813
 2828SOL    HW2 9384   3.759   2.132   6.950
 2829SOL     OW 9385   2.875   0.641   6.726
 2829SOL    HW1 9386   2.812   0.591   6.785
 2829SOL    HW2 9387   2.909   0.722   6.774
 2830SOL     OW 9388   3.293   3.631   6.722
 2830SOL    HW1 9389   3.270   3.721   6.685
 2830SOL    HW2 9390   3.241   3.615   6.806
 2831SOL     OW 9391   6.781   5.909   3.692
 2831SOL    HW1 9392   6.854   5.856   3.648
 2831SOL    HW2 9393   6.701   5.850   3.705
 2832SOL     OW 9394   0.590   1.307   1.976
 2832SOL    HW1 9395   0.661   1.377   1.971
 2832SOL    HW2 9396   0.528   1.328   2.052
 2833SOL     OW 9397   6.556   3.395   2.628
 2833SOL    HW1 9398   6.611   3.437   2.701
 2833SOL    HW2 9399   6.549   3.297   2.644
 2834SOL     OW 9400   4.443   0.643   5.685
 2834SOL    HW1 9401   4.406   0.550   5.690
 2834SOL    HW2 9402   4.389   0.703   5.744
 2835SOL     OW 9403   6.955   6.109   3.291
 2835SOL    HW1 9404   6.948   6.021   3.244
 2835SOL    HW2 9405   7.001   6.096   3.379
 2836SOL     OW 9406   6.271   0.678   0.695
 2836SOL    HW1 9407   6.234   0.670   0.602
 2836SOL    HW2 9408   6.242   0.598   0.748
 2837SOL     OW 9409   6.154   3.174   3.659
 2837SOL    HW1 9410   6.073   3.145   3.710
 2837SOL    HW2 9411   6.234   3.124   3.692
 2838SOL     OW 9412   2.021   4.300   3.980
 2838SOL    HW1 9413   2.114   4.327   4.005
 2838SOL    HW2 9414   1.955   4.362   4.025
 2839SOL     OW 9415   4.514   2.722   0.762
 2839SOL    HW1 9416   4.578   2.744   0.836
 2839SOL    HW2 9417   4.446   2.795   0.754
 2840SOL     OW 9418   6.366   2.995   4.964
 2840SOL    HW1 9419   6.422   3.074   4.937
 2840SOL    HW2 9420   6.355   2.934   4.886
 2841SOL     OW 9421   0.496   6.508   1.150
 2841SOL    HW1 9422   0.415   6.449   1.154
 2841SOL    HW2 9423   0.578   6.452   1.163
 2842SOL     OW 9424   5.780   3.143   2.698
 2842SOL    HW1 9425   5.752   3.130   2.793
 2842SOL    HW2 9426   5.800   3.054   2.657
 2843SOL     OW 9427   4.255   1.124   4.229
 2843SOL    HW1 9428   4.311   1.066   4.287
 2843SOL    HW2 9429   4.288   1.118   4.134
 2844SOL     OW 9430   0.818   4.064   5.908
 2844SOL    HW1 9431   0.738   4.114   5.942
 2844SOL    HW2 9432   0.828   4.080   5.810
 2845SOL     OW 9433   6.955   4.295   6.285
 2845SOL    HW1 9434   6.899   4.222   6.325
 2845SOL    HW2 9435   6.978   4.271   6.191
 2846SOL     OW 9436   5.036   1.159   5.953
 2846SOL    HW1 9437   5.022   1.066   5.919
 2846SOL    HW2 9438   4.965   1.181   6.020
 2847SOL     OW 9439   4.635   4.747   4.318
 2847SOL    HW1 9440   4.549   4.762   4.366
 2847SOL    HW2 9441   4.686   4.673   4.362
 2848SOL     OW 9442   2.016   6.563   5.558
 2848SOL    HW1 9443   1.965   6.478   5.569
 2848SOL    HW2 9444   2.113   6.543   5.545
 2849SOL     OW 9445   2.015   2.874   1.621
 2849SOL    HW1 9446   2.062   2.787   1.611
 2849SOL    HW2 9447   2.069   2.936   1.677
 2850SOL     OW 9448   3.926   1.218   0.854
 2850SOL    HW1 9449   3.883   1.271   0.927
 2850SOL    HW2 9450   3.901   1.121   0.865
 2851SOL     OW 9451   2.563   5.273   6.246
 2851SOL    HW1 9452   2.571   5.226   6.334
 2851SOL    HW2 9453   2.468   5.273   6.216
 2852SOL     OW 9454   0.347   2.776   6.397
 2852SOL    HW1 9455   0.311   2.683   6.389
 2852SOL    HW2 9456   0.447   2.774   6.395
 2853SOL     OW 9457   3.786   2.480   1.515
 2853SOL    HW1 9458   3.724   2.518   1.583
 2853SOL    HW2 9459   3.737   2.416   1.457
 2854SOL     OW 9460   0.996   1.234   3.463
 2854SOL    HW1 9461   0.913   1.202   3.509
 2854SOL    HW2 9462   1.051   1.154   3.435
 2855SOL     OW 9463   3.036   1.457   5.061
 2855SOL    HW1 9464   2.959   1.452   4.998
 2855SOL    HW2 9465   3.120   1.478   5.010
 2856SOL     OW 9466   2.306   1.934   5.260
 2856SOL    HW1 9467   2.216   1.956   5.297
 2856SOL    HW2 9468   2.298   1.919   5.161
 2857SOL     OW 9469   3.375   3.676   3.129
 2857SOL    HW1 9470   3.375   3.772   3.160
 2857SOL    HW2 9471   3.469   3.643   3.124
 2858SOL     OW 9472   5.333   2.388   3.002
 2858SOL    HW1 9473   5.309   2.328   2.926
 2858SOL    HW2 9474   5.251   2.413   3.053
 2859SOL     OW 9475   5.410   6.553   0.268
 2859SOL    HW1 9476   5.397   6.634   0.325
 2859SOL    HW2 9477   5.508   6.534   0.258
 2860SOL     OW 9478   4.216   2.231   1.007
 2860SOL    HW1 9479   4.175   2.206   1.094
 2860SOL    HW2 9480   4.262   2.319   1.015
 2861SOL     OW 9481   4.104   5.315   6.060
 2861SOL    HW1 9482   4.073   5.328   5.966
 2861SOL    HW2 9483   4.174   5.243   6.063
 2862SOL     OW 9484   6.608   6.723   3.998
 2862SOL    HW1 9485   6.663   6.779   4.060
 2862SOL    HW2 9486   6.575   6.780   3.922
 2863SOL     OW 9487   0.039   1.368   0.115
 2863SOL    HW1 9488   6.971   1.401   0.089
 2863SOL    HW2 9489   0.040   1.343   0.212
 2864SOL     OW 9490   3.787   1.581   0.638
 2864SOL    HW1 9491   3.792   1.551   0.543
 2864SOL    HW2 9492   3.863   1.642   0.658
 2865SOL     OW 9493   4.879   4.965   5.238
 2865SOL    HW1 9494   4.801   5.004   5.190
 2865SOL    HW2 9495   4.861   4.869   5.258
 2866SOL     OW 9496   0.215   7.003   6.387
 2866SOL    HW1 9497   0.142   0.018   6.445
 2866SOL    HW2 9498   0.176   6.971   6.301
 2867SOL     OW 9499   6.655   4.394   3.424
 2867SOL    HW1 9500   6.570   4.377   3.375
 2867SOL    HW2 9501   6.709   4.461   3.373
 2868SOL     OW 9502   1.756   5.383   4.810
 2868SOL    HW1 9503   1.849   5.416   4.831
 2868SOL    HW2 9504   1.694   5.461   4.805
 2869SOL     OW 9505   6.172   0.865   1.954
 2869SOL    HW1 9506   6.188   0.963   1.948
 2869SOL    HW2 9507   6.212   0.830   2.039
 2870SOL     OW 9508   4.631   2.121   2.465
 2870SOL    HW1 9509   4.586   2.058   2.402
 2870SOL    HW2 9510   4.593   2.213   2.454
 2871SOL     OW 9511   1.566   1.698   5.859
 2871SOL    HW1 9512   1.543   1.784   5.816
 2871SOL    HW2 9513   1.483   1.655   5.894
 2872SOL     OW 9514   1.769   6.403   3.795
 2872SOL    HW1 9515   1.867   6.386   3.806
 2872SOL    HW2 9516   1.745   6.488   3.841
 2873SOL     OW 9517   7.017   5.743   1.910
 2873SOL    HW1 9518   0.043   5.669   1.956
 2873SOL    HW2 9519   6.949   5.704   1.847
 2874SOL     OW 9520   5.559   1.410   2.467
 2874SOL    HW1 9521   5.470   1.365   2.478
 2874SOL    HW2 9522   5.607   1.370   2.388
 2875SOL     OW 9523   2.762   4.875   1.421
 2875SOL    HW1 9524   2.815   4.960   1.415
 2875SOL    HW2 9525   2.673   4.888   1.378
 2876SOL     OW 9526   6.936   2.122   2.168
 2876SOL    HW1 9527   6.949   2.155   2.075
 2876SOL    HW2 9528   6.987   2.181   2.231
 2877SOL     OW 9529   2.391   4.112   5.892
 2877SOL    HW1 9530   2.363   4.055   5.814
 2877SOL    HW2 9531   2.441   4.192   5.858
 2878SOL     OW 9532   3.337   5.019   0.510
 2878SOL    HW1 9533   3.271   5.066   0.569
 2878SOL    HW2 9534   3.428   5.057   0.526
 2879SOL     OW 9535   4.614   4.409   0.109
 2879SOL    HW1 9536   4.514   4.397   0.108
 2879SOL    HW2 9537   4.652   4.374   0.024
 2880SOL     OW 9538   1.425   0.037   1.836
 2880SOL    HW1 9539   1.365   6.981   1.832
 2880SOL    HW2 9540   1.464   0.046   1.928
 2881SOL     OW 9541   0.311   0.433   6.515
 2881SOL    HW1 9542   0.226   0.391   6.485
 2881SOL    HW2 9543   0.317   0.428   6.615
 2882SOL     OW 9544   6.673   3.294   3.490
 2882SOL    HW1 9545   6.625   3.284   3.402
 2882SOL    HW2 9546   6.743   3.223   3.498
 2883SOL     OW 9547   4.604   5.980   2.350
 2883SOL    HW1 9548   4.651   5.934   2.274
 2883SOL    HW2 9549   4.588   6.076   2.327
 2884SOL     OW 9550   1.551   6.047   2.745
 2884SOL    HW1 9551   1.629   6.053   2.807
 2884SOL    HW2 9552   1.582   6.058   2.651
 2885SOL     OW 9553   0.746   2.509   4.086
 2885SOL    HW1 9554   0.703   2.549   4.167
 2885SOL    HW2 9555   0.793   2.581   4.035
 2886SOL     OW 9556   2.653   3.078   6.192
 2886SOL    HW1 9557   2.695   3.027   6.267
 2886SOL    HW2 9558   2.657   3.023   6.108
 2887SOL     OW 9559   2.878   1.772   5.107
 2887SOL    HW1 9560   2.904   1.792   5.202
 2887SOL    HW2 9561   2.955   1.793   5.046
 2888SOL     OW 9562   6.746   4.954   0.136
 2888SOL    HW1 9563   6.740   4.976   0.233
 2888SOL    HW2 9564   6.692   5.020   0.083
 2889SOL     OW 9565   0.674   6.762   0.857
 2889SOL    HW1 9566   0.577   6.751   0.878
 2889SOL    HW2 9567   0.687   6.841   0.797
 2890SOL     OW 9568   2.934   0.472   0.657
 2890SOL    HW1 9569   2.901   0.554   0.610
 2890SOL    HW2 9570   3.034   0.478   0.667
 2891SOL     OW 9571   2.790   4.812   4.577
 2891SOL    HW1 9572   2.831   4.794   4.488
 2891SOL    HW2 9573   2.729   4.736   4.602
 2892SOL     OW 9574   4.435   4.185   5.305
 2892SOL    HW1 9575   4.379   4.252   5.257
 2892SOL    HW2 9576   4.399   4.093   5.289
 2893SOL     OW 9577   3.295   1.354   5.889
 2893SOL    HW1 9578   3.343   1.346   5.977
 2893SOL    HW2 9579   3.235   1.434   5.892
 2894SOL     OW 9580   3.369   2.604   1.303
 2894SOL    HW1 9581   3.375   2.602   1.403
 2894SOL    HW2 9582   3.405   2.519   1.265
 2895SOL     OW 9583   3.204   3.210   0.158
 2895SOL    HW1 9584   3.221   3.191   0.061
 2895SOL    HW2 9585   3.180   3.125   0.204
 2896SOL     OW 9586   2.129   5.252   1.017
 2896SOL    HW1 9587   2.033   5.230   1.002
 2896SOL    HW2 9588   2.176   5.259   0.929
 2897SOL     OW 9589   1.287   6.684   3.572
 2897SOL    HW1 9590   1.296   6.734   3.486
 2897SOL    HW2 9591   1.321   6.591   3.559
 2898SOL     OW 9592   2.484   4.479   2.798
 2898SOL    HW1 9593   2.541   4.517   2.725
 2898SOL    HW2 9594   2.409   4.426   2.758
 2899SOL     OW 9595   6.045   1.278   0.470
 2899SOL    HW1 9596   5.986   1.339   0.523
 2899SOL    HW2 9597   5.989   1.216   0.415
 2900SOL     OW 9598   3.165   5.574   6.537
 2900SOL    HW1 9599   3.138   5.629   6.459
 2900SOL    HW2 9600   3.241   5.514   6.511
 2901SOL     OW 9601   2.598   0.012   1.034
 2901SOL    HW1 9602   2.505   7.000   1.045
 2901SOL    HW2 9603   2.601   0.073   0.954
 2902SOL     OW 9604   5.564   5.095   0.888
 2902SOL    HW1 9605   5.508   5.039   0.949
 2902SOL    HW2 9606   5.590   5.041   0.807
 2903SOL     OW 9607   2.721   2.442   1.750
 2903SOL    HW1 9608   2.649   2.469   1.814
 2903SOL    HW2 9609   2.808   2.431   1.799
 2904SOL     OW 9610   2.283   2.559   4.240
 2904SOL    HW1 9611   2.345   2.573   4.316
 2904SOL    HW2 9612   2.301   2.627   4.169
 2905SOL     OW 9613   1.694   2.174   1.947
 2905SOL    HW1 9614   1.706   2.269   1.919
 2905SOL    HW2 9615   1.609   2.165   1.999
 2906SOL     OW 9616   5.269   5.435   2.122
 2906SOL    HW1 9617   5.266   5.436   2.222
 2906SOL    HW2 9618   5.180   5.462   2.086
 2907SOL     OW 9619   6.174   0.686   4.441
 2907SOL    HW1 9620   6.220   0.664   4.527
 2907SOL    HW2 9621   6.087   0.636   4.436
 2908SOL     OW 9622   3.953   6.209   5.202
 2908SOL    HW1 9623   3.918   6.117   5.185
 2908SOL    HW2 9624   3.996   6.212   5.293
 2909SOL     OW 9625   1.680   6.034   5.409
 2909SOL    HW1 9626   1.657   5.973   5.484
 2909SOL    HW2 9627   1.596   6.059   5.360
 2910SOL     OW 9628   4.944   6.293   5.426
 2910SOL    HW1 9629   4.994   6.368   5.382
 2910SOL    HW2 9630   4.949   6.305   5.526
 2911SOL     OW 9631   2.309   4.266   3.842
 2911SOL    HW1 9632   2.265   4.354   3.862
 2911SOL    HW2 9633   2.400   4.282   3.804
 2912SOL     OW 9634   2.726   5.283   0.639
 2912SOL    HW1 9635   2.786   5.350   0.682
 2912SOL    HW2 9636   2.769   5.193   0.641
 2913SOL     OW 9637   1.212   3.596   2.268
 2913SOL    HW1 9638   1.115   3.617   2.277
 2913SOL    HW2 9639   1.223   3.514   2.211
 2914SOL     OW 9640   5.379   4.807   5.684
 2914SOL    HW1 9641   5.390   4.906   5.675
 2914SOL    HW2 9642   5.356   4.768   5.594
 2915SOL     OW 9643   4.216   1.445   4.266
 2915SOL    HW1 9644   4.259   1.355   4.257
 2915SOL    HW2 9645   4.245   1.503   4.190
 2916SOL     OW 9646   4.566   5.946   4.803
 2916SOL    HW1 9647   4.608   5.942   4.712
 2916SOL    HW2 9648   4.479   5.898   4.801
 2917SOL     OW 9649   4.536   0.570   2.061
 2917SOL    HW1 9650   4.509   0.563   1.966
 2917SOL    HW2 9651   4.461   0.608   2.115
 2918SOL     OW 9652   0.382   3.276   4.214
 2918SOL    HW1 9653   0.476   3.295   4.242
 2918SOL    HW2 9654   0.319   3.301   4.288
 2919SOL     OW 9655   5.949   6.345   0.553
 2919SOL    HW1 9656   5.977   6.281   0.481
 2919SOL    HW2 9657   6.029   6.371   0.608
 2920SOL     OW 9658   4.524   2.032   2.718
 2920SOL    HW1 9659   4.544   2.124   2.753
 2920SOL    HW2 9660   4.586   2.011   2.643
 2921SOL     OW 9661   6.852   0.199   1.348
 2921SOL    HW1 9662   6.764   0.167   1.313
 2921SOL    HW2 9663   6.838   0.276   1.409
 2922SOL     OW 9664   4.563   6.444   5.218
 2922SOL    HW1 9665   4.640   6.442   5.154
 2922SOL    HW2 9666   4.597   6.468   5.310
 2923SOL     OW 9667   6.894   4.585   0.162
 2923SOL    HW1 9668   6.824   4.623   0.102
 2923SOL    HW2 9669   6.913   4.490   0.136
 2924SOL     OW 9670   6.199   0.137   5.842
 2924SOL    HW1 9671   6.265   0.196   5.888
 2924SOL    HW2 9672   6.166   0.067   5.905
 2925SOL     OW 9673   5.779   3.364   1.120
 2925SOL    HW1 9674   5.752   3.304   1.195
 2925SOL    HW2 9675   5.755   3.458   1.142
 2926SOL     OW 9676   6.977   1.219   3.630
 2926SOL    HW1 9677   6.979   1.319   3.621
 2926SOL    HW2 9678   6.893   1.184   3.589
 2927SOL     OW 9679   0.946   3.189   2.504
 2927SOL    HW1 9680   0.854   3.152   2.519
 2927SOL    HW2 9681   0.969   3.182   2.407
 2928SOL     OW 9682   5.380   5.822   1.279
 2928SOL    HW1 9683   5.419   5.784   1.364
 2928SOL    HW2 9684   5.454   5.861   1.224
 2929SOL     OW 9685   0.612   0.288   6.179
 2929SOL    HW1 9686   0.530   0.284   6.235
 2929SOL    HW2 9687   0.646   0.195   6.161
 2930SOL     OW 9688   3.211   6.512   4.208
 2930SOL    HW1 9689   3.155   6.587   4.174
 2930SOL    HW2 9690   3.167   6.471   4.288
 2931SOL     OW 9691   3.907   4.712   6.914
 2931SOL    HW1 9692   3.897   4.743   6.819
 2931SOL    HW2 9693   3.825   4.735   6.966
 2932SOL     OW 9694   1.413   4.663   2.028
 2932SOL    HW1 9695   1.442   4.755   2.054
 2932SOL    HW2 9696   1.471   4.596   2.073
 2933SOL     OW 9697   4.850   2.209   3.454
 2933SOL    HW1 9698   4.848   2.309   3.455
 2933SOL    HW2 9699   4.820   2.176   3.365
 2934SOL     OW 9700   2.067   1.047   0.672
 2934SOL    HW1 9701   2.152   1.007   0.707
 2934SOL    HW2 9702   1.997   1.041   0.742
 2935SOL     OW 9703   6.583   1.801   1.369
 2935SOL    HW1 9704   6.613   1.719   1.418
 2935SOL    HW2 9705   6.661   1.842   1.321
 2936SOL     OW 9706   3.264   5.634   0.624
 2936SOL    HW1 9707   3.185   5.679   0.665
 2936SOL    HW2 9708   3.286   5.677   0.536
 2937SOL     OW 9709   2.639   4.529   0.190
 2937SOL    HW1 9710   2.650   4.469   0.270
 2937SOL    HW2 9711   2.623   4.473   0.109
 2938SOL     OW 9712   5.506   4.738   5.316
 2938SOL    HW1 9713   5.569   4.743   5.394
 2938SOL    HW2 9714   5.485   4.830   5.284
 2939SOL     OW 9715   0.208   6.646   6.284
 2939SOL    HW1 9716   0.243   6.676   6.195
 2939SOL    HW2 9717   0.264   6.572   6.320
 2940SOL     OW 9718   3.994   0.205   5.199
 2940SOL    HW1 9719   4.052   0.134   5.160
 2940SOL    HW2 9720   3.904   0.167   5.220
 2941SOL     OW 9721   3.371   1.669   5.327
 2941SOL    HW1 9722   3.425   1.617   5.262
 2941SOL    HW2 9723   3.283   1.624   5.342
 2942SOL     OW 9724   3.757   6.450   4.518
 2942SOL    HW1 9725   3.699   6.528   4.498
 2942SOL    HW2 9726   3.847   6.481   4.550
 2943SOL     OW 9727   5.174   4.175   2.678
 2943SOL    HW1 9728   5.240   4.136   2.614
 2943SOL    HW2 9729   5.090   4.199   2.629
 2944SOL     OW 9730   4.538   6.258   7.006
 2944SOL    HW1 9731   4.522   6.335   0.045
 2944SOL    HW2 9732   4.451   6.223   6.972
 2945SOL     OW 9733   3.097   3.997   3.295
 2945SOL    HW1 9734   3.062   3.922   3.350
 2945SOL    HW2 9735   3.163   4.050   3.348
 2946SOL     OW 9736   0.262   6.026   6.037
 2946SOL    HW1 9737   0.215   6.085   6.103
 2946SOL    HW2 9738   0.232   5.931   6.050
 2947SOL     OW 9739   0.336   5.383   0.219
 2947SOL    HW1 9740   0.274   5.354   0.292
 2947SOL    HW2 9741   0.368   5.304   0.168
 2948SOL     OW 9742   5.678   3.890   5.529
 2948SOL    HW1 9743   5.643   3.984   5.522
 2948SOL    HW2 9744   5.634   3.833   5.459
 2949SOL     OW 9745   0.821   5.997   0.953
 2949SOL    HW1 9746   0.731   6.003   0.909
 2949SOL    HW2 9747   0.865   6.086   0.952
 2950SOL     OW 9748   4.980   3.554   4.672
 2950SOL    HW1 9749   5.071   3.574   4.636
 2950SOL    HW2 9750   4.939   3.638   4.707
 2951SOL     OW 9751   5.922   0.876   0.907
 2951SOL    HW1 9752   6.003   0.935   0.916
 2951SOL    HW2 9753   5.866   0.885   0.989
 2952SOL     OW 9754   1.084   3.920   1.807
 2952SOL    HW1 9755   1.046   3.854   1.871
 2952SOL    HW2 9756   1.163   3.966   1.848
 2953SOL     OW 9757   5.571   0.769   2.551
 2953SOL    HW1 9758   5.651   0.777   2.492
 2953SOL    HW2 9759   5.561   0.852   2.606
 2954SOL     OW 9760   6.056   5.979   1.089
 2954SOL    HW1 9761   5.997   6.056   1.114
 2954SOL    HW2 9762   6.139   6.015   1.045
 2955SOL     OW 9763   6.628   2.548   0.546
 2955SOL    HW1 9764   6.535   2.519   0.568
 2955SOL    HW2 9765   6.647   2.529   0.449
 2956SOL     OW 9766   6.605   5.159   2.896
 2956SOL    HW1 9767   6.531   5.093   2.912
 2956SOL    HW2 9768   6.567   5.250   2.883
 2957SOL     OW 9769   0.713   5.291   1.418
 2957SOL    HW1 9770   0.693   5.345   1.336
 2957SOL    HW2 9771   0.754   5.204   1.391
 2958SOL     OW 9772   3.605   4.996   6.878
 2958SOL    HW1 9773   3.664   4.922   6.912
 2958SOL    HW2 9774   3.517   4.957   6.850
 2959SOL     OW 9775   4.244   5.671   0.506
 2959SOL    HW1 9776   4.173   5.741   0.498
 2959SOL    HW2 9777   4.313   5.685   0.436
 2960SOL     OW 9778   2.827   1.549   6.960
 2960SOL    HW1 9779   2.740   1.550   6.910
 2960SOL    HW2 9780   2.831   1.467   7.017
 2961SOL     OW 9781   5.965   1.742   4.308
 2961SOL    HW1 9782   5.927   1.830   4.339
 2961SOL    HW2 9783   6.024   1.758   4.229
 2962SOL     OW 9784   4.049   0.849   2.828
 2962SOL    HW1 9785   4.096   0.926   2.871
 2962SOL    HW2 9786   4.090   0.763   2.859
 2963SOL     OW 9787   2.232   3.474   5.167
 2963SOL    HW1 9788   2.210   3.569   5.146
 2963SOL    HW2 9789   2.290   3.436   5.096
 2964SOL     OW 9790   2.849   6.303   0.172
 2964SOL    HW1 9791   2.907   6.225   0.148
 2964SOL    HW2 9792   2.876   6.383   0.119
 2965SOL     OW 9793   0.431   2.530   6.065
 2965SOL    HW1 9794   0.418   2.539   5.967
 2965SOL    HW2 9795   0.478   2.612   6.100
 2966SOL     OW 9796   4.954   4.521   3.463
 2966SOL    HW1 9797   4.860   4.486   3.463
 2966SOL    HW2 9798   4.952   4.621   3.467
 2967SOL     OW 9799   5.911   2.599   3.517
 2967SOL    HW1 9800   5.832   2.552   3.477
 2967SOL    HW2 9801   5.980   2.615   3.447
 2968SOL     OW 9802   6.375   3.643   3.551
 2968SOL    HW1 9803   6.425   3.727   3.528
 2968SOL    HW2 9804   6.441   3.569   3.566
 2969SOL     OW 9805   4.413   0.971   4.370
 2969SOL    HW1 9806   4.349   0.921   4.428
 2969SOL    HW2 9807   4.495   0.993   4.422
 2970SOL     OW 9808   0.996   4.652   6.295
 2970SOL    HW1 9809   0.951   4.738   6.270
 2970SOL    HW2 9810   1.030   4.658   6.388
 2971SOL     OW 9811   5.110   3.561   2.659
 2971SOL    HW1 9812   5.108   3.474   2.709
 2971SOL    HW2 9813   5.191   3.613   2.686
 2972SOL     OW 9814   0.982   4.352   5.826
 2972SOL    HW1 9815   0.982   4.433   5.768
 2972SOL    HW2 9816   0.940   4.276   5.777
 2973SOL     OW 9817   5.787   0.142   4.340
 2973SOL    HW1 9818   5.853   0.171   4.270
 2973SOL    HW2 9819   5.729   0.070   4.302
 2974SOL     OW 9820   0.195   4.101   2.102
 2974SOL    HW1 9821   0.212   4.200   2.107
 2974SOL    HW2 9822   0.162   4.068   2.190
 2975SOL     OW 9823   0.261   1.571   3.902
 2975SOL    HW1 9824   0.331   1.620   3.953
 2975SOL    HW2 9825   0.194   1.533   3.965
 2976SOL     OW 9826   2.451   6.586   1.705
 2976SOL    HW1 9827   2.536   6.634   1.683
 2976SOL    HW2 9828   2.470   6.489   1.720
 2977SOL     OW 9829   3.547   6.187   3.962
 2977SOL    HW1 9830   3.542   6.167   3.864
 2977SOL    HW2 9831   3.460   6.223   3.994
 2978SOL     OW 9832   3.883   0.003   6.880
 2978SOL    HW1 9833   3.929   0.017   6.792
 2978SOL    HW2 9834   3.892   6.930   6.906
 2979SOL     OW 9835   3.595   1.371   3.339
 2979SOL    HW1 9836   3.668   1.418   3.289
 2979SOL    HW2 9837   3.507   1.390   3.295
 2980SOL     OW 9838   6.604   6.066   4.023
 2980SOL    HW1 9839   6.583   5.999   3.952
 2980SOL    HW2 9840   6.520   6.111   4.052
 2981SOL     OW 9841   1.783   1.800   5.569
 2981SOL    HW1 9842   1.846   1.788   5.492
 2981SOL    HW2 9843   1.801   1.730   5.638
 2982SOL     OW 9844   5.062   6.313   2.590
 2982SOL    HW1 9845   5.159   6.305   2.610
 2982SOL    HW2 9846   5.046   6.391   2.529
 2983SOL     OW 9847   6.843   0.079   2.903
 2983SOL    HW1 9848   6.825   0.107   2.809
 2983SOL    HW2 9849   6.937   0.102   2.927
 2984SOL     OW 9850   5.579   4.733   1.730
 2984SOL    HW1 9851   5.553   4.819   1.686
 2984SOL    HW2 9852   5.506   4.666   1.716
 2985SOL     OW 9853   6.562   1.960   3.271
 2985SOL    HW1 9854   6.482   1.900   3.277
 2985SOL    HW2 9855   6.543   2.033   3.205
 2986SOL     OW 9856   2.300   3.833   5.341
 2986SOL    HW1 9857   2.357   3.906   5.305
 2986SOL    HW2 9858   2.266   3.777   5.264
 2987SOL     OW 9859   4.686   1.349   5.062
 2987SOL    HW1 9860   4.784   1.346   5.039
 2987SOL    HW2 9861   4.663   1.440   5.095
 2988SOL     OW 9862   0.561   6.627   1.913
 2988SOL    HW1 9863   0.465   6.602   1.900
 2988SOL    HW2 9864   0.616   6.545   1.929
 2989SOL     OW 9865   6.249   5.851   0.656
 2989SOL    HW1 9866   6.289   5.938   0.687
 2989SOL    HW2 9867   6.194   5.867   0.574
 2990SOL     OW 9868   3.194   0.988   1.461
 2990SOL    HW1 9869   3.216   1.081   1.431
 2990SOL    HW2 9870   3.096   0.972   1.452
 2991SOL     OW 9871   6.083   4.657   0.195
 2991SOL    HW1 9872   5.988   4.649   0.223
 2991SOL    HW2 9873   6.133   4.574   0.221
 2992SOL     OW 9874   4.592   4.463   6.698
 2992SOL    HW1 9875   4.639   4.377   6.677
 2992SOL    HW2 9876   4.504   4.443   6.741
 2993SOL     OW 9877   1.942   4.999   0.232
 2993SOL    HW1 9878   1.984   4.915   0.265
 2993SOL    HW2 9879   1.893   5.043   0.307
 2994SOL     OW 9880   4.037   6.365   6.982
 2994SOL    HW1 9881   3.984   6.308   0.020
 2994SOL    HW2 9882   3.986   6.449   6.963
 2995SOL     OW 9883   2.551   1.302   5.462
 2995SOL    HW1 9884   2.564   1.208   5.493
 2995SOL    HW2 9885   2.637   1.353   5.472
 2996SOL     OW 9886   4.054   5.824   5.828
 2996SOL    HW1 9887   3.970   5.795   5.872
 2996SOL    HW2 9888   4.065   5.775   5.742
 2997SOL     OW 9889   4.500   6.036   0.611
 2997SOL    HW1 9890   4.540   6.062   0.524
 2997SOL    HW2 9891   4.499   6.115   0.673
 2998SOL     OW 9892   5.979   5.281   5.145
 2998SOL    HW1 9893   5.973   5.198   5.201
 2998SOL    HW2 9894   6.049   5.341   5.184
 2999SOL     OW 9895   3.017   0.257   2.428
 2999SOL    HW1 9896   2.992   0.315   2.350
 2999SOL    HW2 9897   2.949   0.184   2.438
 3000SOL     OW 9898   1.147   2.077   4.449
 3000SOL    HW1 9899   1.227   2.096   4.506
 3000SOL    HW2 9900   1.176   2.033   4.364
 3001SOL     OW 9901   4.694   6.594   5.718
 3001SOL    HW1 9902   4.688   6.663   5.646
 3001SOL    HW2 9903   4.611   6.596   5.773
 3002SOL     OW 9904   3.039   0.877   5.848
 3002SOL    HW1 9905   3.058   0.855   5.944
 3002SOL    HW2 9906   3.017   0.975   5.841
 3003SOL     OW 9907   2.564   0.202   5.986
 3003SOL    HW1 9908   2.626   0.235   6.057
 3003SOL    HW2 9909   2.516   0.122   6.018
 3004SOL     OW 9910   6.418   3.255   5.337
 3004SOL    HW1 9911   6.369   3.321   5.394
 3004SOL    HW2 9912   6.391   3.267   5.242
 3005SOL     OW 9913   4.360   2.493   0.976
 3005SOL    HW1 9914   4.437   2.429   0.968
 3005SOL    HW2 9915   4.394   2.583   1.003
 3006SOL     OW 9916   4.897   0.224   1.081
 3006SOL    HW1 9917   4.927   0.186   0.994
 3006SOL    HW2 9918   4.828   0.165   1.122
 3007SOL     OW 9919   6.314   5.190   1.818
 3007SOL    HW1 9920   6.309   5.237   1.730
 3007SOL    HW2 9921   6.289   5.254   1.891
 3008SOL     OW 9922   5.072   5.943   5.547
 3008SOL    HW1 9923   5.043   5.847   5.542
 3008SOL    HW2 9924   5.134   5.955   5.624
 3009SOL     OW 9925   1.454   1.017   2.392
 3009SOL    HW1 9926   1.362   1.057   2.397
 3009SOL    HW2 9927   1.500   1.029   2.480
 3010SOL     OW 9928   2.819   6.708   2.852
 3010SOL    HW1 9929   2.752   6.654   2.802
 3010SOL    HW2 9930   2.851   6.783   2.794
 3011SOL     OW 9931   5.734   0.504   0.031
 3011SOL    HW1 9932   5.805   0.575   0.037
 3011SOL    HW2 9933   5.770   0.425   7.006
 3012SOL     OW 9934   6.923   4.389   1.999
 3012SOL    HW1 9935   6.867   4.328   1.943
 3012SOL    HW2 9936   6.916   4.483   1.964
 3013SOL     OW 9937   6.408   3.602   2.143
 3013SOL    HW1 9938   6.434   3.601   2.047
 3013SOL    HW2 9939   6.430   3.691   2.183
 3014SOL     OW 9940   5.214   0.135   4.905
 3014SOL    HW1 9941   5.236   0.213   4.847
 3014SOL    HW2 9942   5.124   0.147   4.946
 3015SOL     OW 9943   3.165   1.553   0.061
 3015SOL    HW1 9944   3.155   1.458   0.031
 3015SOL    HW2 9945   3.248   1.562   0.116
 3016SOL     OW 9946   3.924   6.089   3.438
 3016SOL    HW1 9947   3.901   5.994   3.456
 3016SOL    HW2 9948   3.962   6.097   3.346
 3017SOL     OW 9949   7.004   6.213   1.288
 3017SOL    HW1 9950   6.984   6.299   1.335
 3017SOL    HW2 9951   6.936   6.197   1.217
 3018SOL     OW 9952   3.824   7.013   6.117
 3018SOL    HW1 9953   3.901   0.004   6.055
 3018SOL    HW2 9954   3.853   6.953   6.192
 3019SOL     OW 9955   5.147   6.780   2.011
 3019SOL    HW1 9956   5.085   6.838   1.957
 3019SOL    HW2 9957   5.136   6.685   1.983
 3020SOL     OW 9958   2.335   0.841   1.448
 3020SOL    HW1 9959   2.329   0.844   1.349
 3020SOL    HW2 9960   2.409   0.779   1.475
 3021SOL     OW 9961   4.311   0.792   6.193
 3021SOL    HW1 9962   4.220   0.770   6.227
 3021SOL    HW2 9963   4.348   0.869   6.245
 3022SOL     OW 9964   6.410   0.204   2.185
 3022SOL    HW1 9965   6.420   0.108   2.209
 3022SOL    HW2 9966   6.488   0.233   2.129
 3023SOL     OW 9967   5.603   6.997   1.606
 3023SOL    HW1 9968   5.512   7.023   1.572
 3023SOL    HW2 9969   5.672   0.031   1.563
 3024SOL     OW 9970   3.208   0.030   6.359
 3024SOL    HW1 9971   3.124   0.084   6.368
 3024SOL    HW2 9972   3.280   0.070   6.416
 3025SOL     OW 9973   2.199   2.585   1.912
 3025SOL    HW1 9974   2.131   2.512   1.918
 3025SOL    HW2 9975   2.191   2.645   1.991
 3026SOL     OW 9976   2.226   5.581   0.066
 3026SOL    HW1 9977   2.289   5.514   0.026
 3026SOL    HW2 9978   2.275   5.668   0.080
 3027SOL     OW 9979   1.660   1.366   3.987
 3027SOL    HW1 9980   1.566   1.334   3.970
 3027SOL    HW2 9981   1.674   1.452   3.939
 3028SOL     OW 9982   1.235   0.768   4.287
 3028SOL    HW1 9983   1.179   0.769   4.205
 3028SOL    HW2 9984   1.258   0.862   4.314
 3029SOL     OW 9985   5.466   5.198   5.965
 3029SOL    HW1 9986   5.520   5.161   6.040
 3029SOL    HW2 9987   5.460   5.297   5.973
 3030SOL     OW 9988   1.130   1.419   5.647
 3030SOL    HW1 9989   1.099   1.366   5.568
 3030SOL    HW2 9990   1.228   1.407   5.659
 3031SOL     OW 9991   0.635   5.226   6.828
 3031SOL    HW1 9992   0.549   5.278   6.834
 3031SOL    HW2 9993   0.634   5.170   6.745
 3032SOL     OW 9994   3.788   0.013   5.245
 3032SOL    HW1 9995   3.818   7.004   5.334
 3032SOL    HW2 9996   3.703   6.991   5.219
 3033SOL     OW 9997   5.684   5.053   5.713
 3033SOL    HW1 9998   5.585   5.061   5.702
 3033SOL    HW2 9999   5.729   5.073   5.626
 3034SOL     OW10000   2.778   6.962   4.264
 3034SOL    HW110001   2.795   0.037   4.268
 3034SOL    HW210002   2.853   6.913   4.307
 3035SOL     OW10003   6.603   6.885   6.599
 3035SOL    HW110004   6.610   6.786   6.615
 3035SOL    HW210005   6.557   6.928   6.677
 3036SOL     OW10006   0.599   4.732   5.602
 3036SOL    HW110007   0.663   4.721   5.678
 3036SOL    HW210008   0.567   4.827   5.599
 3037SOL     OW10009   6.398   6.824   5.576
 3037SOL    HW110010   6.404   6.726   5.554
 3037SOL    HW210011   6.365   6.874   5.496
 3038SOL     OW10012   5.824   6.566   5.728
 3038SOL    HW110013   5.883   6.522   5.796
 3038SOL    HW210014   5.807   6.503   5.652
 3039SOL     OW10015   0.080   4.753   0.118
 3039SOL    HW110016   7.015   4.709   0.135
 3039SOL    HW210017   0.079   4.844   0.159
 3040SOL     OW10018   2.313   1.795   0.053
 3040SOL    HW110019   2.348   1.873   0.000
 3040SOL    HW210020   2.377   1.775   0.128
 3041SOL     OW10021   1.339   2.485   5.943
 3041SOL    HW110022   1.431   2.508   5.977
 3041SOL    HW210023   1.335   2.502   5.845
 3042SOL     OW10024   5.509   6.790   1.970
 3042SOL    HW110025   5.452   6.848   1.911
 3042SOL    HW210026   5.465   6.702   1.983
 3043SOL     OW10027   6.449   5.094   6.778
 3043SOL    HW110028   6.362   5.140   6.795
 3043SOL    HW210029   6.518   5.129   6.842
 3044SOL     OW10030   3.069   3.310   5.830
 3044SOL    HW110031   3.055   3.324   5.733
 3044SOL    HW210032   3.098   3.395   5.873
 3045SOL     OW10033   5.217   2.199   4.594
 3045SOL    HW110034   5.195   2.278   4.651
 3045SOL    HW210035   5.302   2.216   4.545
 3046SOL     OW10036   1.870   2.368   5.948
 3046SOL    HW110037   1.862   2.359   5.849
 3046SOL    HW210038   1.966   2.384   5.972
 3047SOL     OW10039   6.859   4.613   1.866
 3047SOL    HW110040   6.892   4.707   1.870
 3047SOL    HW210041   6.845   4.587   1.770
 3048SOL     OW10042   3.071   2.567   1.679
 3048SOL    HW110043   3.087   2.508   1.600
 3048SOL    HW210044   3.031   2.514   1.753
 3049SOL     OW10045   0.851   0.431   1.342
 3049SOL    HW110046   0.804   0.381   1.269
 3049SOL    HW210047   0.857   0.528   1.317
 3050SOL     OW10048   2.283   6.725   3.979
 3050SOL    HW110049   2.315   6.649   3.922
 3050SOL    HW210050   2.185   6.740   3.963
 3051SOL     OW10051   2.643   4.260   5.615
 3051SOL    HW110052   2.580   4.299   5.682
 3051SOL    HW210053   2.737   4.287   5.638
 3052SOL     OW10054   4.947   6.667   2.740
 3052SOL    HW110055   4.977   6.603   2.810
 3052SOL    HW210056   4.893   6.740   2.783
 3053SOL     OW10057   4.702   6.734   1.599
 3053SOL    HW110058   4.611   6.721   1.639
 3053SOL    HW210059   4.770   6.687   1.656
 3054SOL     OW10060   2.076   4.251   5.364
 3054SOL    HW110061   2.119   4.289   5.282
 3054SOL    HW210062   2.147   4.232   5.432
 3055SOL     OW10063   5.855   6.310   2.754
 3055SOL    HW110064   5.841   6.400   2.713
 3055SOL    HW210065   5.951   6.283   2.746
 3056SOL     OW10066   6.119   0.355   1.311
 3056SOL    HW110067   6.103   0.325   1.217
 3056SOL    HW210068   6.213   0.389   1.320
 3057SOL     OW10069   6.551   6.092   2.557
 3057SOL    HW110070   6.477   6.030   2.580
 3057SOL    HW210071   6.594   6.125   2.642
 3058SOL     OW10072   6.390   5.281   1.447
 3058SOL    HW110073   6.398   5.189   1.409
 3058SOL    HW210074   6.373   5.346   1.373
 3059SOL     OW10075   2.080   2.634   5.192
 3059SOL    HW110076   2.152   2.667   5.131
 3059SOL    HW210077   2.109   2.645   5.287
 3060SOL     OW10078   0.000   6.479   0.465
 3060SOL    HW110079   0.005   6.513   0.559
 3060SOL    HW210080   0.080   6.422   0.447
 3061SOL     OW10081   0.478   0.582   5.884
 3061SOL    HW110082   0.389   0.548   5.854
 3061SOL    HW210083   0.480   0.588   5.984
 3062SOL     OW10084   3.312   5.534   5.971
 3062SOL    HW110085   3.267   5.467   6.031
 3062SOL    HW210086   3.284   5.518   5.876
 3063SOL     OW10087   2.342   5.787   0.384
 3063SOL    HW110088   2.277   5.834   0.324
 3063SOL    HW210089   2.435   5.797   0.348
 3064SOL     OW10090   6.900   4.518   3.540
 3064SOL    HW110091   6.871   4.459   3.616
 3064SOL    HW210092   6.842   4.600   3.538
 3065SOL     OW10093   2.820   0.974   1.228
 3065SOL    HW110094   2.909   0.929   1.222
 3065SOL    HW210095   2.832   1.073   1.216
 3066SOL     OW10096   5.486   5.907   0.713
 3066SOL    HW110097   5.560   5.862   0.763
 3066SOL    HW210098   5.399   5.864   0.736
 3067SOL     OW10099   4.367   6.683   3.235
 3067SOL    HW110100   4.433   6.698   3.162
 3067SOL    HW210101   4.280   6.726   3.212
 3068SOL     OW10102   5.602   4.697   0.469
 3068SOL    HW110103   5.516   4.749   0.464
 3068SOL    HW210104   5.584   4.605   0.504
 3069SOL     OW10105   0.728   5.112   3.861
 3069SOL    HW110106   0.678   5.047   3.919
 3069SOL    HW210107   0.756   5.065   3.777
 3070SOL     OW10108   3.731   1.648   4.695
 3070SOL    HW110109   3.799   1.719   4.712
 3070SOL    HW210110   3.760   1.592   4.618
 3071SOL     OW10111   5.403   0.132   4.025
 3071SOL    HW110112   5.325   0.080   4.061
 3071SOL    HW210113   5.486   0.077   4.032
 3072SOL     OW10114   0.972   0.582   1.726
 3072SOL    HW110115   0.942   0.675   1.705
 3072SOL    HW210116   0.905   0.516   1.693
 3073SOL     OW10117   1.693   2.503   4.385
 3073SOL    HW110118   1.657   2.421   4.429
 3073SOL    HW210119   1.737   2.561   4.453
 3074SOL     OW10120   4.777   3.526   6.028
 3074SOL    HW110121   4.683   3.494   6.018
 3074SOL    HW210122   4.793   3.552   6.123
 3075SOL     OW10123   6.937   5.982   0.806
 3075SOL    HW110124   6.922   6.021   0.715
 3075SOL    HW210125   6.960   5.885   0.796
 3076SOL     OW10126   0.741   0.786   5.093
 3076SOL    HW110127   0.789   0.767   5.008
 3076SOL    HW210128   0.775   0.725   5.165
 3077SOL     OW10129   5.409   4.421   4.017
 3077SOL    HW110130   5.405   4.485   4.093
 3077SOL    HW210131   5.339   4.444   3.949
 3078SOL     OW10132   2.087   3.003   0.458
 3078SOL    HW110133   2.067   2.924   0.400
 3078SOL    HW210134   2.128   3.075   0.403
 3079SOL     OW10135   5.422   2.629   6.343
 3079SOL    HW110136   5.405   2.575   6.426
 3079SOL    HW210137   5.336   2.644   6.295
 3080SOL     OW10138   6.117   6.256   0.904
 3080SOL    HW110139   6.200   6.213   0.941
 3080SOL    HW210140   6.133   6.281   0.808
 3081SOL     OW10141   6.778   4.766   6.005
 3081SOL    HW110142   6.823   4.694   6.057
 3081SOL    HW210143   6.693   4.731   5.965
 3082SOL     OW10144   2.140   0.164   2.133
 3082SOL    HW110145   2.190   0.077   2.132
 3082SOL    HW210146   2.057   0.155   2.078
 3083SOL     OW10147   3.448   0.349   2.135
 3083SOL    HW110148   3.383   0.324   2.063
 3083SOL    HW210149   3.520   0.407   2.096
 3084SOL     OW10150   4.462   6.495   3.857
 3084SOL    HW110151   4.470   6.423   3.788
 3084SOL    HW210152   4.371   6.494   3.896
 3085SOL     OW10153   1.068   5.548   1.784
 3085SOL    HW110154   1.145   5.611   1.775
 3085SOL    HW210155   0.998   5.570   1.717
 3086SOL     OW10156   5.772   1.816   3.888
 3086SOL    HW110157   5.724   1.769   3.962
 3086SOL    HW210158   5.764   1.915   3.902
 3087SOL     OW10159   5.668   3.586   1.863
 3087SOL    HW110160   5.589   3.645   1.845
 3087SOL    HW210161   5.736   3.599   1.791
 3088SOL     OW10162   2.856   3.773   6.425
 3088SOL    HW110163   2.833   3.764   6.328
 3088SOL    HW210164   2.931   3.711   6.448
 3089SOL     OW10165   2.830   2.151   0.816
 3089SOL    HW110166   2.764   2.216   0.854
 3089SOL    HW210167   2.922   2.191   0.820
 3090SOL     OW10168   0.111   1.727   1.272
 3090SOL    HW110169   0.134   1.694   1.363
 3090SOL    HW210170   0.191   1.771   1.231
 3091SOL     OW10171   2.607   6.858   0.544
 3091SOL    HW110172   2.640   6.763   0.550
 3091SOL    HW210173   2.595   6.894   0.636
 3092SOL     OW10174   4.192   6.356   0.787
 3092SOL    HW110175   4.172   6.279   0.726
 3092SOL    HW210176   4.243   6.323   0.867
 3093SOL     OW10177   4.939   6.051   3.838
 3093SOL    HW110178   4.875   6.076   3.910
 3093SOL    HW210179   5.029   6.088   3.858
 3094SOL     OW10180   3.225   5.483   5.730
 3094SOL    HW110181   3.196   5.574   5.699
 3094SOL    HW210182   3.295   5.448   5.667
 3095SOL     OW10183   2.387   4.927   4.830
 3095SOL    HW110184   2.318   4.861   4.800
 3095SOL    HW210185   2.478   4.889   4.814
 3096SOL     OW10186   0.088   0.646   5.553
 3096SOL    HW110187   0.045   0.556   5.547
 3096SOL    HW210188   0.030   0.707   5.607
 3097SOL     OW10189   1.717   2.166   0.230
 3097SOL    HW110190   1.755   2.206   0.314
 3097SOL    HW210191   1.684   2.240   0.171
 3098SOL     OW10192   3.941   2.240   0.541
 3098SOL    HW110193   3.909   2.215   0.450
 3098SOL    HW210194   3.882   2.310   0.580
 3099SOL     OW10195   0.965   5.752   5.383
 3099SOL    HW110196   0.951   5.820   5.311
 3099SOL    HW210197   0.936   5.791   5.471
 3100SOL     OW10198   6.055   6.244   6.565
 3100SOL    HW110199   6.065   6.339   6.593
 3100SOL    HW210200   6.141   6.195   6.580
 3101SOL     OW10201   4.292   0.057   1.266
 3101SOL    HW110202   4.249   7.005   1.315
 3101SOL    HW210203   4.243   0.074   1.180
 3102SOL     OW10204   0.572   5.964   0.521
 3102SOL    HW110205   0.613   6.051   0.549
 3102SOL    HW210206   0.516   5.979   0.439
 3103SOL     OW10207   4.227   3.797   1.765
 3103SOL    HW110208   4.280   3.860   1.709
 3103SOL    HW210209   4.133   3.791   1.729
 3104SOL     OW10210   6.293   5.639   3.983
 3104SOL    HW110211   6.383   5.597   3.972
 3104SOL    HW210212   6.244   5.594   4.057
 3105SOL     OW10213   6.036   5.730   3.301
 3105SOL    HW110214   6.095   5.691   3.229
 3105SOL    HW210215   6.000   5.817   3.270
 3106SOL     OW10216   0.128   3.036   4.556
 3106SOL    HW110217   0.215   3.000   4.522
 3106SOL    HW210218   0.119   3.016   4.653
 3107SOL     OW10219   3.090   6.531   3.779
 3107SOL    HW110220   3.008   6.576   3.745
 3107SOL    HW210221   3.101   6.550   3.877
 3108SOL     OW10222   3.319   0.969   3.104
 3108SOL    HW110223   3.389   0.909   3.142
 3108SOL    HW210224   3.316   1.054   3.156
 3109SOL     OW10225   5.124   5.891   3.336
 3109SOL    HW110226   5.033   5.929   3.353
 3109SOL    HW210227   5.144   5.823   3.405
 3110SOL     OW10228   1.340   3.124   1.919
 3110SOL    HW110229   1.414   3.088   1.862
 3110SOL    HW210230   1.371   3.210   1.960
 3111SOL     OW10231   6.554   4.731   2.968
 3111SOL    HW110232   6.478   4.782   3.007
 3111SOL    HW210233   6.634   4.790   2.962
 3112SOL     OW10234   2.590   3.845   6.526
 3112SOL    HW110235   2.550   3.754   6.527
 3112SOL    HW210236   2.688   3.839   6.507
 3113SOL     OW10237   4.248   6.297   4.478
 3113SOL    HW110238   4.192   6.221   4.444
 3113SOL    HW210239   4.268   6.360   4.403
 3114SOL     OW10240   5.703   5.714   1.034
 3114SOL    HW110241   5.614   5.711   0.989
 3114SOL    HW210242   5.752   5.796   1.004
 3115SOL     OW10243   2.515   3.272   1.692
 3115SOL    HW110244   2.591   3.311   1.744
 3115SOL    HW210245   2.433   3.328   1.708
 3116SOL     OW10246   0.383   1.801   0.103
 3116SOL    HW110247   0.459   1.855   0.068
 3116SOL    HW210248   0.350   1.740   0.032
 3117SOL     OW10249   3.900   4.109   5.680
 3117SOL    HW110250   3.824   4.048   5.702
 3117SOL    HW210251   3.876   4.167   5.603
 3118SOL     OW10252   5.827   5.200   6.890
 3118SOL    HW110253   5.836   5.100   6.885
 3118SOL    HW210254   5.759   5.224   6.959
 3119SOL     OW10255   1.966   5.241   6.512
 3119SOL    HW110256   1.954   5.287   6.424
 3119SOL    HW210257   1.949   5.143   6.500
 3120SOL     OW10258   2.344   5.878   6.013
 3120SOL    HW110259   2.317   5.942   6.085
 3120SOL    HW210260   2.377   5.929   5.933
 3121SOL     OW10261   0.456   6.024   3.216
 3121SOL    HW110262   0.362   6.055   3.229
 3121SOL    HW210263   0.471   5.940   3.268
 3122SOL     OW10264   2.766   5.615   0.752
 3122SOL    HW110265   2.687   5.628   0.692
 3122SOL    HW210266   2.771   5.691   0.817
 3123SOL     OW10267   3.583   6.644   4.427
 3123SOL    HW110268   3.567   6.633   4.329
 3123SOL    HW210269   3.520   6.713   4.464
 3124SOL     OW10270   3.942   0.617   6.263
 3124SOL    HW110271   3.999   0.624   6.345
 3124SOL    HW210272   3.965   0.533   6.213
 3125SOL     OW10273   0.039   2.000   5.837
 3125SOL    HW110274   0.014   2.022   5.743
 3125SOL    HW210275   0.018   2.078   5.896
 3126SOL     OW10276   3.626   6.382   0.198
 3126SOL    HW110277   3.637   6.324   0.279
 3126SOL    HW210278   3.677   6.467   0.212
 3127SOL     OW10279   1.325   1.295   3.582
 3127SOL    HW110280   1.297   1.324   3.490
 3127SOL    HW210281   1.394   1.359   3.617
 3128SOL     OW10282   1.314   0.809   0.595
 3128SOL    HW110283   1.227   0.769   0.567
 3128SOL    HW210284   1.352   0.863   0.519
 3129SOL     OW10285   1.926   3.014   3.883
 3129SOL    HW110286   2.023   2.995   3.895
 3129SOL    HW210287   1.911   3.113   3.883
 3130SOL     OW10288   2.230   5.859   3.519
 3130SOL    HW110289   2.264   5.891   3.608
 3130SOL    HW210290   2.134   5.887   3.508
 3131SOL     OW10291   0.697   3.547   4.338
 3131SOL    HW110292   0.691   3.450   4.361
 3131SOL    HW210293   0.619   3.596   4.378
 3132SOL     OW10294   5.281   5.535   5.008
 3132SOL    HW110295   5.354   5.565   5.070
 3132SOL    HW210296   5.246   5.614   4.958
 3133SOL     OW10297   2.415   1.661   3.261
 3133SOL    HW110298   2.474   1.697   3.333
 3133SOL    HW210299   2.361   1.735   3.222
 3134SOL     OW10300   5.571   2.908   1.722
 3134SOL    HW110301   5.492   2.866   1.767
 3134SOL    HW210302   5.554   3.005   1.707
 3135SOL     OW10303   2.596   1.781   3.451
 3135SOL    HW110304   2.651   1.699   3.468
 3135SOL    HW210305   2.614   1.848   3.523
 3136SOL     OW10306   6.377   0.095   5.042
 3136SOL    HW110307   6.425   0.024   5.094
 3136SOL    HW210308   6.422   0.183   5.056
 3137SOL     OW10309   0.143   1.378   4.981
 3137SOL    HW110310   0.207   1.450   5.010
 3137SOL    HW210311   0.149   1.301   5.044
 3138SOL     OW10312   5.436   1.871   4.409
 3138SOL    HW110313   5.473   1.785   4.445
 3138SOL    HW210314   5.351   1.853   4.361
 3139SOL     OW10315   4.992   6.016   5.092
 3139SOL    HW110316   5.032   6.084   5.031
 3139SOL    HW210317   5.064   5.957   5.129
 3140SOL     OW10318   6.579   5.962   6.314
 3140SOL    HW110319   6.522   6.043   6.302
 3140SOL    HW210320   6.631   5.970   6.399
 3141SOL     OW10321   0.839   5.593   0.983
 3141SOL    HW110322   0.802   5.540   0.905
 3141SOL    HW210323   0.905   5.660   0.949
 3142SOL     OW10324   3.564   6.956   0.094
 3142SOL    HW110325   3.503   0.011   0.110
 3142SOL    HW210326   3.640   6.960   0.159
 3143SOL     OW10327   0.376   1.629   1.095
 3143SOL    HW110328   0.419   1.593   1.179
 3143SOL    HW210329   0.358   1.727   1.106
 3144SOL     OW10330   1.753   3.221   6.690
 3144SOL    HW110331   1.742   3.146   6.755
 3144SOL    HW210332   1.678   3.287   6.703
 3145SOL     OW10333   3.062   5.404   3.809
 3145SOL    HW110334   3.021   5.467   3.875
 3145SOL    HW210335   3.092   5.321   3.857
 3146SOL     OW10336   2.148   0.184   3.646
 3146SOL    HW110337   2.178   0.101   3.599
 3146SOL    HW210338   2.194   0.263   3.604
 3147SOL     OW10339   3.589   4.718   0.741
 3147SOL    HW110340   3.681   4.744   0.712
 3147SOL    HW210341   3.522   4.749   0.673
 3148SOL     OW10342   3.503   5.786   5.103
 3148SOL    HW110343   3.408   5.788   5.073
 3148SOL    HW210344   3.554   5.859   5.057
 3149SOL     OW10345   2.871   6.452   5.928
 3149SOL    HW110346   2.955   6.402   5.946
 3149SOL    HW210347   2.890   6.533   5.873
 3150SOL     OW10348   0.261   0.303   4.046
 3150SOL    HW110349   0.298   0.267   3.961
 3150SOL    HW210350   0.185   0.245   4.076
 3151SOL     OW10351   4.200   6.835   0.967
 3151SOL    HW110352   4.144   6.773   0.912
 3151SOL    HW210353   4.146   6.916   0.991
 3152SOL     OW10354   1.632   4.795   6.903
 3152SOL    HW110355   1.600   4.890   6.909
 3152SOL    HW210356   1.732   4.795   6.895
 3153SOL     OW10357   6.976   4.538   2.706
 3153SOL    HW110358   6.981   4.495   2.616
 3153SOL    HW210359   6.930   4.476   2.770
 3154SOL     OW10360   5.633   2.190   6.457
 3154SOL    HW110361   5.611   2.197   6.360
 3154SOL    HW210362   5.713   2.131   6.469
 3155SOL     OW10363   4.191   6.125   0.610
 3155SOL    HW110364   4.161   6.114   0.515
 3155SOL    HW210365   4.267   6.063   0.628
 3156SOL     OW10366   3.364   3.172   2.850
 3156SOL    HW110367   3.286   3.167   2.912
 3156SOL    HW210368   3.349   3.245   2.783
 3157SOL     OW10369   1.990   3.088   5.085
 3157SOL    HW110370   2.033   3.110   4.997
 3157SOL    HW210371   2.061   3.077   5.155
 3158SOL     OW10372   4.714   6.137   1.407
 3158SOL    HW110373   4.777   6.213   1.419
 3158SOL    HW210374   4.763   6.058   1.370
 3159SOL     OW10375   5.349   4.475   0.621
 3159SOL    HW110376   5.285   4.399   0.619
 3159SOL    HW210377   5.428   4.454   0.564
 3160SOL     OW10378   5.747   4.677   0.729
 3160SOL    HW110379   5.687   4.707   0.656
 3160SOL    HW210380   5.840   4.665   0.693
 3161SOL     OW10381   0.951   1.478   3.110
 3161SOL    HW110382   1.034   1.509   3.157
 3161SOL    HW210383   0.903   1.412   3.167
 3162SOL     OW10384   6.503   0.213   6.133
 3162SOL    HW110385   6.436   0.266   6.081
 3162SOL    HW210386   6.577   0.273   6.164
 3163SOL     OW10387   2.046   4.679   5.654
 3163SOL    HW110388   2.130   4.636   5.619
 3163SOL    HW210389   1.969   4.652   5.595
 3164SOL     OW10390   6.235   5.379   6.152
 3164SOL    HW110391   6.170   5.304   6.161
 3164SOL    HW210392   6.290   5.366   6.070
 3165SOL     OW10393   0.283   2.478   1.741
 3165SOL    HW110394   0.307   2.386   1.708
 3165SOL    HW210395   0.191   2.502   1.711
 3166SOL     OW10396   4.528   3.032   6.144
 3166SOL    HW110397   4.549   2.998   6.235
 3166SOL    HW210398   4.453   3.098   6.149
 3167SOL     OW10399   0.145   4.059   1.704
 3167SOL    HW110400   0.148   4.000   1.624
 3167SOL    HW210401   0.062   4.114   1.702
 3168SOL     OW10402   5.545   3.017   0.677
 3168SOL    HW110403   5.548   3.093   0.612
 3168SOL    HW210404   5.638   2.991   0.703
 3169SOL     OW10405   1.643   2.325   4.832
 3169SOL    HW110406   1.743   2.332   4.837
 3169SOL    HW210407   1.603   2.349   4.921
 3170SOL     OW10408   4.141   0.303   5.429
 3170SOL    HW110409   4.239   0.319   5.416
 3170SOL    HW210410   4.096   0.295   5.340
 3171SOL     OW10411   6.602   6.695   3.280
 3171SOL    HW110412   6.507   6.707   3.309
 3171SOL    HW210413   6.624   6.761   3.209
 3172SOL     OW10414   5.952   0.045   5.432
 3172SOL    HW110415   5.879   7.004   5.455
 3172SOL    HW210416   5.919   0.138   5.443
 3173SOL     OW10417   2.349   1.133   1.571
 3173SOL    HW110418   2.253   1.104   1.562
 3173SOL    HW210419   2.353   1.220   1.620
 3174SOL     OW10420   2.005   3.389   6.713
 3174SOL    HW110421   2.015   3.296   6.680
 3174SOL    HW210422   1.914   3.423   6.688
 3175SOL     OW10423   6.515   6.063   0.287
 3175SOL    HW110424   6.525   6.069   0.188
 3175SOL    HW210425   6.481   6.150   0.323
 3176SOL     OW10426   1.065   5.882   6.432
 3176SOL    HW110427   1.022   5.900   6.520
 3176SOL    HW210428   1.083   5.785   6.422
 3177SOL     OW10429   1.227   6.983   4.025
 3177SOL    HW110430   1.259   0.015   4.102
 3177SOL    HW210431   1.178   0.017   3.960
 3178SOL     OW10432   2.497   3.497   6.880
 3178SOL    HW110433   2.458   3.521   6.969
 3178SOL    HW210434   2.439   3.533   6.807
 3179SOL     OW10435   1.025   2.369   3.760
 3179SOL    HW110436   0.985   2.280   3.779
 3179SOL    HW210437   1.102   2.359   3.696
 3180SOL     OW10438   5.949   1.259   6.291
 3180SOL    HW110439   6.014   1.321   6.335
 3180SOL    HW210440   5.902   1.204   6.360
 3181SOL     OW10441   0.767   1.542   2.751
 3181SOL    HW110442   0.742   1.556   2.655
 3181SOL    HW210443   0.780   1.630   2.795
 3182SOL     OW10444   1.391   4.797   5.617
 3182SOL    HW110445   1.489   4.805   5.632
 3182SOL    HW210446   1.368   4.701   5.598
 3183SOL     OW10447   4.620   2.919   1.490
 3183SOL    HW110448   4.552   2.937   1.561
 3183SOL    HW210449   4.646   2.823   1.492
 3184SOL     OW10450   0.839   2.126   3.773
 3184SOL    HW110451   0.898   2.122   3.692
 3184SOL    HW210452   0.892   2.101   3.854
 3185SOL     OW10453   0.385   6.192   0.163
 3185SOL    HW110454   0.437   6.127   0.108
 3185SOL    HW210455   0.396   6.284   0.126
 3186SOL     OW10456   3.374   0.700   1.773
 3186SOL    HW110457   3.304   0.749   1.722
 3186SOL    HW210458   3.371   0.728   1.869
 3187SOL     OW10459   2.808   4.241   0.120
 3187SOL    HW110460   2.842   4.156   0.078
 3187SOL    HW210461   2.710   4.250   0.103
 3188SOL     OW10462   4.001   6.793   3.048
 3188SOL    HW110463   4.011   6.838   3.137
 3188SOL    HW210464   4.086   6.803   2.997
 3189SOL     OW10465   6.560   6.668   2.308
 3189SOL    HW110466   6.628   6.637   2.241
 3189SOL    HW210467   6.511   6.590   2.344
 3190SOL     OW10468   0.737   6.944   1.224
 3190SOL    HW110469   0.754   6.849   1.197
 3190SOL    HW210470   0.780   6.962   1.312
 3191SOL     OW10471   3.330   0.534   0.415
 3191SOL    HW110472   3.286   0.576   0.335
 3191SOL    HW210473   3.287   0.569   0.498
 3192SOL     OW10474   5.764   2.286   3.480
 3192SOL    HW110475   5.847   2.243   3.445
 3192SOL    HW210476   5.684   2.245   3.435
 3193SOL     OW10477   5.040   4.196   1.109
 3193SOL    HW110478   5.022   4.134   1.186
 3193SOL    HW210479   5.087   4.278   1.142
 3194SOL     OW10480   1.625   5.034   5.198
 3194SOL    HW110481   1.657   5.119   5.156
 3194SOL    HW210482   1.651   5.032   5.295
 3195SOL     OW10483   0.438   4.230   3.453
 3195SOL    HW110484   0.448   4.136   3.421
 3195SOL    HW210485   0.365   4.275   3.402
 3196SOL     OW10486   0.149   6.851   5.738
 3196SOL    HW110487   0.226   6.811   5.688
 3196SOL    HW210488   0.181   6.928   5.793
 3197SOL     OW10489   0.459   4.179   4.324
 3197SOL    HW110490   0.400   4.253   4.359
 3197SOL    HW210491   0.411   4.131   4.250
 3198SOL     OW10492   5.680   6.544   0.215
 3198SOL    HW110493   5.731   6.573   0.296
 3198SOL    HW210494   5.723   6.462   0.176
 3199SOL     OW10495   3.637   1.714   3.488
 3199SOL    HW110496   3.715   1.722   3.549
 3199SOL    HW210497   3.592   1.625   3.502
 3200SOL     OW10498   6.864   2.339   0.451
 3200SOL    HW110499   6.793   2.365   0.385
 3200SOL    HW210500   6.860   2.241   0.467
 3201SOL     OW10501   4.535   4.752   3.360
 3201SOL    HW110502   4.469   4.827   3.362
 3201SOL    HW210503   4.489   4.666   3.380
 3202SOL     OW10504   1.403   5.830   1.590
 3202SOL    HW110505   1.360   5.775   1.518
 3202SOL    HW210506   1.467   5.895   1.549
 3203SOL     OW10507   5.064   0.000   1.208
 3203SOL    HW110508   5.063   6.940   1.152
 3203SOL    HW210509   5.021   0.074   1.156
 3204SOL     OW10510   6.394   5.959   2.057
 3204SOL    HW110511   6.356   6.017   2.129
 3204SOL    HW210512   6.321   5.904   2.016
 3205SOL     OW10513   0.823   3.862   3.760
 3205SOL    HW110514   0.851   3.795   3.829
 3205SOL    HW210515   0.856   3.832   3.670
 3206SOL     OW10516   1.581   7.016   0.523
 3206SOL    HW110517   1.506   6.996   0.586
 3206SOL    HW210518   1.554   6.989   0.430
 3207SOL     OW10519   1.231   1.931   2.650
 3207SOL    HW110520   1.287   1.982   2.586
 3207SOL    HW210521   1.261   1.951   2.744
 3208SOL     OW10522   6.167   0.362   4.390
 3208SOL    HW110523   6.198   0.435   4.451
 3208SOL    HW210524   6.069   0.371   4.374
 3209SOL     OW10525   2.174   0.535   2.970
 3209SOL    HW110526   2.215   0.545   3.060
 3209SOL    HW210527   2.074   0.541   2.978
 3210SOL     OW10528   0.541   4.889   1.906
 3210SOL    HW110529   0.505   4.972   1.949
 3210SOL    HW210530   0.521   4.810   1.963
 3211SOL     OW10531   0.482   4.151   2.907
 3211SOL    HW110532   0.525   4.222   2.852
 3211SOL    HW210533   0.427   4.193   2.979
 3212SOL     OW10534   5.196   2.929   5.564
 3212SOL    HW110535   5.150   3.017   5.546
 3212SOL    HW210536   5.127   2.859   5.583
 3213SOL     OW10537   5.394   0.067   1.494
 3213SOL    HW110538   5.400   0.151   1.439
 3213SOL    HW210539   5.306   0.023   1.476
 3214SOL     OW10540   4.083   4.205   6.537
 3214SOL    HW110541   3.984   4.195   6.529
 3214SOL    HW210542   4.124   4.215   6.447
 3215SOL     OW10543   6.167   1.437   0.273
 3215SOL    HW110544   6.264   1.416   0.270
 3215SOL    HW210545   6.127   1.401   0.357
 3216SOL     OW10546   5.297   6.675   4.798
 3216SOL    HW110547   5.350   6.628   4.728
 3216SOL    HW210548   5.257   6.758   4.759
 3217SOL     OW10549   6.555   4.174   0.386
 3217SOL    HW110550   6.496   4.246   0.347
 3217SOL    HW210551   6.632   4.216   0.434
 3218SOL     OW10552   3.734   1.609   1.928
 3218SOL    HW110553   3.651   1.658   1.957
 3218SOL    HW210554   3.710   1.515   1.904
 3219SOL     OW10555   0.354   0.204   3.777
 3219SOL    HW110556   0.293   0.139   3.731
 3219SOL    HW210557   0.402   0.258   3.708
 3220SOL     OW10558   6.267   3.117   6.522
 3220SOL    HW110559   6.355   3.075   6.546
 3220SOL    HW210560   6.206   3.112   6.601
 3221SOL     OW10561   3.771   0.755   1.950
 3221SOL    HW110562   3.798   0.710   2.035
 3221SOL    HW210563   3.719   0.838   1.972
 3222SOL     OW10564   6.571   3.976   1.956
 3222SOL    HW110565   6.664   3.942   1.960
 3222SOL    HW210566   6.535   3.985   2.049
 3223SOL     OW10567   2.268   4.065   4.120
 3223SOL    HW110568   2.254   4.032   4.026
 3223SOL    HW210569   2.337   4.138   4.119
 3224SOL     OW10570   3.006   6.256   1.248
 3224SOL    HW110571   3.071   6.292   1.315
 3224SOL    HW210572   2.984   6.161   1.270
 3225SOL     OW10573   1.841   2.673   1.028
 3225SOL    HW110574   1.878   2.625   1.107
 3225SOL    HW210575   1.747   2.702   1.047
 3226SOL     OW10576   7.003   0.515   3.917
 3226SOL    HW110577   6.964   0.495   4.007
 3226SOL    HW210578   0.057   0.578   3.928
 3227SOL     OW10579   1.898   2.308   5.685
 3227SOL    HW110580   1.993   2.340   5.682
 3227SOL    HW210581   1.856   2.318   5.595
 3228SOL     OW10582   4.989   3.441   4.998
 3228SOL    HW110583   4.930   3.522   4.998
 3228SOL    HW210584   4.978   3.391   4.912
 3229SOL     OW10585   4.809   1.414   5.413
 3229SOL    HW110586   4.744   1.420   5.337
 3229SOL    HW210587   4.877   1.344   5.394
 3230SOL     OW10588   1.492   0.036   3.860
 3230SOL    HW110589   1.463   0.126   3.892
 3230SOL    HW210590   1.439   0.011   3.779
 3231SOL     OW10591   4.837   4.478   0.801
 3231SOL    HW110592   4.839   4.506   0.897
 3231SOL    HW210593   4.918   4.516   0.754
 3232SOL     OW10594   1.342   4.149   2.719
 3232SOL    HW110595   1.385   4.135   2.809
 3232SOL    HW210596   1.412   4.148   2.648
 3233SOL     OW10597   2.007   4.400   0.867
 3233SOL    HW110598   2.014   4.393   0.768
 3233SOL    HW210599   2.013   4.496   0.894
 3234SOL     OW10600   6.813   2.340   4.905
 3234SOL    HW110601   6.782   2.255   4.863
 3234SOL    HW210602   6.902   2.326   4.948
 3235SOL     OW10603   5.383   0.653   1.998
 3235SOL    HW110604   5.420   0.726   2.055
 3235SOL    HW210605   5.426   0.656   1.908
 3236SOL     OW10606   0.320   2.553   1.312
 3236SOL    HW110607   0.310   2.453   1.314
 3236SOL    HW210608   0.365   2.584   1.396
 3237SOL     OW10609   3.036   6.034   4.792
 3237SOL    HW110610   3.015   6.088   4.710
 3237SOL    HW210611   3.110   5.970   4.772
 3238SOL     OW10612   6.739   6.433   6.429
 3238SOL    HW110613   6.825   6.476   6.403
 3238SOL    HW210614   6.725   6.350   6.375
 3239SOL     OW10615   0.921   6.414   5.328
 3239SOL    HW110616   0.866   6.498   5.331
 3239SOL    HW210617   1.010   6.432   5.370
 3240SOL     OW10618   0.708   2.382   4.686
 3240SOL    HW110619   0.689   2.328   4.605
 3240SOL    HW210620   0.807   2.390   4.699
 3241SOL     OW10621   4.138   6.810   5.019
 3241SOL    HW110622   4.049   6.786   5.058
 3241SOL    HW210623   4.153   6.909   5.029
 3242SOL     OW10624   3.502   0.086   0.516
 3242SOL    HW110625   3.505   0.169   0.461
 3242SOL    HW210626   3.582   0.030   0.496
 3243SOL     OW10627   3.610   4.917   1.246
 3243SOL    HW110628   3.657   4.863   1.316
 3243SOL    HW210629   3.589   4.859   1.167
 3244SOL     OW10630   0.851   6.711   5.641
 3244SOL    HW110631   0.843   6.763   5.556
 3244SOL    HW210632   0.785   6.637   5.642
 3245SOL     OW10633   3.336   2.031   6.052
 3245SOL    HW110634   3.292   2.119   6.036
 3245SOL    HW210635   3.267   1.965   6.082
 3246SOL     OW10636   5.439   5.935   3.486
 3246SOL    HW110637   5.532   5.960   3.459
 3246SOL    HW210638   5.373   5.988   3.433
 3247SOL     OW10639   6.407   3.074   5.828
 3247SOL    HW110640   6.374   3.012   5.900
 3247SOL    HW210641   6.328   3.116   5.782
 3248SOL     OW10642   4.767   4.172   2.958
 3248SOL    HW110643   4.825   4.253   2.945
 3248SOL    HW210644   4.722   4.177   3.047
 3249SOL     OW10645   3.254   4.615   5.783
 3249SOL    HW110646   3.325   4.577   5.724
 3249SOL    HW210647   3.244   4.558   5.864
 3250SOL     OW10648   4.729   5.149   1.356
 3250SOL    HW110649   4.667   5.083   1.312
 3250SOL    HW210650   4.746   5.120   1.450
 3251SOL     OW10651   3.541   0.778   3.616
 3251SOL    HW110652   3.460   0.832   3.636
 3251SOL    HW210653   3.598   0.826   3.550
 3252SOL     OW10654   3.756   2.053   3.698
 3252SOL    HW110655   3.731   2.036   3.793
 3252SOL    HW210656   3.673   2.064   3.643
 3253SOL     OW10657   4.881   4.312   1.430
 3253SOL    HW110658   4.886   4.268   1.520
 3253SOL    HW210659   4.816   4.263   1.372
 3254SOL     OW10660   6.443   4.267   2.649
 3254SOL    HW110661   6.362   4.214   2.625
 3254SOL    HW210662   6.424   4.325   2.728
 3255SOL     OW10663   3.618   5.032   0.924
 3255SOL    HW110664   3.600   4.935   0.942
 3255SOL    HW210665   3.533   5.076   0.893
 3256SOL     OW10666   6.899   6.477   5.210
 3256SOL    HW110667   6.818   6.452   5.155
 3256SOL    HW210668   6.970   6.512   5.149
 3257SOL     OW10669   2.778   1.251   1.183
 3257SOL    HW110670   2.780   1.324   1.115
 3257SOL    HW210671   2.731   1.283   1.265
 3258SOL     OW10672   5.112   6.481   1.094
 3258SOL    HW110673   5.128   6.460   0.998
 3258SOL    HW210674   5.200   6.489   1.141
 3259SOL     OW10675   5.794   5.934   3.618
 3259SOL    HW110676   5.893   5.925   3.614
 3259SOL    HW210677   5.757   5.862   3.678
 3260SOL     OW10678   2.467   1.521   1.410
 3260SOL    HW110679   2.460   1.616   1.440
 3260SOL    HW210680   2.377   1.477   1.417
 3261SOL     OW10681   4.980   6.488   4.053
 3261SOL    HW110682   5.023   6.398   4.061
 3261SOL    HW210683   4.882   6.477   4.040
 3262SOL     OW10684   4.113   1.726   4.119
 3262SOL    HW110685   4.022   1.695   4.093
 3262SOL    HW210686   4.111   1.763   4.212
 3263SOL     OW10687   3.210   4.890   3.257
 3263SOL    HW110688   3.174   4.911   3.348
 3263SOL    HW210689   3.309   4.903   3.257
 3264SOL     OW10690   5.603   5.054   6.166
 3264SOL    HW110691   5.655   5.006   6.095
 3264SOL    HW210692   5.625   5.015   6.256
 3265SOL     OW10693   5.501   0.259   5.640
 3265SOL    HW110694   5.530   0.341   5.689
 3265SOL    HW210695   5.455   0.285   5.555
 3266SOL     OW10696   1.306   2.703   6.431
 3266SOL    HW110697   1.276   2.769   6.501
 3266SOL    HW210698   1.405   2.696   6.432
 3267SOL     OW10699   5.240   3.164   2.193
 3267SOL    HW110700   5.207   3.069   2.188
 3267SOL    HW210701   5.164   3.225   2.214
 3268SOL     OW10702   1.708   5.661   6.693
 3268SOL    HW110703   1.694   5.701   6.602
 3268SOL    HW210704   1.630   5.683   6.751
 3269SOL     OW10705   3.991   3.433   0.810
 3269SOL    HW110706   3.929   3.453   0.886
 3269SOL    HW210707   4.074   3.390   0.845
 3270SOL     OW10708   6.510   5.302   3.682
 3270SOL    HW110709   6.603   5.295   3.719
 3270SOL    HW210710   6.459   5.219   3.706
 3271SOL     OW10711   4.922   6.939   1.427
 3271SOL    HW110712   4.858   6.867   1.400
 3271SOL    HW210713   4.975   6.967   1.347
 3272SOL     OW10714   4.921   5.834   6.573
 3272SOL    HW110715   4.907   5.828   6.474
 3272SOL    HW210716   5.017   5.821   6.593
 3273SOL     OW10717   1.071   0.832   3.003
 3273SOL    HW110718   1.063   0.837   2.904
 3273SOL    HW210719   1.167   0.843   3.029
 3274SOL     OW10720   2.744   1.350   0.137
 3274SOL    HW110721   2.676   1.421   0.152
 3274SOL    HW210722   2.708   1.280   0.075
 3275SOL     OW10723   4.632   0.547   6.982
 3275SOL    HW110724   4.542   0.511   6.960
 3275SOL    HW210725   4.640   0.559   0.057
 3276SOL     OW10726   1.822   6.436   0.082
 3276SOL    HW110727   1.806   6.352   0.133
 3276SOL    HW210728   1.804   6.420   7.009
 3277SOL     OW10729   0.151   5.954   6.850
 3277SOL    HW110730   0.072   5.894   6.840
 3277SOL    HW210731   0.134   6.020   6.923
 3278SOL     OW10732   1.023   0.719   6.967
 3278SOL    HW110733   1.025   0.789   6.895
 3278SOL    HW210734   1.115   0.680   6.978
 3279SOL     OW10735   1.990   6.877   1.379
 3279SOL    HW110736   2.038   6.964   1.365
 3279SOL    HW210737   2.002   6.818   1.299
 3280SOL     OW10738   3.112   6.146   3.974
 3280SOL    HW110739   3.098   6.067   4.035
 3280SOL    HW210740   3.179   6.208   4.015
 3281SOL     OW10741   1.942   6.549   0.446
 3281SOL    HW110742   1.919   6.631   0.393
 3281SOL    HW210743   1.863   6.522   0.501
 3282SOL     OW10744   2.346   5.100   2.474
 3282SOL    HW110745   2.314   5.009   2.497
 3282SOL    HW210746   2.269   5.163   2.471
 3283SOL     OW10747   2.083   0.133   3.313
 3283SOL    HW110748   1.995   0.124   3.267
 3283SOL    HW210749   2.100   0.230   3.333
 3284SOL     OW10750   1.564   5.315   5.324
 3284SOL    HW110751   1.617   5.238   5.360
 3284SOL    HW210752   1.522   5.365   5.400
 3285SOL     OW10753   0.462   2.991   3.967
 3285SOL    HW110754   0.393   3.035   4.024
 3285SOL    HW210755   0.477   2.898   3.999
 3286SOL     OW10756   4.779   4.581   6.249
 3286SOL    HW110757   4.760   4.657   6.312
 3286SOL    HW210758   4.707   4.577   6.179
 3287SOL     OW10759   6.985   3.083   1.653
 3287SOL    HW110760   6.938   3.084   1.565
 3287SOL    HW210761   6.933   3.137   1.720
 3288SOL     OW10762   0.769   6.967   0.106
 3288SOL    HW110763   0.863   6.955   0.138
 3288SOL    HW210764   0.767   6.963   0.006
 3289SOL     OW10765   1.130   6.715   3.992
 3289SOL    HW110766   1.046   6.709   4.046
 3289SOL    HW210767   1.175   6.803   4.010
 3290SOL     OW10768   0.454   4.750   3.532
 3290SOL    HW110769   0.390   4.815   3.493
 3290SOL    HW210770   0.405   4.669   3.564
 3291SOL     OW10771   1.727   1.404   1.994
 3291SOL    HW110772   1.737   1.321   1.940
 3291SOL    HW210773   1.790   1.474   1.959
 3292SOL     OW10774   0.324   6.107   4.493
 3292SOL    HW110775   0.327   6.008   4.489
 3292SOL    HW210776   0.394   6.146   4.433
 3293SOL     OW10777   5.953   0.700   3.367
 3293SOL    HW110778   6.010   0.665   3.440
 3293SOL    HW210779   5.941   0.630   3.296
 3294SOL     OW10780   0.026   6.878   0.870
 3294SOL    HW110781   0.039   6.970   0.905
 3294SOL    HW210782   0.026   6.879   0.770
 3295SOL     OW10783   1.997   3.034   5.919
 3295SOL    HW110784   1.975   2.979   6.000
 3295SOL    HW210785   2.096   3.044   5.912
 3296SOL     OW10786   1.170   6.525   2.505
 3296SOL    HW110787   1.211   6.503   2.593
 3296SOL    HW210788   1.161   6.441   2.450
 3297SOL     OW10789   3.622   1.183   5.664
 3297SOL    HW110790   3.649   1.279   5.671
 3297SOL    HW210791   3.570   1.169   5.580
 3298SOL     OW10792   0.593   4.509   2.724
 3298SOL    HW110793   0.585   4.542   2.818
 3298SOL    HW210794   0.513   4.537   2.672
 3299SOL     OW10795   0.857   1.126   4.369
 3299SOL    HW110796   0.869   1.080   4.456
 3299SOL    HW210797   0.905   1.214   4.370
 3300SOL     OW10798   6.960   0.181   4.844
 3300SOL    HW110799   6.900   0.256   4.817
 3300SOL    HW210800   0.016   0.178   4.783
 3301SOL     OW10801   6.643   3.830   2.868
 3301SOL    HW110802   6.694   3.848   2.952
 3301SOL    HW210803   6.644   3.911   2.810
 3302SOL     OW10804   0.771   6.196   5.463
 3302SOL    HW110805   0.849   6.241   5.419
 3302SOL    HW210806   0.709   6.161   5.393
 3303SOL     OW10807   2.892   3.681   4.182
 3303SOL    HW110808   2.971   3.620   4.180
 3303SOL    HW210809   2.860   3.692   4.276
 3304SOL     OW10810   1.630   0.771   3.677
 3304SOL    HW110811   1.646   0.870   3.668
 3304SOL    HW210812   1.644   0.727   3.588
 3305SOL     OW10813   0.914   2.982   0.464
 3305SOL    HW110814   0.963   2.959   0.549
 3305SOL    HW210815   0.897   3.080   0.461
 3306SOL     OW10816   1.436   2.606   1.710
 3306SOL    HW110817   1.515   2.633   1.766
 3306SOL    HW210818   1.460   2.525   1.656
 3307SOL     OW10819   0.862   0.243   6.954
 3307SOL    HW110820   0.888   0.232   6.858
 3307SOL    HW210821   0.884   0.336   6.983
 3308SOL     OW10822   4.781   5.886   1.252
 3308SOL    HW110823   4.757   5.843   1.165
 3308SOL    HW210824   4.742   5.833   1.327
 3309SOL     OW10825   1.561   4.838   1.680
 3309SOL    HW110826   1.494   4.903   1.716
 3309SOL    HW210827   1.650   4.856   1.722
 3310SOL     OW10828   1.737   6.862   2.432
 3310SOL    HW110829   1.698   6.907   2.512
 3310SOL    HW210830   1.701   6.769   2.424
 3311SOL     OW10831   4.127   5.492   0.695
 3311SOL    HW110832   4.137   5.422   0.765
 3311SOL    HW210833   4.216   5.512   0.655
 3312SOL     OW10834   1.499   2.797   5.907
 3312SOL    HW110835   1.597   2.785   5.926
 3312SOL    HW210836   1.472   2.738   5.832
 3313SOL     OW10837   5.818   6.837   4.543
 3313SOL    HW110838   5.844   6.929   4.514
 3313SOL    HW210839   5.889   6.801   4.603
 3314SOL     OW10840   0.439   4.634   6.584
 3314SOL    HW110841   0.513   4.675   6.530
 3314SOL    HW210842   0.421   4.690   6.665
 3315SOL     OW10843   6.597   3.001   3.384
 3315SOL    HW110844   6.559   2.963   3.468
 3315SOL    HW210845   6.562   2.951   3.305
 3316SOL     OW10846   4.395   0.783   6.812
 3316SOL    HW110847   4.469   0.813   6.872
 3316SOL    HW210848   4.330   0.857   6.800
 3317SOL     OW10849   4.296   2.400   1.324
 3317SOL    HW110850   4.293   2.457   1.242
 3317SOL    HW210851   4.389   2.397   1.360
 3318SOL     OW10852   2.954   5.299   5.960
 3318SOL    HW110853   3.029   5.316   6.025
 3318SOL    HW210854   2.867   5.298   6.008
 3319SOL     OW10855   0.219   6.249   6.584
 3319SOL    HW110856   0.254   6.307   6.658
 3319SOL    HW210857   0.266   6.161   6.585
 3320SOL     OW10858   1.018   0.627   0.787
 3320SOL    HW110859   1.010   0.727   0.794
 3320SOL    HW210860   1.091   0.595   0.847
 3321SOL     OW10861   3.704   3.824   4.290
 3321SOL    HW110862   3.727   3.758   4.219
 3321SOL    HW210863   3.757   3.908   4.276
 3322SOL     OW10864   4.497   2.387   2.475
 3322SOL    HW110865   4.416   2.342   2.437
 3322SOL    HW210866   4.492   2.386   2.575
 3323SOL     OW10867   1.836   4.939   0.697
 3323SOL    HW110868   1.917   4.883   0.713
 3323SOL    HW210869   1.757   4.898   0.744
 3324SOL     OW10870   6.318   3.174   1.693
 3324SOL    HW110871   6.222   3.159   1.717
 3324SOL    HW210872   6.334   3.145   1.598
 3325SOL     OW10873   1.005   5.020   5.560
 3325SOL    HW110874   1.074   5.069   5.614
 3325SOL    HW210875   1.048   4.945   5.511
 3326SOL     OW10876   5.567   0.362   2.490
 3326SOL    HW110877   5.475   0.345   2.453
 3326SOL    HW210878   5.603   0.277   2.529
 3327SOL     OW10879   4.935   5.896   2.027
 3327SOL    HW110880   4.936   5.910   1.928
 3327SOL    HW210881   4.846   5.861   2.056
 3328SOL     OW10882   6.390   6.216   4.093
 3328SOL    HW110883   6.291   6.209   4.081
 3328SOL    HW210884   6.427   6.284   4.030
 3329SOL     OW10885   5.415   0.748   5.894
 3329SOL    HW110886   5.326   0.770   5.933
 3329SOL    HW210887   5.473   0.707   5.965
 3330SOL     OW10888   6.417   0.024   2.938
 3330SOL    HW110889   6.431   0.089   2.863
 3330SOL    HW210890   6.319   0.005   2.948
 3331SOL     OW10891   1.409   3.923   2.401
 3331SOL    HW110892   1.356   3.904   2.484
 3331SOL    HW210893   1.479   3.991   2.422
 3332SOL     OW10894   4.258   5.066   0.483
 3332SOL    HW110895   4.228   5.013   0.404
 3332SOL    HW210896   4.178   5.103   0.531
 3333SOL     OW10897   1.760   4.029   0.989
 3333SOL    HW110898   1.819   3.967   0.938
 3333SOL    HW210899   1.750   4.115   0.938
 3334SOL     OW10900   1.548   2.209   2.380
 3334SOL    HW110901   1.538   2.109   2.386
 3334SOL    HW210902   1.645   2.233   2.383
 3335SOL     OW10903   3.999   4.350   6.074
 3335SOL    HW110904   4.027   4.281   6.008
 3335SOL    HW210905   4.077   4.410   6.093
 3336SOL     OW10906   3.809   5.785   5.921
 3336SOL    HW110907   3.808   5.735   6.007
 3336SOL    HW210908   3.758   5.871   5.931
 3337SOL     OW10909   3.068   3.050   3.795
 3337SOL    HW110910   2.990   3.000   3.832
 3337SOL    HW210911   3.141   3.054   3.863
 3338SOL     OW10912   2.695   3.264   1.467
 3338SOL    HW110913   2.627   3.281   1.538
 3338SOL    HW210914   2.734   3.352   1.437
 3339SOL     OW10915   0.953   6.712   6.442
 3339SOL    HW110916   0.946   6.699   6.343
 3339SOL    HW210917   0.970   6.809   6.462
 3340SOL     OW10918   5.151   1.024   6.253
 3340SOL    HW110919   5.088   1.076   6.310
 3340SOL    HW210920   5.216   1.086   6.209
 3341SOL     OW10921   1.441   4.367   1.334
 3341SOL    HW110922   1.493   4.435   1.282
 3341SOL    HW210923   1.445   4.279   1.286
 3342SOL     OW10924   5.885   7.019   1.859
 3342SOL    HW110925   5.840   6.970   1.934
 3342SOL    HW210926   5.934   6.954   1.802
 3343SOL     OW10927   3.296   5.381   0.769
 3343SOL    HW110928   3.355   5.400   0.848
 3343SOL    HW210929   3.289   5.463   0.713
 3344SOL     OW10930   1.375   3.466   1.300
 3344SOL    HW110931   1.401   3.562   1.313
 3344SOL    HW210932   1.328   3.457   1.212
 3345SOL     OW10933   5.371   5.295   1.079
 3345SOL    HW110934   5.452   5.249   1.043
 3345SOL    HW210935   5.297   5.228   1.091
 3346SOL     OW10936   1.129   0.980   6.800
 3346SOL    HW110937   1.107   1.051   6.733
 3346SOL    HW210938   1.172   1.022   6.880
 3347SOL     OW10939   0.835   4.159   5.657
 3347SOL    HW110940   0.919   4.174   5.604
 3347SOL    HW210941   0.756   4.177   5.598
 3348SOL     OW10942   3.424   4.247   5.879
 3348SOL    HW110943   3.459   4.202   5.961
 3348SOL    HW210944   3.499   4.296   5.833
 3349SOL     OW10945   1.721   5.617   1.674
 3349SOL    HW110946   1.671   5.639   1.590
 3349SOL    HW210947   1.664   5.637   1.753
 3350SOL     OW10948   2.627   5.306   5.330
 3350SOL    HW110949   2.597   5.263   5.415
 3350SOL    HW210950   2.623   5.240   5.255
 3351SOL     OW10951   5.540   6.679   1.496
 3351SOL    HW110952   5.455   6.717   1.460
 3351SOL    HW210953   5.570   6.733   1.575
 3352SOL     OW10954   5.706   1.316   0.135
 3352SOL    HW110955   5.691   1.350   0.042
 3352SOL    HW210956   5.661   1.377   0.200
 3353SOL     OW10957   4.125   0.651   6.460
 3353SOL    HW110958   4.165   0.560   6.446
 3353SOL    HW210959   4.096   0.661   6.555
 3354SOL     OW10960   2.043   2.506   0.284
 3354SOL    HW110961   2.095   2.422   0.302
 3354SOL    HW210962   2.029   2.516   0.185
 3355SOL     OW10963   1.552   1.313   4.976
 3355SOL    HW110964   1.483   1.383   4.957
 3355SOL    HW210965   1.509   1.224   4.980
 3356SOL     OW10966   3.385   1.087   5.834
 3356SOL    HW110967   3.317   1.144   5.788
 3356SOL    HW210968   3.472   1.093   5.785
 3357SOL     OW10969   3.152   3.868   3.640
 3357SOL    HW110970   3.074   3.844   3.581
 3357SOL    HW210971   3.123   3.862   3.735
 3358SOL     OW10972   0.059   1.985   1.580
 3358SOL    HW110973   0.004   1.902   1.580
 3358SOL    HW210974   0.046   2.033   1.492
 3359SOL     OW10975   1.074   0.141   3.856
 3359SOL    HW110976   1.024   0.194   3.925
 3359SOL    HW210977   1.132   0.203   3.803
 3360SOL     OW10978   1.281   5.472   4.889
 3360SOL    HW110979   1.347   5.535   4.848
 3360SOL    HW210980   1.203   5.461   4.827
 3361SOL     OW10981   0.452   6.760   4.337
 3361SOL    HW110982   0.423   6.855   4.332
 3361SOL    HW210983   0.409   6.707   4.264
 3362SOL     OW10984   3.632   0.438   4.106
 3362SOL    HW110985   3.654   0.415   4.201
 3362SOL    HW210986   3.538   0.473   4.102
 3363SOL     OW10987   4.783   3.455   0.737
 3363SOL    HW110988   4.822   3.375   0.693
 3363SOL    HW210989   4.806   3.454   0.834
 3364SOL     OW10990   1.724   3.542   1.475
 3364SOL    HW110991   1.694   3.615   1.414
 3364SOL    HW210992   1.725   3.574   1.569
 3365SOL     OW10993   1.176   2.770   2.902
 3365SOL    HW110994   1.271   2.740   2.889
 3365SOL    HW210995   1.172   2.835   2.978
 3366SOL     OW10996   6.015   3.212   4.337
 3366SOL    HW110997   5.939   3.277   4.339
 3366SOL    HW210998   6.101   3.261   4.343
 3367SOL     OW10999   3.463   2.897   3.910
 3367SOL    HW111000   3.502   2.912   3.819
 3367SOL    HW211001   3.380   2.951   3.919
 3368SOL     OW11002   2.388   1.115   3.628
 3368SOL    HW111003   2.411   1.071   3.542
 3368SOL    HW211004   2.401   1.214   3.620
 3369SOL     OW11005   5.147   2.468   1.216
 3369SOL    HW111006   5.219   2.474   1.147
 3369SOL    HW211007   5.109   2.559   1.233
 3370SOL     OW11008   0.586   5.424   2.785
 3370SOL    HW111009   0.519   5.384   2.723
 3370SOL    HW211010   0.597   5.364   2.865
 3371SOL     OW11011   2.304   2.732   1.283
 3371SOL    HW111012   2.233   2.802   1.296
 3371SOL    HW211013   2.365   2.761   1.208
 3372SOL     OW11014   5.619   2.870   3.533
 3372SOL    HW111015   5.525   2.904   3.534
 3372SOL    HW211016   5.620   2.774   3.505
 3373SOL     OW11017   6.943   4.396   0.656
 3373SOL    HW111018   6.981   4.431   0.571
 3373SOL    HW211019   6.897   4.309   0.639
 3374SOL     OW11020   1.192   5.540   3.979
 3374SOL    HW111021   1.100   5.518   3.947
 3374SOL    HW211022   1.201   5.639   3.987
 3375SOL     OW11023   0.150   6.220   5.354
 3375SOL    HW111024   0.136   6.319   5.357
 3375SOL    HW211025   0.212   6.192   5.427
 3376SOL     OW11026   3.192   3.746   4.825
 3376SOL    HW111027   3.208   3.832   4.874
 3376SOL    HW211028   3.093   3.727   4.823
 3377SOL     OW11029   0.136   5.694   3.994
 3377SOL    HW111030   0.036   5.694   3.998
 3377SOL    HW211031   0.172   5.633   4.065
 3378SOL     OW11032   1.299   5.701   0.312
 3378SOL    HW111033   1.284   5.691   0.410
 3378SOL    HW211034   1.212   5.717   0.266
 3379SOL     OW11035   5.761   4.508   4.251
 3379SOL    HW111036   5.842   4.561   4.224
 3379SOL    HW211037   5.707   4.562   4.316
 3380SOL     OW11038   1.910   5.438   1.996
 3380SOL    HW111039   1.934   5.517   1.940
 3380SOL    HW211040   1.933   5.458   2.092
 3381SOL     OW11041   3.043   3.985   6.435
 3381SOL    HW111042   2.984   3.905   6.421
 3381SOL    HW211043   2.987   4.067   6.444
 3382SOL     OW11044   0.345   3.672   6.758
 3382SOL    HW111045   0.392   3.640   6.840
 3382SOL    HW211046   0.255   3.709   6.784
 3383SOL     OW11047   3.069   5.782   0.745
 3383SOL    HW111048   3.096   5.879   0.749
 3383SOL    HW211049   3.004   5.769   0.669
 3384SOL     OW11050   2.866   2.856   6.631
 3384SOL    HW111051   2.933   2.785   6.610
 3384SOL    HW211052   2.840   2.902   6.546
 3385SOL     OW11053   5.595   2.681   4.850
 3385SOL    HW111054   5.543   2.596   4.846
 3385SOL    HW211055   5.561   2.744   4.781
 3386SOL     OW11056   7.014   5.165   5.483
 3386SOL    HW111057   0.059   5.149   5.412
 3386SOL    HW211058   6.924   5.176   5.441
 3387SOL     OW11059   5.863   0.169   2.772
 3387SOL    HW111060   5.934   0.200   2.709
 3387SOL    HW211061   5.847   0.238   2.843
 3388SOL     OW11062   0.822   4.025   0.244
 3388SOL    HW111063   0.775   4.086   0.181
 3388SOL    HW211064   0.823   3.932   0.206
 3389SOL     OW11065   6.641   5.174   6.025
 3389SOL    HW111066   6.618   5.243   5.956
 3389SOL    HW211067   6.557   5.142   6.070
 3390SOL     OW11068   2.928   5.437   0.977
 3390SOL    HW111069   2.951   5.436   0.879
 3390SOL    HW211070   2.943   5.528   1.014
 3391SOL     OW11071   5.506   4.190   5.757
 3391SOL    HW111072   5.575   4.153   5.819
 3391SOL    HW211073   5.545   4.202   5.666
 3392SOL     OW11074   5.071   6.362   5.894
 3392SOL    HW111075   5.166   6.383   5.919
 3392SOL    HW211076   5.066   6.269   5.857
 3393SOL     OW11077   3.647   0.469   0.959
 3393SOL    HW111078   3.588   0.423   0.892
 3393SOL    HW211079   3.711   0.529   0.910
 3394SOL     OW11080   2.529   6.011   1.738
 3394SOL    HW111081   2.506   5.950   1.814
 3394SOL    HW211082   2.628   6.006   1.720
 3395SOL     OW11083   1.925   6.490   3.342
 3395SOL    HW111084   1.909   6.583   3.374
 3395SOL    HW211085   1.961   6.492   3.249
 3396SOL     OW11086   4.390   0.476   4.129
 3396SOL    HW111087   4.349   0.542   4.193
 3396SOL    HW211088   4.382   0.384   4.166
 3397SOL     OW11089   2.181   6.311   1.043
 3397SOL    HW111090   2.105   6.306   0.979
 3397SOL    HW211091   2.172   6.393   1.100
 3398SOL     OW11092   6.533   1.057   6.821
 3398SOL    HW111093   6.467   0.986   6.844
 3398SOL    HW211094   6.485   1.143   6.804
 3399SOL     OW11095   0.136   5.802   2.253
 3399SOL    HW111096   0.120   5.900   2.246
 3399SOL    HW211097   0.083   5.765   2.330
 3400SOL     OW11098   3.718   3.148   5.743
 3400SOL    HW111099   3.706   3.219   5.814
 3400SOL    HW211100   3.809   3.108   5.751
 3401SOL     OW11101   6.800   3.091   4.305
 3401SOL    HW111102   6.847   3.003   4.310
 3401SOL    HW211103   6.800   3.124   4.210
 3402SOL     OW11104   5.208   3.267   0.155
 3402SOL    HW111105   5.151   3.248   0.075
 3402SOL    HW211106   5.294   3.217   0.148
 3403SOL     OW11107   5.369   6.913   4.332
 3403SOL    HW111108   5.399   6.942   4.423
 3403SOL    HW211109   5.440   6.934   4.265
 3404SOL     OW11110   5.334   4.673   3.137
 3404SOL    HW111111   5.242   4.694   3.169
 3404SOL    HW211112   5.397   4.745   3.166
 3405SOL     OW11113   4.341   6.003   1.418
 3405SOL    HW111114   4.354   6.051   1.505
 3405SOL    HW211115   4.244   5.988   1.402
 3406SOL     OW11116   4.435   5.264   1.211
 3406SOL    HW111117   4.359   5.328   1.219
 3406SOL    HW211118   4.405   5.183   1.161
 3407SOL     OW11119   1.620   2.525   0.366
 3407SOL    HW111120   1.542   2.474   0.329
 3407SOL    HW211121   1.687   2.461   0.402
 3408SOL     OW11122   3.705   6.396   3.662
 3408SOL    HW111123   3.665   6.313   3.700
 3408SOL    HW211124   3.635   6.449   3.616
 3409SOL     OW11125   4.462   1.652   6.908
 3409SOL    HW111126   4.481   1.649   7.006
 3409SOL    HW211127   4.394   1.722   6.889
 3410SOL     OW11128   6.917   0.404   2.117
 3410SOL    HW111129   6.926   0.429   2.213
 3410SOL    HW211130   7.006   0.412   2.072
 3411SOL     OW11131   5.718   3.404   6.243
 3411SOL    HW111132   5.810   3.434   6.219
 3411SOL    HW211133   5.715   3.377   6.339
 3412SOL     OW11134   5.252   3.145   3.524
 3412SOL    HW111135   5.171   3.190   3.562
 3412SOL    HW211136   5.302   3.209   3.467
 3413SOL     OW11137   0.716   2.612   0.992
 3413SOL    HW111138   0.634   2.615   0.935
 3413SOL    HW211139   0.719   2.526   1.042
 3414SOL     OW11140   3.941   3.086   2.022
 3414SOL    HW111141   3.863   3.062   1.964
 3414SOL    HW211142   4.016   3.023   2.005
 3415SOL     OW11143   2.368   1.049   6.451
 3415SOL    HW111144   2.396   0.958   6.423
 3415SOL    HW211145   2.307   1.043   6.530
 3416SOL     OW11146   5.112   6.683   5.562
 3416SOL    HW111147   5.210   6.681   5.543
 3416SOL    HW211148   5.060   6.672   5.477
 3417SOL     OW11149   5.783   0.738   2.366
 3417SOL    HW111150   5.727   0.693   2.297
 3417SOL    HW211151   5.843   0.805   2.321
 3418SOL     OW11152   4.081   5.736   1.117
 3418SOL    HW111153   4.006   5.686   1.073
 3418SOL    HW211154   4.121   5.679   1.188
 3419SOL     OW11155   3.140   4.673   5.257
 3419SOL    HW111156   3.063   4.672   5.193
 3419SOL    HW211157   3.170   4.579   5.274
 3420SOL     OW11158   4.116   0.748   1.635
 3420SOL    HW111159   4.156   0.812   1.569
 3420SOL    HW211160   4.104   0.794   1.723
 3421SOL     OW11161   0.450   1.133   4.320
 3421SOL    HW111162   0.379   1.063   4.316
 3421SOL    HW211163   0.472   1.165   4.228
 3422SOL     OW11164   3.424   5.449   1.489
 3422SOL    HW111165   3.357   5.422   1.420
 3422SOL    HW211166   3.387   5.432   1.580
 3423SOL     OW11167   2.054   4.880   6.190
 3423SOL    HW111168   2.101   4.793   6.172
 3423SOL    HW211169   2.067   4.906   6.286
 3424SOL     OW11170   5.497   6.877   2.318
 3424SOL    HW111171   5.400   6.903   2.314
 3424SOL    HW211172   5.509   6.786   2.278
 3425SOL     OW11173   5.390   3.021   6.296
 3425SOL    HW111174   5.372   3.111   6.257
 3425SOL    HW211175   5.484   2.993   6.274
 3426SOL     OW11176   6.795   5.394   6.682
 3426SOL    HW111177   6.875   5.432   6.728
 3426SOL    HW211178   6.719   5.388   6.747
 3427SOL     OW11179   1.887   1.373   6.908
 3427SOL    HW111180   1.892   1.446   6.840
 3427SOL    HW211181   1.899   1.284   6.862
 3428SOL     OW11182   4.690   0.191   4.005
 3428SOL    HW111183   4.698   0.122   4.077
 3428SOL    HW211184   4.594   0.196   3.975
 3429SOL     OW11185   4.176   5.995   1.045
 3429SOL    HW111186   4.138   5.913   1.088
 3429SOL    HW211187   4.150   5.997   0.949
 3430SOL     OW11188   2.329   4.374   6.522
 3430SOL    HW111189   2.403   4.307   6.527
 3430SOL    HW211190   2.241   4.327   6.525
 3431SOL     OW11191   1.091   4.405   2.774
 3431SOL    HW111192   1.008   4.352   2.792
 3431SOL    HW211193   1.164   4.377   2.836
 3432SOL     OW11194   0.341   5.174   6.770
 3432SOL    HW111195   0.292   5.196   6.854
 3432SOL    HW211196   0.390   5.088   6.781
 3433SOL     OW11197   0.837   0.669   0.494
 3433SOL    HW111198   0.791   0.712   0.417
 3433SOL    HW211199   0.770   0.642   0.563
 3434SOL     OW11200   4.275   2.298   2.306
 3434SOL    HW111201   4.272   2.271   2.210
 3434SOL    HW211202   4.210   2.373   2.322
 3435SOL     OW11203   2.348   3.078   1.007
 3435SOL    HW111204   2.253   3.083   1.038
 3435SOL    HW211205   2.354   3.114   0.914
 3436SOL     OW11206   4.275   5.690   5.532
 3436SOL    HW111207   4.315   5.701   5.441
 3436SOL    HW211208   4.203   5.621   5.528
 3437SOL     OW11209   1.625   6.651   0.371
 3437SOL    HW111210   1.716   6.667   0.331
 3437SOL    HW211211   1.570   6.734   0.361
 3438SOL     OW11212   1.994   4.356   0.101
 3438SOL    HW111213   1.917   4.379   0.041
 3438SOL    HW211214   2.012   4.258   0.095
 3439SOL     OW11215   2.698   6.067   1.330
 3439SOL    HW111216   2.608   6.026   1.341
 3439SOL    HW211217   2.732   6.050   1.238
 3440SOL     OW11218   4.069   4.163   5.910
 3440SOL    HW111219   4.037   4.148   5.816
 3440SOL    HW211220   4.140   4.096   5.932
 3441SOL     OW11221   6.714   5.238   4.774
 3441SOL    HW111222   6.645   5.191   4.829
 3441SOL    HW211223   6.719   5.334   4.800
 3442SOL     OW11224   0.956   1.809   0.423
 3442SOL    HW111225   0.960   1.860   0.509
 3442SOL    HW211226   0.896   1.858   0.359
 3443SOL     OW11227   0.023   5.340   2.438
 3443SOL    HW111228   6.988   5.325   2.518
 3443SOL    HW211229   0.052   5.436   2.436
 3444SOL     OW11230   0.957   4.245   6.614
 3444SOL    HW111231   1.056   4.255   6.617
 3444SOL    HW211232   0.933   4.149   6.600
 3445SOL     OW11233   5.992   5.390   4.389
 3445SOL    HW111234   6.048   5.465   4.353
 3445SOL    HW211235   6.012   5.378   4.486
 3446SOL     OW11236   4.780   1.350   0.266
 3446SOL    HW111237   4.781   1.448   0.283
 3446SOL    HW211238   4.801   1.332   0.169
 3447SOL     OW11239   5.621   1.593   5.841
 3447SOL    HW111240   5.538   1.579   5.896
 3447SOL    HW211241   5.606   1.669   5.777
 3448SOL     OW11242   0.628   4.975   5.152
 3448SOL    HW111243   0.665   4.919   5.078
 3448SOL    HW211244   0.642   4.928   5.240
 3449SOL     OW11245   1.747   3.921   4.909
 3449SOL    HW111246   1.837   3.950   4.944
 3449SOL    HW211247   1.757   3.833   4.862
 3450SOL     OW11248   2.333   6.565   2.468
 3450SOL    HW111249   2.341   6.498   2.395
 3450SOL    HW211250   2.243   6.557   2.512
 3451SOL     OW11251   1.937   2.073   0.652
 3451SOL    HW111252   1.859   2.071   0.590
 3451SOL    HW211253   1.942   2.162   0.698
 3452SOL     OW11254   4.722   1.160   5.832
 3452SOL    HW111255   4.808   1.209   5.847
 3452SOL    HW211256   4.695   1.169   5.736
 3453SOL     OW11257   4.279   5.975   5.550
 3453SOL    HW111258   4.235   5.887   5.569
 3453SOL    HW211259   4.376   5.960   5.532
 3454SOL     OW11260   1.213   3.087   3.529
 3454SOL    HW111261   1.196   3.050   3.621
 3454SOL    HW211262   1.126   3.105   3.483
 3455SOL     OW11263   1.229   4.253   6.605
 3455SOL    HW111264   1.291   4.190   6.557
 3455SOL    HW211265   1.267   4.345   6.604
 3456SOL     OW11266   4.216   5.344   3.055
 3456SOL    HW111267   4.257   5.266   3.008
 3456SOL    HW211268   4.199   5.320   3.151
 3457SOL     OW11269   4.260   4.102   6.763
 3457SOL    HW111270   4.199   4.123   6.688
 3457SOL    HW211271   4.214   4.117   6.850
 3458SOL     OW11272   4.544   2.064   0.847
 3458SOL    HW111273   4.615   2.027   0.787
 3458SOL    HW211274   4.535   2.006   0.928
 3459SOL     OW11275   6.898   6.810   2.548
 3459SOL    HW111276   6.941   6.769   2.467
 3459SOL    HW211277   6.817   6.861   2.520
 3460SOL     OW11278   4.372   0.911   5.337
 3460SOL    HW111279   4.451   0.956   5.377
 3460SOL    HW211280   4.289   0.941   5.384
 3461SOL     OW11281   4.731   4.374   3.478
 3461SOL    HW111282   4.679   4.406   3.557
 3461SOL    HW211283   4.747   4.276   3.486
 3462SOL     OW11284   1.307   4.494   6.600
 3462SOL    HW111285   1.328   4.518   6.694
 3462SOL    HW211286   1.225   4.544   6.570
 3463SOL     OW11287   5.607   4.064   0.145
 3463SOL    HW111288   5.681   4.058   0.212
 3463SOL    HW211289   5.640   4.033   0.056
 3464SOL     OW11290   0.098   4.664   3.685
 3464SOL    HW111291   0.001   4.648   3.705
 3464SOL    HW211292   0.110   4.758   3.651
 3465SOL     OW11293   0.734   2.941   1.330
 3465SOL    HW111294   0.688   2.920   1.417
 3465SOL    HW211295   0.756   3.038   1.327
 3466SOL     OW11296   5.886   3.742   3.250
 3466SOL    HW111297   5.827   3.782   3.320
 3466SOL    HW211298   5.963   3.695   3.293
 3467SOL     OW11299   1.530   2.372   5.640
 3467SOL    HW111300   1.578   2.451   5.600
 3467SOL    HW211301   1.577   2.343   5.723
 3468SOL     OW11302   4.767   5.601   1.860
 3468SOL    HW111303   4.694   5.669   1.858
 3468SOL    HW211304   4.745   5.531   1.928
 3469SOL     OW11305   4.919   3.926   0.310
 3469SOL    HW111306   4.823   3.899   0.321
 3469SOL    HW211307   4.951   3.898   0.219
 3470SOL     OW11308   6.480   5.420   0.663
 3470SOL    HW111309   6.479   5.406   0.762
 3470SOL    HW211310   6.410   5.487   0.639
 3471SOL     OW11311   4.455   6.699   4.669
 3471SOL    HW111312   4.358   6.721   4.663
 3471SOL    HW211313   4.484   6.656   4.583
 3472SOL     OW11314   3.985   0.082   4.694
 3472SOL    HW111315   3.922   0.160   4.693
 3472SOL    HW211316   4.061   0.101   4.756
 3473SOL     OW11317   4.188   6.354   3.953
 3473SOL    HW111318   4.186   6.276   4.015
 3473SOL    HW211319   4.198   6.321   3.859
 3474SOL     OW11320   4.265   4.948   0.218
 3474SOL    HW111321   4.186   4.931   0.159
 3474SOL    HW211322   4.342   4.980   0.163
 3475SOL     OW11323   1.158   5.443   5.583
 3475SOL    HW111324   1.083   5.454   5.649
 3475SOL    HW211325   1.166   5.346   5.559
 3476SOL     OW11326   4.068   1.543   3.628
 3476SOL    HW111327   4.016   1.534   3.544
 3476SOL    HW211328   4.088   1.639   3.645
 3477SOL     OW11329   4.601   5.592   2.268
 3477SOL    HW111330   4.583   5.533   2.189
 3477SOL    HW211331   4.639   5.537   2.343
 3478SOL     OW11332   3.675   4.253   0.470
 3478SOL    HW111333   3.597   4.261   0.533
 3478SOL    HW211334   3.703   4.157   0.463
 3479SOL     OW11335   1.755   0.453   0.216
 3479SOL    HW111336   1.733   0.496   0.303
 3479SOL    HW211337   1.849   0.477   0.189
 3480SOL     OW11338   1.145   6.207   4.416
 3480SOL    HW111339   1.226   6.150   4.429
 3480SOL    HW211340   1.085   6.197   4.495
 3481SOL     OW11341   2.260   5.521   0.393
 3481SOL    HW111342   2.268   5.490   0.298
 3481SOL    HW211343   2.297   5.614   0.400
 3482SOL     OW11344   0.267   2.291   1.364
 3482SOL    HW111345   0.238   2.214   1.308
 3482SOL    HW211346   0.189   2.323   1.419
 3483SOL     OW11347   3.901   0.958   1.144
 3483SOL    HW111348   3.949   0.875   1.169
 3483SOL    HW211349   3.893   0.964   1.044
 3484SOL     OW11350   3.953   3.919   2.989
 3484SOL    HW111351   3.983   3.824   2.996
 3484SOL    HW211352   3.938   3.956   3.081
 3485SOL     OW11353   6.061   2.097   4.656
 3485SOL    HW111354   6.161   2.098   4.655
 3485SOL    HW211355   6.027   2.053   4.573
 3486SOL     OW11356   5.640   1.294   3.277
 3486SOL    HW111357   5.547   1.269   3.250
 3486SOL    HW211358   5.701   1.288   3.198
 3487SOL     OW11359   1.316   0.436   0.800
 3487SOL    HW111360   1.286   0.366   0.864
 3487SOL    HW211361   1.383   0.496   0.846
 3488SOL     OW11362   6.398   3.692   5.186
 3488SOL    HW111363   6.487   3.649   5.203
 3488SOL    HW211364   6.340   3.628   5.135
 3489SOL     OW11365   3.190   5.328   7.006
 3489SOL    HW111366   3.263   5.361   6.945
 3489SOL    HW211367   3.180   5.229   6.995
 3490SOL     OW11368   4.717   3.719   6.968
 3490SOL    HW111369   4.667   3.803   6.992
 3490SOL    HW211370   4.656   3.640   6.980
 3491SOL     OW11371   5.394   2.742   5.045
 3491SOL    HW111372   5.494   2.741   5.047
 3491SOL    HW211373   5.363   2.765   4.953
 3492SOL     OW11374   6.583   4.206   6.727
 3492SOL    HW111375   6.545   4.168   6.643
 3492SOL    HW211376   6.683   4.213   6.718
 3493SOL     OW11377   6.320   4.477   1.046
 3493SOL    HW111378   6.318   4.567   1.003
 3493SOL    HW211379   6.227   4.441   1.054
 3494SOL     OW11380   3.543   6.632   1.341
 3494SOL    HW111381   3.578   6.683   1.263
 3494SOL    HW211382   3.451   6.598   1.320
 3495SOL     OW11383   6.154   4.445   6.292
 3495SOL    HW111384   6.105   4.439   6.378
 3495SOL    HW211385   6.093   4.482   6.221
 3496SOL     OW11386   0.339   6.325   0.850
 3496SOL    HW111387   0.315   6.416   0.816
 3496SOL    HW211388   0.282   6.303   0.929
 3497SOL     OW11389   2.916   0.250   5.230
 3497SOL    HW111390   2.915   0.294   5.140
 3497SOL    HW211391   3.009   0.252   5.267
 3498SOL     OW11392   0.794   1.621   0.241
 3498SOL    HW111393   0.774   1.718   0.250
 3498SOL    HW211394   0.889   1.609   0.210
 3499SOL     OW11395   6.511   3.910   4.016
 3499SOL    HW111396   6.470   4.001   4.020
 3499SOL    HW211397   6.608   3.918   3.991
 3500SOL     OW11398   6.108   2.816   1.032
 3500SOL    HW111399   6.035   2.809   1.100
 3500SOL    HW211400   6.183   2.756   1.059
 3501SOL     OW11401   0.431   4.768   3.108
 3501SOL    HW111402   0.374   4.749   3.188
 3501SOL    HW211403   0.380   4.827   3.045
 3502SOL     OW11404   1.116   5.963   1.001
 3502SOL    HW111405   1.047   6.030   1.028
 3502SOL    HW211406   1.072   5.877   0.975
 3503SOL     OW11407   3.328   6.734   3.525
 3503SOL    HW111408   3.383   6.806   3.482
 3503SOL    HW211409   3.251   6.711   3.465
 3504SOL     OW11410   2.177   3.172   2.811
 3504SOL    HW111411   2.138   3.161   2.720
 3504SOL    HW211412   2.167   3.267   2.840
 3505SOL     OW11413   4.362   6.404   4.755
 3505SOL    HW111414   4.391   6.496   4.729
 3505SOL    HW211415   4.442   6.346   4.770
 3506SOL     OW11416   6.876   4.436   2.364
 3506SOL    HW111417   6.906   4.373   2.293
 3506SOL    HW211418   6.787   4.407   2.399
 3507SOL     OW11419   6.736   0.372   5.954
 3507SOL    HW111420   6.666   0.443   5.954
 3507SOL    HW211421   6.772   0.359   6.046
 3508SOL     OW11422   6.582   4.425   6.964
 3508SOL    HW111423   6.584   4.356   6.892
 3508SOL    HW211424   6.623   4.510   6.929
 3509SOL     OW11425   5.152   6.747   6.990
 3509SOL    HW111426   5.108   6.831   6.958
 3509SOL    HW211427   5.250   6.764   7.001
 3510SOL     OW11428   2.255   1.397   2.212
 3510SOL    HW111429   2.320   1.347   2.155
 3510SOL    HW211430   2.273   1.495   2.205
 3511SOL     OW11431   1.287   1.043   4.330
 3511SOL    HW111432   1.362   1.083   4.383
 3511SOL    HW211433   1.206   1.103   4.337
 3512SOL     OW11434   4.001   3.136   1.331
 3512SOL    HW111435   4.068   3.206   1.354
 3512SOL    HW211436   4.021   3.053   1.385
 3513SOL     OW11437   6.423   4.533   1.298
 3513SOL    HW111438   6.394   4.505   1.206
 3513SOL    HW211439   6.414   4.455   1.360
 3514SOL     OW11440   2.601   5.907   2.730
 3514SOL    HW111441   2.575   5.918   2.634
 3514SOL    HW211442   2.520   5.908   2.787
 3515SOL     OW11443   3.797   5.800   3.456
 3515SOL    HW111444   3.775   5.707   3.428
 3515SOL    HW211445   3.736   5.864   3.411
 3516SOL     OW11446   1.328   1.531   0.450
 3516SOL    HW111447   1.303   1.624   0.422
 3516SOL    HW211448   1.253   1.469   0.428
 3517SOL     OW11449   0.211   0.454   6.783
 3517SOL    HW111450   0.265   0.455   6.867
 3517SOL    HW211451   0.217   0.363   6.741
 3518SOL     OW11452   4.011   3.698   6.127
 3518SOL    HW111453   4.068   3.629   6.082
 3518SOL    HW211454   3.957   3.746   6.059
 3519SOL     OW11455   3.470   0.288   0.337
 3519SOL    HW111456   3.443   0.260   0.245
 3519SOL    HW211457   3.423   0.373   0.361
 3520SOL     OW11458   3.703   4.948   1.548
 3520SOL    HW111459   3.785   4.892   1.536
 3520SOL    HW211460   3.697   5.015   1.474
 3521SOL     OW11461   6.791   2.197   5.591
 3521SOL    HW111462   6.885   2.163   5.592
 3521SOL    HW211463   6.731   2.129   5.635
 3522SOL     OW11464   2.369   0.713   0.746
 3522SOL    HW111465   2.363   0.697   0.845
 3522SOL    HW211466   2.423   0.641   0.703
 3523SOL     OW11467   2.387   4.455   5.025
 3523SOL    HW111468   2.346   4.364   5.030
 3523SOL    HW211469   2.365   4.497   4.937
 3524SOL     OW11470   2.853   1.831   3.645
 3524SOL    HW111471   2.833   1.909   3.586
 3524SOL    HW211472   2.944   1.796   3.626
 3525SOL     OW11473   1.735   3.037   3.641
 3525SOL    HW111474   1.683   2.956   3.668
 3525SOL    HW211475   1.757   3.031   3.543
 3526SOL     OW11476   3.485   6.176   3.415
 3526SOL    HW111477   3.428   6.109   3.368
 3526SOL    HW211478   3.570   6.190   3.364
 3527SOL     OW11479   6.000   3.721   6.944
 3527SOL    HW111480   5.905   3.688   6.943
 3527SOL    HW211481   6.049   3.684   6.866
 3528SOL     OW11482   1.409   0.076   4.421
 3528SOL    HW111483   1.503   0.070   4.455
 3528SOL    HW211484   1.346   0.087   4.497
 3529SOL     OW11485   3.914   5.579   0.365
 3529SOL    HW111486   3.953   5.656   0.416
 3529SOL    HW211487   3.974   5.499   0.373
 3530SOL     OW11488   1.946   5.716   3.186
 3530SOL    HW111489   1.994   5.671   3.261
 3530SOL    HW211490   1.880   5.653   3.146
 3531SOL     OW11491   4.909   4.680   7.013
 3531SOL    HW111492   4.980   4.700   6.946
 3531SOL    HW211493   4.824   4.658   6.966
 3532SOL     OW11494   2.741   6.637   0.638
 3532SOL    HW111495   2.810   6.628   0.710
 3532SOL    HW211496   2.651   6.647   0.680
 3533SOL     OW11497   1.770   1.080   3.342
 3533SOL    HW111498   1.822   1.154   3.299
 3533SOL    HW211499   1.704   1.043   3.276
 3534SOL     OW11500   5.177   0.016   4.162
 3534SOL    HW111501   5.210   6.973   4.228
 3534SOL    HW211502   5.132   0.091   4.209
 3535SOL     OW11503   4.749   5.699   0.413
 3535SOL    HW111504   4.806   5.774   0.380
 3535SOL    HW211505   4.796   5.651   0.487
 3536SOL     OW11506   1.599   3.468   2.714
 3536SOL    HW111507   1.669   3.417   2.763
 3536SOL    HW211508   1.559   3.537   2.774
 3537SOL     OW11509   3.130   4.839   2.392
 3537SOL    HW111510   3.112   4.815   2.297
 3537SOL    HW211511   3.051   4.815   2.449
 3538SOL     OW11512   3.736   0.437   3.402
 3538SOL    HW111513   3.761   0.432   3.499
 3538SOL    HW211514   3.666   0.369   3.383
 3539SOL     OW11515   4.770   5.246   4.985
 3539SOL    HW111516   4.703   5.177   5.013
 3539SOL    HW211517   4.808   5.290   5.066
 3540SOL     OW11518   4.519   4.553   6.448
 3540SOL    HW111519   4.568   4.516   6.527
 3540SOL    HW211520   4.567   4.632   6.412
 3541SOL     OW11521   0.374   2.911   2.528
 3541SOL    HW111522   0.433   2.831   2.529
 3541SOL    HW211523   0.409   2.979   2.592
 3542SOL     OW11524   5.735   1.571   0.009
 3542SOL    HW111525   5.653   1.605   0.055
 3542SOL    HW211526   5.813   1.578   0.072
 3543SOL     OW11527   0.074   3.132   3.952
 3543SOL    HW111528   0.054   3.229   3.939
 3543SOL    HW211529   0.060   3.084   3.866
 3544SOL     OW11530   2.899   4.642   6.164
 3544SOL    HW111531   2.831   4.671   6.097
 3544SOL    HW211532   2.976   4.705   6.162
 3545SOL     OW11533   3.252   6.665   0.961
 3545SOL    HW111534   3.205   6.715   1.033
 3545SOL    HW211535   3.207   6.577   0.946
 3546SOL     OW11536   6.537   4.773   1.356
 3546SOL    HW111537   6.636   4.769   1.370
 3546SOL    HW211538   6.498   4.682   1.370
 3547SOL     OW11539   1.275   3.483   4.571
 3547SOL    HW111540   1.283   3.456   4.667
 3547SOL    HW211541   1.270   3.582   4.565
 3548SOL     OW11542   6.269   0.580   5.708
 3548SOL    HW111543   6.257   0.483   5.685
 3548SOL    HW211544   6.365   0.605   5.696
 3549SOL     OW11545   2.702   6.892   6.723
 3549SOL    HW111546   2.693   6.856   6.630
 3549SOL    HW211547   2.740   6.822   6.783
 3550SOL     OW11548   5.799   1.917   5.661
 3550SOL    HW111549   5.881   1.945   5.710
 3550SOL    HW211550   5.820   1.842   5.598
 3551SOL     OW11551   6.069   1.425   4.637
 3551SOL    HW111552   6.124   1.343   4.619
 3551SOL    HW211553   5.984   1.421   4.584
 3552SOL     OW11554   6.992   0.656   3.115
 3552SOL    HW111555   0.047   0.593   3.120
 3552SOL    HW211556   7.003   0.728   3.183
 3553SOL     OW11557   5.786   6.363   6.316
 3553SOL    HW111558   5.725   6.288   6.292
 3553SOL    HW211559   5.780   6.381   6.414
 3554SOL     OW11560   5.421   4.234   6.122
 3554SOL    HW111561   5.436   4.331   6.138
 3554SOL    HW211562   5.508   4.188   6.108
 3555SOL     OW11563   2.802   1.409   5.425
 3555SOL    HW111564   2.893   1.440   5.453
 3555SOL    HW211565   2.766   1.470   5.354
 3556SOL     OW11566   5.918   1.495   0.574
 3556SOL    HW111567   5.823   1.470   0.596
 3556SOL    HW211568   5.920   1.588   0.538
 3557SOL     OW11569   4.938   6.391   1.652
 3557SOL    HW111570   4.997   6.317   1.682
 3557SOL    HW211571   4.929   6.389   1.553
 3558SOL     OW11572   4.331   5.652   2.331
 3558SOL    HW111573   4.428   5.628   2.322
 3558SOL    HW211574   4.278   5.598   2.266
 3559SOL     OW11575   4.174   6.378   5.863
 3559SOL    HW111576   4.219   6.295   5.830
 3559SOL    HW211577   4.080   6.356   5.890
 3560SOL     OW11578   1.967   5.990   4.628
 3560SOL    HW111579   2.062   5.968   4.651
 3560SOL    HW211580   1.944   5.950   4.539
 3561SOL     OW11581   3.935   3.108   6.098
 3561SOL    HW111582   3.963   3.143   6.187
 3561SOL    HW211583   3.976   3.018   6.083
 3562SOL     OW11584   3.278   1.023   0.625
 3562SOL    HW111585   3.251   0.954   0.558
 3562SOL    HW211586   3.355   0.988   0.679
 3563SOL     OW11587   0.107   2.292   6.915
 3563SOL    HW111588   0.163   2.310   6.996
 3563SOL    HW211589   0.011   2.301   6.939
 3564SOL     OW11590   6.109   3.482   3.062
 3564SOL    HW111591   6.014   3.488   3.091
 3564SOL    HW211592   6.121   3.534   2.977
 3565SOL     OW11593   4.958   6.864   4.773
 3565SOL    HW111594   4.917   6.949   4.741
 3565SOL    HW211595   4.893   6.789   4.763
 3566SOL     OW11596   0.700   1.043   5.537
 3566SOL    HW111597   0.609   1.022   5.501
 3566SOL    HW211598   0.717   1.141   5.529
 3567SOL     OW11599   0.428   4.694   6.860
 3567SOL    HW111600   0.388   4.697   6.951
 3567SOL    HW211601   0.510   4.637   6.861
 3568SOL     OW11602   3.767   4.411   5.518
 3568SOL    HW111603   3.745   4.352   5.440
 3568SOL    HW211604   3.843   4.471   5.495
 3569SOL     OW11605   1.884   0.765   3.124
 3569SOL    HW111606   1.870   0.823   3.043
 3569SOL    HW211607   1.881   0.669   3.097
 3570SOL     OW11608   6.625   1.616   4.366
 3570SOL    HW111609   6.623   1.602   4.267
 3570SOL    HW211610   6.638   1.714   4.385
 3571SOL     OW11611   6.681   5.435   4.446
 3571SOL    HW111612   6.665   5.345   4.486
 3571SOL    HW211613   6.774   5.465   4.465
 3572SOL     OW11614   5.791   6.823   5.215
 3572SOL    HW111615   5.851   6.824   5.295
 3572SOL    HW211616   5.839   6.782   5.138
 3573SOL     OW11617   0.434   2.265   1.570
 3573SOL    HW111618   0.483   2.182   1.598
 3573SOL    HW211619   0.382   2.246   1.486
 3574SOL     OW11620   6.664   3.725   0.068
 3574SOL    HW111621   6.623   3.795   0.127
 3574SOL    HW211622   6.642   3.634   0.105
 3575SOL     OW11623   6.025   0.283   2.578
 3575SOL    HW111624   6.118   0.265   2.547
 3575SOL    HW211625   5.972   0.325   2.503
 3576SOL     OW11626   0.619   0.931   0.587
 3576SOL    HW111627   0.569   1.014   0.607
 3576SOL    HW211628   0.573   0.880   0.514
 3577SOL     OW11629   2.683   4.998   0.006
 3577SOL    HW111630   2.700   4.941   6.949
 3577SOL    HW211631   2.585   5.004   0.023
 3578SOL     OW11632   3.349   4.524   1.670
 3578SOL    HW111633   3.408   4.582   1.726
 3578SOL    HW211634   3.266   4.503   1.720
 3579SOL     OW11635   1.714   3.459   5.669
 3579SOL    HW111636   1.736   3.554   5.647
 3579SOL    HW211637   1.749   3.437   5.759
 3580SOL     OW11638   5.793   2.094   1.022
 3580SOL    HW111639   5.798   2.002   1.061
 3580SOL    HW211640   5.783   2.087   0.922
 3581SOL     OW11641   0.087   1.097   2.864
 3581SOL    HW111642   0.139   1.111   2.780
 3581SOL    HW211643   0.004   1.152   2.861
 3582SOL     OW11644   0.448   0.044   5.905
 3582SOL    HW111645   0.351   0.043   5.880
 3582SOL    HW211646   0.461   7.014   5.988
 3583SOL     OW11647   1.183   5.971   1.687
 3583SOL    HW111648   1.270   5.934   1.654
 3583SOL    HW211649   1.166   5.940   1.780
 3584SOL     OW11650   5.618   0.556   5.039
 3584SOL    HW111651   5.586   0.615   4.965
 3584SOL    HW211652   5.624   0.462   5.007
 3585SOL     OW11653   2.611   4.603   3.570
 3585SOL    HW111654   2.605   4.609   3.670
 3585SOL    HW211655   2.666   4.523   3.545
 3586SOL     OW11656   1.216   1.023   6.464
 3586SOL    HW111657   1.286   0.973   6.515
 3586SOL    HW211658   1.129   0.975   6.470
 3587SOL     OW11659   3.691   6.652   6.381
 3587SOL    HW111660   3.679   6.730   6.442
 3587SOL    HW211661   3.606   6.635   6.332
 3588SOL     OW11662   2.736   2.481   5.568
 3588SOL    HW111663   2.685   2.397   5.551
 3588SOL    HW211664   2.674   2.551   5.603
 3589SOL     OW11665   3.218   6.202   4.911
 3589SOL    HW111666   3.168   6.287   4.929
 3589SOL    HW211667   3.154   6.126   4.908
 3590SOL     OW11668   1.510   5.357   0.008
 3590SOL    HW111669   1.496   5.349   6.933
 3590SOL    HW211670   1.604   5.330   0.031
 3591SOL     OW11671   5.259   1.090   5.342
 3591SOL    HW111672   5.288   0.999   5.313
 3591SOL    HW211673   5.303   1.159   5.286
 3592SOL     OW11674   5.933   2.040   2.121
 3592SOL    HW111675   5.892   2.129   2.143
 3592SOL    HW211676   5.868   1.968   2.143
 3593SOL     OW11677   0.993   5.518   4.281
 3593SOL    HW111678   1.046   5.577   4.220
 3593SOL    HW211679   0.996   5.557   4.374
 3594SOL     OW11680   3.978   1.268   4.229
 3594SOL    HW111681   4.031   1.187   4.255
 3594SOL    HW211682   4.003   1.295   4.136
 3595SOL     OW11683   2.366   6.516   6.326
 3595SOL    HW111684   2.376   6.435   6.267
 3595SOL    HW211685   2.284   6.566   6.299
 3596SOL     OW11686   0.057   3.761   3.268
 3596SOL    HW111687   0.072   3.853   3.231
 3596SOL    HW211688   0.035   3.698   3.194
 3597SOL     OW11689   4.114   0.088   4.341
 3597SOL    HW111690   4.061   0.052   4.265
 3597SOL    HW211691   4.115   0.023   4.416
 3598SOL     OW11692   1.708   0.229   0.045
 3598SOL    HW111693   1.769   0.166   0.093
 3598SOL    HW211694   1.701   0.314   0.097
 3599SOL     OW11695   0.258   1.759   4.623
 3599SOL    HW111696   0.211   1.684   4.670
 3599SOL    HW211697   0.347   1.774   4.667
 3600SOL     OW11698   6.436   6.887   1.128
 3600SOL    HW111699   6.406   6.849   1.216
 3600SOL    HW211700   6.478   6.814   1.073
 3601SOL     OW11701   6.746   3.698   6.221
 3601SOL    HW111702   6.832   3.714   6.173
 3601SOL    HW211703   6.762   3.636   6.298
 3602SOL     OW11704   3.121   2.407   1.042
 3602SOL    HW111705   3.091   2.335   1.105
 3602SOL    HW211706   3.220   2.400   1.028
 3603SOL     OW11707   3.724   4.998   4.640
 3603SOL    HW111708   3.722   5.063   4.564
 3603SOL    HW211709   3.632   4.960   4.654
 3604SOL     OW11710   6.176   4.216   3.103
 3604SOL    HW111711   6.101   4.190   3.042
 3604SOL    HW211712   6.152   4.195   3.197
 3605SOL     OW11713   6.192   1.811   6.580
 3605SOL    HW111714   6.148   1.793   6.668
 3605SOL    HW211715   6.257   1.737   6.560
 3606SOL     OW11716   2.211   4.229   2.866
 3606SOL    HW111717   2.142   4.160   2.890
 3606SOL    HW211718   2.241   4.276   2.949
 3607SOL     OW11719   4.645   6.966   6.003
 3607SOL    HW111720   4.647   6.869   5.979
 3607SOL    HW211721   4.670   6.978   6.099
 3608SOL     OW11722   0.685   2.984   3.261
 3608SOL    HW111723   0.650   3.071   3.226
 3608SOL    HW211724   0.697   2.991   3.360
 3609SOL     OW11725   6.817   0.619   3.747
 3609SOL    HW111726   6.854   0.703   3.707
 3609SOL    HW211727   6.891   0.564   3.785
 3610SOL     OW11728   1.377   5.217   5.885
 3610SOL    HW111729   1.449   5.162   5.844
 3610SOL    HW211730   1.410   5.310   5.899
 3611SOL     OW11731   5.328   5.602   5.323
 3611SOL    HW111732   5.356   5.580   5.416
 3611SOL    HW211733   5.232   5.632   5.323
 3612SOL     OW11734   2.377   6.065   0.603
 3612SOL    HW111735   2.458   6.020   0.641
 3612SOL    HW211736   2.324   5.998   0.551
 3613SOL     OW11737   5.298   5.068   6.462
 3613SOL    HW111738   5.386   5.031   6.490
 3613SOL    HW211739   5.282   5.048   6.365
 3614SOL     OW11740   3.677   2.904   4.363
 3614SOL    HW111741   3.581   2.890   4.339
 3614SOL    HW211742   3.726   2.942   4.285
 3615SOL     OW11743   5.074   6.987   5.590
 3615SOL    HW111744   5.004   0.015   5.641
 3615SOL    HW211745   5.110   6.915   5.648
 3616SOL     OW11746   6.158   1.207   4.429
 3616SOL    HW111747   6.115   1.150   4.499
 3616SOL    HW211748   6.112   1.296   4.425
 3617SOL     OW11749   0.164   1.010   0.464
 3617SOL    HW111750   0.219   1.003   0.381
 3617SOL    HW211751   0.222   1.038   0.541
 3618SOL     OW11752   3.179   6.185   6.404
 3618SOL    HW111753   3.109   6.222   6.466
 3618SOL    HW211754   3.227   6.261   6.360
 3619SOL     OW11755   5.309   3.763   3.600
 3619SOL    HW111756   5.316   3.664   3.592
 3619SOL    HW211757   5.213   3.790   3.597
 3620SOL     OW11758   5.926   1.580   5.044
 3620SOL    HW111759   5.996   1.620   4.985
 3620SOL    HW211760   5.918   1.482   5.024
 3621SOL     OW11761   1.378   2.615   5.404
 3621SOL    HW111762   1.412   2.709   5.397
 3621SOL    HW211763   1.379   2.573   5.313
 3622SOL     OW11764   0.768   4.107   0.906
 3622SOL    HW111765   0.802   4.040   0.971
 3622SOL    HW211766   0.683   4.148   0.940
 3623SOL     OW11767   6.590   4.899   4.349
 3623SOL    HW111768   6.690   4.892   4.349
 3623SOL    HW211769   6.550   4.807   4.356
 3624SOL     OW11770   2.418   0.517   1.161
 3624SOL    HW111771   2.462   0.506   1.250
 3624SOL    HW211772   2.465   0.459   1.094
 3625SOL     OW11773   1.010   2.651   4.281
 3625SOL    HW111774   1.026   2.595   4.200
 3625SOL    HW211775   1.073   2.623   4.354
 3626SOL     OW11776   2.439   3.985   5.658
 3626SOL    HW111777   2.428   3.888   5.682
 3626SOL    HW211778   2.501   3.993   5.580
 3627SOL     OW11779   3.545   3.354   3.834
 3627SOL    HW111780   3.572   3.360   3.930
 3627SOL    HW211781   3.621   3.319   3.779
 3628SOL     OW11782   2.141   6.207   4.319
 3628SOL    HW111783   2.116   6.126   4.266
 3628SOL    HW211784   2.063   6.234   4.376
 3629SOL     OW11785   5.945   3.298   5.218
 3629SOL    HW111786   5.949   3.213   5.165
 3629SOL    HW211787   5.854   3.309   5.256
 3630SOL     OW11788   5.712   1.010   5.052
 3630SOL    HW111789   5.768   1.014   4.970
 3630SOL    HW211790   5.663   1.096   5.064
 3631SOL     OW11791   2.154   0.893   4.001
 3631SOL    HW111792   2.191   0.982   3.973
 3631SOL    HW211793   2.063   0.905   4.038
 3632SOL     OW11794   4.731   6.488   6.169
 3632SOL    HW111795   4.732   6.465   6.071
 3632SOL    HW211796   4.817   6.457   6.210
 3633SOL     OW11797   1.224   2.445   5.552
 3633SOL    HW111798   1.264   2.360   5.587
 3633SOL    HW211799   1.293   2.493   5.497
 3634SOL     OW11800   3.295   4.884   5.873
 3634SOL    HW111801   3.247   4.948   5.813
 3634SOL    HW211802   3.289   4.792   5.833
 3635SOL     OW11803   2.279   1.652   4.876
 3635SOL    HW111804   2.223   1.607   4.946
 3635SOL    HW211805   2.231   1.649   4.789
 3636SOL     OW11806   1.484   6.173   0.973
 3636SOL    HW111807   1.430   6.243   1.020
 3636SOL    HW211808   1.423   6.109   0.927
 3637SOL     OW11809   4.807   0.754   1.751
 3637SOL    HW111810   4.818   0.810   1.833
 3637SOL    HW211811   4.809   0.657   1.775
 3638SOL     OW11812   6.406   4.788   3.367
 3638SOL    HW111813   6.315   4.745   3.368
 3638SOL    HW211814   6.404   4.870   3.310
 3639SOL     OW11815   2.929   6.555   0.084
 3639SOL    HW111816   3.019   6.565   0.127
 3639SOL    HW211817   2.876   6.639   0.095
 3640SOL     OW11818   2.398   0.096   1.823
 3640SOL    HW111819   2.349   0.183   1.834
 3640SOL    HW211820   2.396   0.069   1.726
 3641SOL     OW11821   2.188   0.747   4.819
 3641SOL    HW111822   2.202   0.706   4.909
 3641SOL    HW211823   2.090   0.752   4.799
 3642SOL     OW11824   6.081   6.887   2.218
 3642SOL    HW111825   5.989   6.851   2.202
 3642SOL    HW211826   6.133   6.885   2.133
 3643SOL     OW11827   3.889   5.941   4.737
 3643SOL    HW111828   3.838   5.862   4.772
 3643SOL    HW211829   3.933   5.988   4.813
 3644SOL     OW11830   6.394   0.028   1.681
 3644SOL    HW111831   6.323   6.993   1.641
 3644SOL    HW211832   6.352   0.111   1.718
 3645SOL     OW11833   4.487   5.782   3.157
 3645SOL    HW111834   4.500   5.802   3.254
 3645SOL    HW211835   4.390   5.793   3.133
 3646SOL     OW11836   0.348   5.398   5.166
 3646SOL    HW111837   0.322   5.469   5.101
 3646SOL    HW211838   0.429   5.350   5.133
 3647SOL     OW11839   2.802   3.277   1.021
 3647SOL    HW111840   2.857   3.245   1.098
 3647SOL    HW211841   2.755   3.199   0.980
 3648SOL     OW11842   3.001   0.204   3.272
 3648SOL    HW111843   3.026   0.169   3.362
 3648SOL    HW211844   2.906   0.233   3.273
 3649SOL     OW11845   3.246   3.159   1.877
 3649SOL    HW111846   3.213   3.187   1.787
 3649SOL    HW211847   3.174   3.172   1.945
 3650SOL     OW11848   5.673   6.872   1.230
 3650SOL    HW111849   5.597   6.823   1.273
 3650SOL    HW211850   5.643   6.964   1.204
 3651SOL     OW11851   1.678   6.261   2.396
 3651SOL    HW111852   1.655   6.182   2.453
 3651SOL    HW211853   1.620   6.339   2.423
 3652SOL     OW11854   4.675   5.403   2.757
 3652SOL    HW111855   4.700   5.318   2.804
 3652SOL    HW211856   4.758   5.453   2.733
 3653SOL     OW11857   6.414   2.884   4.713
 3653SOL    HW111858   6.509   2.913   4.711
 3653SOL    HW211859   6.394   2.829   4.632
 3654SOL     OW11860   2.046   0.252   1.880
 3654SOL    HW111861   1.969   0.314   1.897
 3654SOL    HW211862   2.033   0.204   1.794
 3655SOL     OW11863   6.642   1.592   3.590
 3655SOL    HW111864   6.661   1.574   3.686
 3655SOL    HW211865   6.712   1.547   3.534
 3656SOL     OW11866   2.458   1.771   2.900
 3656SOL    HW111867   2.385   1.703   2.908
 3656SOL    HW211868   2.541   1.737   2.943
 3657SOL     OW11869   4.552   5.394   2.099
 3657SOL    HW111870   4.507   5.338   2.168
 3657SOL    HW211871   4.516   5.371   2.008
 3658SOL     OW11872   2.203   5.295   5.872
 3658SOL    HW111873   2.130   5.272   5.808
 3658SOL    HW211874   2.197   5.236   5.952
 3659SOL     OW11875   1.161   3.773   0.285
 3659SOL    HW111876   1.150   3.719   0.202
 3659SOL    HW211877   1.072   3.791   0.326
 3660SOL     OW11878   4.151   4.569   1.009
 3660SOL    HW111879   4.195   4.634   0.948
 3660SOL    HW211880   4.083   4.515   0.959
 3661SOL     OW11881   5.608   1.606   1.278
 3661SOL    HW111882   5.522   1.559   1.298
 3661SOL    HW211883   5.625   1.675   1.348
 3662SOL     OW11884   1.614   6.175   4.785
 3662SOL    HW111885   1.520   6.205   4.771
 3662SOL    HW211886   1.676   6.252   4.770
 3663SOL     OW11887   1.447   3.304   5.671
 3663SOL    HW111888   1.528   3.359   5.689
 3663SOL    HW211889   1.470   3.234   5.602
 3664SOL     OW11890   3.753   6.851   2.147
 3664SOL    HW111891   3.821   6.805   2.090
 3664SOL    HW211892   3.686   6.783   2.179
 3665SOL     OW11893   1.717   1.421   5.615
 3665SOL    HW111894   1.755   1.490   5.677
 3665SOL    HW211895   1.650   1.465   5.555
 3666SOL     OW11896   1.320   4.574   3.592
 3666SOL    HW111897   1.344   4.657   3.642
 3666SOL    HW211898   1.220   4.563   3.592
 3667SOL     OW11899   0.815   1.586   6.832
 3667SOL    HW111900   0.808   1.684   6.846
 3667SOL    HW211901   0.898   1.566   6.779
 3668SOL     OW11902   1.809   6.739   2.104
 3668SOL    HW111903   1.784   6.803   2.176
 3668SOL    HW211904   1.906   6.715   2.112
 3669SOL     OW11905   5.345   1.639   4.141
 3669SOL    HW111906   5.347   1.660   4.043
 3669SOL    HW211907   5.287   1.705   4.188
 3670SOL     OW11908   2.589   5.850   6.426
 3670SOL    HW111909   2.687   5.832   6.429
 3670SOL    HW211910   2.540   5.763   6.416
 3671SOL     OW11911   2.291   0.442   3.565
 3671SOL    HW111912   2.231   0.521   3.553
 3671SOL    HW211913   2.358   0.461   3.637
 3672SOL     OW11914   6.528   7.013   0.579
 3672SOL    HW111915   6.576   0.075   0.557
 3672SOL    HW211916   6.568   6.938   0.527
 3673SOL     OW11917   4.479   6.788   6.409
 3673SOL    HW111918   4.422   6.826   6.481
 3673SOL    HW211919   4.449   6.824   6.320
 3674SOL     OW11920   0.887   5.989   0.619
 3674SOL    HW111921   0.798   6.015   0.657
 3674SOL    HW211922   0.943   6.071   0.607
 3675SOL     OW11923   2.274   2.302   4.251
 3675SOL    HW111924   2.245   2.397   4.251
 3675SOL    HW211925   2.333   2.285   4.329
 3676SOL     OW11926   1.436   4.705   2.551
 3676SOL    HW111927   1.417   4.773   2.621
 3676SOL    HW211928   1.388   4.620   2.573
 3677SOL     OW11929   6.051   0.416   3.790
 3677SOL    HW111930   6.044   0.420   3.890
 3677SOL    HW211931   5.974   0.362   3.754
 3678SOL     OW11932   1.016   1.801   3.947
 3678SOL    HW111933   1.019   1.881   4.007
 3678SOL    HW211934   1.081   1.732   3.979
 3679SOL     OW11935   6.717   0.674   1.718
 3679SOL    HW111936   6.646   0.668   1.788
 3679SOL    HW211937   6.806   0.686   1.762
 3680SOL     OW11938   5.846   4.296   4.721
 3680SOL    HW111939   5.889   4.303   4.630
 3680SOL    HW211940   5.764   4.353   4.723
 3681SOL     OW11941   5.373   6.303   4.457
 3681SOL    HW111942   5.348   6.344   4.369
 3681SOL    HW211943   5.441   6.231   4.441
 3682SOL     OW11944   0.719   2.587   6.710
 3682SOL    HW111945   0.621   2.595   6.695
 3682SOL    HW211946   0.756   2.513   6.653
 3683SOL     OW11947   5.281   6.390   3.302
 3683SOL    HW111948   5.288   6.292   3.322
 3683SOL    HW211949   5.371   6.426   3.278
 3684SOL     OW11950   1.993   3.359   1.027
 3684SOL    HW111951   1.999   3.397   0.935
 3684SOL    HW211952   2.045   3.273   1.030
 3685SOL     OW11953   5.527   6.982   6.383
 3685SOL    HW111954   5.436   6.944   6.368
 3685SOL    HW211955   5.592   6.935   6.323
 3686SOL     OW11956   6.898   4.160   1.080
 3686SOL    HW111957   6.930   4.066   1.090
 3686SOL    HW211958   6.945   4.202   1.002
 3687SOL     OW11959   3.808   1.515   0.369
 3687SOL    HW111960   3.877   1.448   0.344
 3687SOL    HW211961   3.808   1.590   0.302
 3688SOL     OW11962   6.825   3.440   0.236
 3688SOL    HW111963   6.827   3.370   0.307
 3688SOL    HW211964   6.736   3.440   0.191
 3689SOL     OW11965   2.087   6.718   3.543
 3689SOL    HW111966   2.048   6.644   3.598
 3689SOL    HW211967   2.015   6.757   3.485
 3690SOL     OW11968   4.724   5.662   4.855
 3690SOL    HW111969   4.650   5.712   4.810
 3690SOL    HW211970   4.733   5.572   4.813
 3691SOL     OW11971   3.337   3.144   5.982
 3691SOL    HW111972   3.285   3.147   5.897
 3691SOL    HW211973   3.369   3.051   5.998
 3692SOL     OW11974   0.175   0.035   5.892
 3692SOL    HW111975   0.118   7.020   5.964
 3692SOL    HW211976   0.146   0.129   5.873
 3693SOL     OW11977   1.618   1.124   3.563
 3693SOL    HW111978   1.703   1.112   3.512
 3693SOL    HW211979   1.635   1.113   3.661
 3694SOL     OW11980   2.024   5.416   3.110
 3694SOL    HW111981   1.929   5.441   3.091
 3694SOL    HW211982   2.082   5.497   3.100
 3695SOL     OW11983   1.678   2.242   1.078
 3695SOL    HW111984   1.774   2.213   1.082
 3695SOL    HW211985   1.619   2.162   1.088
 3696SOL     OW11986   3.070   6.354   5.692
 3696SOL    HW111987   2.986   6.306   5.671
 3696SOL    HW211988   3.091   6.344   5.789
 3697SOL     OW11989   4.983   0.582   4.056
 3697SOL    HW111990   4.925   0.514   4.013
 3697SOL    HW211991   5.004   0.553   4.150
 3698SOL     OW11992   3.736   0.233   6.672
 3698SOL    HW111993   3.784   0.211   6.756
 3698SOL    HW211994   3.785   0.305   6.623
 3699SOL     OW11995   0.625   5.286   1.675
 3699SOL    HW111996   0.644   5.282   1.576
 3699SOL    HW211997   0.712   5.287   1.724
 3700SOL     OW11998   6.946   0.846   3.661
 3700SOL    HW111999   6.931   0.912   3.735
 3700SOL    HW212000   6.974   0.896   3.579
 3701SOL     OW12001   5.323   0.597   4.008
 3701SOL    HW112002   5.286   0.506   4.027
 3701SOL    HW212003   5.248   0.663   4.003
 3702SOL     OW12004   5.256   0.919   6.469
 3702SOL    HW112005   5.215   0.944   6.382
 3702SOL    HW212006   5.355   0.932   6.465
 3703SOL     OW12007   3.527   4.769   1.000
 3703SOL    HW112008   3.453   4.722   1.049
 3703SOL    HW212009   3.534   4.733   0.907
 3704SOL     OW12010   3.147   6.492   1.614
 3704SOL    HW112011   3.158   6.462   1.708
 3704SOL    HW212012   3.178   6.587   1.605
 3705SOL     OW12013   6.519   1.327   4.157
 3705SOL    HW112014   6.531   1.267   4.078
 3705SOL    HW212015   6.478   1.276   4.232
 3706SOL     OW12016   3.162   2.203   3.168
 3706SOL    HW112017   3.193   2.272   3.103
 3706SOL    HW212018   3.237   2.139   3.188
 3707SOL     OW12019   4.368   2.464   5.513
 3707SOL    HW112020   4.368   2.534   5.585
 3707SOL    HW212021   4.441   2.398   5.531
 3708SOL     OW12022   6.839   0.282   6.825
 3708SOL    HW112023   6.911   0.213   6.815
 3708SOL    HW212024   6.874   0.371   6.797
 3709SOL     OW12025   6.244   0.142   0.116
 3709SOL    HW112026   6.269   0.160   0.021
 3709SOL    HW212027   6.325   0.115   0.168
 3710SOL     OW12028   0.370   4.676   0.148
 3710SOL    HW112029   0.271   4.693   0.154
 3710SOL    HW212030   0.387   4.578   0.145
 3711SOL     OW12031   6.707   5.203   2.434
 3711SOL    HW112032   6.743   5.163   2.350
 3711SOL    HW212033   6.707   5.133   2.506
 3712SOL     OW12034   1.522   0.424   6.650
 3712SOL    HW112035   1.471   0.421   6.736
 3712SOL    HW212036   1.542   0.519   6.626
 3713SOL     OW12037   4.069   4.974   5.804
 3713SOL    HW112038   4.130   4.895   5.808
 3713SOL    HW212039   4.108   5.049   5.857
 3714SOL     OW12040   4.600   1.558   5.220
 3714SOL    HW112041   4.671   1.628   5.216
 3714SOL    HW212042   4.525   1.589   5.279
 3715SOL     OW12043   5.435   4.113   4.034
 3715SOL    HW112044   5.416   4.205   4.067
 3715SOL    HW212045   5.522   4.112   3.985
 3716SOL     OW12046   0.699   1.370   4.317
 3716SOL    HW112047   0.637   1.349   4.242
 3716SOL    HW212048   0.751   1.288   4.340
 3717SOL     OW12049   6.136   0.645   6.822
 3717SOL    HW112050   6.095   0.623   6.733
 3717SOL    HW212051   6.098   0.731   6.856
 3718SOL     OW12052   0.483   5.815   6.649
 3718SOL    HW112053   0.446   5.783   6.736
 3718SOL    HW212054   0.494   5.737   6.586
 3719SOL     OW12055   3.374   4.752   0.556
 3719SOL    HW112056   3.305   4.702   0.504
 3719SOL    HW212057   3.369   4.849   0.534
 3720SOL     OW12058   0.115   1.146   5.839
 3720SOL    HW112059   0.158   1.237   5.830
 3720SOL    HW212060   0.184   1.076   5.825
 3721SOL     OW12061   4.908   3.224   0.181
 3721SOL    HW112062   4.971   3.290   0.138
 3721SOL    HW212063   4.961   3.153   0.228
 3722SOL     OW12064   5.703   5.873   1.372
 3722SOL    HW112065   5.669   5.935   1.301
 3722SOL    HW212066   5.710   5.781   1.335
 3723SOL     OW12067   5.048   0.912   0.195
 3723SOL    HW112068   4.958   0.954   0.203
 3723SOL    HW212069   5.041   0.826   0.144
 3724SOL     OW12070   0.367   4.588   5.909
 3724SOL    HW112071   0.376   4.671   5.853
 3724SOL    HW212072   0.273   4.582   5.944
 3725SOL     OW12073   5.790   6.138   0.746
 3725SOL    HW112074   5.729   6.194   0.690
 3725SOL    HW212075   5.885   6.157   0.720
 3726SOL     OW12076   6.355   2.652   1.299
 3726SOL    HW112077   6.422   2.722   1.323
 3726SOL    HW212078   6.271   2.665   1.351
 3727SOL     OW12079   2.556   2.784   5.279
 3727SOL    HW112080   2.529   2.875   5.250
 3727SOL    HW212081   2.645   2.789   5.325
 3728SOL     OW12082   0.479   3.557   0.024
 3728SOL    HW112083   0.464   3.629   0.092
 3728SOL    HW212084   0.562   3.579   6.995
 3729SOL     OW12085   0.709   3.087   3.968
 3729SOL    HW112086   0.751   3.109   3.880
 3729SOL    HW212087   0.623   3.039   3.953
 3730SOL     OW12088   1.913   0.432   0.837
 3730SOL    HW112089   1.940   0.406   0.745
 3730SOL    HW212090   1.988   0.411   0.901
 3731SOL     OW12091   3.136   5.294   6.683
 3731SOL    HW112092   3.166   5.373   6.630
 3731SOL    HW212093   3.054   5.319   6.736
 3732SOL     OW12094   2.139   3.549   4.475
 3732SOL    HW112095   2.135   3.548   4.375
 3732SOL    HW212096   2.175   3.636   4.506
 3733SOL     OW12097   3.313   3.729   0.959
 3733SOL    HW112098   3.339   3.693   1.048
 3733SOL    HW212099   3.255   3.809   0.971
 3734SOL     OW12100   4.617   0.147   3.690
 3734SOL    HW112101   4.654   0.215   3.754
 3734SOL    HW212102   4.679   0.069   3.684
 3735SOL     OW12103   3.554   1.974   1.954
 3735SOL    HW112104   3.470   1.983   2.007
 3735SOL    HW212105   3.618   2.046   1.981
 3736SOL     OW12106   4.976   0.927   5.798
 3736SOL    HW112107   5.053   0.959   5.742
 3736SOL    HW212108   4.923   0.860   5.745
 3737SOL     OW12109   3.734   6.692   4.118
 3737SOL    HW112110   3.759   6.671   4.024
 3737SOL    HW212111   3.644   6.654   4.138
 3738SOL     OW12112   6.902   0.121   4.373
 3738SOL    HW112113   6.957   0.154   4.295
 3738SOL    HW212114   6.816   0.172   4.377
 3739SOL     OW12115   0.782   3.234   1.270
 3739SOL    HW112116   0.875   3.255   1.302
 3739SOL    HW212117   0.762   3.289   1.188
 3740SOL     OW12118   5.508   0.382   6.758
 3740SOL    HW112119   5.593   0.369   6.707
 3740SOL    HW212120   5.506   0.319   6.836
 3741SOL     OW12121   3.320   2.118   6.989
 3741SOL    HW112122   3.397   2.092   6.932
 3741SOL    HW212123   3.321   2.063   0.050
 3742SOL     OW12124   3.493   3.482   5.773
 3742SOL    HW112125   3.466   3.386   5.781
 3742SOL    HW212126   3.453   3.534   5.849
 3743SOL     OW12127   0.984   5.812   6.186
 3743SOL    HW112128   0.956   5.721   6.216
 3743SOL    HW212129   1.053   5.849   6.248
 3744SOL     OW12130   6.371   5.727   2.953
 3744SOL    HW112131   6.449   5.735   3.015
 3744SOL    HW212132   6.403   5.703   2.861
 3745SOL     OW12133   5.041   5.167   2.003
 3745SOL    HW112134   5.129   5.157   2.050
 3745SOL    HW212135   5.047   5.241   1.936
 3746SOL     OW12136   4.312   1.286   1.763
 3746SOL    HW112137   4.287   1.201   1.809
 3746SOL    HW212138   4.292   1.278   1.665
 3747SOL     OW12139   3.230   0.573   0.711
 3747SOL    HW112140   3.186   0.643   0.767
 3747SOL    HW212141   3.321   0.553   0.749
 3748SOL     OW12142   5.110   0.277   1.573
 3748SOL    HW112143   5.144   0.296   1.481
 3748SOL    HW212144   5.150   0.343   1.637
 3749SOL     OW12145   1.512   0.996   4.042
 3749SOL    HW112146   1.434   0.941   4.015
 3749SOL    HW212147   1.484   1.092   4.050
 3750SOL     OW12148   0.193   4.145   6.378
 3750SOL    HW112149   0.285   4.148   6.337
 3750SOL    HW212150   0.129   4.193   6.318
 3751SOL     OW12151   1.662   5.033   1.266
 3751SOL    HW112152   1.746   4.984   1.244
 3751SOL    HW212153   1.681   5.131   1.274
 3752SOL     OW12154   5.062   5.824   6.838
 3752SOL    HW112155   4.977   5.772   6.840
 3752SOL    HW212156   5.139   5.763   6.857
 3753SOL     OW12157   0.307   0.211   3.093
 3753SOL    HW112158   0.321   0.118   3.059
 3753SOL    HW212159   0.395   0.250   3.120
 3754SOL     OW12160   2.933   1.106   1.648
 3754SOL    HW112161   2.872   1.181   1.622
 3754SOL    HW212162   3.028   1.138   1.644
 3755SOL     OW12163   2.314   5.980   4.207
 3755SOL    HW112164   2.278   6.010   4.118
 3755SOL    HW212165   2.366   6.055   4.249
 3756SOL     OW12166   1.363   6.955   0.667
 3756SOL    HW112167   1.278   6.998   0.637
 3756SOL    HW212168   1.363   6.946   0.767
 3757SOL     OW12169   0.279   4.378   0.350
 3757SOL    HW112170   0.278   4.287   0.392
 3757SOL    HW212171   0.339   4.377   0.270
 3758SOL     OW12172   1.512   6.815   3.959
 3758SOL    HW112173   1.531   6.908   3.928
 3758SOL    HW212174   1.425   6.784   3.919
 3759SOL     OW12175   4.803   0.443   3.928
 3759SOL    HW112176   4.746   0.368   3.961
 3759SOL    HW212177   4.854   0.414   3.847
 3760SOL     OW12178   1.155   1.016   3.356
 3760SOL    HW112179   1.119   0.924   3.344
 3760SOL    HW212180   1.234   1.013   3.418
 3761SOL     OW12181   4.997   1.600   5.512
 3761SOL    HW112182   4.958   1.640   5.594
 3761SOL    HW212183   4.925   1.554   5.460
 3762SOL     OW12184   0.607   2.313   4.003
 3762SOL    HW112185   0.670   2.384   4.036
 3762SOL    HW212186   0.556   2.275   4.080
 3763SOL     OW12187   0.498   5.605   6.491
 3763SOL    HW112188   0.438   5.526   6.494
 3763SOL    HW212189   0.471   5.665   6.416
 3764SOL     OW12190   3.005   1.300   2.747
 3764SOL    HW112191   3.053   1.339   2.825
 3764SOL    HW212192   3.023   1.355   2.665
 3765SOL     OW12193   5.385   2.768   2.818
 3765SOL    HW112194   5.435   2.854   2.832
 3765SOL    HW212195   5.290   2.780   2.848
 3766SOL     OW12196   1.258   2.906   2.073
 3766SOL    HW112197   1.305   2.824   2.041
 3766SOL    HW212198   1.294   2.986   2.024
 3767SOL     OW12199   1.901   6.341   5.903
 3767SOL    HW112200   1.980   6.343   5.841
 3767SOL    HW212201   1.819   6.315   5.851
 3768SOL     OW12202   1.639   6.847   2.687
 3768SOL    HW112203   1.715   6.905   2.717
 3768SOL    HW212204   1.614   6.783   2.760
 3769SOL     OW12205   5.063   5.109   4.732
 3769SOL    HW112206   5.048   5.198   4.775
 3769SOL    HW212207   5.161   5.091   4.726
 3770SOL     OW12208   3.194   0.099   1.331
 3770SOL    HW112209   3.134   0.171   1.367
 3770SOL    HW212210   3.254   0.067   1.403
 3771SOL     OW12211   6.738   6.040   5.620
 3771SOL    HW112212   6.694   5.961   5.663
 3771SOL    HW212213   6.809   6.076   5.680
 3772SOL     OW12214   2.160   6.293   1.730
 3772SOL    HW112215   2.116   6.370   1.683
 3772SOL    HW212216   2.257   6.312   1.742
 3773SOL     OW12217   4.604   4.897   6.848
 3773SOL    HW112218   4.634   4.805   6.873
 3773SOL    HW212219   4.627   4.915   6.752
 3774SOL     OW12220   6.782   4.490   1.618
 3774SOL    HW112221   6.775   4.558   1.546
 3774SOL    HW212222   6.744   4.403   1.586
 3775SOL     OW12223   5.252   5.457   4.602
 3775SOL    HW112224   5.347   5.437   4.578
 3775SOL    HW212225   5.223   5.398   4.678
 3776SOL     OW12226   4.203   2.940   6.286
 3776SOL    HW112227   4.245   3.030   6.275
 3776SOL    HW212228   4.274   2.872   6.306
 3777SOL     OW12229   2.841   5.022   3.877
 3777SOL    HW112230   2.775   5.094   3.853
 3777SOL    HW212231   2.916   5.062   3.929
 3778SOL     OW12232   2.749   4.788   6.520
 3778SOL    HW112233   2.754   4.733   6.603
 3778SOL    HW212234   2.715   4.731   6.445
 3779SOL     OW12235   6.757   4.714   6.468
 3779SOL    HW112236   6.742   4.809   6.496
 3779SOL    HW212237   6.804   4.712   6.381
 3780SOL     OW12238   5.750   3.071   2.081
 3780SOL    HW112239   5.730   2.987   2.032
 3780SOL    HW212240   5.719   3.150   2.028
 3781SOL     OW12241   1.686   6.807   5.890
 3781SOL    HW112242   1.655   6.902   5.883
 3781SOL    HW212243   1.735   6.781   5.807
 3782SOL     OW12244   3.744   5.295   0.421
 3782SOL    HW112245   3.725   5.391   0.445
 3782SOL    HW212246   3.819   5.291   0.355
 3783SOL     OW12247   4.525   4.794   5.068
 3783SOL    HW112248   4.599   4.842   5.021
 3783SOL    HW212249   4.444   4.853   5.073
 3784SOL     OW12250   5.894   3.054   5.099
 3784SOL    HW112251   5.795   3.044   5.111
 3784SOL    HW212252   5.935   2.963   5.096
 3785SOL     OW12253   1.391   2.546   2.637
 3785SOL    HW112254   1.412   2.587   2.726
 3785SOL    HW212255   1.324   2.602   2.589
 3786SOL     OW12256   1.920   2.828   5.341
 3786SOL    HW112257   1.964   2.738   5.349
 3786SOL    HW212258   1.986   2.893   5.303
 3787SOL     OW12259   4.993   5.832   4.295
 3787SOL    HW112260   4.998   5.807   4.199
 3787SOL    HW212261   4.906   5.800   4.333
 3788SOL     OW12262   5.827   3.065   5.916
 3788SOL    HW112263   5.755   3.020   5.969
 3788SOL    HW212264   5.915   3.050   5.960
 3789SOL     OW12265   2.047   3.334   1.375
 3789SOL    HW112266   2.005   3.418   1.341
 3789SOL    HW212267   1.993   3.255   1.348
 3790SOL     OW12268   1.244   6.798   1.506
 3790SOL    HW112269   1.215   6.859   1.432
 3790SOL    HW212270   1.344   6.787   1.502
 3791SOL     OW12271   4.763   0.629   4.678
 3791SOL    HW112272   4.678   0.673   4.652
 3791SOL    HW212273   4.768   0.621   4.778
 3792SOL     OW12274   6.191   6.885   3.784
 3792SOL    HW112275   6.173   6.787   3.771
 3792SOL    HW212276   6.133   6.920   3.857
 3793SOL     OW12277   4.582   4.051   0.257
 3793SOL    HW112278   4.618   4.137   0.293
 3793SOL    HW212279   4.562   3.989   0.332
 3794SOL     OW12280   1.438   5.353   6.764
 3794SOL    HW112281   1.348   5.315   6.786
 3794SOL    HW212282   1.437   5.388   6.670
 3795SOL     OW12283   3.456   6.242   0.836
 3795SOL    HW112284   3.495   6.179   0.902
 3795SOL    HW212285   3.529   6.287   0.785
 3796SOL     OW12286   5.713   0.767   6.873
 3796SOL    HW112287   5.629   0.819   6.855
 3796SOL    HW212288   5.689   0.683   6.924
 3797SOL     OW12289   0.130   3.113   1.205
 3797SOL    HW112290   0.179   3.028   1.225
 3797SOL    HW212291   0.161   3.149   1.117
 3798SOL     OW12292   1.029   5.124   3.468
 3798SOL    HW112293   1.058   5.185   3.542
 3798SOL    HW212294   1.108   5.073   3.433
 3799SOL     OW12295   6.501   1.413   3.016
 3799SOL    HW112296   6.530   1.504   3.048
 3799SOL    HW212297   6.435   1.375   3.081
 3800SOL     OW12298   5.532   2.575   2.937
 3800SOL    HW112299   5.455   2.526   2.980
 3800SOL    HW212300   5.496   2.642   2.873
 3801SOL     OW12301   6.347   1.477   0.972
 3801SOL    HW112302   6.362   1.521   1.061
 3801SOL    HW212303   6.310   1.385   0.987
 3802SOL     OW12304   6.620   3.517   2.396
 3802SOL    HW112305   6.546   3.491   2.333
 3802SOL    HW212306   6.604   3.474   2.485
 3803SOL     OW12307   4.328   3.942   5.628
 3803SOL    HW112308   4.270   4.024   5.626
 3803SOL    HW212309   4.408   3.960   5.685
 3804SOL     OW12310   3.724   6.195   3.303
 3804SOL    HW112311   3.807   6.181   3.357
 3804SOL    HW212312   3.739   6.270   3.239
 3805SOL     OW12313   2.455   2.234   6.889
 3805SOL    HW112314   2.433   2.175   6.811
 3805SOL    HW212315   2.550   2.218   6.916
 3806SOL     OW12316   2.122   4.597   2.045
 3806SOL    HW112317   2.038   4.543   2.056
 3806SOL    HW212318   2.111   4.660   1.967
 3807SOL     OW12319   0.666   4.390   3.554
 3807SOL    HW112320   0.571   4.389   3.524
 3807SOL    HW212321   0.674   4.444   3.638
 3808SOL     OW12322   2.908   0.054   5.847
 3808SOL    HW112323   2.916   0.111   5.765
 3808SOL    HW212324   2.842   7.004   5.830
 3809SOL     OW12325   5.460   1.310   1.975
 3809SOL    HW112326   5.460   1.239   2.046
 3809SOL    HW212327   5.541   1.368   1.987
 3810SOL     OW12328   5.162   2.108   3.034
 3810SOL    HW112329   5.208   2.146   2.953
 3810SOL    HW212330   5.227   2.104   3.110
 3811SOL     OW12331   6.986   6.071   5.752
 3811SOL    HW112332   0.004   6.159   5.730
 3811SOL    HW212333   6.953   6.072   5.846
 3812SOL     OW12334   3.863   5.712   0.124
 3812SOL    HW112335   3.924   5.717   0.045
 3812SOL    HW212336   3.892   5.636   0.183
 3813SOL     OW12337   5.659   3.345   0.201
 3813SOL    HW112338   5.560   3.334   0.188
 3813SOL    HW212339   5.706   3.263   0.168
 3814SOL     OW12340   0.582   0.328   5.096
 3814SOL    HW112341   0.496   0.293   5.059
 3814SOL    HW212342   0.651   0.330   5.024
 3815SOL     OW12343   5.193   2.453   6.172
 3815SOL    HW112344   5.230   2.540   6.141
 3815SOL    HW212345   5.142   2.467   6.257
 3816SOL     OW12346   6.649   6.652   1.054
 3816SOL    HW112347   6.647   6.568   1.108
 3816SOL    HW212348   6.690   6.725   1.108
 3817SOL     OW12349   4.005   3.634   1.672
 3817SOL    HW112350   4.059   3.627   1.588
 3817SOL    HW212351   3.932   3.565   1.670
 3818SOL     OW12352   4.902   5.784   2.343
 3818SOL    HW112353   4.974   5.849   2.367
 3818SOL    HW212354   4.834   5.829   2.284
 3819SOL     OW12355   6.359   3.506   3.203
 3819SOL    HW112356   6.391   3.456   3.284
 3819SOL    HW212357   6.299   3.446   3.150
 3820SOL     OW12358   3.255   6.653   5.926
 3820SOL    HW112359   3.176   6.643   5.986
 3820SOL    HW212360   3.237   6.609   5.838
 3821SOL     OW12361   2.142   6.900   0.502
 3821SOL    HW112362   2.050   6.915   0.466
 3821SOL    HW212363   2.171   6.981   0.553
 3822SOL     OW12364   5.266   6.986   2.157
 3822SOL    HW112365   5.255   6.906   2.097
 3822SOL    HW212366   5.238   0.045   2.109
 3823SOL     OW12367   5.381   5.783   4.930
 3823SOL    HW112368   5.410   5.871   4.893
 3823SOL    HW212369   5.458   5.720   4.931
 3824SOL     OW12370   2.151   2.764   0.710
 3824SOL    HW112371   2.158   2.684   0.770
 3824SOL    HW212372   2.106   2.738   0.625
 3825SOL     OW12373   0.488   4.992   5.571
 3825SOL    HW112374   0.465   5.017   5.477
 3825SOL    HW212375   0.545   5.063   5.612
 3826SOL     OW12376   5.020   3.795   3.582
 3826SOL    HW112377   5.011   3.843   3.494
 3826SOL    HW212378   4.992   3.700   3.570
 3827SOL     OW12379   0.345   1.863   6.738
 3827SOL    HW112380   0.265   1.881   6.796
 3827SOL    HW212381   0.395   1.784   6.775
 3828SOL     OW12382   3.645   2.870   4.621
 3828SOL    HW112383   3.682   2.880   4.528
 3828SOL    HW212384   3.676   2.783   4.659
 3829SOL     OW12385   0.552   3.272   1.398
 3829SOL    HW112386   0.636   3.273   1.345
 3829SOL    HW212387   0.530   3.365   1.427
 3830SOL     OW12388   5.646   0.093   3.718
 3830SOL    HW112389   5.548   0.078   3.729
 3830SOL    HW212390   5.681   0.144   3.796
 3831SOL     OW12391   4.840   2.487   3.480
 3831SOL    HW112392   4.893   2.567   3.453
 3831SOL    HW212393   4.792   2.506   3.566
 3832SOL     OW12394   6.373   1.353   3.641
 3832SOL    HW112395   6.353   1.276   3.702
 3832SOL    HW212396   6.384   1.436   3.695
 3833SOL     OW12397   1.673   2.971   5.398
 3833SOL    HW112398   1.698   3.065   5.417
 3833SOL    HW212399   1.756   2.917   5.383
 3834SOL     OW12400   5.089   4.528   1.124
 3834SOL    HW112401   5.070   4.624   1.143
 3834SOL    HW212402   5.123   4.484   1.207
 3835SOL     OW12403   4.319   5.613   5.236
 3835SOL    HW112404   4.239   5.663   5.204
 3835SOL    HW212405   4.395   5.628   5.172
 3836SOL     OW12406   6.844   6.881   4.451
 3836SOL    HW112407   6.862   6.974   4.418
 3836SOL    HW212408   6.931   6.833   4.462
 3837SOL     OW12409   4.783   4.558   5.785
 3837SOL    HW112410   4.881   4.542   5.797
 3837SOL    HW212411   4.768   4.637   5.726
 3838SOL     OW12412   6.608   0.446   4.206
 3838SOL    HW112413   6.532   0.383   4.216
 3838SOL    HW212414   6.604   0.489   4.115
 3839SOL     OW12415   4.855   0.335   3.676
 3839SOL    HW112416   4.827   0.242   3.652
 3839SOL    HW212417   4.842   0.396   3.598
 3840SOL     OW12418   3.915   1.480   6.415
 3840SOL    HW112419   3.873   1.453   6.328
 3840SOL    HW212420   4.014   1.469   6.409
 3841SOL     OW12421   5.925   4.062   3.510
 3841SOL    HW112422   5.955   4.066   3.606
 3841SOL    HW212423   5.911   3.967   3.484
 3842SOL     OW12424   1.714   4.504   5.625
 3842SOL    HW112425   1.773   4.535   5.549
 3842SOL    HW212426   1.762   4.435   5.678
 3843SOL     OW12427   5.705   2.450   6.413
 3843SOL    HW112428   5.657   2.381   6.467
 3843SOL    HW212429   5.638   2.511   6.370
 3844SOL     OW12430   6.684   0.226   0.902
 3844SOL    HW112431   6.599   0.181   0.931
 3844SOL    HW212432   6.751   0.157   0.876
 3845SOL     OW12433   2.230   5.907   0.138
 3845SOL    HW112434   2.298   5.879   0.069
 3845SOL    HW212435   2.263   5.988   0.185
 3846SOL     OW12436   0.136   3.265   2.877
 3846SOL    HW112437   0.072   3.292   2.805
 3846SOL    HW212438   0.230   3.282   2.844
 3847SOL     OW12439   0.623   1.931   7.010
 3847SOL    HW112440   0.619   1.907   6.913
 3847SOL    HW212441   0.686   2.007   7.023
 3848SOL     OW12442   6.558   4.519   2.263
 3848SOL    HW112443   6.590   4.552   2.174
 3848SOL    HW212444   6.559   4.419   2.264
 3849SOL     OW12445   0.590   4.344   6.125
 3849SOL    HW112446   0.575   4.320   6.029
 3849SOL    HW212447   0.688   4.351   6.143
 3850SOL     OW12448   3.090   2.634   1.198
 3850SOL    HW112449   3.062   2.560   1.136
 3850SOL    HW212450   3.190   2.645   1.193
 3851SOL     OW12451   0.620   6.032   2.994
 3851SOL    HW112452   0.630   5.951   2.937
 3851SOL    HW212453   0.544   6.019   3.058
 3852SOL     OW12454   1.833   0.750   5.060
 3852SOL    HW112455   1.816   0.656   5.031
 3852SOL    HW212456   1.909   0.788   5.007
 3853SOL     OW12457   3.047   0.910   3.629
 3853SOL    HW112458   3.100   0.950   3.555
 3853SOL    HW212459   3.090   0.825   3.659
 3854SOL     OW12460   0.573   1.953   2.191
 3854SOL    HW112461   0.484   1.920   2.161
 3854SOL    HW212462   0.599   2.033   2.136
 3855SOL     OW12463   3.596   6.463   6.552
 3855SOL    HW112464   3.615   6.529   6.480
 3855SOL    HW212465   3.501   6.472   6.581
 3856SOL     OW12466   6.934   2.371   6.358
 3856SOL    HW112467   6.973   2.425   6.432
 3856SOL    HW212468   6.837   2.392   6.349
 3857SOL     OW12469   2.550   0.767   5.923
 3857SOL    HW112470   2.509   0.687   5.879
 3857SOL    HW212471   2.649   0.763   5.912
 3858SOL     OW12472   4.450   0.920   4.093
 3858SOL    HW112473   4.410   0.925   4.185
 3858SOL    HW212474   4.550   0.921   4.100
 3859SOL     OW12475   6.043   6.718   1.864
 3859SOL    HW112476   6.021   6.632   1.910
 3859SOL    HW212477   6.137   6.744   1.888
 3860SOL     OW12478   1.482   6.881   4.255
 3860SOL    HW112479   1.459   6.967   4.299
 3860SOL    HW212480   1.483   6.894   4.156
 3861SOL     OW12481   2.991   5.732   1.814
 3861SOL    HW112482   2.977   5.670   1.892
 3861SOL    HW212483   2.918   5.718   1.747
 3862SOL     OW12484   1.621   0.884   4.270
 3862SOL    HW112485   1.571   0.894   4.183
 3862SOL    HW212486   1.613   0.968   4.323
 3863SOL     OW12487   3.550   0.695   0.447
 3863SOL    HW112488   3.462   0.653   0.429
 3863SOL    HW212489   3.620   0.653   0.389
 3864SOL     OW12490   1.581   0.242   4.603
 3864SOL    HW112491   1.652   0.176   4.578
 3864SOL    HW212492   1.560   0.300   4.524
 3865SOL     OW12493   5.160   1.297   0.764
 3865SOL    HW112494   5.215   1.215   0.746
 3865SOL    HW212495   5.197   1.374   0.713
 3866SOL     OW12496   3.211   1.462   6.536
 3866SOL    HW112497   3.200   1.552   6.494
 3866SOL    HW212498   3.291   1.416   6.497
 3867SOL     OW12499   0.293   3.140   2.356
 3867SOL    HW112500   0.296   3.089   2.442
 3867SOL    HW212501   0.245   3.086   2.287
 3868SOL     OW12502   4.359   0.493   7.013
 3868SOL    HW112503   4.358   0.570   0.054
 3868SOL    HW212504   4.315   0.414   0.031
 3869SOL     OW12505   4.780   1.219   4.318
 3869SOL    HW112506   4.812   1.219   4.413
 3869SOL    HW212507   4.832   1.152   4.265
 3870SOL     OW12508   0.102   0.788   5.972
 3870SOL    HW112509   0.067   0.876   6.004
 3870SOL    HW212510   0.159   0.746   6.042
 3871SOL     OW12511   2.589   5.955   4.412
 3871SOL    HW112512   2.545   6.044   4.424
 3871SOL    HW212513   2.534   5.883   4.454
 3872SOL     OW12514   2.847   3.396   5.162
 3872SOL    HW112515   2.877   3.387   5.068
 3872SOL    HW212516   2.894   3.473   5.205
 3873SOL     OW12517   4.111   1.932   0.301
 3873SOL    HW112518   4.157   2.015   0.270
 3873SOL    HW212519   4.017   1.953   0.327
 3874SOL     OW12520   2.154   1.268   0.882
 3874SOL    HW112521   2.054   1.274   0.875
 3874SOL    HW212522   2.192   1.235   0.795
 3875SOL     OW12523   0.981   1.918   6.335
 3875SOL    HW112524   0.978   2.011   6.300
 3875SOL    HW212525   0.889   1.879   6.334
 3876SOL     OW12526   3.286   5.256   2.434
 3876SOL    HW112527   3.316   5.273   2.528
 3876SOL    HW212528   3.250   5.163   2.427
 3877SOL     OW12529   0.320   1.726   6.065
 3877SOL    HW112530   0.324   1.826   6.065
 3877SOL    HW212531   0.336   1.691   6.158
 3878SOL     OW12532   4.882   1.225   4.603
 3878SOL    HW112533   4.862   1.301   4.664
 3878SOL    HW212534   4.895   1.141   4.657
 3879SOL     OW12535   5.131   5.969   0.145
 3879SOL    HW112536   5.182   5.922   0.217
 3879SOL    HW212537   5.195   6.010   0.080
 3880SOL     OW12538   4.813   4.744   3.929
 3880SOL    HW112539   4.852   4.656   3.955
 3880SOL    HW212540   4.834   4.812   3.999
 3881SOL     OW12541   1.214   3.243   0.298
 3881SOL    HW112542   1.288   3.180   0.323
 3881SOL    HW212543   1.128   3.211   0.339
 3882SOL     OW12544   0.327   1.841   5.437
 3882SOL    HW112545   0.405   1.880   5.386
 3882SOL    HW212546   0.312   1.894   5.520
 3883SOL     OW12547   4.509   6.144   3.812
 3883SOL    HW112548   4.528   6.048   3.792
 3883SOL    HW212549   4.410   6.160   3.809
 3884SOL     OW12550   0.599   3.544   2.129
 3884SOL    HW112551   0.572   3.616   2.192
 3884SOL    HW212552   0.559   3.457   2.158
 3885SOL     OW12553   4.379   5.881   2.485
 3885SOL    HW112554   4.352   5.790   2.453
 3885SOL    HW212555   4.449   5.919   2.424
 3886SOL     OW12556   2.644   6.053   5.868
 3886SOL    HW112557   2.707   6.044   5.945
 3886SOL    HW212558   2.688   6.019   5.785
 3887SOL     OW12559   1.871   5.969   1.859
 3887SOL    HW112560   1.810   6.045   1.839
 3887SOL    HW212561   1.826   5.905   1.921
 3888SOL     OW12562   5.762   5.056   4.093
 3888SOL    HW112563   5.663   5.058   4.080
 3888SOL    HW212564   5.797   5.149   4.103
 3889SOL     OW12565   5.580   4.389   0.475
 3889SOL    HW112566   5.641   4.314   0.502
 3889SOL    HW212567   5.560   4.381   0.377
 3890SOL     OW12568   5.353   3.152   4.179
 3890SOL    HW112569   5.274   3.125   4.124
 3890SOL    HW212570   5.326   3.153   4.276
 3891SOL     OW12571   5.111   5.689   3.517
 3891SOL    HW112572   5.155   5.645   3.595
 3891SOL    HW212573   5.027   5.639   3.493
 3892SOL     OW12574   6.948   2.170   1.871
 3892SOL    HW112575   6.909   2.259   1.849
 3892SOL    HW212576   6.972   2.122   1.787
 3893SOL     OW12577   4.153   3.654   2.621
 3893SOL    HW112578   4.089   3.635   2.696
 3893SOL    HW212579   4.121   3.734   2.570
 3894SOL     OW12580   4.333   0.410   5.837
 3894SOL    HW112581   4.423   0.377   5.866
 3894SOL    HW212582   4.302   0.480   5.901
 3895SOL     OW12583   0.566   0.442   4.032
 3895SOL    HW112584   0.499   0.373   4.059
 3895SOL    HW212585   0.655   0.418   4.069
 3896SOL     OW12586   1.884   1.434   6.201
 3896SOL    HW112587   1.917   1.340   6.188
 3896SOL    HW212588   1.931   1.474   6.280
 3897SOL     OW12589   4.081   5.904   1.463
 3897SOL    HW112590   3.984   5.887   1.443
 3897SOL    HW212591   4.134   5.822   1.442
 3898SOL     OW12592   3.734   3.221   1.391
 3898SOL    HW112593   3.824   3.181   1.375
 3898SOL    HW212594   3.674   3.152   1.433
 3899SOL     OW12595   3.685   0.318   5.687
 3899SOL    HW112596   3.631   0.400   5.671
 3899SOL    HW212597   3.650   0.243   5.631
 3900SOL     OW12598   4.730   4.178   3.229
 3900SOL    HW112599   4.649   4.236   3.220
 3900SOL    HW212600   4.712   4.106   3.296
 3901SOL     OW12601   2.883   0.925   6.610
 3901SOL    HW112602   2.796   0.888   6.643
 3901SOL    HW212603   2.865   1.009   6.558
 3902SOL     OW12604   5.207   2.957   2.563
 3902SOL    HW112605   5.302   2.946   2.536
 3902SOL    HW212606   5.189   2.905   2.647
 3903SOL     OW12607   2.956   4.369   6.059
 3903SOL    HW112608   2.985   4.464   6.072
 3903SOL    HW212609   3.023   4.321   6.002
 3904SOL     OW12610   1.697   0.571   0.925
 3904SOL    HW112611   1.654   0.565   0.835
 3904SOL    HW212612   1.795   0.553   0.916
 3905SOL     OW12613   6.862   6.459   4.833
 3905SOL    HW112614   6.955   6.455   4.872
 3905SOL    HW212615   6.857   6.534   4.768
 3906SOL     OW12616   6.811   6.696   4.697
 3906SOL    HW112617   6.771   6.713   4.606
 3906SOL    HW212618   6.844   6.783   4.735
 3907SOL     OW12619   6.210   2.501   3.564
 3907SOL    HW112620   6.235   2.544   3.476
 3907SOL    HW212621   6.111   2.492   3.570
 3908SOL     OW12622   2.837   4.106   6.151
 3908SOL    HW112623   2.872   4.194   6.118
 3908SOL    HW212624   2.737   4.106   6.147
 3909SOL     OW12625   5.983   5.863   3.953
 3909SOL    HW112626   6.050   5.891   4.022
 3909SOL    HW212627   5.990   5.924   3.874
 3910SOL     OW12628   3.675   3.272   2.746
 3910SOL    HW112629   3.628   3.354   2.779
 3910SOL    HW212630   3.740   3.298   2.674
 3911SOL     OW12631   6.514   2.479   5.326
 3911SOL    HW112632   6.541   2.527   5.242
 3911SOL    HW212633   6.592   2.428   5.361
 3912SOL     OW12634   4.914   3.033   5.989
 3912SOL    HW112635   4.993   2.989   5.946
 3912SOL    HW212636   4.939   3.125   6.019
 3913SOL     OW12637   1.204   6.561   1.294
 3913SOL    HW112638   1.105   6.553   1.303
 3913SOL    HW212639   1.237   6.633   1.355
 3914SOL     OW12640   3.166   5.719   5.592
 3914SOL    HW112641   3.136   5.813   5.576
 3914SOL    HW212642   3.136   5.661   5.516
 3915SOL     OW12643   6.554   6.128   1.658
 3915SOL    HW112644   6.550   6.126   1.558
 3915SOL    HW212645   6.470   6.089   1.696
 3916SOL     OW12646   0.722   0.103   3.120
 3916SOL    HW112647   0.652   0.149   3.066
 3916SOL    HW212648   0.738   0.154   3.204
 3917SOL     OW12649   2.058   0.440   0.166
 3917SOL    HW112650   2.066   0.345   0.194
 3917SOL    HW212651   2.081   0.449   0.069
 3918SOL     OW12652   5.436   3.153   0.172
 3918SOL    HW112653   5.457   3.134   0.268
 3918SOL    HW212654   5.500   3.103   0.113
 3919SOL     OW12655   3.328   7.012   0.698
 3919SOL    HW112656   3.381   0.023   0.621
 3919SOL    HW212657   3.390   6.986   0.773
 3920SOL     OW12658   2.107   1.602   6.849
 3920SOL    HW112659   2.026   1.572   6.799
 3920SOL    HW212660   2.081   1.634   6.940
 3921SOL     OW12661   0.867   3.751   1.641
 3921SOL    HW112662   0.768   3.752   1.655
 3921SOL    HW212663   0.908   3.826   1.693
 3922SOL     OW12664   1.358   5.069   1.309
 3922SOL    HW112665   1.295   5.144   1.326
 3922SOL    HW212666   1.422   5.060   1.385
 3923SOL     OW12667   6.548   0.726   0.950
 3923SOL    HW112668   6.616   0.798   0.940
 3923SOL    HW212669   6.594   0.637   0.952
 3924SOL     OW12670   6.366   5.299   4.583
 3924SOL    HW112671   6.394   5.372   4.645
 3924SOL    HW212672   6.448   5.255   4.545
 3925SOL     OW12673   1.547   5.268   1.611
 3925SOL    HW112674   1.588   5.284   1.521
 3925SOL    HW212675   1.612   5.219   1.669
 3926SOL     OW12676   3.602   5.256   2.790
 3926SOL    HW112677   3.603   5.156   2.797
 3926SOL    HW212678   3.631   5.296   2.877
 3927SOL     OW12679   0.865   3.454   6.635
 3927SOL    HW112680   0.960   3.439   6.661
 3927SOL    HW212681   0.861   3.477   6.538
 3928SOL     OW12682   6.167   5.383   6.632
 3928SOL    HW112683   6.143   5.417   6.541
 3928SOL    HW212684   6.249   5.430   6.665
 3929SOL     OW12685   0.534   1.531   4.472
 3929SOL    HW112686   0.486   1.502   4.555
 3929SOL    HW212687   0.580   1.453   4.431
 3930SOL     OW12688   3.198   1.753   3.972
 3930SOL    HW112689   3.267   1.687   4.002
 3930SOL    HW212690   3.210   1.772   3.875
 3931SOL     OW12691   5.143   0.168   2.553
 3931SOL    HW112692   5.175   0.257   2.586
 3931SOL    HW212693   5.185   0.095   2.606
 3932SOL     OW12694   1.690   1.602   4.244
 3932SOL    HW112695   1.641   1.518   4.221
 3932SOL    HW212696   1.789   1.584   4.244
 3933SOL     OW12697   1.309   0.135   5.883
 3933SOL    HW112698   1.268   0.080   5.956
 3933SOL    HW212699   1.361   0.211   5.924
 3934SOL     OW12700   5.363   6.186   6.540
 3934SOL    HW112701   5.347   6.280   6.572
 3934SOL    HW212702   5.344   6.122   6.614
 3935SOL     OW12703   4.850   6.702   1.291
 3935SOL    HW112704   4.855   6.661   1.200
 3935SOL    HW212705   4.921   6.662   1.349
 3936SOL     OW12706   0.695   4.402   2.246
 3936SOL    HW112707   0.794   4.409   2.239
 3936SOL    HW212708   0.653   4.486   2.211
 3937SOL     OW12709   0.071   1.538   2.584
 3937SOL    HW112710   0.105   1.512   2.674
 3937SOL    HW212711   6.999   1.509   2.574
 3938SOL     OW12712   0.529   2.560   3.110
 3938SOL    HW112713   0.465   2.528   3.179
 3938SOL    HW212714   0.599   2.491   3.094
 3939SOL     OW12715   2.598   2.182   1.659
 3939SOL    HW112716   2.634   2.273   1.680
 3939SOL    HW212717   2.659   2.136   1.594
 3940SOL     OW12718   4.126   3.739   1.415
 3940SOL    HW112719   4.217   3.703   1.437
 3940SOL    HW212720   4.119   3.754   1.316
 3941SOL     OW12721   4.601   3.145   6.698
 3941SOL    HW112722   4.551   3.166   6.782
 3941SOL    HW212723   4.654   3.224   6.669
 3942SOL     OW12724   0.052   0.484   0.143
 3942SOL    HW112725   0.110   0.563   0.161
 3942SOL    HW212726   6.996   0.512   0.089
 3943SOL     OW12727   0.331   3.213   5.113
 3943SOL    HW112728   0.235   3.237   5.127
 3943SOL    HW212729   0.359   3.241   5.021
 3944SOL     OW12730   5.343   1.417   4.716
 3944SOL    HW112731   5.247   1.418   4.688
 3944SOL    HW212732   5.376   1.322   4.716
 3945SOL     OW12733   6.981   0.984   0.775
 3945SOL    HW112734   0.009   0.903   0.804
 3945SOL    HW212735   0.008   1.066   0.799
 3946SOL     OW12736   4.120   4.832   3.213
 3946SOL    HW112737   4.179   4.774   3.269
 3946SOL    HW212738   4.063   4.889   3.272
 3947SOL     OW12739   6.388   4.573   6.268
 3947SOL    HW112740   6.304   4.521   6.286
 3947SOL    HW212741   6.445   4.572   6.351
 3948SOL     OW12742   5.827   3.669   0.840
 3948SOL    HW112743   5.891   3.608   0.888
 3948SOL    HW212744   5.804   3.746   0.899
 3949SOL     OW12745   5.520   6.425   3.201
 3949SOL    HW112746   5.576   6.450   3.280
 3949SOL    HW212747   5.578   6.416   3.121
 3950SOL     OW12748   2.132   6.173   0.653
 3950SOL    HW112749   2.092   6.221   0.731
 3950SOL    HW212750   2.231   6.175   0.659
 3951SOL     OW12751   5.687   6.774   1.731
 3951SOL    HW112752   5.653   6.857   1.685
 3951SOL    HW212753   5.643   6.764   1.820
 3952SOL     OW12754   5.690   2.042   6.923
 3952SOL    HW112755   5.614   1.977   6.914
 3952SOL    HW212756   5.668   2.110   6.992
 3953SOL     OW12757   3.881   3.912   2.723
 3953SOL    HW112758   3.926   3.830   2.688
 3953SOL    HW212759   3.919   3.935   2.812
 3954SOL     OW12760   4.349   5.024   5.591
 3954SOL    HW112761   4.287   4.976   5.529
 3954SOL    HW212762   4.382   4.961   5.661
 3955SOL     OW12763   4.203   1.014   4.683
 3955SOL    HW112764   4.169   0.996   4.775
 3955SOL    HW212765   4.239   0.930   4.644
 3956SOL     OW12766   2.548   1.123   1.922
 3956SOL    HW112767   2.488   1.168   1.856
 3956SOL    HW212768   2.584   1.039   1.883
 3957SOL     OW12769   3.686   0.776   4.289
 3957SOL    HW112770   3.739   0.706   4.240
 3957SOL    HW212771   3.709   0.866   4.253
 3958SOL     OW12772   5.593   6.991   5.308
 3958SOL    HW112773   5.604   6.932   5.388
 3958SOL    HW212774   5.671   6.979   5.247
 3959SOL     OW12775   4.788   5.187   0.183
 3959SOL    HW112776   4.712   5.122   0.187
 3959SOL    HW212777   4.754   5.276   0.151
 3960SOL     OW12778   6.097   1.631   4.838
 3960SOL    HW112779   6.031   1.703   4.819
 3960SOL    HW212780   6.077   1.551   4.781
 3961SOL     OW12781   5.616   6.329   4.129
 3961SOL    HW112782   5.660   6.239   4.124
 3961SOL    HW212783   5.682   6.396   4.164
 3962SOL     OW12784   6.680   5.675   5.325
 3962SOL    HW112785   6.683   5.772   5.349
 3962SOL    HW212786   6.756   5.653   5.264
 3963SOL     OW12787   4.441   6.640   2.107
 3963SOL    HW112788   4.353   6.592   2.114
 3963SOL    HW212789   4.426   6.738   2.120
 3964SOL     OW12790   5.238   2.996   3.131
 3964SOL    HW112791   5.309   2.987   3.062
 3964SOL    HW212792   5.275   2.970   3.221
 3965SOL     OW12793   4.976   4.232   4.276
 3965SOL    HW112794   4.991   4.207   4.371
 3965SOL    HW212795   5.044   4.300   4.248
 3966SOL     OW12796   2.658   6.778   6.449
 3966SOL    HW112797   2.637   6.702   6.387
 3966SOL    HW212798   2.734   6.830   6.411
 3967SOL     OW12799   2.283   4.488   3.659
 3967SOL    HW112800   2.207   4.550   3.679
 3967SOL    HW212801   2.366   4.541   3.642
 3968SOL     OW12802   3.744   6.946   0.532
 3968SOL    HW112803   3.711   6.916   0.621
 3968SOL    HW212804   3.843   6.963   0.537
 3969SOL     OW12805   0.841   4.981   2.926
 3969SOL    HW112806   0.830   5.073   2.964
 3969SOL    HW212807   0.934   4.971   2.890
 3970SOL     OW12808   5.043   6.419   2.138
 3970SOL    HW112809   4.945   6.429   2.153
 3970SOL    HW212810   5.064   6.436   2.042
 3971SOL     OW12811   2.129   6.151   3.674
 3971SOL    HW112812   2.225   6.139   3.648
 3971SOL    HW212813   2.073   6.082   3.627
 3972SOL     OW12814   1.396   3.706   6.953
 3972SOL    HW112815   1.300   3.717   6.978
 3972SOL    HW212816   1.428   3.788   6.905
 3973SOL     OW12817   1.798   5.288   1.088
 3973SOL    HW112818   1.819   5.336   1.003
 3973SOL    HW212819   1.775   5.193   1.068
 3974SOL     OW12820   2.418   1.626   5.268
 3974SOL    HW112821   2.396   1.531   5.249
 3974SOL    HW212822   2.378   1.653   5.356
 3975SOL     OW12823   6.140   2.887   6.439
 3975SOL    HW112824   6.195   2.970   6.433
 3975SOL    HW212825   6.199   2.807   6.426
 3976SOL     OW12826   1.891   4.607   2.631
 3976SOL    HW112827   1.837   4.677   2.584
 3976SOL    HW212828   1.944   4.649   2.704
 3977SOL     OW12829   0.937   3.123   6.943
 3977SOL    HW112830   0.844   3.108   6.976
 3977SOL    HW212831   0.939   3.201   6.881
 3978SOL     OW12832   6.065   4.022   3.762
 3978SOL    HW112833   6.092   4.046   3.855
 3978SOL    HW212834   6.131   3.956   3.725
 3979SOL     OW12835   4.216   6.481   6.287
 3979SOL    HW112836   4.147   6.430   6.235
 3979SOL    HW212837   4.306   6.462   6.249
 3980SOL     OW12838   5.614   5.738   5.922
 3980SOL    HW112839   5.707   5.768   5.940
 3980SOL    HW212840   5.553   5.771   5.994
 3981SOL     OW12841   4.414   5.974   0.318
 3981SOL    HW112842   4.408   5.879   0.348
 3981SOL    HW212843   4.348   5.991   0.245
 3982SOL     OW12844   2.919   6.132   3.571
 3982SOL    HW112845   2.911   6.063   3.499
 3982SOL    HW212846   3.015   6.160   3.579
 3983SOL     OW12847   3.543   5.715   4.443
 3983SOL    HW112848   3.460   5.752   4.402
 3983SOL    HW212849   3.608   5.789   4.460
 3984SOL     OW12850   6.533   2.561   3.450
 3984SOL    HW112851   6.605   2.629   3.462
 3984SOL    HW212852   6.560   2.496   3.379
 3985SOL     OW12853   4.114   4.928   6.443
 3985SOL    HW112854   4.110   4.939   6.343
 3985SOL    HW212855   4.207   4.903   6.470
 3986SOL     OW12856   5.398   0.540   3.055
 3986SOL    HW112857   5.344   0.497   3.128
 3986SOL    HW212858   5.380   0.638   3.054
 3987SOL     OW12859   3.453   5.402   4.899
 3987SOL    HW112860   3.544   5.366   4.880
 3987SOL    HW212861   3.440   5.489   4.851
 3988SOL     OW12862   3.712   5.835   0.996
 3988SOL    HW112863   3.792   5.891   1.015
 3988SOL    HW212864   3.707   5.760   1.063
 3989SOL     OW12865   5.316   1.996   0.735
 3989SOL    HW112866   5.221   2.022   0.719
 3989SOL    HW212867   5.338   2.007   0.832
 3990SOL     OW12868   6.549   2.078   2.350
 3990SOL    HW112869   6.578   2.080   2.255
 3990SOL    HW212870   6.575   2.163   2.395
 3991SOL     OW12871   5.975   0.417   3.173
 3991SOL    HW112872   5.918   0.408   3.092
 3991SOL    HW212873   6.070   0.394   3.150
 3992SOL     OW12874   3.336   2.105   1.029
 3992SOL    HW112875   3.336   2.024   1.088
 3992SOL    HW212876   3.340   2.077   0.933
 3993SOL     OW12877   0.823   3.000   2.153
 3993SOL    HW112878   0.746   2.993   2.216
 3993SOL    HW212879   0.842   3.096   2.134
 3994SOL     OW12880   2.443   6.186   4.422
 3994SOL    HW112881   2.360   6.209   4.370
 3994SOL    HW212882   2.431   6.215   4.517
 3995SOL     OW12883   1.788   1.890   4.417
 3995SOL    HW112884   1.824   1.888   4.324
 3995SOL    HW212885   1.694   1.855   4.417
 3996SOL     OW12886   6.848   6.432   4.486
 3996SOL    HW112887   6.849   6.470   4.393
 3996SOL    HW212888   6.775   6.364   4.493
 3997SOL     OW12889   4.232   0.797   4.476
 3997SOL    HW112890   4.225   0.734   4.553
 3997SOL    HW212891   4.182   0.759   4.398
 3998SOL     OW12892   4.801   1.805   3.139
 3998SOL    HW112893   4.778   1.709   3.124
 3998SOL    HW212894   4.720   1.862   3.121
 3999SOL     OW12895   4.960   1.916   4.816
 3999SOL    HW112896   4.968   1.942   4.720
 3999SOL    HW212897   5.045   1.873   4.846
 4000SOL     OW12898   4.298   6.496   4.257
 4000SOL    HW112899   4.246   6.581   4.260
 4000SOL    HW212900   4.296   6.459   4.163
 4001SOL     OW12901   1.263   2.122   4.120
 4001SOL    HW112902   1.278   2.221   4.122
 4001SOL    HW212903   1.344   2.078   4.080
 4002SOL     OW12904   2.357   4.233   1.927
 4002SOL    HW112905   2.343   4.144   1.970
 4002SOL    HW212906   2.337   4.305   1.994
 4003SOL     OW12907   3.718   1.951   5.046
 4003SOL    HW112908   3.685   1.945   5.140
 4003SOL    HW212909   3.780   2.029   5.037
 4004SOL     OW12910   6.502   1.769   5.183
 4004SOL    HW112911   6.587   1.717   5.188
 4004SOL    HW212912   6.515   1.850   5.125
 4005SOL     OW12913   5.946   4.622   5.209
 4005SOL    HW112914   5.871   4.601   5.147
 4005SOL    HW212915   5.984   4.538   5.247
 4006SOL     OW12916   3.607   5.567   2.614
 4006SOL    HW112917   3.567   5.536   2.700
 4006SOL    HW212918   3.638   5.662   2.623
 4007SOL     OW12919   6.891   1.760   6.535
 4007SOL    HW112920   6.967   1.818   6.563
 4007SOL    HW212921   6.925   1.685   6.477
 4008SOL     OW12922   2.730   2.079   5.263
 4008SOL    HW112923   2.772   2.132   5.336
 4008SOL    HW212924   2.758   2.115   5.174
 4009SOL     OW12925   3.265   3.355   2.664
 4009SOL    HW112926   3.166   3.343   2.658
 4009SOL    HW212927   3.297   3.410   2.588
 4010SOL     OW12928   1.452   2.708   6.951
 4010SOL    HW112929   1.535   2.663   6.921
 4010SOL    HW212930   1.455   2.805   6.925
 4011SOL     OW12931   0.865   2.825   0.839
 4011SOL    HW112932   0.874   2.806   0.936
 4011SOL    HW212933   0.815   2.750   0.795
 4012SOL     OW12934   5.625   3.162   3.687
 4012SOL    HW112935   5.657   3.195   3.598
 4012SOL    HW212936   5.540   3.209   3.712
 4013SOL     OW12937   4.500   2.509   3.497
 4013SOL    HW112938   4.509   2.518   3.398
 4013SOL    HW212939   4.465   2.594   3.536
 4014SOL     OW12940   5.855   6.186   2.415
 4014SOL    HW112941   5.782   6.247   2.445
 4014SOL    HW212942   5.942   6.217   2.452
 4015SOL     OW12943   4.535   3.483   7.014
 4015SOL    HW112944   4.522   3.468   0.089
 4015SOL    HW212945   4.457   3.444   6.964
 4016SOL     OW12946   3.401   5.874   5.357
 4016SOL    HW112947   3.423   5.901   5.451
 4016SOL    HW212948   3.477   5.899   5.297
 4017SOL     OW12949   6.277   6.756   6.729
 4017SOL    HW112950   6.344   6.745   6.802
 4017SOL    HW212951   6.273   6.673   6.674
 4018SOL     OW12952   1.486   6.756   6.978
 4018SOL    HW112953   1.506   6.674   0.008
 4018SOL    HW212954   1.436   6.822   0.012
 4019SOL     OW12955   4.861   5.351   3.067
 4019SOL    HW112956   4.915   5.393   3.139
 4019SOL    HW212957   4.919   5.332   2.988
 4020SOL     OW12958   5.471   1.792   5.055
 4020SOL    HW112959   5.523   1.809   5.138
 4020SOL    HW212960   5.412   1.871   5.036
 4021SOL     OW12961   4.594   4.200   6.903
 4021SOL    HW112962   4.595   4.178   6.806
 4021SOL    HW212963   4.670   4.261   6.925
 4022SOL     OW12964   5.276   0.234   0.736
 4022SOL    HW112965   5.276   0.334   0.737
 4022SOL    HW212966   5.293   0.201   0.643
 4023SOL     OW12967   6.699   6.973   5.393
 4023SOL    HW112968   6.782   6.919   5.403
 4023SOL    HW212969   6.641   6.962   5.473
 4024SOL     OW12970   4.441   4.720   4.774
 4024SOL    HW112971   4.538   4.730   4.754
 4024SOL    HW212972   4.430   4.686   4.868
 4025SOL     OW12973   1.235   3.890   3.949
 4025SOL    HW112974   1.198   3.799   3.968
 4025SOL    HW212975   1.164   3.948   3.910
 4026SOL     OW12976   5.078   6.909   5.024
 4026SOL    HW112977   5.073   6.858   4.938
 4026SOL    HW212978   4.987   6.938   5.051
 4027SOL     OW12979   3.219   5.022   2.653
 4027SOL    HW112980   3.259   5.092   2.712
 4027SOL    HW212981   3.281   5.003   2.577
 4028SOL     OW12982   2.609   6.078   3.470
 4028SOL    HW112983   2.652   5.987   3.468
 4028SOL    HW212984   2.679   6.147   3.489
 4029SOL     OW12985   2.227   4.023   3.805
 4029SOL    HW112986   2.131   4.047   3.793
 4029SOL    HW212987   2.279   4.106   3.825
 4030SOL     OW12988   1.517   1.669   6.260
 4030SOL    HW112989   1.563   1.587   6.296
 4030SOL    HW212990   1.460   1.643   6.182
 4031SOL     OW12991   6.012   5.852   4.340
 4031SOL    HW112992   5.946   5.927   4.345
 4031SOL    HW212993   5.970   5.773   4.296
 4032SOL     OW12994   3.809   6.923   4.891
 4032SOL    HW112995   3.889   6.933   4.833
 4032SOL    HW212996   3.769   6.832   4.878
 4033SOL     OW12997   3.616   3.951   6.173
 4033SOL    HW112998   3.519   3.968   6.189
 4033SOL    HW212999   3.661   3.928   6.260
 4034SOL     OW13000   5.607   3.071   5.098
 4034SOL    HW113001   5.515   3.041   5.124
 4034SOL    HW213002   5.639   3.139   5.164
 4035SOL     OW13003   0.588   5.817   1.274
 4035SOL    HW113004   0.493   5.831   1.248
 4035SOL    HW213005   0.595   5.809   1.374
 4036SOL     OW13006   7.019   5.809   2.498
 4036SOL    HW113007   6.924   5.836   2.515
 4036SOL    HW213008   0.050   5.828   2.580
 4037SOL     OW13009   0.202   3.895   5.586
 4037SOL    HW113010   0.298   3.905   5.612
 4037SOL    HW213011   0.154   3.843   5.656
 4038SOL     OW13012   5.941   5.317   3.349
 4038SOL    HW113013   5.845   5.318   3.377
 4038SOL    HW213014   5.999   5.343   3.426
 4039SOL     OW13015   2.794   6.026   1.076
 4039SOL    HW113016   2.844   6.105   1.041
 4039SOL    HW213017   2.770   5.965   1.001
 4040SOL     OW13018   3.243   6.760   0.435
 4040SOL    HW113019   3.215   6.817   0.512
 4040SOL    HW213020   3.235   6.663   0.461
 4041SOL     OW13021   0.841   6.096   3.143
 4041SOL    HW113022   0.764   6.072   3.084
 4041SOL    HW213023   0.841   6.036   3.223
 4042SOL     OW13024   5.974   5.961   2.636
 4042SOL    HW113025   5.907   6.008   2.580
 4042SOL    HW213026   5.992   5.870   2.599
 4043SOL     OW13027   6.438   3.646   1.373
 4043SOL    HW113028   6.397   3.736   1.361
 4043SOL    HW213029   6.366   3.577   1.375
 4044SOL     OW13030   5.989   5.128   2.618
 4044SOL    HW113031   5.965   5.135   2.521
 4044SOL    HW213032   5.998   5.032   2.643
 4045SOL     OW13033   2.449   4.629   5.966
 4045SOL    HW113034   2.451   4.696   5.891
 4045SOL    HW213035   2.538   4.628   6.012
 4046SOL     OW13036   7.006   3.332   0.696
 4046SOL    HW113037   6.957   3.284   0.769
 4046SOL    HW213038   6.989   3.430   0.703
 4047SOL     OW13039   2.894   3.730   2.621
 4047SOL    HW113040   2.889   3.643   2.670
 4047SOL    HW213041   2.929   3.801   2.682
 4048SOL     OW13042   4.475   2.506   0.589
 4048SOL    HW113043   4.488   2.557   0.674
 4048SOL    HW213044   4.398   2.544   0.538
 4049SOL     OW13045   6.739   0.761   6.672
 4049SOL    HW113046   6.824   0.737   6.626
 4049SOL    HW213047   6.754   0.839   6.732
 4050SOL     OW13048   3.350   0.829   2.628
 4050SOL    HW113049   3.362   0.764   2.553
 4050SOL    HW213050   3.349   0.781   2.715
 4051SOL     OW13051   1.518   4.244   1.015
 4051SOL    HW113052   1.512   4.190   1.099
 4051SOL    HW213053   1.586   4.317   1.028
 4052SOL     OW13054   1.501   6.738   1.501
 4052SOL    HW113055   1.563   6.746   1.423
 4052SOL    HW213056   1.554   6.714   1.583
 4053SOL     OW13057   2.716   5.162   3.269
 4053SOL    HW113058   2.666   5.103   3.333
 4053SOL    HW213059   2.686   5.142   3.176
 4054SOL     OW13060   5.477   1.524   6.846
 4054SOL    HW113061   5.465   1.584   6.925
 4054SOL    HW213062   5.555   1.463   6.862
 4055SOL     OW13063   4.752   3.261   6.942
 4055SOL    HW113064   4.718   3.355   6.936
 4055SOL    HW213065   4.762   3.234   0.014
 4056SOL     OW13066   4.334   2.985   0.255
 4056SOL    HW113067   4.335   3.078   0.290
 4056SOL    HW213068   4.272   2.929   0.311
 4057SOL     OW13069   6.038   2.507   0.415
 4057SOL    HW113070   6.051   2.480   0.510
 4057SOL    HW213071   5.972   2.582   0.410
 4058SOL     OW13072   0.846   1.627   3.522
 4058SOL    HW113073   0.829   1.606   3.618
 4058SOL    HW213074   0.762   1.612   3.470
 4059SOL     OW13075   0.040   2.044   5.577
 4059SOL    HW113076   0.124   2.099   5.582
 4059SOL    HW213077   0.053   1.970   5.511
 4060SOL     OW13078   3.492   6.086   5.668
 4060SOL    HW113079   3.460   5.992   5.656
 4060SOL    HW213080   3.432   6.148   5.617
 4061SOL     OW13081   2.187   2.968   1.260
 4061SOL    HW113082   2.158   3.006   1.173
 4061SOL    HW213083   2.117   2.985   1.329
 4062SOL     OW13084   3.049   6.536   2.808
 4062SOL    HW113085   3.036   6.548   2.710
 4062SOL    HW213086   2.972   6.578   2.857
 4063SOL     OW13087   2.770   5.528   6.482
 4063SOL    HW113088   2.789   5.618   6.522
 4063SOL    HW213089   2.822   5.518   6.397
 4064SOL     OW13090   6.787   6.956   4.110
 4064SOL    HW113091   6.803   0.023   4.071
 4064SOL    HW213092   6.771   6.964   4.208
 4065SOL     OW13093   0.479   4.609   6.226
 4065SOL    HW113094   0.405   4.675   6.244
 4065SOL    HW213095   0.439   4.521   6.201
 4066SOL     OW13096   5.090   5.474   1.366
 4066SOL    HW113097   5.072   5.564   1.326
 4066SOL    HW213098   5.029   5.406   1.323
 4067SOL     OW13099   5.595   0.884   1.328
 4067SOL    HW113100   5.634   0.934   1.406
 4067SOL    HW213101   5.552   0.949   1.265
 4068SOL     OW13102   5.361   0.940   4.295
 4068SOL    HW113103   5.432   0.871   4.304
 4068SOL    HW213104   5.404   1.031   4.292
 4069SOL     OW13105   6.715   6.265   1.040
 4069SOL    HW113106   6.760   6.176   1.051
 4069SOL    HW213107   6.759   6.315   0.965
 4070SOL     OW13108   6.667   3.806   3.312
 4070SOL    HW113109   6.732   3.742   3.352
 4070SOL    HW213110   6.605   3.757   3.250
 4071SOL     OW13111   2.939   0.551   4.152
 4071SOL    HW113112   2.998   0.471   4.165
 4071SOL    HW213113   2.984   0.615   4.090
 4072SOL     OW13114   0.904   0.145   4.309
 4072SOL    HW113115   0.813   0.111   4.332
 4072SOL    HW213116   0.898   0.242   4.282
 4073SOL     OW13117   2.585   5.124   2.139
 4073SOL    HW113118   2.626   5.088   2.055
 4073SOL    HW213119   2.541   5.050   2.189
 4074SOL     OW13120   0.157   3.284   0.492
 4074SOL    HW113121   0.076   3.293   0.550
 4074SOL    HW213122   0.237   3.316   0.543
 4075SOL     OW13123   5.611   0.305   3.914
 4075SOL    HW113124   5.601   0.393   3.868
 4075SOL    HW213125   5.536   0.291   3.978
 4076SOL     OW13126   1.690   2.687   2.954
 4076SOL    HW113127   1.788   2.698   2.936
 4076SOL    HW213128   1.676   2.671   3.052
 4077SOL     OW13129   3.934   0.580   0.883
 4077SOL    HW113130   3.994   0.644   0.931
 4077SOL    HW213131   3.989   0.508   0.840
 4078SOL     OW13132   4.774   4.710   3.227
 4078SOL    HW113133   4.846   4.767   3.267
 4078SOL    HW213134   4.690   4.720   3.280
 4079SOL     OW13135   5.036   0.505   4.326
 4079SOL    HW113136   4.991   0.477   4.411
 4079SOL    HW213137   5.134   0.486   4.333
 4080SOL     OW13138   2.896   3.517   3.607
 4080SOL    HW113139   2.823   3.514   3.675
 4080SOL    HW213140   2.926   3.424   3.585
 4081SOL     OW13141   2.584   1.563   0.131
 4081SOL    HW113142   2.492   1.528   0.111
 4081SOL    HW213143   2.626   1.596   0.046
 4082SOL     OW13144   1.107   1.758   6.014
 4082SOL    HW113145   1.032   1.691   6.012
 4082SOL    HW213146   1.112   1.805   5.926
 4083SOL     OW13147   6.274   5.188   2.402
 4083SOL    HW113148   6.335   5.212   2.326
 4083SOL    HW213149   6.231   5.099   2.383
 4084SOL     OW13150   4.811   6.682   1.944
 4084SOL    HW113151   4.798   6.702   2.041
 4084SOL    HW213152   4.724   6.658   1.902
 4085SOL     OW13153   2.366   4.322   2.606
 4085SOL    HW113154   2.373   4.270   2.521
 4085SOL    HW213155   2.313   4.270   2.673
 4086SOL     OW13156   5.654   5.390   4.870
 4086SOL    HW113157   5.628   5.337   4.951
 4086SOL    HW213158   5.744   5.431   4.884
 4087SOL     OW13159   2.034   0.785   2.355
 4087SOL    HW113160   1.970   0.716   2.323
 4087SOL    HW213161   1.998   0.829   2.438
 4088SOL     OW13162   0.316   1.607   5.668
 4088SOL    HW113163   0.405   1.562   5.660
 4088SOL    HW213164   0.265   1.595   5.583
 4089SOL     OW13165   1.344   0.886   2.948
 4089SOL    HW113166   1.377   0.979   2.936
 4089SOL    HW213167   1.419   0.822   2.930
 4090SOL     OW13168   3.109   2.280   5.683
 4090SOL    HW113169   3.035   2.316   5.739
 4090SOL    HW213170   3.113   2.330   5.597
 4091SOL     OW13171   3.274   6.065   2.135
 4091SOL    HW113172   3.261   5.971   2.167
 4091SOL    HW213173   3.306   6.065   2.041
 4092SOL     OW13174   5.308   1.850   6.176
 4092SOL    HW113175   5.253   1.933   6.182
 4092SOL    HW213176   5.405   1.874   6.174
 4093SOL     OW13177   5.566   3.855   2.664
 4093SOL    HW113178   5.573   3.921   2.739
 4093SOL    HW213179   5.652   3.853   2.613
 4094SOL     OW13180   6.989   6.845   0.318
 4094SOL    HW113181   6.908   6.826   0.261
 4094SOL    HW213182   0.045   6.801   0.278
 4095SOL     OW13183   1.849   5.346   0.839
 4095SOL    HW113184   1.781   5.395   0.783
 4095SOL    HW213185   1.924   5.315   0.780
 4096SOL     OW13186   0.811   0.029   6.194
 4096SOL    HW113187   0.828   7.016   6.102
 4096SOL    HW213188   0.748   6.992   6.243
 4097SOL     OW13189   1.061   3.915   5.600
 4097SOL    HW113190   0.973   3.947   5.564
 4097SOL    HW213191   1.121   3.994   5.616
 4098SOL     OW13192   1.412   6.156   2.286
 4098SOL    HW113193   1.481   6.196   2.225
 4098SOL    HW213194   1.457   6.096   2.352
 4099SOL     OW13195   6.900   3.188   5.397
 4099SOL    HW113196   6.976   3.147   5.447
 4099SOL    HW213197   6.865   3.267   5.448
 4100SOL     OW13198   2.465   0.311   3.339
 4100SOL    HW113199   2.381   0.356   3.372
 4100SOL    HW213200   2.466   0.311   3.239
 4101SOL     OW13201   6.392   6.427   5.959
 4101SOL    HW113202   6.402   6.443   5.861
 4101SOL    HW213203   6.316   6.365   5.975
 4102SOL     OW13204   1.728   5.784   0.475
 4102SOL    HW113205   1.808   5.817   0.525
 4102SOL    HW213206   1.755   5.710   0.414
 4103SOL     OW13207   2.440   5.019   2.867
 4103SOL    HW113208   2.382   5.095   2.838
 4103SOL    HW213209   2.479   4.973   2.787
 4104SOL     OW13210   1.591   6.087   5.057
 4104SOL    HW113211   1.524   6.074   4.983
 4104SOL    HW213212   1.542   6.101   5.144
 4105SOL     OW13213   3.413   6.502   1.754
 4105SOL    HW113214   3.458   6.480   1.668
 4105SOL    HW213215   3.478   6.546   1.816
 4106SOL     OW13216   1.732   0.499   2.650
 4106SOL    HW113217   1.663   0.442   2.696
 4106SOL    HW213218   1.799   0.440   2.606
 4107SOL     OW13219   1.674   1.876   0.843
 4107SOL    HW113220   1.717   1.858   0.931
 4107SOL    HW213221   1.619   1.798   0.816
 4108SOL     OW13222   0.019   6.639   5.000
 4108SOL    HW113223   0.003   6.711   4.932
 4108SOL    HW213224   0.082   6.570   4.962
 4109SOL     OW13225   4.723   6.672   4.736
 4109SOL    HW113226   4.704   6.579   4.706
 4109SOL    HW213227   4.642   6.729   4.722
 4110SOL     OW13228   3.958   3.149   0.408
 4110SOL    HW113229   3.977   3.230   0.352
 4110SOL    HW213230   4.027   3.142   0.480
 4111SOL     OW13231   5.663   4.715   3.981
 4111SOL    HW113232   5.709   4.631   3.952
 4111SOL    HW213233   5.700   4.792   3.930
 4112SOL     OW13234   4.082   5.859   5.305
 4112SOL    HW113235   4.059   5.814   5.392
 4112SOL    HW213236   4.129   5.946   5.324
 4113SOL     OW13237   4.897   5.461   5.169
 4113SOL    HW113238   4.824   5.462   5.237
 4113SOL    HW213239   4.976   5.411   5.206
 4114SOL     OW13240   6.838   0.835   2.619
 4114SOL    HW113241   6.740   0.815   2.617
 4114SOL    HW213242   6.873   0.818   2.711
 4115SOL     OW13243   4.150   6.035   4.407
 4115SOL    HW113244   4.071   5.988   4.445
 4115SOL    HW213245   4.233   5.983   4.426
 4116SOL     OW13246   6.422   3.057   4.090
 4116SOL    HW113247   6.441   2.994   4.166
 4116SOL    HW213248   6.324   3.056   4.070
 4117SOL     OW13249   0.430   1.535   2.992
 4117SOL    HW113250   0.515   1.496   2.957
 4117SOL    HW213251   0.355   1.511   2.931
 4118SOL     OW13252   1.282   0.230   1.507
 4118SOL    HW113253   1.249   0.322   1.529
 4118SOL    HW213254   1.249   0.166   1.577
 4119SOL     OW13255   0.026   0.897   5.180
 4119SOL    HW113256   0.048   0.929   5.272
 4119SOL    HW213257   6.965   0.844   5.183
 4120SOL     OW13258   1.804   0.709   6.162
 4120SOL    HW113259   1.795   0.787   6.100
 4120SOL    HW213260   1.895   0.669   6.152
 4121SOL     OW13261   6.675   1.105   1.456
 4121SOL    HW113262   6.617   1.114   1.538
 4121SOL    HW213263   6.656   1.017   1.413
 4122SOL     OW13264   0.779   4.785   3.123
 4122SOL    HW113265   0.729   4.801   3.208
 4122SOL    HW213266   0.772   4.866   3.064
 4123SOL     OW13267   5.691   4.385   1.499
 4123SOL    HW113268   5.748   4.365   1.579
 4123SOL    HW213269   5.742   4.363   1.416
 4124SOL     OW13270   6.360   6.751   0.202
 4124SOL    HW113271   6.428   6.779   0.271
 4124SOL    HW213272   6.286   6.818   0.200
 4125SOL     OW13273   0.063   2.647   6.556
 4125SOL    HW113274   0.080   2.707   6.477
 4125SOL    HW213275   6.999   2.673   6.599
 4126SOL     OW13276   1.168   4.204   4.037
 4126SOL    HW113277   1.267   4.193   4.042
 4126SOL    HW213278   1.136   4.175   3.947
 4127SOL     OW13279   5.078   2.103   3.771
 4127SOL    HW113280   5.037   2.031   3.826
 4127SOL    HW213281   5.118   2.173   3.831
 4128SOL     OW13282   6.711   2.333   5.960
 4128SOL    HW113283   6.666   2.418   5.985
 4128SOL    HW213284   6.664   2.256   6.003
 4129SOL     OW13285   3.618   0.592   1.703
 4129SOL    HW113286   3.549   0.663   1.718
 4129SOL    HW213287   3.581   0.523   1.640
 4130SOL     OW13288   5.213   2.367   6.925
 4130SOL    HW113289   5.236   2.403   7.016
 4130SOL    HW213290   5.295   2.370   6.868
 4131SOL     OW13291   4.778   6.121   4.031
 4131SOL    HW113292   4.827   6.082   4.108
 4131SOL    HW213293   4.752   6.216   4.052
 4132SOL     OW13294   6.542   4.097   2.969
 4132SOL    HW113295   6.464   4.034   2.974
 4132SOL    HW213296   6.607   4.076   3.041
 4133SOL     OW13297   5.418   6.198   3.915
 4133SOL    HW113298   5.495   6.236   3.967
 4133SOL    HW213299   5.360   6.272   3.882
 4134SOL     OW13300   1.224   3.697   1.178
 4134SOL    HW113301   1.324   3.706   1.181
 4134SOL    HW213302   1.200   3.605   1.148
 4135SOL     OW13303   5.862   1.578   0.853
 4135SOL    HW113304   5.862   1.478   0.863
 4135SOL    HW213305   5.931   1.617   0.914
 4136SOL     OW13306   0.815   4.777   0.415
 4136SOL    HW113307   0.807   4.868   0.374
 4136SOL    HW213308   0.879   4.721   0.361
 4137SOL     OW13309   0.175   2.772   5.880
 4137SOL    HW113310   0.141   2.840   5.946
 4137SOL    HW213311   0.109   2.697   5.873
 4138SOL     OW13312   5.295   0.014   6.234
 4138SOL    HW113313   5.254   6.998   6.317
 4138SOL    HW213314   5.231   0.077   6.192
 4139SOL     OW13315   1.576   4.530   2.393
 4139SOL    HW113316   1.663   4.515   2.438
 4139SOL    HW213317   1.519   4.590   2.450
 4140SOL     OW13318   2.503   0.055   6.798
 4140SOL    HW113319   2.581   7.017   6.791
 4140SOL    HW213320   2.426   0.018   6.747
 4141SOL     OW13321   5.054   0.483   5.994
 4141SOL    HW113322   5.028   0.575   6.022
 4141SOL    HW213323   5.071   0.482   5.895
 4142SOL     OW13324   6.664   6.637   1.483
 4142SOL    HW113325   6.752   6.610   1.522
 4142SOL    HW213326   6.590   6.612   1.545
 4143SOL     OW13327   6.646   3.996   6.897
 4143SOL    HW113328   6.611   4.065   6.835
 4143SOL    HW213329   6.687   3.922   6.845
 4144SOL     OW13330   4.211   0.489   1.694
 4144SOL    HW113331   4.179   0.584   1.691
 4144SOL    HW213332   4.178   0.446   1.778
 4145SOL     OW13333   5.592   0.770   1.074
 4145SOL    HW113334   5.638   0.835   1.014
 4145SOL    HW213335   5.607   0.796   1.170
 4146SOL     OW13336   4.255   0.283   2.757
 4146SOL    HW113337   4.184   0.232   2.805
 4146SOL    HW213338   4.250   0.264   2.659
 4147SOL     OW13339   4.619   4.627   6.912
 4147SOL    HW113340   4.589   4.569   6.987
 4147SOL    HW213341   4.606   4.578   6.825
 4148SOL     OW13342   2.603   1.278   6.043
 4148SOL    HW113343   2.700   1.303   6.050
 4148SOL    HW213344   2.592   1.181   6.065
 4149SOL     OW13345   1.579   3.313   6.399
 4149SOL    HW113346   1.673   3.307   6.365
 4149SOL    HW213347   1.537   3.222   6.398
 4150SOL     OW13348   6.187   1.572   0.743
 4150SOL    HW113349   6.119   1.501   0.726
 4150SOL    HW213350   6.226   1.560   0.834
 4151SOL     OW13351   2.686   5.832   4.783
 4151SOL    HW113352   2.727   5.741   4.794
 4151SOL    HW213353   2.706   5.887   4.863
 4152SOL     OW13354   3.106   4.329   1.171
 4152SOL    HW113355   3.059   4.240   1.171
 4152SOL    HW213356   3.041   4.401   1.149
 4153SOL     OW13357   6.778   6.267   1.555
 4153SOL    HW113358   6.685   6.256   1.589
 4153SOL    HW213359   6.841   6.283   1.632
 4154SOL     OW13360   0.376   6.455   4.433
 4154SOL    HW113361   0.355   6.429   4.339
 4154SOL    HW213362   0.386   6.555   4.439
 4155SOL     OW13363   5.885   1.341   1.671
 4155SOL    HW113364   5.862   1.247   1.646
 4155SOL    HW213365   5.844   1.404   1.604
 4156SOL     OW13366   0.583   4.433   5.675
 4156SOL    HW113367   0.599   4.525   5.711
 4156SOL    HW213368   0.570   4.437   5.576
 4157SOL     OW13369   5.343   6.132   0.778
 4157SOL    HW113370   5.403   6.062   0.739
 4157SOL    HW213371   5.254   6.093   0.798
 4158SOL     OW13372   6.972   2.228   0.874
 4158SOL    HW113373   6.899   2.184   0.928
 4158SOL    HW213374   6.932   2.272   0.794
 4159SOL     OW13375   3.357   0.647   4.498
 4159SOL    HW113376   3.309   0.690   4.422
 4159SOL    HW213377   3.424   0.711   4.536
 4160SOL     OW13378   1.851   0.384   5.691
 4160SOL    HW113379   1.897   0.383   5.602
 4160SOL    HW213380   1.919   0.397   5.763
 4161SOL     OW13381   3.526   2.863   3.635
 4161SOL    HW113382   3.537   2.804   3.556
 4161SOL    HW213383   3.439   2.912   3.629
 4162SOL     OW13384   5.393   6.059   1.526
 4162SOL    HW113385   5.409   5.966   1.494
 4162SOL    HW213386   5.470   6.117   1.501
 4163SOL     OW13387   3.623   5.604   1.139
 4163SOL    HW113388   3.526   5.621   1.120
 4163SOL    HW213389   3.639   5.610   1.237
 4164SOL     OW13390   5.487   1.868   6.930
 4164SOL    HW113391   5.441   1.872   6.842
 4164SOL    HW213392   5.451   1.792   6.984
 4165SOL     OW13393   3.593   1.892   4.202
 4165SOL    HW113394   3.601   1.847   4.113
 4165SOL    HW213395   3.666   1.959   4.212
 4166SOL     OW13396   6.119   2.195   2.294
 4166SOL    HW113397   6.072   2.125   2.241
 4166SOL    HW213398   6.131   2.162   2.388
 4167SOL     OW13399   3.941   5.504   4.686
 4167SOL    HW113400   4.015   5.570   4.673
 4167SOL    HW213401   3.856   5.552   4.706
 4168SOL     OW13402   5.233   4.145   6.542
 4168SOL    HW113403   5.211   4.058   6.587
 4168SOL    HW213404   5.217   4.220   6.606
 4169SOL     OW13405   5.068   3.562   6.832
 4169SOL    HW113406   5.119   3.636   6.876
 4169SOL    HW213407   5.042   3.494   6.901
 4170SOL     OW13408   1.018   3.105   5.189
 4170SOL    HW113409   1.068   3.114   5.275
 4170SOL    HW213410   1.072   3.142   5.114
 4171SOL     OW13411   0.407   1.362   6.358
 4171SOL    HW113412   0.480   1.424   6.328
 4171SOL    HW213413   0.368   1.316   6.278
 4172SOL     OW13414   2.546   2.739   6.249
 4172SOL    HW113415   2.457   2.721   6.293
 4172SOL    HW213416   2.612   2.669   6.278
 4173SOL     OW13417   5.366   1.519   5.388
 4173SOL    HW113418   5.400   1.443   5.332
 4173SOL    HW213419   5.305   1.576   5.333
 4174SOL     OW13420   3.678   7.002   4.146
 4174SOL    HW113421   3.753   7.011   4.212
 4174SOL    HW213422   3.666   6.905   4.123
 4175SOL     OW13423   1.197   4.860   6.872
 4175SOL    HW113424   1.195   4.766   6.908
 4175SOL    HW213425   1.155   4.862   6.782
 4176SOL     OW13426   4.816   0.003   5.446
 4176SOL    HW113427   4.910   7.005   5.419
 4176SOL    HW213428   4.816   0.086   5.501
 4177SOL     OW13429   4.071   5.495   2.895
 4177SOL    HW113430   4.110   5.435   2.964
 4177SOL    HW213431   4.139   5.562   2.866
 4178SOL     OW13432   3.778   6.110   1.308
 4178SOL    HW113433   3.698   6.134   1.253
 4178SOL    HW213434   3.861   6.122   1.254
 4179SOL     OW13435   4.429   2.143   6.833
 4179SOL    HW113436   4.508   2.157   6.893
 4179SOL    HW213437   4.346   2.172   6.880
 4180SOL     OW13438   3.844   4.163   0.036
 4180SOL    HW113439   3.764   4.127   0.084
 4180SOL    HW213440   3.816   4.200   6.971
 4181SOL     OW13441   5.740   6.281   5.939
 4181SOL    HW113442   5.659   6.258   5.993
 4181SOL    HW213443   5.757   6.209   5.872
 4182SOL     OW13444   0.376   5.834   5.257
 4182SOL    HW113445   0.284   5.873   5.263
 4182SOL    HW213446   0.443   5.907   5.266
 4183SOL     OW13447   4.831   2.053   0.235
 4183SOL    HW113448   4.900   2.114   0.196
 4183SOL    HW213449   4.794   2.094   0.319
 4184SOL     OW13450   3.066   5.428   3.348
 4184SOL    HW113451   3.029   5.387   3.265
 4184SOL    HW213452   3.144   5.486   3.325
 4185SOL     OW13453   4.794   4.091   3.506
 4185SOL    HW113454   4.811   4.101   3.604
 4185SOL    HW213455   4.862   4.029   3.467
 4186SOL     OW13456   2.467   5.372   6.769
 4186SOL    HW113457   2.544   5.339   6.715
 4186SOL    HW213458   2.409   5.431   6.712
 4187SOL     OW13459   2.544   4.041   6.095
 4187SOL    HW113460   2.497   4.063   6.181
 4187SOL    HW213461   2.494   4.083   6.019
 4188SOL     OW13462   5.210   0.421   6.465
 4188SOL    HW113463   5.240   0.493   6.528
 4188SOL    HW213464   5.138   0.367   6.508
 4189SOL     OW13465   5.049   5.129   2.956
 4189SOL    HW113466   4.983   5.109   2.884
 4189SOL    HW213467   5.099   5.212   2.933
 4190SOL     OW13468   6.248   6.783   2.027
 4190SOL    HW113469   6.294   6.694   2.034
 4190SOL    HW213470   6.308   6.847   1.980
 4191SOL     OW13471   4.175   2.595   6.382
 4191SOL    HW113472   4.258   2.592   6.438
 4191SOL    HW213473   4.115   2.667   6.417
 4192SOL     OW13474   1.873   3.755   6.195
 4192SOL    HW113475   1.792   3.713   6.154
 4192SOL    HW213476   1.846   3.835   6.249
 4193SOL     OW13477   6.531   0.583   0.410
 4193SOL    HW113478   6.465   0.521   0.370
 4193SOL    HW213479   6.512   0.594   0.508
 4194SOL     OW13480   5.901   0.718   6.401
 4194SOL    HW113481   5.915   0.619   6.399
 4194SOL    HW213482   5.837   0.744   6.329
 4195SOL     OW13483   2.623   6.251   0.964
 4195SOL    HW113484   2.645   6.305   1.045
 4195SOL    HW213485   2.707   6.230   0.913
 4196SOL     OW13486   0.487   2.858   3.613
 4196SOL    HW113487   0.501   2.867   3.514
 4196SOL    HW213488   0.391   2.833   3.630
 4197SOL     OW13489   4.029   0.732   0.281
 4197SOL    HW113490   3.936   0.759   0.255
 4197SOL    HW213491   4.092   0.755   0.206
 4198SOL     OW13492   0.003   2.348   2.335
 4198SOL    HW113493   6.952   2.414   2.345
 4198SOL    HW213494   0.083   2.393   2.294
 4199SOL     OW13495   0.738   3.584   6.850
 4199SOL    HW113496   0.799   3.543   6.782
 4199SOL    HW213497   0.727   3.681   6.830
 4200SOL     OW13498   5.041   1.720   3.476
 4200SOL    HW113499   5.098   1.665   3.537
 4200SOL    HW213500   5.045   1.816   3.504
 4201SOL     OW13501   5.485   6.998   4.591
 4201SOL    HW113502   5.576   0.010   4.612
 4201SOL    HW213503   5.466   6.917   4.646
 4202SOL     OW13504   4.625   4.121   1.663
 4202SOL    HW113505   4.672   4.193   1.612
 4202SOL    HW213506   4.556   4.162   1.722
 4203SOL     OW13507   6.108   4.059   5.418
 4203SOL    HW113508   6.053   3.988   5.463
 4203SOL    HW213509   6.171   4.015   5.353
 4204SOL     OW13510   1.592   4.145   6.177
 4204SOL    HW113511   1.665   4.143   6.109
 4204SOL    HW213512   1.561   4.240   6.189
 4205SOL     OW13513   5.147   5.982   6.181
 4205SOL    HW113514   5.141   6.065   6.125
 4205SOL    HW213515   5.097   5.995   6.266
 4206SOL     OW13516   2.645   1.963   4.333
 4206SOL    HW113517   2.650   2.007   4.243
 4206SOL    HW213518   2.738   1.950   4.368
 4207SOL     OW13519   1.746   2.445   1.889
 4207SOL    HW113520   1.736   2.450   1.789
 4207SOL    HW213521   1.843   2.441   1.913
 4208SOL     OW13522   2.793   2.330   3.581
 4208SOL    HW113523   2.875   2.383   3.559
 4208SOL    HW213524   2.766   2.350   3.676
 4209SOL     OW13525   6.412   5.610   2.315
 4209SOL    HW113526   6.474   5.688   2.306
 4209SOL    HW213527   6.372   5.589   2.225
 4210SOL     OW13528   3.033   4.400   5.315
 4210SOL    HW113529   2.986   4.482   5.282
 4210SOL    HW213530   2.988   4.367   5.398
 4211SOL     OW13531   3.969   2.825   5.613
 4211SOL    HW113532   4.021   2.903   5.649
 4211SOL    HW213533   4.020   2.741   5.630
 4212SOL     OW13534   0.997   2.321   3.242
 4212SOL    HW113535   0.977   2.253   3.312
 4212SOL    HW213536   0.984   2.413   3.280
 4213SOL     OW13537   3.892   0.314   4.080
 4213SOL    HW113538   3.912   0.216   4.082
 4213SOL    HW213539   3.794   0.328   4.066
 4214SOL     OW13540   6.704   6.072   3.373
 4214SOL    HW113541   6.653   6.146   3.329
 4214SOL    HW213542   6.802   6.085   3.360
 4215SOL     OW13543   5.894   0.151   5.136
 4215SOL    HW113544   5.808   0.124   5.093
 4215SOL    HW213545   5.901   0.108   5.226
 4216SOL     OW13546   2.651   5.553   2.317
 4216SOL    HW113547   2.619   5.554   2.412
 4216SOL    HW213548   2.588   5.498   2.262
 4217SOL     OW13549   1.569   0.773   3.359
 4217SOL    HW113550   1.584   0.835   3.282
 4217SOL    HW213551   1.509   0.817   3.426
 4218SOL     OW13552   3.369   0.745   2.044
 4218SOL    HW113553   3.296   0.724   2.108
 4218SOL    HW213554   3.418   0.827   2.074
 4219SOL     OW13555   3.868   5.100   3.615
 4219SOL    HW113556   3.872   5.007   3.579
 4219SOL    HW213557   3.950   5.119   3.668
 4220SOL     OW13558   6.071   2.148   1.219
 4220SOL    HW113559   6.092   2.187   1.309
 4220SOL    HW213560   5.980   2.177   1.190
 4221SOL     OW13561   0.511   6.350   0.414
 4221SOL    HW113562   0.534   6.318   0.505
 4221SOL    HW213563   0.413   6.339   0.398
 4222SOL     OW13564   4.992   3.266   4.783
 4222SOL    HW113565   4.999   3.344   4.721
 4222SOL    HW213566   5.076   3.211   4.778
 4223SOL     OW13567   3.346   4.025   2.240
 4223SOL    HW113568   3.393   4.032   2.328
 4223SOL    HW213569   3.247   4.028   2.256
 4224SOL     OW13570   4.883   4.490   4.695
 4224SOL    HW113571   4.806   4.446   4.741
 4224SOL    HW213572   4.956   4.424   4.680
 4225SOL     OW13573   0.975   2.183   6.230
 4225SOL    HW113574   0.885   2.224   6.218
 4225SOL    HW213575   1.032   2.242   6.287
 4226SOL     OW13576   6.281   4.607   4.403
 4226SOL    HW113577   6.378   4.617   4.382
 4226SOL    HW213578   6.237   4.697   4.398
 4227SOL     OW13579   5.139   5.173   1.365
 4227SOL    HW113580   5.091   5.142   1.446
 4227SOL    HW213581   5.166   5.269   1.377
 4228SOL     OW13582   1.675   4.302   3.398
 4228SOL    HW113583   1.725   4.362   3.460
 4228SOL    HW213584   1.687   4.334   3.304
 4229SOL     OW13585   5.989   6.203   5.381
 4229SOL    HW113586   6.004   6.247   5.469
 4229SOL    HW213587   5.926   6.126   5.394
 4230SOL     OW13588   0.368   1.040   1.815
 4230SOL    HW113589   0.303   1.101   1.861
 4230SOL    HW213590   0.403   1.085   1.733
 4231SOL     OW13591   0.822   0.375   6.614
 4231SOL    HW113592   0.919   0.375   6.637
 4231SOL    HW213593   0.786   0.282   6.618
 4232SOL     OW13594   1.698   4.681   3.757
 4232SOL    HW113595   1.661   4.774   3.762
 4232SOL    HW213596   1.664   4.627   3.834
 4233SOL     OW13597   4.386   5.254   2.289
 4233SOL    HW113598   4.298   5.205   2.284
 4233SOL    HW213599   4.446   5.207   2.353
 4234SOL     OW13600   3.312   5.830   5.939
 4234SOL    HW113601   3.354   5.884   6.012
 4234SOL    HW213602   3.330   5.733   5.954
 4235SOL     OW13603   6.793   5.996   6.469
 4235SOL    HW113604   6.786   5.996   6.569
 4235SOL    HW213605   6.889   6.011   6.443
 4236SOL     OW13606   0.556   5.126   3.135
 4236SOL    HW113607   0.642   5.177   3.134
 4236SOL    HW213608   0.556   5.059   3.060
 4237SOL     OW13609   6.709   4.756   3.630
 4237SOL    HW113610   6.617   4.716   3.628
 4237SOL    HW213611   6.705   4.847   3.673
 4238SOL     OW13612   2.821   5.688   2.714
 4238SOL    HW113613   2.906   5.733   2.739
 4238SOL    HW213614   2.744   5.750   2.731
 4239SOL     OW13615   4.145   1.093   3.472
 4239SOL    HW113616   4.179   1.018   3.529
 4239SOL    HW213617   4.085   1.057   3.401
 4240SOL     OW13618   5.842   6.728   2.174
 4240SOL    HW113619   5.793   6.812   2.149
 4240SOL    HW213620   5.850   6.724   2.274
 4241SOL     OW13621   6.681   4.641   0.467
 4241SOL    HW113622   6.734   4.718   0.432
 4241SOL    HW213623   6.677   4.646   0.566
 4242SOL     OW13624   3.480   2.070   3.602
 4242SOL    HW113625   3.435   2.129   3.669
 4242SOL    HW213626   3.437   2.083   3.512
 4243SOL     OW13627   3.813   2.056   2.936
 4243SOL    HW113628   3.786   1.984   2.871
 4243SOL    HW213629   3.894   2.103   2.901
 4244SOL     OW13630   3.251   3.067   4.798
 4244SOL    HW113631   3.161   3.089   4.836
 4244SOL    HW213632   3.292   2.993   4.851
 4245SOL     OW13633   6.411   0.407   6.699
 4245SOL    HW113634   6.438   0.491   6.745
 4245SOL    HW213635   6.384   0.427   6.605
 4246SOL     OW13636   0.077   4.511   6.409
 4246SOL    HW113637   0.107   4.489   6.502
 4246SOL    HW213638   0.028   4.433   6.370
 4247SOL     OW13639   0.054   6.045   4.924
 4247SOL    HW113640   6.994   6.061   4.871
 4247SOL    HW213641   0.133   6.064   4.867
 4248SOL     OW13642   2.308   3.950   6.476
 4248SOL    HW113643   2.281   3.864   6.433
 4248SOL    HW213644   2.391   3.935   6.531
 4249SOL     OW13645   5.446   3.736   6.048
 4249SOL    HW113646   5.516   3.699   5.987
 4249SOL    HW213647   5.434   3.676   6.126
 4250SOL     OW13648   0.583   3.871   3.570
 4250SOL    HW113649   0.496   3.850   3.615
 4250SOL    HW213650   0.657   3.866   3.637
 4251SOL     OW13651   5.448   4.832   6.921
 4251SOL    HW113652   5.503   4.766   6.972
 4251SOL    HW213653   5.493   4.853   6.835
 4252SOL     OW13654   6.462   5.403   4.882
 4252SOL    HW113655   6.440   5.480   4.822
 4252SOL    HW213656   6.523   5.435   4.955
 4253SOL     OW13657   3.367   5.914   3.327
 4253SOL    HW113658   3.327   5.890   3.415
 4253SOL    HW213659   3.315   5.870   3.253
 4254SOL     OW13660   2.810   3.676   1.535
 4254SOL    HW113661   2.729   3.647   1.586
 4254SOL    HW213662   2.883   3.701   1.598
 4255SOL     OW13663   0.464   2.312   4.261
 4255SOL    HW113664   0.394   2.251   4.300
 4255SOL    HW213665   0.426   2.405   4.253
 4256SOL     OW13666   2.093   1.007   2.178
 4256SOL    HW113667   2.071   0.916   2.214
 4256SOL    HW213668   2.190   1.012   2.156
 4257SOL     OW13669   4.339   2.259   5.260
 4257SOL    HW113670   4.252   2.232   5.220
 4257SOL    HW213671   4.388   2.178   5.292
 4258SOL     OW13672   5.304   6.040   2.909
 4258SOL    HW113673   5.220   6.089   2.934
 4258SOL    HW213674   5.350   6.008   2.992
 4259SOL     OW13675   2.062   3.087   1.034
 4259SOL    HW113676   2.035   3.014   0.972
 4259SOL    HW213677   1.985   3.112   1.092
 4260SOL     OW13678   3.717   5.524   4.267
 4260SOL    HW113679   3.645   5.562   4.325
 4260SOL    HW213680   3.788   5.593   4.252
 4261SOL     OW13681   0.783   1.803   2.819
 4261SOL    HW113682   0.824   1.818   2.909
 4261SOL    HW213683   0.846   1.834   2.748
 4262SOL     OW13684   0.405   6.404   6.351
 4262SOL    HW113685   0.455   6.442   6.429
 4262SOL    HW213686   0.458   6.418   6.267
 4263SOL     OW13687   4.420   5.033   6.389
 4263SOL    HW113688   4.419   4.946   6.437
 4263SOL    HW213689   4.373   5.102   6.445
 4264SOL     OW13690   0.451   0.528   1.092
 4264SOL    HW113691   0.512   0.590   1.141
 4264SOL    HW213692   0.412   0.461   1.155
 4265SOL     OW13693   1.541   1.938   0.073
 4265SOL    HW113694   1.591   2.021   0.049
 4265SOL    HW213695   1.568   1.908   0.164
 4266SOL     OW13696   3.592   4.464   1.236
 4266SOL    HW113697   3.649   4.474   1.154
 4266SOL    HW213698   3.517   4.401   1.217
 4267SOL     OW13699   1.076   4.547   5.636
 4267SOL    HW113700   1.086   4.645   5.653
 4267SOL    HW213701   1.155   4.513   5.586
 4268SOL     OW13702   1.877   0.839   1.007
 4268SOL    HW113703   1.819   0.790   0.941
 4268SOL    HW213704   1.821   0.903   1.059
 4269SOL     OW13705   2.615   4.306   0.685
 4269SOL    HW113706   2.647   4.270   0.597
 4269SOL    HW213707   2.566   4.234   0.734
 4270SOL     OW13708   3.739   2.692   6.602
 4270SOL    HW113709   3.717   2.610   6.549
 4270SOL    HW213710   3.822   2.734   6.565
 4271SOL     OW13711   1.256   0.803   0.866
 4271SOL    HW113712   1.294   0.887   0.904
 4271SOL    HW213713   1.274   0.800   0.767
 4272SOL     OW13714   0.184   3.841   3.996
 4272SOL    HW113715   0.237   3.848   3.911
 4272SOL    HW213716   0.168   3.745   4.018
 4273SOL     OW13717   5.778   6.800   4.041
 4273SOL    HW113718   5.876   6.822   4.035
 4273SOL    HW213719   5.750   6.751   3.959
 4274SOL     OW13720   2.399   0.456   3.975
 4274SOL    HW113721   2.352   0.383   4.025
 4274SOL    HW213722   2.424   0.424   3.884
 4275SOL     OW13723   0.568   0.377   5.757
 4275SOL    HW113724   0.548   0.465   5.800
 4275SOL    HW213725   0.528   0.303   5.811
 4276SOL     OW13726   2.076   4.520   2.466
 4276SOL    HW113727   2.159   4.571   2.488
 4276SOL    HW213728   2.002   4.547   2.528
 4277SOL     OW13729   0.592   5.212   5.725
 4277SOL    HW113730   0.647   5.231   5.643
 4277SOL    HW213731   0.570   5.299   5.770
 4278SOL     OW13732   1.332   6.822   6.265
 4278SOL    HW113733   1.296   6.809   6.173
 4278SOL    HW213734   1.417   6.770   6.275
 4279SOL     OW13735   3.131   5.795   3.954
 4279SOL    HW113736   3.092   5.832   3.869
 4279SOL    HW213737   3.079   5.830   4.032
 4280SOL     OW13738   4.918   2.805   3.711
 4280SOL    HW113739   4.952   2.774   3.622
 4280SOL    HW213740   4.923   2.905   3.715
 4281SOL     OW13741   2.455   4.207   5.308
 4281SOL    HW113742   2.548   4.241   5.298
 4281SOL    HW213743   2.451   4.111   5.281
 4282SOL     OW13744   0.356   2.905   0.622
 4282SOL    HW113745   0.374   2.970   0.697
 4282SOL    HW213746   0.309   2.953   0.548
 4283SOL     OW13747   2.479   0.974   4.550
 4283SOL    HW113748   2.557   1.025   4.512
 4283SOL    HW213749   2.395   1.008   4.509
 4284SOL     OW13750   0.219   1.990   3.183
 4284SOL    HW113751   0.256   1.932   3.110
 4284SOL    HW213752   0.283   2.065   3.201
 4285SOL     OW13753   0.904   5.831   4.832
 4285SOL    HW113754   0.837   5.889   4.878
 4285SOL    HW213755   0.915   5.745   4.882
 4286SOL     OW13756   4.820   5.802   6.321
 4286SOL    HW113757   4.785   5.870   6.257
 4286SOL    HW213758   4.818   5.712   6.278
 4287SOL     OW13759   3.874   6.313   5.817
 4287SOL    HW113760   3.854   6.386   5.752
 4287SOL    HW213761   3.916   6.236   5.769
 4288SOL     OW13762   1.011   5.839   3.328
 4288SOL    HW113763   1.109   5.831   3.311
 4288SOL    HW213764   0.991   5.930   3.365
 4289SOL     OW13765   6.931   3.989   0.196
 4289SOL    HW113766   6.835   4.018   0.199
 4289SOL    HW213767   6.935   3.889   0.200
 4290SOL     OW13768   2.236   1.443   3.180
 4290SOL    HW113769   2.270   1.529   3.218
 4290SOL    HW213770   2.245   1.444   3.081
 4291SOL     OW13771   6.697   4.258   1.249
 4291SOL    HW113772   6.608   4.229   1.215
 4291SOL    HW213773   6.768   4.229   1.185
 4292SOL     OW13774   5.993   5.169   6.073
 4292SOL    HW113775   5.962   5.218   6.155
 4292SOL    HW213776   5.957   5.214   5.992
 4293SOL     OW13777   0.319   2.203   6.464
 4293SOL    HW113778   0.295   2.246   6.552
 4293SOL    HW213779   0.391   2.135   6.479
 4294SOL     OW13780   4.897   1.983   6.148
 4294SOL    HW113781   4.812   2.003   6.099
 4294SOL    HW213782   4.915   2.055   6.215
 4295SOL     OW13783   3.672   6.029   5.922
 4295SOL    HW113784   3.669   6.119   5.966
 4295SOL    HW213785   3.640   6.038   5.827
 4296SOL     OW13786   2.727   1.180   2.829
 4296SOL    HW113787   2.704   1.117   2.755
 4296SOL    HW213788   2.818   1.219   2.813
 4297SOL     OW13789   5.635   0.581   0.283
 4297SOL    HW113790   5.712   0.547   0.229
 4297SOL    HW213791   5.588   0.653   0.234
 4298SOL     OW13792   2.060   5.347   1.687
 4298SOL    HW113793   1.985   5.397   1.731
 4298SOL    HW213794   2.135   5.410   1.669
 4299SOL     OW13795   0.833   4.808   5.390
 4299SOL    HW113796   0.747   4.801   5.440
 4299SOL    HW213797   0.910   4.805   5.454
 4300SOL     OW13798   5.926   6.662   5.432
 4300SOL    HW113799   5.920   6.711   5.519
 4300SOL    HW213800   5.860   6.586   5.433
 4301SOL     OW13801   2.792   0.936   0.359
 4301SOL    HW113802   2.699   0.935   0.322
 4301SOL    HW213803   2.826   1.030   0.359
 4302SOL     OW13804   1.038   6.966   6.530
 4302SOL    HW113805   0.985   0.012   6.481
 4302SOL    HW213806   1.059   6.999   6.622
 4303SOL     OW13807   6.638   4.244   1.539
 4303SOL    HW113808   6.654   4.167   1.600
 4303SOL    HW213809   6.688   4.231   1.453
 4304SOL     OW13810   3.020   3.114   4.882
 4304SOL    HW113811   2.991   3.054   4.956
 4304SOL    HW213812   2.997   3.209   4.905
 4305SOL     OW13813   6.853   1.154   5.215
 4305SOL    HW113814   6.923   1.138   5.285
 4305SOL    HW213815   6.893   1.140   5.125
 4306SOL     OW13816   6.163   6.267   6.050
 4306SOL    HW113817   6.133   6.254   6.144
 4306SOL    HW213818   6.173   6.177   6.006
 4307SOL     OW13819   5.076   2.998   0.388
 4307SOL    HW113820   5.138   3.065   0.428
 4307SOL    HW213821   5.128   2.919   0.356
 4308SOL     OW13822   3.651   6.491   5.170
 4308SOL    HW113823   3.751   6.496   5.170
 4308SOL    HW213824   3.619   6.456   5.083
 4309SOL     OW13825   1.845   0.749   1.457
 4309SOL    HW113826   1.936   0.768   1.494
 4309SOL    HW213827   1.854   0.694   1.374
 4310SOL     OW13828   1.503   0.706   2.856
 4310SOL    HW113829   1.585   0.754   2.824
 4310SOL    HW213830   1.519   0.608   2.852
 4311SOL     OW13831   0.990   5.860   4.569
 4311SOL    HW113832   0.969   5.765   4.547
 4311SOL    HW213833   0.971   5.877   4.666
 4312SOL     OW13834   1.652   6.033   1.496
 4312SOL    HW113835   1.613   6.025   1.404
 4312SOL    HW213836   1.749   6.011   1.492
 4313SOL     OW13837   5.088   0.885   1.600
 4313SOL    HW113838   5.027   0.809   1.578
 4313SOL    HW213839   5.143   0.861   1.681
 4314SOL     OW13840   5.781   3.334   1.938
 4314SOL    HW113841   5.724   3.409   1.906
 4314SOL    HW213842   5.853   3.369   1.998
 4315SOL     OW13843   2.316   1.590   2.494
 4315SOL    HW113844   2.256   1.630   2.563
 4315SOL    HW213845   2.392   1.543   2.539
 4316SOL     OW13846   0.747   0.798   2.437
 4316SOL    HW113847   0.706   0.810   2.346
 4316SOL    HW213848   0.712   0.715   2.479
 4317SOL     OW13849   3.973   0.158   3.543
 4317SOL    HW113850   4.049   0.131   3.484
 4317SOL    HW213851   3.970   0.099   3.624
 4318SOL     OW13852   6.444   2.295   4.768
 4318SOL    HW113853   6.375   2.248   4.823
 4318SOL    HW213854   6.428   2.394   4.771
 4319SOL     OW13855   3.083   3.138   6.095
 4319SOL    HW113856   3.098   3.129   6.193
 4319SOL    HW213857   3.168   3.116   6.046
 4320SOL     OW13858   0.516   5.599   3.482
 4320SOL    HW113859   0.538   5.564   3.573
 4320SOL    HW213860   0.450   5.539   3.438
 4321SOL     OW13861   0.780   0.336   4.905
 4321SOL    HW113862   0.740   0.356   4.815
 4321SOL    HW213863   0.871   0.376   4.910
 4322SOL     OW13864   5.724   1.322   1.370
 4322SOL    HW113865   5.686   1.325   1.277
 4322SOL    HW213866   5.700   1.405   1.419
 4323SOL     OW13867   0.319   2.209   3.958
 4323SOL    HW113868   0.259   2.269   4.012
 4323SOL    HW213869   0.307   2.229   3.861
 4324SOL     OW13870   5.603   2.745   6.183
 4324SOL    HW113871   5.544   2.682   6.233
 4324SOL    HW213872   5.687   2.698   6.157
 4325SOL     OW13873   1.577   2.156   6.239
 4325SOL    HW113874   1.496   2.200   6.201
 4325SOL    HW213875   1.551   2.072   6.286
 4326SOL     OW13876   6.595   2.436   5.047
 4326SOL    HW113877   6.690   2.417   5.022
 4326SOL    HW213878   6.547   2.476   4.970
 4327SOL     OW13879   5.324   0.739   3.281
 4327SOL    HW113880   5.370   0.827   3.269
 4327SOL    HW213881   5.353   0.698   3.368
 4328SOL     OW13882   5.757   5.158   0.134
 4328SOL    HW113883   5.771   5.148   0.233
 4328SOL    HW213884   5.665   5.192   0.116
 4329SOL     OW13885   4.945   1.471   6.739
 4329SOL    HW113886   4.895   1.396   6.697
 4329SOL    HW213887   4.940   1.551   6.679
 4330SOL     OW13888   0.972   0.927   6.526
 4330SOL    HW113889   0.941   0.955   6.617
 4330SOL    HW213890   0.917   0.849   6.495
 4331SOL     OW13891   5.439   2.220   6.695
 4331SOL    HW113892   5.507   2.228   6.622
 4331SOL    HW213893   5.457   2.288   6.766
 4332SOL     OW13894   5.532   3.173   1.774
 4332SOL    HW113895   5.457   3.208   1.718
 4332SOL    HW213896   5.514   3.192   1.870
 4333SOL     OW13897   6.401   1.379   5.460
 4333SOL    HW113898   6.500   1.392   5.449
 4333SOL    HW213899   6.355   1.466   5.445
 4334SOL     OW13900   4.458   0.366   1.582
 4334SOL    HW113901   4.364   0.402   1.583
 4334SOL    HW213902   4.468   0.301   1.507
 4335SOL     OW13903   3.885   4.501   5.859
 4335SOL    HW113904   3.913   4.446   5.938
 4335SOL    HW213905   3.942   4.478   5.780
 4336SOL     OW13906   1.078   6.522   5.668
 4336SOL    HW113907   0.988   6.563   5.682
 4336SOL    HW213908   1.108   6.478   5.753
 4337SOL     OW13909   0.311   5.774   0.182
 4337SOL    HW113910   0.340   5.867   0.203
 4337SOL    HW213911   0.294   5.724   0.267
 4338SOL     OW13912   5.759   6.168   3.834
 4338SOL    HW113913   5.718   6.103   3.770
 4338SOL    HW213914   5.736   6.261   3.806
 4339SOL     OW13915   6.803   1.311   6.791
 4339SOL    HW113916   6.753   1.362   6.721
 4339SOL    HW213917   6.884   1.270   6.751
 4340SOL     OW13918   4.579   3.451   1.535
 4340SOL    HW113919   4.559   3.365   1.582
 4340SOL    HW213920   4.666   3.488   1.568
 4341SOL     OW13921   0.829   3.739   0.183
 4341SOL    HW113922   0.845   3.743   0.282
 4341SOL    HW213923   0.824   3.643   0.155
 4342SOL     OW13924   6.965   1.975   3.146
 4342SOL    HW113925   6.911   2.047   3.189
 4342SOL    HW213926   0.038   1.987   3.169
 4343SOL     OW13927   2.768   2.083   1.488
 4343SOL    HW113928   2.706   2.013   1.454
 4343SOL    HW213929   2.764   2.163   1.427
 4344SOL     OW13930   2.066   3.723   2.501
 4344SOL    HW113931   2.095   3.777   2.422
 4344SOL    HW213932   1.977   3.681   2.481
 4345SOL     OW13933   2.387   1.564   5.937
 4345SOL    HW113934   2.470   1.547   5.884
 4345SOL    HW213935   2.308   1.529   5.887
 4346SOL     OW13936   6.669   3.573   0.948
 4346SOL    HW113937   6.582   3.525   0.943
 4346SOL    HW213938   6.737   3.514   0.991
 4347SOL     OW13939   5.324   5.752   2.328
 4347SOL    HW113940   5.396   5.821   2.322
 4347SOL    HW213941   5.235   5.798   2.333
 4348SOL     OW13942   1.263   4.130   6.980
 4348SOL    HW113943   1.223   4.045   6.946
 4348SOL    HW213944   1.286   4.119   0.054
 4349SOL     OW13945   6.630   1.184   1.767
 4349SOL    HW113946   6.668   1.135   1.846
 4349SOL    HW213947   6.602   1.275   1.796
 4350SOL     OW13948   4.580   0.102   3.406
 4350SOL    HW113949   4.522   0.182   3.397
 4350SOL    HW213950   4.606   0.090   3.502
 4351SOL     OW13951   2.969   0.036   6.931
 4351SOL    HW113952   2.937   0.103   6.999
 4351SOL    HW213953   3.048   7.010   6.969
 4352SOL     OW13954   6.169   1.588   2.762
 4352SOL    HW113955   6.210   1.581   2.671
 4352SOL    HW213956   6.137   1.682   2.777
 4353SOL     OW13957   3.232   5.685   1.724
 4353SOL    HW113958   3.141   5.720   1.749
 4353SOL    HW213959   3.231   5.585   1.725
 4354SOL     OW13960   2.632   0.594   1.323
 4354SOL    HW113961   2.610   0.672   1.264
 4354SOL    HW213962   2.710   0.545   1.286
 4355SOL     OW13963   4.739   0.353   0.747
 4355SOL    HW113964   4.708   0.294   0.821
 4355SOL    HW213965   4.722   0.309   0.659
 4356SOL     OW13966   3.558   4.159   0.124
 4356SOL    HW113967   3.497   4.089   0.087
 4356SOL    HW213968   3.562   4.152   0.223
 4357SOL     OW13969   6.048   0.895   6.939
 4357SOL    HW113970   6.072   0.992   6.938
 4357SOL    HW213971   5.979   0.878   7.011
 4358SOL     OW13972   6.158   0.935   0.743
 4358SOL    HW113973   6.063   0.939   0.711
 4358SOL    HW213974   6.196   0.844   0.725
 4359SOL     OW13975   5.751   3.110   4.348
 4359SOL    HW113976   5.850   3.103   4.354
 4359SOL    HW213977   5.724   3.121   4.253
 4360SOL     OW13978   2.139   3.401   0.784
 4360SOL    HW113979   2.134   3.316   0.731
 4360SOL    HW213980   2.223   3.449   0.761
 4361SOL     OW13981   5.878   2.044   2.451
 4361SOL    HW113982   5.970   2.038   2.489
 4361SOL    HW213983   5.840   1.953   2.440
 4362SOL     OW13984   4.924   3.954   3.107
 4362SOL    HW113985   4.997   3.972   3.040
 4362SOL    HW213986   4.854   4.025   3.099
 4363SOL     OW13987   5.544   0.658   6.104
 4363SOL    HW113988   5.498   0.735   6.148
 4363SOL    HW213989   5.593   0.605   6.173
 4364SOL     OW13990   3.515   3.797   4.482
 4364SOL    HW113991   3.535   3.825   4.576
 4364SOL    HW213992   3.590   3.825   4.422
 4365SOL     OW13993   4.247   1.426   1.079
 4365SOL    HW113994   4.243   1.369   1.161
 4365SOL    HW213995   4.224   1.520   1.102
 4366SOL     OW13996   5.330   4.744   0.646
 4366SOL    HW113997   5.343   4.645   0.642
 4366SOL    HW213998   5.334   4.781   0.553
 4367SOL     OW13999   0.116   0.135   0.707
 4367SOL    HW114000   0.133   0.217   0.761
 4367SOL    HW214001   0.018   0.116   0.704
 4368SOL     OW14002   4.403   4.546   1.934
 4368SOL    HW114003   4.320   4.538   1.879
 4368SOL    HW214004   4.451   4.459   1.935
 4369SOL     OW14005   3.045   5.645   1.393
 4369SOL    HW114006   3.093   5.586   1.328
 4369SOL    HW214007   2.966   5.687   1.348
 4370SOL     OW14008   5.568   4.440   2.269
 4370SOL    HW114009   5.550   4.485   2.357
 4370SOL    HW214010   5.667   4.439   2.251
 4371SOL     OW14011   0.463   2.070   2.402
 4371SOL    HW114012   0.497   2.009   2.330
 4371SOL    HW214013   0.432   2.016   2.479
 4372SOL     OW14014   5.005   0.248   3.329
 4372SOL    HW114015   5.101   0.233   3.353
 4372SOL    HW214016   4.951   0.259   3.412
 4373SOL     OW14017   6.723   1.933   6.408
 4373SOL    HW114018   6.774   1.863   6.458
 4373SOL    HW214019   6.781   1.973   6.338
 4374SOL     OW14020   3.451   1.533   1.355
 4374SOL    HW114021   3.517   1.595   1.313
 4374SOL    HW214022   3.435   1.560   1.450
 4375SOL     OW14023   3.504   6.027   4.291
 4375SOL    HW114024   3.567   6.104   4.279
 4375SOL    HW214025   3.512   5.965   4.213
 4376SOL     OW14026   0.009   2.186   4.478
 4376SOL    HW114027   0.082   2.118   4.474
 4376SOL    HW214028   0.050   2.278   4.483
 4377SOL     OW14029   0.018   5.264   6.063
 4377SOL    HW114030   6.978   5.194   6.030
 4377SOL    HW214031   7.022   5.283   6.159
 4378SOL     OW14032   3.386   1.575   4.092
 4378SOL    HW114033   3.467   1.521   4.071
 4378SOL    HW214034   3.335   1.531   4.166
 4379SOL     OW14035   3.551   2.046   6.225
 4379SOL    HW114036   3.487   2.021   6.152
 4379SOL    HW214037   3.505   2.105   6.292
 4380SOL     OW14038   0.549   2.006   3.095
 4380SOL    HW114039   0.513   2.097   3.114
 4380SOL    HW214040   0.521   1.943   3.168
 4381SOL     OW14041   1.426   5.955   6.984
 4381SOL    HW114042   1.443   5.870   6.935
 4381SOL    HW214043   1.414   5.936   0.057
 4382SOL     OW14044   0.750   5.108   4.421
 4382SOL    HW114045   0.778   5.183   4.361
 4382SOL    HW214046   0.700   5.040   4.367
 4383SOL     OW14047   6.618   4.126   0.829
 4383SOL    HW114048   6.609   4.139   0.927
 4383SOL    HW214049   6.624   4.029   0.808
 4384SOL     OW14050   5.224   6.779   3.772
 4384SOL    HW114051   5.251   6.850   3.707
 4384SOL    HW214052   5.303   6.756   3.829
 4385SOL     OW14053   4.587   1.597   5.876
 4385SOL    HW114054   4.547   1.509   5.851
 4385SOL    HW214055   4.525   1.670   5.851
 4386SOL     OW14056   1.734   3.379   4.663
 4386SOL    HW114057   1.795   3.450   4.627
 4386SOL    HW214058   1.734   3.383   4.763
 4387SOL     OW14059   5.567   1.941   0.654
 4387SOL    HW114060   5.470   1.966   0.652
 4387SOL    HW214061   5.617   2.009   0.707
 4388SOL     OW14062   4.893   3.666   0.173
 4388SOL    HW114063   4.830   3.675   0.250
 4388SOL    HW214064   4.843   3.679   0.087
 4389SOL     OW14065   1.710   2.106   6.881
 4389SOL    HW114066   1.773   2.146   6.815
 4389SOL    HW214067   1.757   2.035   6.933
 4390SOL     OW14068   0.078   1.701   1.002
 4390SOL    HW114069   0.091   1.608   0.968
 4390SOL    HW214070   0.084   1.701   1.102
 4391SOL     OW14071   0.738   5.454   0.759
 4391SOL    HW114072   0.772   5.458   0.665
 4391SOL    HW214073   0.655   5.510   0.767
 4392SOL     OW14074   1.203   3.362   6.009
 4392SOL    HW114075   1.116   3.387   5.968
 4392SOL    HW214076   1.275   3.423   5.974
 4393SOL     OW14077   5.989   0.246   1.955
 4393SOL    HW114078   5.943   0.277   2.038
 4393SOL    HW214079   5.960   0.153   1.932
 4394SOL     OW14080   0.633   0.283   2.357
 4394SOL    HW114081   0.654   0.379   2.340
 4394SOL    HW214082   0.541   0.275   2.397
 4395SOL     OW14083   1.906   4.421   2.267
 4395SOL    HW114084   1.972   4.446   2.338
 4395SOL    HW214085   1.897   4.495   2.201
 4396SOL     OW14086   3.096   1.016   2.938
 4396SOL    HW114087   3.174   0.994   2.996
 4396SOL    HW214088   3.101   1.112   2.910
 4397SOL     OW14089   3.582   1.328   4.916
 4397SOL    HW114090   3.505   1.276   4.950
 4397SOL    HW214091   3.609   1.396   4.984
 4398SOL     OW14092   2.063   3.241   5.553
 4398SOL    HW114093   2.085   3.304   5.628
 4398SOL    HW214094   2.042   3.295   5.471
 4399SOL     OW14095   2.810   6.479   1.548
 4399SOL    HW114096   2.739   6.425   1.502
 4399SOL    HW214097   2.900   6.445   1.521
 4400SOL     OW14098   1.772   5.952   4.796
 4400SOL    HW114099   1.725   6.037   4.819
 4400SOL    HW214100   1.846   5.971   4.731
 4401SOL     OW14101   2.819   0.055   6.195
 4401SOL    HW114102   2.790   0.151   6.188
 4401SOL    HW214103   2.759   7.021   6.140
 4402SOL     OW14104   2.210   0.942   2.762
 4402SOL    HW114105   2.163   0.959   2.849
 4402SOL    HW214106   2.291   0.885   2.780
 4403SOL     OW14107   0.512   5.403   1.946
 4403SOL    HW114108   0.496   5.414   1.848
 4403SOL    HW214109   0.555   5.485   1.983
 4404SOL     OW14110   0.723   6.678   6.065
 4404SOL    HW114111   0.811   6.633   6.050
 4404SOL    HW214112   0.693   6.662   6.159
 4405SOL     OW14113   2.133   5.304   2.480
 4405SOL    HW114114   2.079   5.223   2.503
 4405SOL    HW214115   2.119   5.374   2.550
 4406SOL     OW14116   6.187   4.018   2.255
 4406SOL    HW114117   6.193   4.118   2.249
 4406SOL    HW214118   6.092   3.991   2.267
 4407SOL     OW14119   5.943   6.881   1.089
 4407SOL    HW114120   6.009   6.932   1.034
 4407SOL    HW214121   5.853   6.925   1.081
 4408SOL     OW14122   4.173   0.842   0.833
 4408SOL    HW114123   4.209   0.752   0.808
 4408SOL    HW214124   4.243   0.894   0.883
 4409SOL     OW14125   2.937   0.727   3.871
 4409SOL    HW114126   2.842   0.699   3.865
 4409SOL    HW214127   2.996   0.648   3.854
 4410SOL     OW14128   0.616   0.199   0.928
 4410SOL    HW114129   0.681   0.247   0.987
 4410SOL    HW214130   0.531   0.252   0.924
 4411SOL     OW14131   4.557   4.431   5.365
 4411SOL    HW114132   4.522   4.338   5.368
 4411SOL    HW214133   4.532   4.479   5.449
 4412SOL     OW14134   4.539   6.193   1.930
 4412SOL    HW114135   4.609   6.246   1.880
 4412SOL    HW214136   4.529   6.230   2.022
 4413SOL     OW14137   4.304   5.944   3.701
 4413SOL    HW114138   4.287   5.925   3.604
 4413SOL    HW214139   4.393   5.907   3.727
 4414SOL     OW14140   5.204   3.661   1.432
 4414SOL    HW114141   5.272   3.682   1.502
 4414SOL    HW214142   5.247   3.612   1.357
 4415SOL     OW14143   1.502   3.904   1.057
 4415SOL    HW114144   1.579   3.958   1.024
 4415SOL    HW214145   1.466   3.944   1.141
 4416SOL     OW14146   5.011   2.880   4.197
 4416SOL    HW114147   4.942   2.826   4.149
 4416SOL    HW214148   5.100   2.833   4.192
 4417SOL     OW14149   6.983   4.229   1.681
 4417SOL    HW114150   6.952   4.190   1.594
 4417SOL    HW214151   6.903   4.252   1.738
 4418SOL     OW14152   6.343   0.810   5.855
 4418SOL    HW114153   6.306   0.723   5.822
 4418SOL    HW214154   6.329   0.816   5.954
 4419SOL     OW14155   6.780   6.001   6.736
 4419SOL    HW114156   6.785   6.093   6.775
 4419SOL    HW214157   6.729   5.941   6.798
 4420SOL     OW14158   4.167   1.920   0.994
 4420SOL    HW114159   4.101   1.909   1.069
 4420SOL    HW214160   4.195   2.016   0.988
 4421SOL     OW14161   1.999   2.866   0.255
 4421SOL    HW114162   1.938   2.915   0.194
 4421SOL    HW214163   2.080   2.837   0.205
 4422SOL     OW14164   0.148   3.006   6.008
 4422SOL    HW114165   0.204   3.023   5.928
 4422SOL    HW214166   0.205   3.006   6.090
 4423SOL     OW14167   6.150   4.377   4.449
 4423SOL    HW114168   6.167   4.344   4.542
 4423SOL    HW214169   6.215   4.450   4.426
 4424SOL     OW14170   4.621   5.921   2.769
 4424SOL    HW114171   4.599   5.840   2.823
 4424SOL    HW214172   4.647   5.894   2.677
 4425SOL     OW14173   0.821   5.954   1.233
 4425SOL    HW114174   0.748   5.887   1.246
 4425SOL    HW214175   0.832   5.973   1.136
 4426SOL     OW14176   0.229   0.619   4.384
 4426SOL    HW114177   0.134   0.602   4.409
 4426SOL    HW214178   0.273   0.532   4.359
 4427SOL     OW14179   2.272   5.957   2.320
 4427SOL    HW114180   2.196   5.994   2.373
 4427SOL    HW214181   2.244   5.871   2.277
 4428SOL     OW14182   6.897   5.387   3.312
 4428SOL    HW114183   6.836   5.325   3.263
 4428SOL    HW214184   6.877   5.382   3.410
 4429SOL     OW14185   2.807   6.391   3.185
 4429SOL    HW114186   2.851   6.364   3.271
 4429SOL    HW214187   2.822   6.489   3.170
 4430SOL     OW14188   6.116   3.494   5.306
 4430SOL    HW114189   6.092   3.588   5.281
 4430SOL    HW214190   6.045   3.431   5.274
 4431SOL     OW14191   4.153   6.703   4.775
 4431SOL    HW114192   4.147   6.607   4.802
 4431SOL    HW214193   4.150   6.760   4.857
 4432SOL     OW14194   0.803   3.564   6.078
 4432SOL    HW114195   0.734   3.502   6.040
 4432SOL    HW214196   0.885   3.562   6.020
 4433SOL     OW14197   0.874   0.460   4.284
 4433SOL    HW114198   0.884   0.443   4.381
 4433SOL    HW214199   0.826   0.547   4.270
 4434SOL     OW14200   6.969   0.732   1.888
 4434SOL    HW114201   6.974   0.821   1.844
 4434SOL    HW214202   0.038   0.695   1.899
 4435SOL     OW14203   2.174   4.002   0.472
 4435SOL    HW114204   2.223   3.916   0.455
 4435SOL    HW214205   2.234   4.079   0.453
 4436SOL     OW14206   4.411   2.144   1.802
 4436SOL    HW114207   4.417   2.105   1.710
 4436SOL    HW214208   4.360   2.230   1.798
 4437SOL     OW14209   6.409   4.570   0.104
 4437SOL    HW114210   6.363   4.510   0.169
 4437SOL    HW214211   6.466   4.514   0.043
 4438SOL     OW14212   4.364   1.219   4.649
 4438SOL    HW114213   4.414   1.223   4.736
 4438SOL    HW214214   4.299   1.143   4.651
 4439SOL     OW14215   2.213   5.810   3.081
 4439SOL    HW114216   2.130   5.773   3.123
 4439SOL    HW214217   2.238   5.895   3.127
 4440SOL     OW14218   1.252   4.717   5.242
 4440SOL    HW114219   1.329   4.653   5.240
 4440SOL    HW214220   1.285   4.809   5.222
 4441SOL     OW14221   6.877   1.808   1.262
 4441SOL    HW114222   6.971   1.778   1.248
 4441SOL    HW214223   6.816   1.752   1.207
 4442SOL     OW14224   2.292   4.746   1.286
 4442SOL    HW114225   2.193   4.740   1.271
 4442SOL    HW214226   2.317   4.689   1.365
 4443SOL     OW14227   0.321   5.964   6.346
 4443SOL    HW114228   0.249   5.919   6.294
 4443SOL    HW214229   0.295   5.968   6.443
 4444SOL     OW14230   5.647   5.431   0.291
 4444SOL    HW114231   5.684   5.364   0.355
 4444SOL    HW214232   5.692   5.519   0.305
 4445SOL     OW14233   1.822   4.215   6.858
 4445SOL    HW114234   1.808   4.140   6.923
 4445SOL    HW214235   1.889   4.187   6.790
 4446SOL     OW14236   4.331   1.659   2.208
 4446SOL    HW114237   4.262   1.680   2.139
 4446SOL    HW214238   4.384   1.741   2.229
 4447SOL     OW14239   3.967   5.590   5.245
 4447SOL    HW114240   3.920   5.656   5.186
 4447SOL    HW214241   3.935   5.601   5.339
 4448SOL     OW14242   3.575   6.633   2.221
 4448SOL    HW114243   3.635   6.563   2.260
 4448SOL    HW214244   3.520   6.673   2.295
 4449SOL     OW14245   3.893   1.854   5.672
 4449SOL    HW114246   3.833   1.785   5.633
 4449SOL    HW214247   3.958   1.885   5.603
 4450SOL     OW14248   2.253   6.593   0.367
 4450SOL    HW114249   2.204   6.506   0.356
 4450SOL    HW214250   2.259   6.616   0.464
 4451SOL     OW14251   4.537   5.467   3.122
 4451SOL    HW114252   4.477   5.546   3.110
 4451SOL    HW214253   4.632   5.493   3.105
 4452SOL     OW14254   4.936   5.297   3.646
 4452SOL    HW114255   4.935   5.379   3.703
 4452SOL    HW214256   4.937   5.216   3.705
 4453SOL     OW14257   0.608   4.660   0.881
 4453SOL    HW114258   0.617   4.709   0.794
 4453SOL    HW214259   0.552   4.714   0.943
 4454SOL     OW14260   0.984   2.249   0.801
 4454SOL    HW114261   0.916   2.238   0.874
 4454SOL    HW214262   0.998   2.347   0.783
 4455SOL     OW14263   1.552   0.526   4.499
 4455SOL    HW114264   1.476   0.519   4.434
 4455SOL    HW214265   1.601   0.612   4.483
 4456SOL     OW14266   1.717   6.127   4.340
 4456SOL    HW114267   1.644   6.193   4.323
 4456SOL    HW214268   1.685   6.035   4.321
 4457SOL     OW14269   1.020   1.389   4.363
 4457SOL    HW114270   1.063   1.383   4.453
 4457SOL    HW214271   1.091   1.377   4.293
 4458SOL     OW14272   1.281   3.225   6.256
 4458SOL    HW114273   1.240   3.293   6.196
 4458SOL    HW214274   1.208   3.176   6.305
 4459SOL     OW14275   0.747   3.930   3.363
 4459SOL    HW114276   0.681   3.945   3.437
 4459SOL    HW214277   0.733   3.998   3.292
 4460SOL     OW14278   0.440   2.956   5.175
 4460SOL    HW114279   0.489   2.909   5.101
 4460SOL    HW214280   0.374   3.019   5.136
 4461SOL     OW14281   2.043   0.721   0.801
 4461SOL    HW114282   2.014   0.759   0.889
 4461SOL    HW214283   2.080   0.630   0.815
 4462SOL     OW14284   6.414   3.880   2.222
 4462SOL    HW114285   6.349   3.954   2.216
 4462SOL    HW214286   6.492   3.909   2.278
 4463SOL     OW14287   5.451   1.653   0.076
 4463SOL    HW114288   5.497   1.703   0.149
 4463SOL    HW214289   5.393   1.581   0.116
 4464SOL     OW14290   0.534   3.537   1.504
 4464SOL    HW114291   0.613   3.499   1.553
 4464SOL    HW214292   0.481   3.595   1.566
 4465SOL     OW14293   4.221   5.522   2.094
 4465SOL    HW114294   4.223   5.428   2.060
 4465SOL    HW214295   4.136   5.566   2.065
 4466SOL     OW14296   0.688   3.189   2.536
 4466SOL    HW114297   0.630   3.169   2.615
 4466SOL    HW214298   0.641   3.252   2.475
 4467SOL     OW14299   5.216   4.872   1.901
 4467SOL    HW114300   5.217   4.825   1.813
 4467SOL    HW214301   5.196   4.969   1.888
 4468SOL     OW14302   1.636   2.840   1.182
 4468SOL    HW114303   1.712   2.875   1.236
 4468SOL    HW214304   1.597   2.915   1.128
 4469SOL     OW14305   2.335   6.172   1.212
 4469SOL    HW114306   2.257   6.195   1.155
 4469SOL    HW214307   2.342   6.238   1.287
 4470SOL     OW14308   0.516   6.856   2.781
 4470SOL    HW114309   0.597   6.825   2.829
 4470SOL    HW214310   0.442   6.873   2.846
 4471SOL     OW14311   0.804   0.640   6.746
 4471SOL    HW114312   0.898   0.652   6.777
 4471SOL    HW214313   0.797   0.559   6.688
 4472SOL     OW14314   1.183   2.773   1.124
 4472SOL    HW114315   1.084   2.762   1.125
 4472SOL    HW214316   1.219   2.742   1.036
 4473SOL     OW14317   0.124   2.881   4.802
 4473SOL    HW114318   0.103   2.791   4.764
 4473SOL    HW214319   0.066   2.898   4.882
 4474SOL     OW14320   2.473   6.303   0.633
 4474SOL    HW114321   2.445   6.207   0.622
 4474SOL    HW214322   2.438   6.338   0.720
 4475SOL     OW14323   0.856   3.488   0.055
 4475SOL    HW114324   0.821   3.521   6.991
 4475SOL    HW214325   0.817   3.398   0.076
 4476SOL     OW14326   5.092   0.938   3.524
 4476SOL    HW114327   5.071   0.853   3.476
 4476SOL    HW214328   5.120   0.918   3.617
 4477SOL     OW14329   0.078   1.239   4.089
 4477SOL    HW114330   0.111   1.312   4.149
 4477SOL    HW214331   0.155   1.183   4.058
 4478SOL     OW14332   1.849   0.996   2.047
 4478SOL    HW114333   1.937   0.997   2.095
 4478SOL    HW214334   1.777   1.031   2.108
 4479SOL     OW14335   1.983   2.793   6.115
 4479SOL    HW114336   2.014   2.875   6.163
 4479SOL    HW214337   1.908   2.752   6.166
 4480SOL     OW14338   0.051   0.040   3.352
 4480SOL    HW114339   6.976   0.025   3.349
 4480SOL    HW214340   0.070   0.138   3.337
 4481SOL     OW14341   2.072   3.959   5.804
 4481SOL    HW114342   2.010   3.922   5.873
 4481SOL    HW214343   2.024   3.967   5.716
 4482SOL     OW14344   2.570   0.363   1.031
 4482SOL    HW114345   2.640   0.424   0.995
 4482SOL    HW214346   2.602   0.321   1.115
 4483SOL     OW14347   0.921   3.742   0.450
 4483SOL    HW114348   0.963   3.736   0.540
 4483SOL    HW214349   0.822   3.751   0.459
 4484SOL     OW14350   2.970   0.827   6.952
 4484SOL    HW114351   3.061   0.787   6.939
 4484SOL    HW214352   2.978   0.909   7.009
 4485SOL     OW14353   0.520   3.791   5.157
 4485SOL    HW114354   0.618   3.810   5.164
 4485SOL    HW214355   0.469   3.855   5.215
 4486SOL     OW14356   5.068   4.332   3.642
 4486SOL    HW114357   4.987   4.287   3.679
 4486SOL    HW214358   5.040   4.400   3.574
 4487SOL     OW14359   0.261   2.952   6.613
 4487SOL    HW114360   0.310   2.943   6.700
 4487SOL    HW214361   0.305   2.895   6.544
 4488SOL     OW14362   6.853   4.202   3.357
 4488SOL    HW114363   6.794   4.258   3.416
 4488SOL    HW214364   6.896   4.261   3.288
 4489SOL     OW14365   3.656   5.704   6.690
 4489SOL    HW114366   3.696   5.794   6.674
 4489SOL    HW214367   3.660   5.681   6.787
 4490SOL     OW14368   5.677   1.793   2.182
 4490SOL    HW114369   5.690   1.790   2.281
 4490SOL    HW214370   5.627   1.712   2.152
 4491SOL     OW14371   0.658   4.116   3.171
 4491SOL    HW114372   0.737   4.170   3.140
 4491SOL    HW214373   0.574   4.162   3.143
 4492SOL     OW14374   5.715   1.162   2.603
 4492SOL    HW114375   5.758   1.229   2.664
 4492SOL    HW214376   5.776   1.083   2.592
 4493SOL     OW14377   5.176   2.000   5.777
 4493SOL    HW114378   5.267   1.972   5.810
 4493SOL    HW214379   5.162   2.097   5.797
 4494SOL     OW14380   1.618   1.115   2.185
 4494SOL    HW114381   1.575   1.069   2.263
 4494SOL    HW214382   1.673   1.192   2.218
 4495SOL     OW14383   4.730   6.557   0.785
 4495SOL    HW114384   4.631   6.540   0.782
 4495SOL    HW214385   4.771   6.523   0.700
 4496SOL     OW14386   2.516   6.273   6.218
 4496SOL    HW114387   2.610   6.258   6.249
 4496SOL    HW214388   2.517   6.314   6.127
 4497SOL     OW14389   4.023   0.129   5.631
 4497SOL    HW114390   4.000   0.172   5.719
 4497SOL    HW214391   4.041   0.200   5.563
 4498SOL     OW14392   1.158   4.889   4.331
 4498SOL    HW114393   1.062   4.864   4.320
 4498SOL    HW214394   1.165   4.965   4.396
 4499SOL     OW14395   5.956   1.182   2.247
 4499SOL    HW114396   5.994   1.235   2.171
 4499SOL    HW214397   5.929   1.244   2.321
 4500SOL     OW14398   3.178   6.617   0.169
 4500SOL    HW114399   3.246   6.639   0.239
 4500SOL    HW214400   3.220   6.557   0.100
 4501SOL     OW14401   6.486   6.894   2.604
 4501SOL    HW114402   6.402   6.927   2.647
 4501SOL    HW214403   6.493   6.932   2.512
 4502SOL     OW14404   1.449   4.106   6.425
 4502SOL    HW114405   1.501   4.129   6.507
 4502SOL    HW214406   1.507   4.119   6.344
 4503SOL     OW14407   3.973   1.600   2.370
 4503SOL    HW114408   3.956   1.551   2.284
 4503SOL    HW214409   4.070   1.593   2.394
 4504SOL     OW14410   1.380   2.132   3.782
 4504SOL    HW114411   1.429   2.105   3.699
 4504SOL    HW214412   1.402   2.069   3.857
 4505SOL     OW14413   6.443   3.239   3.336
 4505SOL    HW114414   6.348   3.228   3.306
 4505SOL    HW214415   6.479   3.150   3.363
 4506SOL     OW14416   4.128   4.135   7.002
 4506SOL    HW114417   4.032   4.164   7.012
 4506SOL    HW214418   4.167   4.118   0.069
 4507SOL     OW14419   5.999   2.506   2.837
 4507SOL    HW114420   6.020   2.512   2.740
 4507SOL    HW214421   6.075   2.543   2.890
 4508SOL     OW14422   6.211   5.190   0.637
 4508SOL    HW114423   6.215   5.286   0.610
 4508SOL    HW214424   6.198   5.183   0.736
 4509SOL     OW14425   5.220   1.920   2.090
 4509SOL    HW114426   5.210   2.010   2.047
 4509SOL    HW214427   5.174   1.921   2.179
 4510SOL     OW14428   4.849   1.444   4.755
 4510SOL    HW114429   4.773   1.493   4.712
 4510SOL    HW214430   4.886   1.499   4.830
 4511SOL     OW14431   0.014   4.776   6.716
 4511SOL    HW114432   0.073   4.844   6.671
 4511SOL    HW214433   6.978   4.822   6.781
 4512SOL     OW14434   3.252   3.142   5.442
 4512SOL    HW114435   3.314   3.157   5.519
 4512SOL    HW214436   3.223   3.046   5.442
 4513SOL     OW14437   0.138   0.415   0.773
 4513SOL    HW114438   0.047   0.453   0.789
 4513SOL    HW214439   0.154   0.405   0.675
 4514SOL     OW14440   4.695   4.796   6.392
 4514SOL    HW114441   4.791   4.800   6.364
 4514SOL    HW214442   4.684   4.844   6.479
 4515SOL     OW14443   4.019   6.979   6.374
 4515SOL    HW114444   4.057   6.887   6.363
 4515SOL    HW214445   4.065   0.019   6.312
 4516SOL     OW14446   3.688   2.212   5.304
 4516SOL    HW114447   3.669   2.283   5.237
 4516SOL    HW214448   3.685   2.251   5.396
 4517SOL     OW14449   3.535   0.205   4.668
 4517SOL    HW114450   3.464   0.162   4.724
 4517SOL    HW214451   3.493   0.271   4.606
 4518SOL     OW14452   0.225   0.393   0.508
 4518SOL    HW114453   0.150   0.358   0.452
 4518SOL    HW214454   0.254   0.483   0.474
 4519SOL     OW14455   5.002   6.926   6.661
 4519SOL    HW114456   5.055   6.926   6.746
 4519SOL    HW214457   5.063   6.909   6.584
 4520SOL     OW14458   4.746   4.970   5.579
 4520SOL    HW114459   4.756   5.022   5.664
 4520SOL    HW214460   4.720   5.033   5.505
 4521SOL     OW14461   4.815   2.393   4.680
 4521SOL    HW114462   4.720   2.423   4.668
 4521SOL    HW214463   4.835   2.318   4.617
 4522SOL     OW14464   5.970   3.325   3.343
 4522SOL    HW114465   5.941   3.384   3.268
 4522SOL    HW214466   5.947   3.369   3.430
 4523SOL     OW14467   6.825   3.396   6.701
 4523SOL    HW114468   6.849   3.378   6.796
 4523SOL    HW214469   6.798   3.491   6.690
 4524SOL     OW14470   1.866   3.694   2.030
 4524SOL    HW114471   1.935   3.674   2.099
 4524SOL    HW214472   1.794   3.624   2.035
 4525SOL     OW14473   3.754   2.035   5.835
 4525SOL    HW114474   3.816   1.971   5.790
 4525SOL    HW214475   3.696   1.986   5.900
 4526SOL     OW14476   2.049   0.405   5.486
 4526SOL    HW114477   2.134   0.457   5.495
 4526SOL    HW214478   2.034   0.383   5.390
 4527SOL     OW14479   0.334   1.975   2.627
 4527SOL    HW114480   0.383   1.972   2.714
 4527SOL    HW214481   0.295   1.885   2.607
 4528SOL     OW14482   5.394   1.118   4.825
 4528SOL    HW114483   5.430   1.078   4.908
 4528SOL    HW214484   5.341   1.050   4.775
 4529SOL     OW14485   2.203   1.981   3.991
 4529SOL    HW114486   2.270   2.020   4.054
 4529SOL    HW214487   2.249   1.915   3.931
 4530SOL     OW14488   3.955   4.646   6.355
 4530SOL    HW114489   3.899   4.721   6.390
 4530SOL    HW214490   4.012   4.610   6.429
 4531SOL     OW14491   2.315   0.138   5.421
 4531SOL    HW114492   2.276   0.105   5.507
 4531SOL    HW214493   2.246   0.131   5.349
 4532SOL     OW14494   5.692   1.311   2.238
 4532SOL    HW114495   5.738   1.306   2.149
 4532SOL    HW214496   5.669   1.219   2.269
 4533SOL     OW14497   2.779   6.400   1.163
 4533SOL    HW114498   2.866   6.354   1.145
 4533SOL    HW214499   2.763   6.402   1.262
 4534SOL     OW14500   5.763   1.257   4.222
 4534SOL    HW114501   5.782   1.311   4.304
 4534SOL    HW214502   5.728   1.317   4.150
 4535SOL     OW14503   1.769   0.794   6.818
 4535SOL    HW114504   1.832   0.863   6.783
 4535SOL    HW214505   1.679   0.836   6.835
 4536SOL     OW14506   3.878   1.102   5.751
 4536SOL    HW114507   3.783   1.114   5.781
 4536SOL    HW214508   3.886   1.133   5.656
 4537SOL     OW14509   3.012   3.242   3.162
 4537SOL    HW114510   3.064   3.289   3.233
 4537SOL    HW214511   2.970   3.309   3.101
 4538SOL     OW14512   0.774   2.442   0.501
 4538SOL    HW114513   0.795   2.484   0.413
 4538SOL    HW214514   0.798   2.345   0.499
 4539SOL     OW14515   1.036   5.108   4.507
 4539SOL    HW114516   0.941   5.084   4.489
 4539SOL    HW214517   1.070   5.166   4.433
 4540SOL     OW14518   1.606   2.126   0.627
 4540SOL    HW114519   1.617   2.050   0.692
 4540SOL    HW214520   1.564   2.091   0.543
 4541SOL     OW14521   3.776   3.063   7.013
 4541SOL    HW114522   3.840   3.023   0.054
 4541SOL    HW214523   3.823   3.133   6.958
 4542SOL     OW14524   0.364   1.733   0.398
 4542SOL    HW114525   0.395   1.765   0.309
 4542SOL    HW214526   0.271   1.697   0.391
 4543SOL     OW14527   4.641   1.546   1.323
 4543SOL    HW114528   4.668   1.572   1.416
 4543SOL    HW214529   4.578   1.613   1.286
 4544SOL     OW14530   4.808   6.092   0.666
 4544SOL    HW114531   4.709   6.077   0.659
 4544SOL    HW214532   4.844   6.113   0.575
 4545SOL     OW14533   2.814   2.850   5.721
 4545SOL    HW114534   2.843   2.774   5.779
 4545SOL    HW214535   2.869   2.931   5.743
 4546SOL     OW14536   4.303   6.890   6.229
 4546SOL    HW114537   4.312   6.927   6.136
 4546SOL    HW214538   4.244   6.810   6.226
 4547SOL     OW14539   0.341   0.760   0.368
 4547SOL    HW114540   0.254   0.795   0.402
 4547SOL    HW214541   0.334   0.745   0.269
 4548SOL     OW14542   3.351   1.063   2.181
 4548SOL    HW114543   3.439   1.050   2.227
 4548SOL    HW214544   3.284   0.999   2.218
 4549SOL     OW14545   6.254   3.583   3.826
 4549SOL    HW114546   6.301   3.620   3.907
 4549SOL    HW214547   6.243   3.656   3.759
 4550SOL     OW14548   2.290   5.574   6.107
 4550SOL    HW114549   2.330   5.597   6.196
 4550SOL    HW214550   2.292   5.654   6.048
 4551SOL     OW14551   3.318   2.746   6.227
 4551SOL    HW114552   3.415   2.764   6.215
 4551SOL    HW214553   3.305   2.664   6.283
 4552SOL     OW14554   5.068   0.911   6.673
 4552SOL    HW114555   5.089   0.950   6.762
 4552SOL    HW214556   5.132   0.946   6.605
 4553SOL     OW14557   0.306   6.604   0.424
 4553SOL    HW114558   0.401   6.587   0.397
 4553SOL    HW214559   0.256   6.641   0.346
 4554SOL     OW14560   5.731   6.489   3.378
 4554SOL    HW114561   5.787   6.414   3.342
 4554SOL    HW214562   5.764   6.576   3.342
 4555SOL     OW14563   0.532   0.234   2.084
 4555SOL    HW114564   0.543   0.235   2.183
 4555SOL    HW214565   0.481   0.153   2.056
 4556SOL     OW14566   5.405   4.766   4.453
 4556SOL    HW114567   5.401   4.865   4.465
 4556SOL    HW214568   5.350   4.722   4.524
 4557SOL     OW14569   6.898   5.025   4.476
 4557SOL    HW114570   6.879   4.961   4.551
 4557SOL    HW214571   6.995   5.019   4.450
 4558SOL     OW14572   0.980   4.498   4.341
 4558SOL    HW114573   0.992   4.521   4.244
 4558SOL    HW214574   1.014   4.406   4.358
 4559SOL     OW14575   0.275   2.511   4.277
 4559SOL    HW114576   0.332   2.580   4.323
 4559SOL    HW214577   0.179   2.537   4.285
 4560SOL     OW14578   6.149   4.764   3.467
 4560SOL    HW114579   6.084   4.836   3.443
 4560SOL    HW214580   6.128   4.682   3.414
 4561SOL     OW14581   4.928   2.577   4.362
 4561SOL    HW114582   4.886   2.494   4.397
 4561SOL    HW214583   4.960   2.561   4.269
 4562SOL     OW14584   4.492   1.111   0.836
 4562SOL    HW114585   4.445   1.126   0.750
 4562SOL    HW214586   4.429   1.127   0.912
 4563SOL     OW14587   1.102   4.298   1.504
 4563SOL    HW114588   1.043   4.234   1.553
 4563SOL    HW214589   1.137   4.368   1.566
 4564SOL     OW14590   1.782   4.198   2.361
 4564SOL    HW114591   1.850   4.262   2.325
 4564SOL    HW214592   1.812   4.105   2.344
 4565SOL     OW14593   2.257   0.560   5.565
 4565SOL    HW114594   2.263   0.633   5.497
 4565SOL    HW214595   2.321   0.486   5.541
 4566SOL     OW14596   6.941   4.682   2.934
 4566SOL    HW114597   6.935   4.603   2.995
 4566SOL    HW214598   6.963   4.651   2.842
 4567SOL     OW14599   0.110   0.188   0.103
 4567SOL    HW114600   0.098   0.286   0.119
 4567SOL    HW214601   0.204   0.162   0.127
 4568SOL     OW14602   0.956   4.705   3.501
 4568SOL    HW114603   0.912   4.780   3.551
 4568SOL    HW214604   0.889   4.662   3.441
 4569SOL     OW14605   1.345   2.678   3.246
 4569SOL    HW114606   1.412   2.655   3.316
 4569SOL    HW214607   1.339   2.603   3.180
 4570SOL     OW14608   5.470   5.651   0.894
 4570SOL    HW114609   5.371   5.644   0.898
 4570SOL    HW214610   5.502   5.623   0.804
 4571SOL     OW14611   1.708   3.774   5.627
 4571SOL    HW114612   1.664   3.855   5.591
 4571SOL    HW214613   1.748   3.794   5.717
 4572SOL     OW14614   4.580   3.181   1.676
 4572SOL    HW114615   4.494   3.165   1.627
 4572SOL    HW214616   4.581   3.128   1.761
 4573SOL     OW14617   2.138   4.660   0.893
 4573SOL    HW114618   2.215   4.687   0.951
 4573SOL    HW214619   2.055   4.704   0.926
 4574SOL     OW14620   4.760   0.083   1.922
 4574SOL    HW114621   4.744   0.144   2.000
 4574SOL    HW214622   4.730   0.129   1.838
 4575SOL     OW14623   0.023   1.069   5.415
 4575SOL    HW114624   6.994   1.073   5.500
 4575SOL    HW214625   0.109   1.021   5.431
 4576SOL     OW14626   3.496   3.853   6.945
 4576SOL    HW114627   3.532   3.766   6.911
 4576SOL    HW214628   3.421   3.835   7.009
 4577SOL     OW14629   0.648   1.731   1.868
 4577SOL    HW114630   0.734   1.782   1.864
 4577SOL    HW214631   0.653   1.663   1.941
 4578SOL     OW14632   1.820   1.312   2.973
 4578SOL    HW114633   1.811   1.397   3.025
 4578SOL    HW214634   1.879   1.248   3.023
 4579SOL     OW14635   4.444   0.809   3.430
 4579SOL    HW114636   4.373   0.848   3.489
 4579SOL    HW214637   4.406   0.734   3.377
 4580SOL     OW14638   0.991   0.853   1.564
 4580SOL    HW114639   0.969   0.944   1.598
 4580SOL    HW214640   0.906   0.806   1.539
 4581SOL     OW14641   2.975   0.145   0.932
 4581SOL    HW114642   2.956   0.219   0.997
 4581SOL    HW214643   2.893   0.126   0.878
 4582SOL     OW14644   6.646   0.936   3.977
 4582SOL    HW114645   6.743   0.914   3.967
 4582SOL    HW214646   6.620   0.926   4.073
 4583SOL     OW14647   1.874   6.768   0.284
 4583SOL    HW114648   1.907   6.857   0.316
 4583SOL    HW214649   1.819   6.780   0.201
 4584SOL     OW14650   0.271   1.595   3.641
 4584SOL    HW114651   0.270   1.587   3.740
 4584SOL    HW214652   0.189   1.551   3.602
 4585SOL     OW14653   1.531   2.980   2.883
 4585SOL    HW114654   1.513   2.971   2.981
 4585SOL    HW214655   1.628   2.997   2.868
 4586SOL     OW14656   6.369   4.963   5.558
 4586SOL    HW114657   6.460   5.005   5.553
 4586SOL    HW214658   6.320   4.980   5.473
 4587SOL     OW14659   4.631   3.895   5.951
 4587SOL    HW114660   4.571   3.816   5.944
 4587SOL    HW214661   4.722   3.871   5.919
 4588SOL     OW14662   2.910   4.141   6.683
 4588SOL    HW114663   2.812   4.159   6.676
 4588SOL    HW214664   2.926   4.064   6.746
 4589SOL     OW14665   5.468   6.087   2.069
 4589SOL    HW114666   5.402   6.154   2.103
 4589SOL    HW214667   5.431   6.042   1.988
 4590SOL     OW14668   2.386   5.493   1.426
 4590SOL    HW114669   2.389   5.394   1.407
 4590SOL    HW214670   2.466   5.537   1.385
 4591SOL     OW14671   2.232   1.147   4.883
 4591SOL    HW114672   2.195   1.193   4.964
 4591SOL    HW214673   2.300   1.206   4.839
 4592SOL     OW14674   2.945   2.198   3.981
 4592SOL    HW114675   2.913   2.107   3.955
 4592SOL    HW214676   3.045   2.199   3.981
 4593SOL     OW14677   1.234   5.731   4.532
 4593SOL    HW114678   1.140   5.763   4.535
 4593SOL    HW214679   1.295   5.802   4.566
 4594SOL     OW14680   1.879   6.393   4.128
 4594SOL    HW114681   1.929   6.345   4.056
 4594SOL    HW214682   1.810   6.332   4.167
 4595SOL     OW14683   5.825   1.992   6.417
 4595SOL    HW114684   5.897   2.011   6.351
 4595SOL    HW214685   5.853   2.024   6.508
 4596SOL     OW14686   1.320   1.761   2.205
 4596SOL    HW114687   1.261   1.699   2.257
 4596SOL    HW214688   1.296   1.756   2.108
 4597SOL     OW14689   2.409   6.336   0.365
 4597SOL    HW114690   2.314   6.364   0.362
 4597SOL    HW214691   2.441   6.336   0.460
 4598SOL     OW14692   0.740   2.958   0.089
 4598SOL    HW114693   0.760   3.041   0.141
 4598SOL    HW214694   0.692   2.892   0.148
 4599SOL     OW14695   3.362   6.716   2.420
 4599SOL    HW114696   3.293   6.788   2.411
 4599SOL    HW214697   3.372   6.691   2.517
 4600SOL     OW14698   0.509   6.356   6.619
 4600SOL    HW114699   0.495   6.274   6.563
 4600SOL    HW214700   0.503   6.332   6.716
 4601SOL     OW14701   1.459   0.968   5.486
 4601SOL    HW114702   1.475   0.875   5.521
 4601SOL    HW214703   1.535   0.996   5.428
 4602SOL     OW14704   4.108   1.196   6.638
 4602SOL    HW114705   4.163   1.267   6.682
 4602SOL    HW214706   4.147   1.175   6.548
 4603SOL     OW14707   3.893   6.976   1.081
 4603SOL    HW114708   3.849   6.887   1.068
 4603SOL    HW214709   3.897   6.998   1.178
 4604SOL     OW14710   0.261   6.964   3.664
 4604SOL    HW114711   0.238   6.900   3.591
 4604SOL    HW214712   0.183   6.974   3.725
 4605SOL     OW14713   4.447   1.075   1.500
 4605SOL    HW114714   4.488   1.149   1.555
 4605SOL    HW214715   4.477   0.987   1.535
 4606SOL     OW14716   6.797   0.011   4.987
 4606SOL    HW114717   6.867   0.073   4.951
 4606SOL    HW214718   6.762   0.046   5.073
 4607SOL     OW14719   3.125   1.612   1.243
 4607SOL    HW114720   3.043   1.665   1.264
 4607SOL    HW214721   3.192   1.622   1.317
 4608SOL     OW14722   0.266   2.577   5.248
 4608SOL    HW114723   0.185   2.635   5.238
 4608SOL    HW214724   0.248   2.507   5.318
 4609SOL     OW14725   5.797   5.254   6.249
 4609SOL    HW114726   5.730   5.206   6.192
 4609SOL    HW214727   5.808   5.205   6.335
 4610SOL     OW14728   5.114   5.156   6.679
 4610SOL    HW114729   5.178   5.139   6.604
 4610SOL    HW214730   5.156   5.130   6.765
 4611SOL     OW14731   0.106   1.266   6.832
 4611SOL    HW114732   0.200   1.278   6.863
 4611SOL    HW214733   0.082   1.169   6.836
 4612SOL     OW14734   2.755   1.469   3.274
 4612SOL    HW114735   2.672   1.506   3.232
 4612SOL    HW214736   2.755   1.369   3.263
 4613SOL     OW14737   1.482   5.273   2.581
 4613SOL    HW114738   1.436   5.360   2.569
 4613SOL    HW214739   1.577   5.280   2.550
 4614SOL     OW14740   0.192   4.486   2.845
 4614SOL    HW114741   0.177   4.387   2.851
 4614SOL    HW214742   0.115   4.529   2.798
 4615SOL     OW14743   1.264   4.396   7.000
 4615SOL    HW114744   1.182   4.423   0.027
 4615SOL    HW214745   1.255   4.302   6.968
 4616SOL     OW14746   1.221   3.765   6.687
 4616SOL    HW114747   1.209   3.800   6.594
 4616SOL    HW214748   1.313   3.785   6.718
 4617SOL     OW14749   0.309   3.823   3.708
 4617SOL    HW114750   0.268   3.802   3.619
 4617SOL    HW214751   0.359   3.743   3.742
 4618SOL     OW14752   2.307   4.226   5.521
 4618SOL    HW114753   2.331   4.155   5.587
 4618SOL    HW214754   2.374   4.228   5.447
 4619SOL     OW14755   4.512   5.738   6.509
 4619SOL    HW114756   4.570   5.819   6.501
 4619SOL    HW214757   4.519   5.701   6.602
 4620SOL     OW14758   1.136   4.591   1.513
 4620SOL    HW114759   1.162   4.614   1.419
 4620SOL    HW214760   1.200   4.524   1.550
 4621SOL     OW14761   3.181   0.355   2.978
 4621SOL    HW114762   3.090   0.315   2.980
 4621SOL    HW214763   3.250   0.282   2.984
 4622SOL     OW14764   5.480   0.046   0.271
 4622SOL    HW114765   5.567   0.088   0.244
 4622SOL    HW214766   5.483   0.023   0.368
 4623SOL     OW14767   3.001   4.813   3.042
 4623SOL    HW114768   2.913   4.780   3.078
 4623SOL    HW214769   3.066   4.822   3.117
 4624SOL     OW14770   5.115   1.886   1.142
 4624SOL    HW114771   5.085   1.914   1.233
 4624SOL    HW214772   5.067   1.802   1.116
 4625SOL     OW14773   1.637   6.936   1.731
 4625SOL    HW114774   1.650   6.876   1.810
 4625SOL    HW214775   1.564   7.001   1.749
 4626SOL     OW14776   4.211   3.302   1.864
 4626SOL    HW114777   4.288   3.271   1.919
 4626SOL    HW214778   4.237   3.384   1.813
 4627SOL     OW14779   5.987   6.606   5.070
 4627SOL    HW114780   6.064   6.657   5.108
 4627SOL    HW214781   6.007   6.508   5.076
 4628SOL     OW14782   6.604   4.455   2.979
 4628SOL    HW114783   6.605   4.554   2.965
 4628SOL    HW214784   6.509   4.422   2.975
 4629SOL     OW14785   1.622   5.251   0.515
 4629SOL    HW114786   1.701   5.195   0.490
 4629SOL    HW214787   1.566   5.203   0.583
 4630SOL     OW14788   1.866   3.881   1.404
 4630SOL    HW114789   1.939   3.815   1.391
 4630SOL    HW214790   1.874   3.954   1.336
 4631SOL     OW14791   6.261   1.312   2.888
 4631SOL    HW114792   6.346   1.334   2.937
 4631SOL    HW214793   6.264   1.350   2.796
 4632SOL     OW14794   2.902   4.794   3.734
 4632SOL    HW114795   2.867   4.865   3.796
 4632SOL    HW214796   3.002   4.801   3.730
 4633SOL     OW14797   5.597   3.072   4.105
 4633SOL    HW114798   5.499   3.088   4.118
 4633SOL    HW214799   5.634   3.143   4.045
 4634SOL     OW14800   3.551   3.143   4.607
 4634SOL    HW114801   3.459   3.139   4.647
 4634SOL    HW214802   3.575   3.054   4.570
 4635SOL     OW14803   4.585   6.492   2.505
 4635SOL    HW114804   4.523   6.463   2.578
 4635SOL    HW214805   4.592   6.420   2.437
 4636SOL     OW14806   1.417   5.955   6.491
 4636SOL    HW114807   1.338   6.003   6.529
 4636SOL    HW214808   1.405   5.856   6.503
 4637SOL     OW14809   2.310   2.175   3.075
 4637SOL    HW114810   2.286   2.244   3.006
 4637SOL    HW214811   2.395   2.130   3.048
 4638SOL     OW14812   3.755   4.508   1.028
 4638SOL    HW114813   3.819   4.585   1.026
 4638SOL    HW214814   3.716   4.494   0.937
 4639SOL     OW14815   3.900   2.100   2.132
 4639SOL    HW114816   3.824   2.144   2.086
 4639SOL    HW214817   3.986   2.144   2.104
 4640SOL     OW14818   6.353   2.640   1.029
 4640SOL    HW114819   6.442   2.684   1.019
 4640SOL    HW214820   6.341   2.609   1.123
 4641SOL     OW14821   0.962   5.938   5.201
 4641SOL    HW114822   0.932   6.032   5.184
 4641SOL    HW214823   1.060   5.931   5.179
 4642SOL     OW14824   6.293   1.416   5.824
 4642SOL    HW114825   6.355   1.448   5.753
 4642SOL    HW214826   6.198   1.432   5.795
 4643SOL     OW14827   0.671   1.573   0.714
 4643SOL    HW114828   0.638   1.552   0.622
 4643SOL    HW214829   0.604   1.541   0.781
 4644SOL     OW14830   1.270   1.106   0.772
 4644SOL    HW114831   1.183   1.090   0.818
 4644SOL    HW214832   1.258   1.100   0.673
 4645SOL     OW14833   6.226   2.205   4.950
 4645SOL    HW114834   6.245   2.109   4.975
 4645SOL    HW214835   6.129   2.224   4.965
 4646SOL     OW14836   1.506   4.185   2.461
 4646SOL    HW114837   1.440   4.240   2.410
 4646SOL    HW214838   1.599   4.215   2.438
 4647SOL     OW14839   1.944   6.654   2.736
 4647SOL    HW114840   1.906   6.617   2.821
 4647SOL    HW214841   1.969   6.750   2.749
 4648SOL     OW14842   2.950   1.032   4.479
 4648SOL    HW114843   2.926   0.960   4.544
 4648SOL    HW214844   3.021   0.999   4.417
 4649SOL     OW14845   5.079   1.734   0.651
 4649SOL    HW114846   5.019   1.776   0.719
 4649SOL    HW214847   5.027   1.711   0.569
 4650SOL     OW14848   4.126   5.289   0.902
 4650SOL    HW114849   4.094   5.225   0.833
 4650SOL    HW214850   4.067   5.283   0.983
 4651SOL     OW14851   0.687   3.849   6.792
 4651SOL    HW114852   0.614   3.839   6.724
 4651SOL    HW214853   0.775   3.859   6.745
 4652SOL     OW14854   6.713   0.173   5.229
 4652SOL    HW114855   6.797   0.227   5.229
 4652SOL    HW214856   6.710   0.118   5.312
 4653SOL     OW14857   6.735   5.938   0.436
 4653SOL    HW114858   6.793   5.893   0.369
 4653SOL    HW214859   6.660   5.985   0.389
 4654SOL     OW14860   0.490   1.169   5.730
 4654SOL    HW114861   0.544   1.096   5.772
 4654SOL    HW214862   0.413   1.192   5.790
 4655SOL     OW14863   4.972   4.316   2.874
 4655SOL    HW114864   4.998   4.234   2.823
 4655SOL    HW214865   5.053   4.361   2.909
 4656SOL     OW14866   5.534   0.816   1.610
 4656SOL    HW114867   5.473   0.775   1.542
 4656SOL    HW214868   5.626   0.778   1.600
 4657SOL     OW14869   3.870   1.443   2.613
 4657SOL    HW114870   3.903   1.502   2.538
 4657SOL    HW214871   3.772   1.429   2.604
 4658SOL     OW14872   1.381   1.582   6.756
 4658SOL    HW114873   1.406   1.631   6.673
 4658SOL    HW214874   1.376   1.647   6.832
 4659SOL     OW14875   2.338   4.249   0.384
 4659SOL    HW114876   2.411   4.309   0.416
 4659SOL    HW214877   2.267   4.304   0.340
 4660SOL     OW14878   6.973   4.683   4.495
 4660SOL    HW114879   6.963   4.584   4.500
 4660SOL    HW214880   6.930   4.716   4.411
 4661SOL     OW14881   0.746   1.358   5.782
 4661SOL    HW114882   0.806   1.329   5.857
 4661SOL    HW214883   0.652   1.334   5.803
 4662SOL     OW14884   2.821   0.670   5.890
 4662SOL    HW114885   2.855   0.578   5.872
 4662SOL    HW214886   2.877   0.737   5.842
 4663SOL     OW14887   0.630   0.408   0.534
 4663SOL    HW114888   0.604   0.314   0.513
 4663SOL    HW214889   0.674   0.411   0.624
 4664SOL     OW14890   5.993   6.390   5.885
 4664SOL    HW114891   5.911   6.357   5.930
 4664SOL    HW214892   6.074   6.349   5.927
 4665SOL     OW14893   7.001   0.844   2.226
 4665SOL    HW114894   7.021   0.752   2.192
 4665SOL    HW214895   6.958   0.837   2.316
 4666SOL     OW14896   1.666   2.840   5.675
 4666SOL    HW114897   1.585   2.897   5.665
 4666SOL    HW214898   1.748   2.896   5.671
 4667SOL     OW14899   6.151   3.060   1.317
 4667SOL    HW114900   6.107   2.972   1.330
 4667SOL    HW214901   6.244   3.057   1.353
 4668SOL     OW14902   4.796   2.048   5.511
 4668SOL    HW114903   4.895   2.036   5.513
 4668SOL    HW214904   4.760   2.016   5.424
 4669SOL     OW14905   5.338   6.874   5.947
 4669SOL    HW114906   5.344   6.831   6.037
 4669SOL    HW214907   5.250   6.852   5.905
 4670SOL     OW14908   0.057   3.378   6.606
 4670SOL    HW114909   0.076   3.362   6.703
 4670SOL    HW214910   6.981   3.386   6.593
 4671SOL     OW14911   6.775   2.636   2.093
 4671SOL    HW114912   6.865   2.624   2.051
 4671SOL    HW214913   6.717   2.558   2.070
 4672SOL     OW14914   3.136   3.576   6.967
 4672SOL    HW114915   3.223   3.592   7.015
 4672SOL    HW214916   3.063   3.627   7.012
 4673SOL     OW14917   5.643   0.980   0.895
 4673SOL    HW114918   5.710   1.026   0.838
 4673SOL    HW214919   5.580   0.928   0.838
 4674SOL     OW14920   1.053   2.967   0.712
 4674SOL    HW114921   1.145   2.929   0.706
 4674SOL    HW214922   0.996   2.908   0.768
 4675SOL     OW14923   1.799   6.345   6.843
 4675SOL    HW114924   1.843   6.423   6.798
 4675SOL    HW214925   1.703   6.341   6.817
 4676SOL     OW14926   0.658   5.620   4.576
 4676SOL    HW114927   0.648   5.700   4.635
 4676SOL    HW214928   0.625   5.538   4.624
 4677SOL     OW14929   4.077   6.755   7.011
 4677SOL    HW114930   3.984   6.721   7.004
 4677SOL    HW214931   4.092   6.794   0.078
 4678SOL     OW14932   2.248   4.494   6.777
 4678SOL    HW114933   2.158   4.509   6.737
 4678SOL    HW214934   2.313   4.468   6.706
 4679SOL     OW14935   2.494   6.637   5.599
 4679SOL    HW114936   2.487   6.732   5.631
 4679SOL    HW214937   2.590   6.609   5.600
 4680SOL     OW14938   0.835   5.025   0.241
 4680SOL    HW114939   0.741   5.019   0.207
 4680SOL    HW214940   0.899   5.027   0.163
 4681SOL     OW14941   6.527   5.909   4.734
 4681SOL    HW114942   6.522   5.811   4.750
 4681SOL    HW214943   6.466   5.956   4.797
 4682SOL     OW14944   2.555   0.524   0.531
 4682SOL    HW114945   2.523   0.601   0.476
 4682SOL    HW214946   2.650   0.538   0.557
 4683SOL     OW14947   0.947   4.688   2.894
 4683SOL    HW114948   0.870   4.722   2.948
 4683SOL    HW214949   1.008   4.764   2.871
 4684SOL     OW14950   1.776   1.367   4.837
 4684SOL    HW114951   1.825   1.280   4.833
 4684SOL    HW214952   1.719   1.368   4.920
 4685SOL     OW14953   5.253   4.677   4.665
 4685SOL    HW114954   5.333   4.668   4.725
 4685SOL    HW214955   5.240   4.592   4.614
 4686SOL     OW14956   4.576   5.831   0.113
 4686SOL    HW114957   4.648   5.877   0.063
 4686SOL    HW214958   4.572   5.866   0.207
 4687SOL     OW14959   4.813   6.676   4.428
 4687SOL    HW114960   4.765   6.668   4.516
 4687SOL    HW214961   4.811   6.771   4.397
 4688SOL     OW14962   0.054   1.659   0.535
 4688SOL    HW114963   0.066   1.758   0.543
 4688SOL    HW214964   0.050   1.633   0.439
 4689SOL     OW14965   1.741   5.216   4.596
 4689SOL    HW114966   1.660   5.255   4.552
 4689SOL    HW214967   1.741   5.241   4.693
 4690SOL     OW14968   2.271   1.762   0.959
 4690SOL    HW114969   2.262   1.666   0.935
 4690SOL    HW214970   2.300   1.815   0.879
 4691SOL     OW14971   3.464   4.364   0.315
 4691SOL    HW114972   3.559   4.344   0.336
 4691SOL    HW214973   3.453   4.462   0.299
 4692SOL     OW14974   0.948   5.572   3.454
 4692SOL    HW114975   0.881   5.598   3.524
 4692SOL    HW214976   0.981   5.655   3.408
 4693SOL     OW14977   1.066   0.770   2.271
 4693SOL    HW114978   0.980   0.820   2.278
 4693SOL    HW214979   1.091   0.736   2.362
 4694SOL     OW14980   1.165   0.872   5.508
 4694SOL    HW114981   1.160   0.859   5.409
 4694SOL    HW214982   1.259   0.894   5.534
 4695SOL     OW14983   3.229   3.083   2.468
 4695SOL    HW114984   3.199   3.162   2.414
 4695SOL    HW214985   3.171   3.074   2.548
 4696SOL     OW14986   6.401   3.230   0.752
 4696SOL    HW114987   6.386   3.317   0.800
 4696SOL    HW214988   6.409   3.156   0.819
 4697SOL     OW14989   0.710   5.812   6.833
 4697SOL    HW114990   0.637   5.824   6.765
 4697SOL    HW214991   0.704   5.720   6.872
 4698SOL     OW14992   6.089   3.333   2.409
 4698SOL    HW114993   6.183   3.365   2.411
 4698SOL    HW214994   6.063   3.302   2.501
 4699SOL     OW14995   6.903   6.399   3.257
 4699SOL    HW114996   6.833   6.371   3.191
 4699SOL    HW214997   6.943   6.318   3.299
 4700SOL     OW14998   4.969   6.505   0.131
 4700SOL    HW114999   4.985   6.593   0.086
 4700SOL    HW215000   5.057   6.467   0.161
 4701SOL     OW15001   1.317   0.416   6.850
 4701SOL    HW115002   1.337   0.318   6.861
 4701SOL    HW215003   1.223   0.427   6.819
 4702SOL     OW15004   2.570   3.303   0.172
 4702SOL    HW115005   2.658   3.350   0.159
 4702SOL    HW215006   2.499   3.350   0.121
 4703SOL     OW15007   0.762   0.360   2.028
 4703SOL    HW115008   0.834   0.309   1.981
 4703SOL    HW215009   0.673   0.318   2.010
 4704SOL     OW15010   4.809   6.718   6.695
 4704SOL    HW115011   4.890   6.771   6.670
 4704SOL    HW215012   4.798   6.719   6.795
 4705SOL     OW15013   4.083   3.716   4.473
 4705SOL    HW115014   4.066   3.812   4.453
 4705SOL    HW215015   4.070   3.662   4.390
 4706SOL     OW15016   5.394   4.464   6.863
 4706SOL    HW115017   5.372   4.436   6.956
 4706SOL    HW215018   5.324   4.430   6.800
 4707SOL     OW15019   2.782   5.257   1.132
 4707SOL    HW115020   2.690   5.295   1.128
 4707SOL    HW215021   2.845   5.315   1.080
 4708SOL     OW15022   1.524   3.452   2.443
 4708SOL    HW115023   1.553   3.474   2.536
 4708SOL    HW215024   1.541   3.530   2.383
 4709SOL     OW15025   2.823   4.494   0.605
 4709SOL    HW115026   2.807   4.412   0.660
 4709SOL    HW215027   2.913   4.488   0.562
 4710SOL     OW15028   4.836   2.970   1.133
 4710SOL    HW115029   4.921   2.923   1.114
 4710SOL    HW215030   4.833   2.997   1.230
 4711SOL     OW15031   2.720   0.129   3.257
 4711SOL    HW115032   2.678   0.056   3.312
 4711SOL    HW215033   2.648   0.187   3.218
 4712SOL     OW15034   1.709   3.891   6.657
 4712SOL    HW115035   1.690   3.816   6.720
 4712SOL    HW215036   1.802   3.881   6.621
 4713SOL     OW15037   1.590   5.461   0.716
 4713SOL    HW115038   1.565   5.555   0.689
 4713SOL    HW215039   1.633   5.415   0.638
 4714SOL     OW15040   3.834   2.261   1.304
 4714SOL    HW115041   3.752   2.210   1.279
 4714SOL    HW215042   3.847   2.337   1.240
 4715SOL     OW15043   4.947   3.773   4.845
 4715SOL    HW115044   4.911   3.866   4.846
 4715SOL    HW215045   4.903   3.720   4.917
 4716SOL     OW15046   2.882   5.468   6.726
 4716SOL    HW115047   2.848   5.479   6.632
 4716SOL    HW215048   2.804   5.463   6.789
 4717SOL     OW15049   2.205   5.187   4.422
 4717SOL    HW115050   2.148   5.170   4.341
 4717SOL    HW215051   2.178   5.125   4.496
 4718SOL     OW15052   5.269   0.643   6.967
 4718SOL    HW115053   5.275   0.638   0.043
 4718SOL    HW215054   5.294   0.735   6.937
 4719SOL     OW15055   4.405   2.846   1.716
 4719SOL    HW115056   4.345   2.923   1.691
 4719SOL    HW215057   4.483   2.880   1.768
 4720SOL     OW15058   3.173   1.484   3.392
 4720SOL    HW115059   3.107   1.428   3.443
 4720SOL    HW215060   3.230   1.536   3.456
 4721SOL     OW15061   1.597   1.592   1.140
 4721SOL    HW115062   1.645   1.519   1.189
 4721SOL    HW215063   1.507   1.606   1.181
 4722SOL     OW15064   3.498   0.129   2.352
 4722SOL    HW115065   3.581   0.074   2.352
 4722SOL    HW215066   3.501   0.193   2.275
 4723SOL     OW15067   2.723   0.033   5.188
 4723SOL    HW115068   2.633   0.063   5.220
 4723SOL    HW215069   2.791   0.104   5.206
 4724SOL     OW15070   4.821   4.837   0.997
 4724SOL    HW115071   4.745   4.894   0.966
 4724SOL    HW215072   4.787   4.746   1.022
 4725SOL     OW15073   6.366   5.451   2.530
 4725SOL    HW115074   6.335   5.362   2.499
 4725SOL    HW215075   6.360   5.517   2.454
 4726SOL     OW15076   0.277   6.842   4.642
 4726SOL    HW115077   0.322   6.904   4.578
 4726SOL    HW215078   0.274   6.884   4.732
 4727SOL     OW15079   6.421   6.548   1.337
 4727SOL    HW115080   6.427   6.639   1.380
 4727SOL    HW215081   6.509   6.526   1.295
 4728SOL     OW15082   6.355   0.864   6.868
 4728SOL    HW115083   6.259   0.869   6.841
 4728SOL    HW215084   6.360   0.846   6.967
 4729SOL     OW15085   3.054   0.754   0.854
 4729SOL    HW115086   2.954   0.749   0.850
 4729SOL    HW215087   3.084   0.763   0.949
 4730SOL     OW15088   2.063   0.637   5.737
 4730SOL    HW115089   2.062   0.732   5.768
 4730SOL    HW215090   2.142   0.622   5.678
 4731SOL     OW15091   4.850   1.962   6.937
 4731SOL    HW115092   4.898   1.909   7.006
 4731SOL    HW215093   4.825   1.903   6.860
 4732SOL     OW15094   0.622   0.539   6.953
 4732SOL    HW115095   0.699   0.520   7.015
 4732SOL    HW215096   0.652   0.603   6.882
 4733SOL     OW15097   6.903   3.800   3.652
 4733SOL    HW115098   6.861   3.740   3.585
 4733SOL    HW215099   6.953   3.745   3.719
 4734SOL     OW15100   5.712   4.654   5.865
 4734SOL    HW115101   5.747   4.580   5.922
 4734SOL    HW215102   5.612   4.648   5.859
 4735SOL     OW15103   0.365   4.287   3.719
 4735SOL    HW115104   0.417   4.275   3.634
 4735SOL    HW215105   0.326   4.199   3.747
 4736SOL     OW15106   1.742   0.220   1.664
 4736SOL    HW115107   1.799   0.208   1.582
 4736SOL    HW215108   1.752   0.140   1.723
 4737SOL     OW15109   3.358   5.133   1.752
 4737SOL    HW115110   3.270   5.090   1.732
 4737SOL    HW215111   3.427   5.063   1.768
 4738SOL     OW15112   0.490   6.365   2.422
 4738SOL    HW115113   0.393   6.341   2.433
 4738SOL    HW215114   0.522   6.334   2.333
 4739SOL     OW15115   4.149   6.809   1.705
 4739SOL    HW115116   4.116   6.857   1.787
 4739SOL    HW215117   4.075   6.801   1.639
 4740SOL     OW15118   0.459   1.981   4.014
 4740SOL    HW115119   0.479   1.944   3.923
 4740SOL    HW215120   0.400   2.061   4.005
 4741SOL     OW15121   3.833   3.717   1.928
 4741SOL    HW115122   3.818   3.645   1.861
 4741SOL    HW215123   3.931   3.723   1.949
 4742SOL     OW15124   4.531   0.682   1.403
 4742SOL    HW115125   4.566   0.746   1.471
 4742SOL    HW215126   4.571   0.591   1.417
 4743SOL     OW15127   1.589   5.832   0.881
 4743SOL    HW115128   1.504   5.881   0.899
 4743SOL    HW215129   1.608   5.769   0.957
 4744SOL     OW15130   1.880   5.904   1.524
 4744SOL    HW115131   1.845   5.833   1.585
 4744SOL    HW215132   1.980   5.901   1.525
 4745SOL     OW15133   1.507   3.366   0.536
 4745SOL    HW115134   1.439   3.438   0.551
 4745SOL    HW215135   1.598   3.403   0.554
 4746SOL     OW15136   4.873   5.533   4.150
 4746SOL    HW115137   4.951   5.483   4.188
 4746SOL    HW215138   4.907   5.612   4.098
 4747SOL     OW15139   3.562   0.530   0.059
 4747SOL    HW115140   3.475   0.555   0.016
 4747SOL    HW215141   3.618   0.479   7.016
 4748SOL     OW15142   1.967   0.303   2.681
 4748SOL    HW115143   1.971   0.274   2.777
 4748SOL    HW215144   2.023   0.241   2.626
 4749SOL     OW15145   2.220   1.367   1.140
 4749SOL    HW115146   2.226   1.344   1.042
 4749SOL    HW215147   2.285   1.310   1.191
 4750SOL     OW15148   4.608   3.427   6.319
 4750SOL    HW115149   4.562   3.415   6.231
 4750SOL    HW215150   4.684   3.491   6.309
 4751SOL     OW15151   4.512   0.888   2.396
 4751SOL    HW115152   4.450   0.915   2.322
 4751SOL    HW215153   4.552   0.970   2.437
 4752SOL     OW15154   5.872   1.496   6.780
 4752SOL    HW115155   5.806   1.490   6.705
 4752SOL    HW215156   5.853   1.578   6.834
 4753SOL     OW15157   2.557   6.207   4.969
 4753SOL    HW115158   2.620   6.143   5.013
 4753SOL    HW215159   2.471   6.209   5.019
 4754SOL     OW15160   5.091   4.241   6.977
 4754SOL    HW115161   5.168   4.178   6.963
 4754SOL    HW215162   5.109   4.298   0.033
 4755SOL     OW15163   0.912   1.301   1.156
 4755SOL    HW115164   0.931   1.336   1.064
 4755SOL    HW215165   0.929   1.374   1.223
 4756SOL     OW15166   6.887   3.776   5.756
 4756SOL    HW115167   6.973   3.772   5.806
 4756SOL    HW215168   6.879   3.697   5.696
 4757SOL     OW15169   1.646   3.257   0.297
 4757SOL    HW115170   1.697   3.323   0.242
 4757SOL    HW215171   1.648   3.285   0.393
 4758SOL     OW15172   2.540   4.874   2.670
 4758SOL    HW115173   2.549   4.775   2.660
 4758SOL    HW215174   2.619   4.919   2.628
 4759SOL     OW15175   0.673   6.022   2.325
 4759SOL    HW115176   0.593   5.996   2.272
 4759SOL    HW215177   0.682   6.121   2.325
 4760SOL     OW15178   1.755   6.569   1.342
 4760SOL    HW115179   1.802   6.640   1.393
 4760SOL    HW215180   1.749   6.486   1.397
 4761SOL     OW15181   5.193   6.610   1.569
 4761SOL    HW115182   5.196   6.523   1.521
 4761SOL    HW215183   5.202   6.595   1.667
 4762SOL     OW15184   1.336   0.553   3.135
 4762SOL    HW115185   1.340   0.638   3.187
 4762SOL    HW215186   1.376   0.568   3.044
 4763SOL     OW15187   5.581   5.105   2.197
 4763SOL    HW115188   5.615   5.020   2.158
 4763SOL    HW215189   5.574   5.097   2.296
 4764SOL     OW15190   4.793   2.835   6.636
 4764SOL    HW115191   4.813   2.916   6.691
 4764SOL    HW215192   4.841   2.756   6.673
 4765SOL     OW15193   4.301   1.780   6.189
 4765SOL    HW115194   4.314   1.846   6.115
 4765SOL    HW215195   4.275   1.828   6.273
 4766SOL     OW15196   0.798   0.822   4.637
 4766SOL    HW115197   0.708   0.809   4.596
 4766SOL    HW215198   0.862   0.754   4.601
 4767SOL     OW15199   2.018   4.542   3.766
 4767SOL    HW115200   1.954   4.495   3.705
 4767SOL    HW215201   2.006   4.641   3.757
 4768SOL     OW15202   4.628   2.272   6.400
 4768SOL    HW115203   4.619   2.212   6.480
 4768SOL    HW215204   4.582   2.359   6.418
 4769SOL     OW15205   1.949   2.907   0.829
 4769SOL    HW115206   2.028   2.887   0.772
 4769SOL    HW215207   1.932   2.830   0.890
 4770SOL     OW15208   0.037   1.488   3.039
 4770SOL    HW115209   6.992   1.548   2.997
 4770SOL    HW215210   0.096   1.542   3.100
 4771SOL     OW15211   2.305   0.231   4.115
 4771SOL    HW115212   2.259   0.177   4.044
 4771SOL    HW215213   2.342   0.170   4.184
 4772SOL     OW15214   2.598   4.527   3.079
 4772SOL    HW115215   2.639   4.617   3.094
 4772SOL    HW215216   2.597   4.507   2.981
 4773SOL     OW15217   2.688   5.420   4.869
 4773SOL    HW115218   2.758   5.491   4.863
 4773SOL    HW215219   2.660   5.392   4.777
 4774SOL     OW15220   0.886   4.316   0.813
 4774SOL    HW115221   0.841   4.237   0.852
 4774SOL    HW215222   0.859   4.399   0.863
 4775SOL     OW15223   5.599   5.204   4.652
 4775SOL    HW115224   5.569   5.278   4.591
 4775SOL    HW215225   5.604   5.238   4.746
 4776SOL     OW15226   6.902   1.892   4.927
 4776SOL    HW115227   6.948   1.873   5.014
 4776SOL    HW215228   6.803   1.892   4.941
 4777SOL     OW15229   1.521   6.836   3.128
 4777SOL    HW115230   1.453   6.840   3.055
 4777SOL    HW215231   1.515   6.748   3.175
 4778SOL     OW15232   1.851   0.019   0.161
 4778SOL    HW115233   1.850   0.004   0.260
 4778SOL    HW215234   1.801   6.968   0.116
 4779SOL     OW15235   5.011   0.929   4.853
 4779SOL    HW115236   4.959   0.927   4.767
 4779SOL    HW215237   4.989   0.849   4.908
 4780SOL     OW15238   4.786   2.970   4.641
 4780SOL    HW115239   4.825   3.006   4.556
 4780SOL    HW215240   4.803   3.035   4.715
 4781SOL     OW15241   1.626   5.401   1.987
 4781SOL    HW115242   1.725   5.397   1.972
 4781SOL    HW215243   1.591   5.308   2.001
 4782SOL     OW15244   1.378   5.922   3.066
 4782SOL    HW115245   1.353   5.936   2.970
 4782SOL    HW215246   1.394   6.010   3.110
 4783SOL     OW15247   0.526   3.447   6.611
 4783SOL    HW115248   0.434   3.488   6.610
 4783SOL    HW215249   0.562   3.445   6.518
 4784SOL     OW15250   5.299   2.759   0.030
 4784SOL    HW115251   5.288   2.844   7.003
 4784SOL    HW215252   5.210   2.712   0.035
 4785SOL     OW15253   0.598   0.111   3.920
 4785SOL    HW115254   0.539   0.181   3.879
 4785SOL    HW215255   0.578   0.023   3.878
 4786SOL     OW15256   1.033   5.325   0.518
 4786SOL    HW115257   1.006   5.392   0.450
 4786SOL    HW215258   0.970   5.248   0.516
 4787SOL     OW15259   4.959   1.067   5.170
 4787SOL    HW115260   4.942   1.160   5.138
 4787SOL    HW215261   4.872   1.023   5.192
 4788SOL     OW15262   6.641   5.732   1.131
 4788SOL    HW115263   6.724   5.770   1.171
 4788SOL    HW215264   6.618   5.646   1.176
 4789SOL     OW15265   6.139   0.629   2.981
 4789SOL    HW115266   6.209   0.645   3.050
 4789SOL    HW215267   6.049   0.647   3.021
 4790SOL     OW15268   6.663   2.108   4.806
 4790SOL    HW115269   6.588   2.172   4.789
 4790SOL    HW215270   6.635   2.016   4.779
 4791SOL     OW15271   0.352   0.716   6.497
 4791SOL    HW115272   0.347   0.616   6.503
 4791SOL    HW215273   0.442   0.743   6.462
 4792SOL     OW15274   0.575   3.850   1.653
 4792SOL    HW115275   0.498   3.794   1.683
 4792SOL    HW215276   0.570   3.863   1.554
 4793SOL     OW15277   0.751   3.827   5.383
 4793SOL    HW115278   0.714   3.736   5.402
 4793SOL    HW215279   0.685   3.897   5.412
 4794SOL     OW15280   5.177   1.646   6.056
 4794SOL    HW115281   5.139   1.680   5.970
 4794SOL    HW215282   5.238   1.714   6.095
 4795SOL     OW15283   0.033   0.990   6.825
 4795SOL    HW115284   0.078   0.901   6.822
 4795SOL    HW215285   6.959   0.979   6.807
 4796SOL     OW15286   5.537   1.183   5.764
 4796SOL    HW115287   5.451   1.231   5.781
 4796SOL    HW215288   5.518   1.101   5.710
 4797SOL     OW15289   2.465   5.349   5.790
 4797SOL    HW115290   2.369   5.335   5.815
 4797SOL    HW215291   2.520   5.276   5.830
 4798SOL     OW15292   3.113   6.180   0.374
 4798SOL    HW115293   3.024   6.213   0.407
 4798SOL    HW215294   3.130   6.217   0.282
 4799SOL     OW15295   3.465   3.378   0.475
 4799SOL    HW115296   3.533   3.447   0.453
 4799SOL    HW215297   3.466   3.305   0.406
 4800SOL     OW15298   1.224   4.803   0.472
 4800SOL    HW115299   1.266   4.857   0.398
 4800SOL    HW215300   1.225   4.856   0.556
 4801SOL     OW15301   4.512   2.507   3.211
 4801SOL    HW115302   4.438   2.472   3.154
 4801SOL    HW215303   4.597   2.460   3.188
 4802SOL     OW15304   7.017   0.866   4.754
 4802SOL    HW115305   6.968   0.923   4.820
 4802SOL    HW215306   0.071   0.822   4.799
 4803SOL     OW15307   4.822   3.831   5.710
 4803SOL    HW115308   4.743   3.776   5.685
 4803SOL    HW215309   4.906   3.785   5.681
 4804SOL     OW15310   4.943   2.388   0.520
 4804SOL    HW115311   4.927   2.356   0.613
 4804SOL    HW215312   4.858   2.381   0.468
 4805SOL     OW15313   5.579   1.189   6.409
 4805SOL    HW115314   5.517   1.249   6.358
 4805SOL    HW215315   5.641   1.143   6.344
 4806SOL     OW15316   0.975   2.572   3.332
 4806SOL    HW115317   0.967   2.619   3.420
 4806SOL    HW215318   1.028   2.629   3.269
 4807SOL     OW15319   0.508   4.212   6.938
 4807SOL    HW115320   0.562   4.212   6.853
 4807SOL    HW215321   0.418   4.173   6.920
 4808SOL     OW15322   3.519   5.821   2.428
 4808SOL    HW115323   3.578   5.893   2.465
 4808SOL    HW215324   3.515   5.830   2.328
 4809SOL     OW15325   2.818   3.585   0.901
 4809SOL    HW115326   2.908   3.542   0.907
 4809SOL    HW215327   2.754   3.523   0.855
 4810SOL     OW15328   1.595   5.804   4.647
 4810SOL    HW115329   1.520   5.868   4.656
 4810SOL    HW215330   1.675   5.840   4.696
 4811SOL     OW15331   3.303   3.417   4.476
 4811SOL    HW115332   3.361   3.408   4.395
 4811SOL    HW215333   3.265   3.509   4.480
 4812SOL     OW15334   2.105   6.502   2.599
 4812SOL    HW115335   2.116   6.441   2.678
 4812SOL    HW215336   2.031   6.567   2.618
 4813SOL     OW15337   0.794   2.704   4.553
 4813SOL    HW115338   0.893   2.698   4.566
 4813SOL    HW215339   0.747   2.667   4.632
 4814SOL     OW15340   6.603   2.183   0.911
 4814SOL    HW115341   6.609   2.146   0.818
 4814SOL    HW215342   6.519   2.151   0.954
 4815SOL     OW15343   6.262   4.304   2.362
 4815SOL    HW115344   6.269   4.242   2.441
 4815SOL    HW215345   6.353   4.322   2.326
 4816SOL     OW15346   2.803   0.663   2.575
 4816SOL    HW115347   2.778   0.596   2.505
 4816SOL    HW215348   2.762   0.752   2.553
 4817SOL     OW15349   3.762   2.466   0.360
 4817SOL    HW115350   3.734   2.469   0.456
 4817SOL    HW215351   3.775   2.371   0.332
 4818SOL     OW15352   4.682   6.407   4.665
 4818SOL    HW115353   4.706   6.348   4.588
 4818SOL    HW215354   4.631   6.355   4.733
 4819SOL     OW15355   3.241   1.018   0.260
 4819SOL    HW115356   3.184   1.025   0.178
 4819SOL    HW215357   3.185   0.990   0.338
 4820SOL     OW15358   6.301   4.449   1.856
 4820SOL    HW115359   6.236   4.494   1.917
 4820SOL    HW215360   6.251   4.397   1.786
 4821SOL     OW15361   6.931   5.961   1.528
 4821SOL    HW115362   6.951   5.905   1.608
 4821SOL    HW215363   6.937   6.058   1.553
 4822SOL     OW15364   0.523   3.793   1.123
 4822SOL    HW115365   0.499   3.858   1.051
 4822SOL    HW215366   0.610   3.750   1.101
 4823SOL     OW15367   0.386   1.634   3.270
 4823SOL    HW115368   0.401   1.615   3.173
 4823SOL    HW215369   0.290   1.658   3.285
 4824SOL     OW15370   5.441   1.588   2.693
 4824SOL    HW115371   5.450   1.515   2.626
 4824SOL    HW215372   5.463   1.676   2.651
 4825SOL     OW15373   1.137   3.314   4.386
 4825SOL    HW115374   1.051   3.279   4.423
 4825SOL    HW215375   1.174   3.384   4.447
 4826SOL     OW15376   6.720   0.012   0.260
 4826SOL    HW115377   6.788   0.081   0.286
 4826SOL    HW215378   6.729   7.014   0.163
 4827SOL     OW15379   4.740   1.594   6.929
 4827SOL    HW115380   4.646   1.607   6.899
 4827SOL    HW215381   4.802   1.624   6.857
 4828SOL     OW15382   5.318   3.277   6.505
 4828SOL    HW115383   5.263   3.315   6.430
 4828SOL    HW215384   5.282   3.187   6.530
 4829SOL     OW15385   3.339   0.441   5.355
 4829SOL    HW115386   3.275   0.518   5.363
 4829SOL    HW215387   3.416   0.454   5.417
 4830SOL     OW15388   4.852   4.948   4.598
 4830SOL    HW115389   4.802   4.996   4.526
 4830SOL    HW215390   4.902   5.014   4.653
 4831SOL     OW15391   6.100   2.096   6.750
 4831SOL    HW115392   6.104   2.131   6.656
 4831SOL    HW215393   6.185   2.050   6.773
 4832SOL     OW15394   1.502   2.906   6.507
 4832SOL    HW115395   1.412   2.920   6.548
 4832SOL    HW215396   1.509   2.957   6.422
 4833SOL     OW15397   6.247   2.130   3.360
 4833SOL    HW115398   6.234   2.044   3.311
 4833SOL    HW215399   6.167   2.149   3.418
 4834SOL     OW15400   5.817   0.098   3.201
 4834SOL    HW115401   5.850   0.189   3.174
 4834SOL    HW215402   5.808   0.093   3.300
 4835SOL     OW15403   1.981   1.594   6.436
 4835SOL    HW115404   2.005   1.686   6.405
 4835SOL    HW215405   1.922   1.601   6.517
 4836SOL     OW15406   5.521   3.239   2.696
 4836SOL    HW115407   5.614   3.216   2.667
 4836SOL    HW215408   5.458   3.223   2.620
 4837SOL     OW15409   0.493   4.901   1.097
 4837SOL    HW115410   0.446   4.816   1.117
 4837SOL    HW215411   0.591   4.891   1.117
 4838SOL     OW15412   2.144   5.882   2.701
 4838SOL    HW115413   2.188   5.968   2.727
 4838SOL    HW215414   2.061   5.869   2.755
 4839SOL     OW15415   0.896   0.148   6.402
 4839SOL    HW115416   0.874   0.115   6.309
 4839SOL    HW215417   0.941   0.237   6.396
 4840SOL     OW15418   6.586   6.093   6.053
 4840SOL    HW115419   6.522   6.041   6.110
 4840SOL    HW215420   6.676   6.050   6.054
 4841SOL     OW15421   2.149   5.909   0.896
 4841SOL    HW115422   2.107   5.922   0.806
 4841SOL    HW215423   2.212   5.984   0.914
 4842SOL     OW15424   3.053   6.776   1.141
 4842SOL    HW115425   3.084   6.865   1.106
 4842SOL    HW215426   3.006   6.789   1.228
 4843SOL     OW15427   1.515   3.448   6.620
 4843SOL    HW115428   1.486   3.535   6.580
 4843SOL    HW215429   1.544   3.385   6.547
 4844SOL     OW15430   1.337   1.478   5.088
 4844SOL    HW115431   1.378   1.544   5.150
 4844SOL    HW215432   1.244   1.508   5.065
 4845SOL     OW15433   5.773   6.110   4.104
 4845SOL    HW115434   5.766   6.138   4.008
 4845SOL    HW215435   5.748   6.014   4.112
 4846SOL     OW15436   0.390   5.455   6.279
 4846SOL    HW115437   0.303   5.457   6.328
 4846SOL    HW215438   0.407   5.545   6.239
 4847SOL     OW15439   4.734   2.721   4.552
 4847SOL    HW115440   4.801   2.700   4.480
 4847SOL    HW215441   4.749   2.815   4.584
 4848SOL     OW15442   2.734   3.039   1.728
 4848SOL    HW115443   2.639   3.070   1.714
 4848SOL    HW215444   2.749   2.955   1.675
 4849SOL     OW15445   2.026   6.734   6.020
 4849SOL    HW115446   2.112   6.782   6.035
 4849SOL    HW215447   2.012   6.720   5.922
 4850SOL     OW15448   3.727   6.657   3.230
 4850SOL    HW115449   3.777   6.646   3.316
 4850SOL    HW215450   3.690   6.569   3.201
 4851SOL     OW15451   4.904   1.386   5.833
 4851SOL    HW115452   4.900   1.480   5.866
 4851SOL    HW215453   4.989   1.344   5.866
 4852SOL     OW15454   2.120   1.469   1.809
 4852SOL    HW115455   2.119   1.375   1.843
 4852SOL    HW215456   2.039   1.517   1.842
 4853SOL     OW15457   3.644   1.641   2.350
 4853SOL    HW115458   3.738   1.629   2.383
 4853SOL    HW215459   3.645   1.697   2.267
 4854SOL     OW15460   3.653   0.331   6.411
 4854SOL    HW115461   3.565   0.373   6.432
 4854SOL    HW215462   3.672   0.258   6.476
 4855SOL     OW15463   6.787   2.722   2.563
 4855SOL    HW115464   6.718   2.681   2.622
 4855SOL    HW215465   6.872   2.735   2.614
 4856SOL     OW15466   0.578   4.215   1.947
 4856SOL    HW115467   0.523   4.181   1.871
 4856SOL    HW215468   0.547   4.175   2.032
 4857SOL     OW15469   0.287   0.947   5.804
 4857SOL    HW115470   0.223   0.876   5.833
 4857SOL    HW215471   0.379   0.909   5.801
 4858SOL     OW15472   1.577   0.337   3.746
 4858SOL    HW115473   1.543   0.345   3.840
 4858SOL    HW215474   1.672   0.368   3.743
 4859SOL     OW15475   3.500   5.908   6.103
 4859SOL    HW115476   3.565   5.949   6.040
 4859SOL    HW215477   3.546   5.884   6.188
 4860SOL     OW15478   3.369   4.529   0.724
 4860SOL    HW115479   3.273   4.514   0.699
 4860SOL    HW215480   3.404   4.608   0.675
 4861SOL     OW15481   4.413   4.284   6.446
 4861SOL    HW115482   4.458   4.363   6.405
 4861SOL    HW215483   4.348   4.245   6.381
 4862SOL     OW15484   0.929   6.607   0.643
 4862SOL    HW115485   0.905   6.689   0.591
 4862SOL    HW215486   0.846   6.553   0.660
 4863SOL     OW15487   5.282   3.961   6.338
 4863SOL    HW115488   5.276   4.024   6.416
 4863SOL    HW215489   5.369   3.976   6.291
 4864SOL     OW15490   3.482   1.189   4.381
 4864SOL    HW115491   3.451   1.159   4.291
 4864SOL    HW215492   3.581   1.184   4.386
 4865SOL     OW15493   1.487   6.491   4.912
 4865SOL    HW115494   1.496   6.444   4.824
 4865SOL    HW215495   1.572   6.541   4.932
 4866SOL     OW15496   6.769   4.455   6.040
 4866SOL    HW115497   6.723   4.413   6.118
 4866SOL    HW215498   6.718   4.437   5.957
 4867SOL     OW15499   4.639   0.983   2.914
 4867SOL    HW115500   4.624   1.082   2.906
 4867SOL    HW215501   4.717   0.957   2.857
 4868SOL     OW15502   6.818   4.950   0.484
 4868SOL    HW115503   6.732   4.959   0.534
 4868SOL    HW215504   6.832   5.030   0.426
 4869SOL     OW15505   0.664   1.813   1.160
 4869SOL    HW115506   0.634   1.843   1.069
 4869SOL    HW215507   0.590   1.762   1.204
 4870SOL     OW15508   0.399   0.040   1.051
 4870SOL    HW115509   0.463   0.083   0.988
 4870SOL    HW215510   0.436   6.977   1.083
 4871SOL     OW15511   0.935   1.860   3.029
 4871SOL    HW115512   0.914   1.957   3.016
 4871SOL    HW215513   0.901   1.830   3.118
 4872SOL     OW15514   5.844   0.341   3.417
 4872SOL    HW115515   5.907   0.361   3.343
 4872SOL    HW215516   5.750   0.349   3.384
 4873SOL     OW15517   6.918   5.444   4.180
 4873SOL    HW115518   7.013   5.451   4.210
 4873SOL    HW215519   6.893   5.527   4.130
 4874SOL     OW15520   4.920   3.575   2.352
 4874SOL    HW115521   4.915   3.647   2.421
 4874SOL    HW215522   4.984   3.601   2.280
 4875SOL     OW15523   6.160   5.955   5.377
 4875SOL    HW115524   6.247   5.907   5.371
 4875SOL    HW215525   6.177   6.054   5.378
 4876SOL     OW15526   6.764   1.067   1.980
 4876SOL    HW115527   6.733   0.973   1.989
 4876SOL    HW215528   6.832   1.087   2.050
 4877SOL     OW15529   0.363   1.612   6.939
 4877SOL    HW115530   0.447   1.592   6.888
 4877SOL    HW215531   0.286   1.568   6.893
 4878SOL     OW15532   6.509   3.710   3.107
 4878SOL    HW115533   6.448   3.785   3.083
 4878SOL    HW215534   6.457   3.639   3.156
 4879SOL     OW15535   5.245   0.480   3.246
 4879SOL    HW115536   5.209   0.446   3.333
 4879SOL    HW215537   5.255   0.579   3.250
 4880SOL     OW15538   6.884   3.012   6.145
 4880SOL    HW115539   6.816   3.066   6.095
 4880SOL    HW215540   6.975   3.029   6.107
 4881SOL     OW15541   0.722   3.448   1.666
 4881SOL    HW115542   0.794   3.507   1.703
 4881SOL    HW215543   0.720   3.362   1.717
 4882SOL     OW15544   5.169   1.837   4.274
 4882SOL    HW115545   5.128   1.918   4.232
 4882SOL    HW215546   5.101   1.792   4.332
 4883SOL     OW15547   5.801   4.264   0.243
 4883SOL    HW115548   5.792   4.238   0.339
 4883SOL    HW215549   5.725   4.225   0.191
 4884SOL     OW15550   2.157   1.224   1.909
 4884SOL    HW115551   2.194   1.222   2.002
 4884SOL    HW215552   2.191   1.145   1.858
 4885SOL     OW15553   1.174   5.128   0.057
 4885SOL    HW115554   1.091   5.078   0.032
 4885SOL    HW215555   1.203   5.185   7.003
 4886SOL     OW15556   3.030   0.629   2.167
 4886SOL    HW115557   3.102   0.653   2.233
 4886SOL    HW215558   3.052   0.670   2.078
 4887SOL     OW15559   4.405   5.797   0.737
 4887SOL    HW115560   4.383   5.740   0.657
 4887SOL    HW215561   4.409   5.893   0.709
 4888SOL     OW15562   4.565   0.069   3.067
 4888SOL    HW115563   4.575   0.161   3.105
 4888SOL    HW215564   4.596   0.002   3.135
 4889SOL     OW15565   5.945   3.169   4.054
 4889SOL    HW115566   5.988   3.252   4.018
 4889SOL    HW215567   5.921   3.183   4.150
 4890SOL     OW15568   6.819   1.787   4.654
 4890SOL    HW115569   6.831   1.688   4.646
 4890SOL    HW215570   6.868   1.820   4.735
 4891SOL     OW15571   2.375   6.110   0.230
 4891SOL    HW115572   2.376   6.189   0.290
 4891SOL    HW215573   2.427   6.130   0.147
 4892SOL     OW15574   5.340   5.224   2.493
 4892SOL    HW115575   5.440   5.225   2.493
 4892SOL    HW215576   5.305   5.304   2.443
 4893SOL     OW15577   1.280   3.219   1.444
 4893SOL    HW115578   1.306   3.299   1.391
 4893SOL    HW215579   1.289   3.137   1.387
 4894SOL     OW15580   4.967   5.818   0.655
 4894SOL    HW115581   4.915   5.768   0.724
 4894SOL    HW215582   4.930   5.910   0.646
 4895SOL     OW15583   6.727   4.302   5.149
 4895SOL    HW115584   6.759   4.309   5.243
 4895SOL    HW215585   6.768   4.376   5.094
 4896SOL     OW15586   2.617   5.081   5.184
 4896SOL    HW115587   2.562   4.999   5.199
 4896SOL    HW215588   2.639   5.090   5.087
 4897SOL     OW15589   2.052   1.594   5.062
 4897SOL    HW115590   2.038   1.674   5.120
 4897SOL    HW215591   2.033   1.511   5.114
 4898SOL     OW15592   4.834   1.836   4.294
 4898SOL    HW115593   4.756   1.893   4.270
 4898SOL    HW215594   4.825   1.806   4.389
 4899SOL     OW15595   6.346   6.536   1.924
 4899SOL    HW115596   6.282   6.465   1.894
 4899SOL    HW215597   6.408   6.498   1.993
 4900SOL     OW15598   3.677   5.873   6.321
 4900SOL    HW115599   3.709   5.913   6.408
 4900SOL    HW215600   3.745   5.808   6.288
 4901SOL     OW15601   2.137   0.894   6.866
 4901SOL    HW115602   2.220   0.927   6.913
 4901SOL    HW215603   2.067   0.874   6.934
 4902SOL     OW15604   3.162   0.155   5.316
 4902SOL    HW115605   3.177   0.059   5.340
 4902SOL    HW215606   3.157   0.210   5.399
 4903SOL     OW15607   4.867   3.914   2.780
 4903SOL    HW115608   4.775   3.950   2.793
 4903SOL    HW215609   4.933   3.973   2.828
 4904SOL     OW15610   1.659   0.642   1.725
 4904SOL    HW115611   1.701   0.705   1.791
 4904SOL    HW215612   1.563   0.627   1.749
 4905SOL     OW15613   2.632   0.825   2.434
 4905SOL    HW115614   2.552   0.886   2.437
 4905SOL    HW215615   2.690   0.849   2.357
 4906SOL     OW15616   5.253   3.688   4.854
 4906SOL    HW115617   5.233   3.634   4.936
 4906SOL    HW215618   5.262   3.627   4.775
 4907SOL     OW15619   3.283   2.510   0.270
 4907SOL    HW115620   3.275   2.489   0.173
 4907SOL    HW215621   3.378   2.535   0.290
 4908SOL     OW15622   3.438   6.656   6.241
 4908SOL    HW115623   3.446   6.713   6.160
 4908SOL    HW215624   3.380   6.702   6.308
 4909SOL     OW15625   5.095   5.420   4.302
 4909SOL    HW115626   5.185   5.380   4.316
 4909SOL    HW215627   5.057   5.449   4.390
 4910SOL     OW15628   3.687   1.842   0.158
 4910SOL    HW115629   3.764   1.780   0.148
 4910SOL    HW215630   3.663   1.880   0.068
 4911SOL     OW15631   6.775   4.521   3.185
 4911SOL    HW115632   6.729   4.590   3.240
 4911SOL    HW215633   6.715   4.491   3.111
 4912SOL     OW15634   5.992   2.430   4.215
 4912SOL    HW115635   5.995   2.505   4.148
 4912SOL    HW215636   6.042   2.351   4.180
 4913SOL     OW15637   0.892   4.308   5.110
 4913SOL    HW115638   0.803   4.287   5.151
 4913SOL    HW215639   0.882   4.385   5.047
 4914SOL     OW15640   3.813   6.643   3.817
 4914SOL    HW115641   3.771   6.552   3.817
 4914SOL    HW215642   3.912   6.633   3.815
 4915SOL     OW15643   3.721   5.937   5.544
 4915SOL    HW115644   3.654   6.001   5.582
 4915SOL    HW215645   3.729   5.952   5.445
 4916SOL     OW15646   5.761   2.478   3.973
 4916SOL    HW115647   5.735   2.471   4.070
 4916SOL    HW215648   5.687   2.522   3.922
 4917SOL     OW15649   4.419   6.324   6.567
 4917SOL    HW115650   4.333   6.367   6.541
 4917SOL    HW215651   4.479   6.391   6.610
 4918SOL     OW15652   5.715   5.519   3.876
 4918SOL    HW115653   5.630   5.497   3.925
 4918SOL    HW215654   5.694   5.583   3.802
 4919SOL     OW15655   3.632   3.872   2.078
 4919SOL    HW115656   3.655   3.943   2.144
 4919SOL    HW215657   3.716   3.840   2.033
 4920SOL     OW15658   6.006   0.902   5.963
 4920SOL    HW115659   6.033   0.892   5.867
 4920SOL    HW215660   6.004   0.999   5.987
 4921SOL     OW15661   0.028   6.837   1.667
 4921SOL    HW115662   0.006   6.908   1.734
 4921SOL    HW215663   0.027   6.876   1.575
 4922SOL     OW15664   4.475   1.335   5.872
 4922SOL    HW115665   4.501   1.240   5.887
 4922SOL    HW215666   4.475   1.354   5.774
 4923SOL     OW15667   3.841   1.156   2.036
 4923SOL    HW115668   3.785   1.218   2.091
 4923SOL    HW215669   3.854   1.195   1.945
 4924SOL     OW15670   2.801   1.558   4.888
 4924SOL    HW115671   2.704   1.556   4.909
 4924SOL    HW215672   2.842   1.641   4.927
 4925SOL     OW15673   4.548   5.883   3.725
 4925SOL    HW115674   4.577   5.788   3.737
 4925SOL    HW215675   4.621   5.935   3.681
 4926SOL     OW15676   5.493   2.575   1.689
 4926SOL    HW115677   5.437   2.655   1.668
 4926SOL    HW215678   5.574   2.603   1.740
 4927SOL     OW15679   2.408   1.463   0.509
 4927SOL    HW115680   2.460   1.544   0.536
 4927SOL    HW215681   2.330   1.491   0.452
 4928SOL     OW15682   6.794   1.267   0.997
 4928SOL    HW115683   6.740   1.201   0.944
 4928SOL    HW215684   6.739   1.349   1.014
 4929SOL     OW15685   6.953   0.296   5.213
 4929SOL    HW115686   0.022   0.320   5.184
 4929SOL    HW215687   6.956   0.256   5.304
 4930SOL     OW15688   4.329   5.782   2.743
 4930SOL    HW115689   4.365   5.836   2.667
 4930SOL    HW215690   4.401   5.724   2.781
 4931SOL     OW15691   6.035   0.190   1.005
 4931SOL    HW115692   6.058   0.094   0.986
 4931SOL    HW215693   6.117   0.246   0.996
 4932SOL     OW15694   3.275   3.722   2.867
 4932SOL    HW115695   3.274   3.700   2.964
 4932SOL    HW215696   3.320   3.649   2.815
 4933SOL     OW15697   1.694   0.338   5.087
 4933SOL    HW115698   1.694   0.420   5.030
 4933SOL    HW215699   1.733   0.261   5.037
 4934SOL     OW15700   3.299   6.627   2.704
 4934SOL    HW115701   3.219   6.660   2.754
 4934SOL    HW215702   3.348   6.560   2.759
 4935SOL     OW15703   6.620   0.432   4.799
 4935SOL    HW115704   6.702   0.435   4.743
 4935SOL    HW215705   6.613   0.516   4.853
 4936SOL     OW15706   4.447   2.953   1.079
 4936SOL    HW115707   4.513   2.883   1.051
 4936SOL    HW215708   4.381   2.912   1.142
 4937SOL     OW15709   4.361   2.729   5.324
 4937SOL    HW115710   4.288   2.796   5.311
 4937SOL    HW215711   4.449   2.771   5.303
 4938SOL     OW15712   3.236   4.510   0.044
 4938SOL    HW115713   3.198   4.575   7.002
 4938SOL    HW215714   3.163   4.450   0.078
 4939SOL     OW15715   4.468   3.999   6.168
 4939SOL    HW115716   4.508   3.955   6.248
 4939SOL    HW215717   4.504   3.956   6.085
 4940SOL     OW15718   2.151   5.852   3.801
 4940SOL    HW115719   2.057   5.828   3.775
 4940SOL    HW215720   2.209   5.772   3.792
 4941SOL     OW15721   5.716   0.659   1.405
 4941SOL    HW115722   5.780   0.619   1.340
 4941SOL    HW215723   5.665   0.733   1.361
 4942SOL     OW15724   4.871   2.202   6.329
 4942SOL    HW115725   4.773   2.218   6.337
 4942SOL    HW215726   4.907   2.250   6.249
 4943SOL     OW15727   5.578   2.821   1.157
 4943SOL    HW115728   5.646   2.892   1.143
 4943SOL    HW215729   5.618   2.732   1.135
 4944SOL     OW15730   2.098   3.644   2.193
 4944SOL    HW115731   2.145   3.605   2.114
 4944SOL    HW215732   2.134   3.736   2.211
 4945SOL     OW15733   0.108   5.976   4.265
 4945SOL    HW115734   0.140   6.016   4.350
 4945SOL    HW215735   0.178   5.987   4.194
 4946SOL     OW15736   6.855   4.173   2.215
 4946SOL    HW115737   6.885   4.081   2.239
 4946SOL    HW215738   6.857   4.185   2.116
 4947SOL     OW15739   6.001   0.926   0.475
 4947SOL    HW115740   5.922   0.902   0.418
 4947SOL    HW215741   6.068   0.975   0.420
 4948SOL     OW15742   2.545   1.832   2.639
 4948SOL    HW115743   2.500   1.811   2.725
 4948SOL    HW215744   2.606   1.910   2.652
 4949SOL     OW15745   5.341   2.027   5.009
 4949SOL    HW115746   5.411   2.069   5.066
 4949SOL    HW215747   5.250   2.058   5.038
 4950SOL     OW15748   2.952   5.659   4.633
 4950SOL    HW115749   2.903   5.578   4.599
 4950SOL    HW215750   2.966   5.650   4.731
 4951SOL     OW15751   4.324   1.730   4.473
 4951SOL    HW115752   4.237   1.731   4.423
 4951SOL    HW215753   4.308   1.706   4.569
 4952SOL     OW15754   6.770   4.550   4.202
 4952SOL    HW115755   6.819   4.632   4.232
 4952SOL    HW215756   6.833   4.473   4.202
 4953SOL     OW15757   1.135   4.514   2.060
 4953SOL    HW115758   1.219   4.566   2.049
 4953SOL    HW215759   1.136   4.434   2.000
 4954SOL     OW15760   6.303   6.304   6.774
 4954SOL    HW115761   6.245   6.367   6.723
 4954SOL    HW215762   6.395   6.304   6.735
 4955SOL     OW15763   1.922   0.250   1.477
 4955SOL    HW115764   2.015   0.284   1.492
 4955SOL    HW215765   1.908   0.235   1.379
 4956SOL     OW15766   6.179   6.469   3.402
 4956SOL    HW115767   6.190   6.551   3.345
 4956SOL    HW215768   6.113   6.408   3.358
 4957SOL     OW15769   1.773   5.673   3.956
 4957SOL    HW115770   1.695   5.631   3.910
 4957SOL    HW215771   1.769   5.651   4.054
 4958SOL     OW15772   6.831   6.810   6.880
 4958SOL    HW115773   6.892   6.881   6.914
 4958SOL    HW215774   6.799   6.835   6.788
 4959SOL     OW15775   0.700   1.887   0.256
 4959SOL    HW115776   0.678   1.973   0.302
 4959SOL    HW215777   0.651   1.882   0.169
 4960SOL     OW15778   3.832   6.986   5.536
 4960SOL    HW115779   3.752   0.023   5.540
 4960SOL    HW215780   3.908   0.005   5.586
 4961SOL     OW15781   5.374   0.545   5.248
 4961SOL    HW115782   5.286   0.513   5.212
 4961SOL    HW215783   5.438   0.557   5.172
 4962SOL     OW15784   6.738   2.311   2.408
 4962SOL    HW115785   6.807   2.268   2.467
 4962SOL    HW215786   6.759   2.408   2.399
 4963SOL     OW15787   6.737   4.525   1.171
 4963SOL    HW115788   6.690   4.443   1.203
 4963SOL    HW215789   6.672   4.583   1.121
 4964SOL     OW15790   3.165   0.034   3.102
 4964SOL    HW115791   3.100   0.102   3.136
 4964SOL    HW215792   3.249   0.080   3.074
 4965SOL     OW15793   6.933   6.075   4.652
 4965SOL    HW115794   6.845   6.123   4.646
 4965SOL    HW215795   7.004   6.129   4.607
 4966SOL     OW15796   4.557   5.374   5.185
 4966SOL    HW115797   4.466   5.398   5.152
 4966SOL    HW215798   4.572   5.276   5.174
 4967SOL     OW15799   5.982   1.789   6.739
 4967SOL    HW115800   5.913   1.738   6.687
 4967SOL    HW215801   5.950   1.882   6.755
 4968SOL     OW15802   5.149   4.337   6.716
 4968SOL    HW115803   5.080   4.402   6.685
 4968SOL    HW215804   5.124   4.302   6.806
 4969SOL     OW15805   1.770   1.388   1.259
 4969SOL    HW115806   1.851   1.445   1.242
 4969SOL    HW215807   1.788   1.326   1.335
 4970SOL     OW15808   1.625   2.531   6.079
 4970SOL    HW115809   1.696   2.470   6.044
 4970SOL    HW215810   1.664   2.620   6.101
 4971SOL     OW15811   6.433   5.558   3.676
 4971SOL    HW115812   6.336   5.567   3.701
 4971SOL    HW215813   6.462   5.463   3.688
 4972SOL     OW15814   1.451   2.111   4.808
 4972SOL    HW115815   1.473   2.034   4.748
 4972SOL    HW215816   1.525   2.178   4.805
 4973SOL     OW15817   5.109   5.656   2.862
 4973SOL    HW115818   5.186   5.671   2.800
 4973SOL    HW215819   5.132   5.689   2.954
 4974SOL     OW15820   3.874   6.573   6.659
 4974SOL    HW115821   3.776   6.593   6.651
 4974SOL    HW215822   3.903   6.519   6.581
 4975SOL     OW15823   4.186   6.559   0.511
 4975SOL    HW115824   4.255   6.542   0.581
 4975SOL    HW215825   4.228   6.557   0.420
 4976SOL     OW15826   2.212   0.731   4.352
 4976SOL    HW115827   2.132   0.721   4.293
 4976SOL    HW215828   2.294   0.700   4.303
 4977SOL     OW15829   3.409   3.429   0.734
 4977SOL    HW115830   3.423   3.408   0.637
 4977SOL    HW215831   3.354   3.357   0.777
 4978SOL     OW15832   6.271   4.211   6.267
 4978SOL    HW115833   6.337   4.185   6.336
 4978SOL    HW215834   6.225   4.296   6.294
 4979SOL     OW15835   2.364   2.203   3.748
 4979SOL    HW115836   2.385   2.223   3.843
 4979SOL    HW215837   2.278   2.247   3.722
 4980SOL     OW15838   2.107   4.449   3.344
 4980SOL    HW115839   2.136   4.534   3.388
 4980SOL    HW215840   2.127   4.371   3.403
 4981SOL     OW15841   5.238   5.903   5.157
 4981SOL    HW115842   5.274   5.830   5.099
 4981SOL    HW215843   5.294   5.910   5.240
 4982SOL     OW15844   2.337   1.787   6.733
 4982SOL    HW115845   2.260   1.747   6.783
 4982SOL    HW215846   2.324   1.773   6.635
 4983SOL     OW15847   6.951   2.549   4.777
 4983SOL    HW115848   6.896   2.474   4.814
 4983SOL    HW215849   6.982   2.525   4.684
 4984SOL     OW15850   4.972   4.341   3.245
 4984SOL    HW115851   4.890   4.285   3.257
 4984SOL    HW215852   4.996   4.384   3.332
 4985SOL     OW15853   5.550   4.009   2.125
 4985SOL    HW115854   5.639   4.010   2.079
 4985SOL    HW215855   5.558   4.056   2.213
 4986SOL     OW15856   4.392   4.964   3.235
 4986SOL    HW115857   4.320   5.029   3.261
 4986SOL    HW215858   4.425   4.986   3.143
 4987SOL     OW15859   0.643   3.262   0.523
 4987SOL    HW115860   0.613   3.189   0.462
 4987SOL    HW215861   0.672   3.222   0.610
 4988SOL     OW15862   2.059   2.345   5.379
 4988SOL    HW115863   2.138   2.405   5.394
 4988SOL    HW215864   1.975   2.399   5.378
 4989SOL     OW15865   0.326   1.224   1.221
 4989SOL    HW115866   0.245   1.251   1.273
 4989SOL    HW215867   0.388   1.302   1.212
 4990SOL     OW15868   1.438   2.068   6.727
 4990SOL    HW115869   1.517   2.113   6.769
 4990SOL    HW215870   1.362   2.066   6.792
 4991SOL     OW15871   2.861   1.889   5.853
 4991SOL    HW115872   2.822   1.832   5.781
 4991SOL    HW215873   2.829   1.858   5.942
 4992SOL     OW15874   4.109   6.391   4.909
 4992SOL    HW115875   4.112   6.391   5.009
 4992SOL    HW215876   4.201   6.412   4.873
 4993SOL     OW15877   1.517   6.280   4.299
 4993SOL    HW115878   1.553   6.315   4.385
 4993SOL    HW215879   1.466   6.352   4.251
 4994SOL     OW15880   0.118   6.200   3.028
 4994SOL    HW115881   0.199   6.230   2.977
 4994SOL    HW215882   0.130   6.220   3.125
 4995SOL     OW15883   5.726   2.875   5.432
 4995SOL    HW115884   5.782   2.927   5.497
 4995SOL    HW215885   5.631   2.905   5.440
 4996SOL     OW15886   1.150   1.566   3.581
 4996SOL    HW115887   1.132   1.545   3.485
 4996SOL    HW215888   1.107   1.497   3.639
 4997SOL     OW15889   0.167   2.607   3.918
 4997SOL    HW115890   0.257   2.564   3.912
 4997SOL    HW215891   0.096   2.537   3.908
 4998SOL     OW15892   0.901   5.577   5.724
 4998SOL    HW115893   0.926   5.669   5.694
 4998SOL    HW215894   0.815   5.550   5.682
 4999SOL     OW15895   6.241   4.689   0.886
 4999SOL    HW115896   6.203   4.769   0.839
 4999SOL    HW215897   6.175   4.614   0.883
 5000SOL     OW15898   6.447   5.061   4.192
 5000SOL    HW115899   6.522   5.025   4.248
 5000SOL    HW215900   6.373   4.994   4.189
 5001SOL     OW15901   4.844   3.558   5.465
 5001SOL    HW115902   4.860   3.557   5.564
 5001SOL    HW215903   4.823   3.465   5.434
 5002SOL     OW15904   1.526   2.400   1.572
 5002SOL    HW115905   1.545   2.307   1.601
 5002SOL    HW215906   1.606   2.436   1.523
 5003SOL     OW15907   6.672   5.148   4.043
 5003SOL    HW115908   6.578   5.140   4.077
 5003SOL    HW215909   6.735   5.159   4.120
 5004SOL     OW15910   1.857   4.432   6.111
 5004SOL    HW115911   1.889   4.477   6.028
 5004SOL    HW215912   1.822   4.500   6.175
 5005SOL     OW15913   4.724   2.159   0.489
 5005SOL    HW115914   4.760   2.095   0.557
 5005SOL    HW215915   4.625   2.164   0.496
 5006SOL     OW15916   5.293   4.565   2.272
 5006SOL    HW115917   5.318   4.643   2.328
 5006SOL    HW215918   5.294   4.482   2.329
 5007SOL     OW15919   4.474   0.441   5.110
 5007SOL    HW115920   4.485   0.343   5.127
 5007SOL    HW215921   4.440   0.485   5.193
 5008SOL     OW15922   6.405   1.587   3.810
 5008SOL    HW115923   6.488   1.570   3.863
 5008SOL    HW215924   6.387   1.685   3.808
 5009SOL     OW15925   2.239   6.467   2.219
 5009SOL    HW115926   2.236   6.431   2.126
 5009SOL    HW215927   2.170   6.421   2.275
 5010SOL     OW15928   3.327   3.591   5.988
 5010SOL    HW115929   3.234   3.557   6.004
 5010SOL    HW215930   3.335   3.684   6.023
 5011SOL     OW15931   1.368   1.641   3.754
 5011SOL    HW115932   1.442   1.576   3.736
 5011SOL    HW215933   1.302   1.636   3.679
 5012SOL     OW15934   5.906   2.911   0.091
 5012SOL    HW115935   5.991   2.923   0.142
 5012SOL    HW215936   5.864   2.823   0.117
 5013SOL     OW15937   5.058   1.986   5.523
 5013SOL    HW115938   5.094   1.920   5.457
 5013SOL    HW215939   5.104   1.974   5.611
 5014SOL     OW15940   0.317   5.393   6.599
 5014SOL    HW115941   0.344   5.317   6.658
 5014SOL    HW215942   0.233   5.370   6.550
 5015SOL     OW15943   4.985   1.900   3.909
 5015SOL    HW115944   5.046   1.824   3.885
 5015SOL    HW215945   4.890   1.868   3.911
 5016SOL     OW15946   2.694   6.382   2.050
 5016SOL    HW115947   2.603   6.344   2.065
 5016SOL    HW215948   2.763   6.309   2.055
 5017SOL     OW15949   1.278   2.009   1.677
 5017SOL    HW115950   1.186   2.047   1.676
 5017SOL    HW215951   1.333   2.056   1.746
 5018SOL     OW15952   6.664   5.007   3.732
 5018SOL    HW115953   6.716   5.092   3.738
 5018SOL    HW215954   6.572   5.021   3.769
 5019SOL     OW15955   2.788   5.579   5.417
 5019SOL    HW115956   2.706   5.632   5.398
 5019SOL    HW215957   2.797   5.506   5.349
 5020SOL     OW15958   4.272   5.084   6.796
 5020SOL    HW115959   4.229   5.117   6.713
 5020SOL    HW215960   4.309   5.161   6.848
 5021SOL     OW15961   1.917   4.527   5.427
 5021SOL    HW115962   2.013   4.503   5.438
 5021SOL    HW215963   1.889   4.509   5.333
 5022SOL     OW15964   1.813   3.996   0.012
 5022SOL    HW115965   1.882   4.015   0.081
 5022SOL    HW215966   1.724   3.986   0.056
 5023SOL     OW15967   0.461   3.377   4.919
 5023SOL    HW115968   0.529   3.306   4.934
 5023SOL    HW215969   0.495   3.443   4.851
 5024SOL     OW15970   4.658   3.824   5.382
 5024SOL    HW115971   4.653   3.924   5.388
 5024SOL    HW215972   4.615   3.784   5.463
 5025SOL     OW15973   6.007   0.720   4.170
 5025SOL    HW115974   5.942   0.793   4.149
 5025SOL    HW215975   6.051   0.738   4.257
 5026SOL     OW15976   0.794   5.565   2.683
 5026SOL    HW115977   0.773   5.558   2.585
 5026SOL    HW215978   0.736   5.502   2.734
 5027SOL     OW15979   1.275   5.841   3.485
 5027SOL    HW115980   1.222   5.800   3.560
 5027SOL    HW215981   1.266   5.785   3.403
 5028SOL     OW15982   0.777   6.722   3.167
 5028SOL    HW115983   0.819   6.807   3.197
 5028SOL    HW215984   0.815   6.645   3.218
 5029SOL     OW15985   6.404   0.894   3.854
 5029SOL    HW115986   6.403   0.797   3.876
 5029SOL    HW215987   6.497   0.930   3.865
 5030SOL     OW15988   1.150   6.594   6.943
 5030SOL    HW115989   1.221   6.527   6.962
 5030SOL    HW215990   1.134   6.600   6.844
 5031SOL     OW15991   5.890   0.650   6.688
 5031SOL    HW115992   5.861   0.660   6.592
 5031SOL    HW215993   5.819   0.687   6.748
 5032SOL     OW15994   1.492   5.100   2.328
 5032SOL    HW115995   1.426   5.027   2.309
 5032SOL    HW215996   1.467   5.146   2.414
 5033SOL     OW15997   0.764   4.492   4.585
 5033SOL    HW115998   0.757   4.535   4.496
 5033SOL    HW215999   0.796   4.397   4.574
 5034SOL     OW16000   0.276   3.203   6.501
 5034SOL    HW116001   0.272   3.113   6.544
 5034SOL    HW216002   0.212   3.265   6.546
 5035SOL     OW16003   6.875   3.849   1.373
 5035SOL    HW116004   6.810   3.781   1.338
 5035SOL    HW216005   6.954   3.801   1.414
 5036SOL     OW16006   1.206   1.328   2.219
 5036SOL    HW116007   1.215   1.258   2.290
 5036SOL    HW216008   1.112   1.328   2.184
 5037SOL     OW16009   5.257   3.472   2.136
 5037SOL    HW116010   5.207   3.555   2.109
 5037SOL    HW216011   5.223   3.440   2.224
 5038SOL     OW16012   3.151   5.793   5.238
 5038SOL    HW116013   3.165   5.695   5.231
 5038SOL    HW216014   3.237   5.838   5.261
 5039SOL     OW16015   1.712   2.506   3.227
 5039SOL    HW116016   1.743   2.593   3.264
 5039SOL    HW216017   1.786   2.439   3.232
 5040SOL     OW16018   2.985   3.639   5.750
 5040SOL    HW116019   2.891   3.663   5.728
 5040SOL    HW216020   3.037   3.628   5.665
 5041SOL     OW16021   0.021   5.448   0.339
 5041SOL    HW116022   6.963   5.489   0.381
 5041SOL    HW216023   0.085   5.419   0.410
 5042SOL     OW16024   6.102   1.727   5.971
 5042SOL    HW116025   6.071   1.646   6.022
 5042SOL    HW216026   6.098   1.708   5.873
 5043SOL     OW16027   4.972   6.079   4.218
 5043SOL    HW116028   4.980   5.982   4.242
 5043SOL    HW216029   5.022   6.134   4.284
 5044SOL     OW16030   5.858   4.179   2.174
 5044SOL    HW116031   5.869   4.080   2.174
 5044SOL    HW216032   5.849   4.212   2.079
 5045SOL     OW16033   5.816   2.642   5.743
 5045SOL    HW116034   5.828   2.738   5.717
 5045SOL    HW216035   5.832   2.633   5.842
 5046SOL     OW16036   3.939   3.457   5.925
 5046SOL    HW116037   3.869   3.389   5.946
 5046SOL    HW216038   3.902   3.549   5.941
 5047SOL     OW16039   0.207   1.427   2.370
 5047SOL    HW116040   0.242   1.340   2.404
 5047SOL    HW216041   0.138   1.463   2.433
 5048SOL     OW16042   5.774   3.201   0.908
 5048SOL    HW116043   5.789   3.263   0.985
 5048SOL    HW216044   5.698   3.236   0.852
 5049SOL     OW16045   1.196   1.733   1.685
 5049SOL    HW116046   1.263   1.807   1.683
 5049SOL    HW216047   1.122   1.754   1.621
 5050SOL     OW16048   2.154   4.730   0.315
 5050SOL    HW116049   2.152   4.789   0.396
 5050SOL    HW216050   2.246   4.733   0.274
 5051SOL     OW16051   2.560   4.112   6.509
 5051SOL    HW116052   2.540   4.144   6.416
 5051SOL    HW216053   2.579   4.014   6.507
 5052SOL     OW16054   6.058   2.877   0.773
 5052SOL    HW116055   6.135   2.828   0.733
 5052SOL    HW216056   6.072   2.884   0.872
 5053SOL     OW16057   1.447   4.118   1.259
 5053SOL    HW116058   1.355   4.107   1.298
 5053SOL    HW216059   1.509   4.051   1.300
 5054SOL     OW16060   3.938   6.086   5.687
 5054SOL    HW116061   3.984   6.048   5.767
 5054SOL    HW216062   3.880   6.016   5.645
 5055SOL     OW16063   1.062   0.796   4.061
 5055SOL    HW116064   1.133   0.849   4.014
 5055SOL    HW216065   0.988   0.857   4.088
 5056SOL     OW16066   3.583   2.394   6.152
 5056SOL    HW116067   3.501   2.371   6.100
 5056SOL    HW216068   3.623   2.479   6.117
 5057SOL     OW16069   0.323   3.955   2.771
 5057SOL    HW116070   0.383   4.008   2.831
 5057SOL    HW216071   0.375   3.881   2.730
 5058SOL     OW16072   3.504   1.814   0.367
 5058SOL    HW116073   3.589   1.809   0.316
 5058SOL    HW216074   3.522   1.799   0.464
 5059SOL     OW16075   5.313   2.016   2.442
 5059SOL    HW116076   5.237   1.979   2.389
 5059SOL    HW216077   5.369   2.075   2.383
 5060SOL     OW16078   6.423   2.869   5.653
 5060SOL    HW116079   6.427   2.943   5.721
 5060SOL    HW216080   6.446   2.905   5.563
 5061SOL     OW16081   3.973   3.091   5.831
 5061SOL    HW116082   4.034   3.013   5.816
 5061SOL    HW216083   3.953   3.099   5.929
 5062SOL     OW16084   5.617   1.553   3.430
 5062SOL    HW116085   5.628   1.466   3.382
 5062SOL    HW216086   5.672   1.554   3.513
 5063SOL     OW16087   0.600   2.055   1.581
 5063SOL    HW116088   0.554   1.992   1.644
 5063SOL    HW216089   0.674   2.007   1.533
 5064SOL     OW16090   6.052   4.721   1.339
 5064SOL    HW116091   5.979   4.677   1.286
 5064SOL    HW216092   6.100   4.787   1.282
 5065SOL     OW16093   2.210   1.989   2.643
 5065SOL    HW116094   2.307   1.983   2.669
 5065SOL    HW216095   2.190   2.083   2.615
 5066SOL     OW16096   1.650   5.345   3.004
 5066SOL    HW116097   1.676   5.436   3.035
 5066SOL    HW216098   1.701   5.275   3.055
 5067SOL     OW16099   5.242   2.442   0.927
 5067SOL    HW116100   5.308   2.517   0.922
 5067SOL    HW216101   5.162   2.463   0.871
 5068SOL     OW16102   1.071   6.255   1.292
 5068SOL    HW116103   1.158   6.229   1.332
 5068SOL    HW216104   1.048   6.349   1.319
 5069SOL     OW16105   4.451   4.873   5.799
 5069SOL    HW116106   4.512   4.895   5.876
 5069SOL    HW216107   4.379   4.811   5.830
 5070SOL     OW16108   6.579   3.894   6.315
 5070SOL    HW116109   6.641   3.828   6.271
 5070SOL    HW216110   6.619   3.985   6.309
 5071SOL     OW16111   2.622   6.227   3.079
 5071SOL    HW116112   2.678   6.299   3.119
 5071SOL    HW216113   2.673   6.181   3.006
 5072SOL     OW16114   0.931   1.785   2.063
 5072SOL    HW116115   0.946   1.869   2.115
 5072SOL    HW216116   0.977   1.709   2.108
 5073SOL     OW16117   1.880   1.376   3.524
 5073SOL    HW116118   1.917   1.419   3.606
 5073SOL    HW216119   1.843   1.446   3.463
 5074SOL     OW16120   3.641   2.145   1.169
 5074SOL    HW116121   3.693   2.128   1.085
 5074SOL    HW216122   3.588   2.063   1.192
 5075SOL     OW16123   6.301   2.553   0.355
 5075SOL    HW116124   6.204   2.536   0.370
 5075SOL    HW216125   6.352   2.532   0.439
 5076SOL     OW16126   0.039   1.030   6.069
 5076SOL    HW116127   0.077   1.110   6.021
 5076SOL    HW216128   6.964   1.044   6.082
 5077SOL     OW16129   0.151   4.581   4.045
 5077SOL    HW116130   0.157   4.672   4.004
 5077SOL    HW216131   0.201   4.516   3.988
 5078SOL     OW16132   6.366   2.422   3.251
 5078SOL    HW116133   6.286   2.363   3.260
 5078SOL    HW216134   6.354   2.504   3.306
 5079SOL     OW16135   1.984   4.053   4.968
 5079SOL    HW116136   2.003   4.009   5.055
 5079SOL    HW216137   1.911   4.120   4.979
 5080SOL     OW16138   6.593   5.442   6.889
 5080SOL    HW116139   6.514   5.475   6.837
 5080SOL    HW216140   6.629   5.516   6.946
 5081SOL     OW16141   2.560   4.897   5.472
 5081SOL    HW116142   2.514   4.861   5.392
 5081SOL    HW216143   2.646   4.940   5.444
 5082SOL     OW16144   5.555   0.117   2.136
 5082SOL    HW116145   5.475   0.155   2.091
 5082SOL    HW216146   5.526   0.059   2.212
 5083SOL     OW16147   0.907   6.958   3.233
 5083SOL    HW116148   0.834   7.011   3.190
 5083SOL    HW216149   0.977   7.020   3.269
 5084SOL     OW16150   3.694   5.222   5.984
 5084SOL    HW116151   3.660   5.215   5.890
 5084SOL    HW216152   3.687   5.133   6.028
 5085SOL     OW16153   0.295   4.325   5.786
 5085SOL    HW116154   0.331   4.313   5.694
 5085SOL    HW216155   0.303   4.421   5.813
 5086SOL     OW16156   0.982   4.368   2.286
 5086SOL    HW116157   0.995   4.271   2.309
 5086SOL    HW216158   1.044   4.394   2.212
 5087SOL     OW16159   0.172   5.435   1.659
 5087SOL    HW116160   0.239   5.420   1.732
 5087SOL    HW216161   0.152   5.348   1.614
 5088SOL     OW16162   4.413   4.916   2.174
 5088SOL    HW116163   4.361   4.976   2.113
 5088SOL    HW216164   4.490   4.876   2.124
 5089SOL     OW16165   5.372   6.776   5.433
 5089SOL    HW116166   5.446   6.740   5.376
 5089SOL    HW216167   5.403   6.857   5.482
 5090SOL     OW16168   2.375   6.730   4.247
 5090SOL    HW116169   2.347   6.718   4.152
 5090SOL    HW216170   2.431   6.812   4.255
 5091SOL     OW16171   6.742   6.199   6.293
 5091SOL    HW116172   6.772   6.126   6.354
 5091SOL    HW216173   6.689   6.161   6.218
 5092SOL     OW16174   3.964   3.300   4.272
 5092SOL    HW116175   3.902   3.365   4.317
 5092SOL    HW216176   3.962   3.213   4.320
 5093SOL     OW16177   3.536   2.073   3.907
 5093SOL    HW116178   3.539   1.974   3.922
 5093SOL    HW216179   3.580   2.120   3.984
 5094SOL     OW16180   1.860   6.136   5.249
 5094SOL    HW116181   1.782   6.095   5.298
 5094SOL    HW216182   1.890   6.072   5.178
 5095SOL     OW16183   6.940   1.285   3.169
 5095SOL    HW116184   6.983   1.363   3.124
 5095SOL    HW216185   7.009   1.216   3.188
 5096SOL     OW16186   6.404   2.905   6.231
 5096SOL    HW116187   6.451   2.992   6.218
 5096SOL    HW216188   6.406   2.880   6.328
 5097SOL     OW16189   1.132   1.259   5.411
 5097SOL    HW116190   1.198   1.242   5.337
 5097SOL    HW216191   1.040   1.237   5.379
 5098SOL     OW16192   3.018   1.985   0.965
 5098SOL    HW116193   2.937   2.020   0.917
 5098SOL    HW216194   3.074   1.933   0.901
 5099SOL     OW16195   2.038   5.356   2.795
 5099SOL    HW116196   2.046   5.454   2.814
 5099SOL    HW216197   1.941   5.330   2.797
 5100SOL     OW16198   5.817   3.760   1.678
 5100SOL    HW116199   5.739   3.785   1.620
 5100SOL    HW216200   5.864   3.844   1.708
 5101SOL     OW16201   3.156   1.210   5.160
 5101SOL    HW116202   3.094   1.271   5.112
 5101SOL    HW216203   3.247   1.215   5.117
 5102SOL     OW16204   5.778   4.573   4.979
 5102SOL    HW116205   5.874   4.547   4.968
 5102SOL    HW216206   5.722   4.492   4.993
 5103SOL     OW16207   0.956   0.486   5.901
 5103SOL    HW116208   0.926   0.405   5.850
 5103SOL    HW216209   0.881   0.520   5.957
 5104SOL     OW16210   4.051   3.790   3.390
 5104SOL    HW116211   4.099   3.740   3.319
 5104SOL    HW216212   3.998   3.727   3.446
 5105SOL     OW16213   4.106   3.059   7.005
 5105SOL    HW116214   4.051   3.018   0.054
 5105SOL    HW216215   4.196   3.014   7.003
 5106SOL     OW16216   3.638   1.170   1.652
 5106SOL    HW116217   3.603   1.076   1.654
 5106SOL    HW216218   3.688   1.185   1.566
 5107SOL     OW16219   6.061   5.220   0.077
 5107SOL    HW116220   6.075   5.138   0.132
 5107SOL    HW216221   5.966   5.222   0.044
 5108SOL     OW16222   3.974   4.380   1.425
 5108SOL    HW116223   4.063   4.356   1.462
 5108SOL    HW216224   3.954   4.322   1.346
 5109SOL     OW16225   1.569   2.548   2.205
 5109SOL    HW116226   1.539   2.455   2.185
 5109SOL    HW216227   1.503   2.614   2.169
 5110SOL     OW16228   4.288   6.152   4.792
 5110SOL    HW116229   4.240   6.234   4.760
 5110SOL    HW216230   4.386   6.171   4.800
 5111SOL     OW16231   2.274   5.653   5.392
 5111SOL    HW116232   2.285   5.586   5.464
 5111SOL    HW216233   2.186   5.640   5.346
 5112SOL     OW16234   1.055   4.977   2.491
 5112SOL    HW116235   1.142   4.936   2.461
 5112SOL    HW216236   1.005   5.011   2.411
 5113SOL     OW16237   2.189   4.176   0.718
 5113SOL    HW116238   2.177   4.270   0.684
 5113SOL    HW216239   2.184   4.112   0.641
 5114SOL     OW16240   4.332   4.774   1.653
 5114SOL    HW116241   4.403   4.713   1.619
 5114SOL    HW216242   4.277   4.727   1.722
 5115SOL     OW16243   1.206   4.660   0.800
 5115SOL    HW116244   1.212   4.603   0.882
 5115SOL    HW216245   1.162   4.609   0.726
 5116SOL     OW16246   0.266   6.511   5.181
 5116SOL    HW116247   0.245   6.506   5.279
 5116SOL    HW216248   0.204   6.450   5.130
 5117SOL     OW16249   0.178   3.390   3.467
 5117SOL    HW116250   0.218   3.302   3.442
 5117SOL    HW216251   0.240   3.464   3.442
 5118SOL     OW16252   3.979   5.037   6.819
 5118SOL    HW116253   3.948   5.125   6.783
 5118SOL    HW216254   3.947   4.963   6.759
 5119SOL     OW16255   5.711   1.816   0.847
 5119SOL    HW116256   5.670   1.839   0.759
 5119SOL    HW216257   5.764   1.732   0.838
 5120SOL     OW16258   5.547   6.559   5.855
 5120SOL    HW116259   5.643   6.533   5.855
 5120SOL    HW216260   5.536   6.648   5.810
 5121SOL     OW16261   1.410   3.183   0.073
 5121SOL    HW116262   1.321   3.164   0.032
 5121SOL    HW216263   1.408   3.159   0.170
 5122SOL     OW16264   4.252   4.711   3.453
 5122SOL    HW116265   4.310   4.631   3.437
 5122SOL    HW216266   4.288   4.763   3.531
 5123SOL     OW16267   4.905   2.274   1.589
 5123SOL    HW116268   4.945   2.251   1.678
 5123SOL    HW216269   4.953   2.224   1.517
 5124SOL     OW16270   0.355   5.713   4.323
 5124SOL    HW116271   0.385   5.753   4.410
 5124SOL    HW216272   0.333   5.787   4.259
 5125SOL     OW16273   5.961   2.551   3.790
 5125SOL    HW116274   5.927   2.587   3.702
 5125SOL    HW216275   5.889   2.560   3.859
 5126SOL     OW16276   2.325   0.941   2.031
 5126SOL    HW116277   2.419   0.972   2.048
 5126SOL    HW216278   2.319   0.843   2.047
 5127SOL     OW16279   2.314   6.921   6.642
 5127SOL    HW116280   2.228   6.928   6.591
 5127SOL    HW216281   2.296   6.880   6.731
 5128SOL     OW16282   4.521   6.620   1.264
 5128SOL    HW116283   4.592   6.688   1.283
 5128SOL    HW216284   4.459   6.614   1.343
 5129SOL     OW16285   6.111   5.913   0.389
 5129SOL    HW116286   6.186   5.859   0.351
 5129SOL    HW216287   6.134   6.010   0.386
 5130SOL     OW16288   5.874   4.689   2.723
 5130SOL    HW116289   5.941   4.635   2.775
 5130SOL    HW216290   5.920   4.767   2.680
 5131SOL     OW16291   2.505   2.600   2.657
 5131SOL    HW116292   2.447   2.635   2.730
 5131SOL    HW216293   2.563   2.527   2.693
 5132SOL     OW16294   2.403   5.968   5.062
 5132SOL    HW116295   2.373   5.887   5.011
 5132SOL    HW216296   2.465   5.940   5.136
 5133SOL     OW16297   3.681   6.039   5.280
 5133SOL    HW116298   3.675   6.001   5.188
 5133SOL    HW216299   3.637   6.129   5.283
 5134SOL     OW16300   6.708   3.803   6.713
 5134SOL    HW116301   6.643   3.733   6.684
 5134SOL    HW216302   6.793   3.794   6.661
 5135SOL     OW16303   0.018   1.752   4.143
 5135SOL    HW116304   0.028   1.740   4.242
 5135SOL    HW216305   0.024   1.850   4.121
 5136SOL     OW16306   3.155   1.961   6.435
 5136SOL    HW116307   3.086   1.948   6.364
 5136SOL    HW216308   3.120   2.023   6.505
 5137SOL     OW16309   3.978   3.537   0.007
 5137SOL    HW116310   4.002   3.626   6.991
 5137SOL    HW216311   4.059   3.479   0.010
 5138SOL     OW16312   2.446   3.704   5.766
 5138SOL    HW116313   2.367   3.679   5.823
 5138SOL    HW216314   2.530   3.680   5.814
 5139SOL     OW16315   0.620   6.813   3.531
 5139SOL    HW116316   0.697   6.809   3.467
 5139SOL    HW216317   0.552   6.878   3.496
 5140SOL     OW16318   2.960   3.105   1.551
 5140SOL    HW116319   2.943   3.014   1.588
 5140SOL    HW216320   2.873   3.152   1.536
 5141SOL     OW16321   1.140   4.318   6.031
 5141SOL    HW116322   1.076   4.340   5.957
 5141SOL    HW216323   1.133   4.221   6.053
 5142SOL     OW16324   5.860   3.474   2.279
 5142SOL    HW116325   5.956   3.473   2.308
 5142SOL    HW216326   5.809   3.406   2.332
 5143SOL     OW16327   6.772   5.134   5.347
 5143SOL    HW116328   6.785   5.042   5.312
 5143SOL    HW216329   6.713   5.131   5.428
 5144SOL     OW16330   1.914   2.101   5.011
 5144SOL    HW116331   2.004   2.129   4.980
 5144SOL    HW216332   1.923   2.029   5.080
 5145SOL     OW16333   3.413   5.832   5.662
 5145SOL    HW116334   3.379   5.843   5.755
 5145SOL    HW216335   3.354   5.769   5.611
 5146SOL     OW16336   3.066   4.742   0.793
 5146SOL    HW116337   3.054   4.783   0.703
 5146SOL    HW216338   2.984   4.690   0.817
 5147SOL     OW16339   6.925   5.152   6.606
 5147SOL    HW116340   6.854   5.083   6.593
 5147SOL    HW216341   6.884   5.237   6.639
 5148SOL     OW16342   0.117   0.772   0.795
 5148SOL    HW116343   0.115   0.734   0.703
 5148SOL    HW216344   0.194   0.734   0.845
 5149SOL     OW16345   6.774   0.332   5.683
 5149SOL    HW116346   6.795   0.234   5.686
 5149SOL    HW216347   6.774   0.369   5.776
 5150SOL     OW16348   2.250   5.194   5.391
 5150SOL    HW116349   2.226   5.223   5.298
 5150SOL    HW216350   2.330   5.245   5.423
 5151SOL     OW16351   3.994   0.722   5.575
 5151SOL    HW116352   3.940   0.764   5.649
 5151SOL    HW216353   4.042   0.642   5.610
 5152SOL     OW16354   0.497   4.926   0.138
 5152SOL    HW116355   0.446   4.840   0.129
 5152SOL    HW216356   0.515   4.945   0.234
 5153SOL     OW16357   1.680   2.458   1.237
 5153SOL    HW116358   1.607   2.512   1.197
 5153SOL    HW216359   1.702   2.382   1.176
 5154SOL     OW16360   1.784   4.690   4.746
 5154SOL    HW116361   1.773   4.757   4.819
 5154SOL    HW216362   1.741   4.724   4.663
 5155SOL     OW16363   3.871   0.470   2.832
 5155SOL    HW116364   3.785   0.506   2.869
 5155SOL    HW216365   3.934   0.451   2.906
 5156SOL     OW16366   5.145   2.970   5.866
 5156SOL    HW116367   5.226   2.958   5.924
 5156SOL    HW216368   5.171   2.959   5.770
 5157SOL     OW16369   6.604   1.919   4.095
 5157SOL    HW116370   6.641   1.979   4.166
 5157SOL    HW216371   6.541   1.853   4.136
 5158SOL     OW16372   3.541   0.662   1.126
 5158SOL    HW116373   3.572   0.586   1.069
 5158SOL    HW216374   3.509   0.736   1.067
 5159SOL     OW16375   2.099   3.379   4.860
 5159SOL    HW116376   2.025   3.375   4.928
 5159SOL    HW216377   2.141   3.289   4.850
 5160SOL     OW16378   2.761   2.342   3.845
 5160SOL    HW116379   2.819   2.286   3.903
 5160SOL    HW216380   2.715   2.411   3.901
 5161SOL     OW16381   2.036   3.302   6.172
 5161SOL    HW116382   2.104   3.284   6.100
 5161SOL    HW216383   2.009   3.398   6.168
 5162SOL     OW16384   6.648   5.653   4.651
 5162SOL    HW116385   6.670   5.629   4.556
 5162SOL    HW216386   6.726   5.698   4.693
 5163SOL     OW16387   5.439   4.104   1.318
 5163SOL    HW116388   5.411   4.131   1.226
 5163SOL    HW216389   5.367   4.126   1.384
 5164SOL     OW16390   6.455   6.261   4.669
 5164SOL    HW116391   6.402   6.220   4.742
 5164SOL    HW216392   6.396   6.318   4.612
 5165SOL     OW16393   5.495   3.403   5.112
 5165SOL    HW116394   5.509   3.378   5.016
 5165SOL    HW216395   5.415   3.463   5.120
 5166SOL     OW16396   1.500   0.104   2.596
 5166SOL    HW116397   1.593   0.139   2.580
 5166SOL    HW216398   1.489   0.017   2.548
 5167SOL     OW16399   2.304   0.349   5.960
 5167SOL    HW116400   2.285   0.357   6.058
 5167SOL    HW216401   2.368   0.274   5.944
 5168SOL     OW16402   3.521   1.987   2.496
 5168SOL    HW116403   3.551   2.020   2.407
 5168SOL    HW216404   3.475   1.899   2.486
 5169SOL     OW16405   4.143   4.522   6.564
 5169SOL    HW116406   4.202   4.442   6.572
 5169SOL    HW216407   4.099   4.540   6.652
 5170SOL     OW16408   4.105   5.216   4.200
 5170SOL    HW116409   4.166   5.292   4.180
 5170SOL    HW216410   4.028   5.216   4.137
 5171SOL     OW16411   2.467   4.847   5.215
 5171SOL    HW116412   2.515   4.783   5.155
 5171SOL    HW216413   2.368   4.839   5.199
 5172SOL     OW16414   1.547   4.402   6.413
 5172SOL    HW116415   1.467   4.434   6.466
 5172SOL    HW216416   1.553   4.455   6.328
 5173SOL     OW16417   7.009   2.509   5.392
 5173SOL    HW116418   0.034   2.451   5.457
 5173SOL    HW216419   6.931   2.459   5.353
 5174SOL     OW16420   2.303   5.298   6.193
 5174SOL    HW116421   2.256   5.221   6.150
 5174SOL    HW216422   2.290   5.380   6.137
 5175SOL     OW16423   0.125   5.739   6.318
 5175SOL    HW116424   0.030   5.756   6.295
 5175SOL    HW216425   0.137   5.740   6.417
 5176SOL     OW16426   5.535   3.602   6.282
 5176SOL    HW116427   5.598   3.531   6.252
 5176SOL    HW216428   5.552   3.623   6.378
 5177SOL     OW16429   5.857   5.529   6.322
 5177SOL    HW116430   5.815   5.439   6.311
 5177SOL    HW216431   5.827   5.570   6.408
 5178SOL     OW16432   2.999   3.966   0.603
 5178SOL    HW116433   2.986   3.968   0.702
 5178SOL    HW216434   2.951   3.887   0.565
 5179SOL     OW16435   3.205   6.596   5.055
 5179SOL    HW116436   3.276   6.618   4.988
 5179SOL    HW216437   3.140   6.531   5.015
 5180SOL     OW16438   4.179   1.710   0.176
 5180SOL    HW116439   4.275   1.685   0.189
 5180SOL    HW216440   4.168   1.808   0.192
 5181SOL     OW16441   3.138   5.910   2.485
 5181SOL    HW116442   3.072   5.907   2.410
 5181SOL    HW216443   3.231   5.912   2.449
 5182SOL     OW16444   4.617   4.160   1.362
 5182SOL    HW116445   4.651   4.076   1.321
 5182SOL    HW216446   4.518   4.153   1.378
 5183SOL     OW16447   3.830   0.485   3.655
 5183SOL    HW116448   3.916   0.441   3.629
 5183SOL    HW216449   3.849   0.559   3.720
 5184SOL     OW16450   1.132   2.806   3.301
 5184SOL    HW116451   1.223   2.767   3.290
 5184SOL    HW216452   1.115   2.872   3.228
 5185SOL     OW16453   3.978   0.157   1.475
 5185SOL    HW116454   3.955   0.066   1.439
 5185SOL    HW216455   3.917   0.225   1.436
 5186SOL     OW16456   5.189   4.258   0.491
 5186SOL    HW116457   5.125   4.271   0.415
 5186SOL    HW216458   5.275   4.221   0.457
 5187SOL     OW16459   4.836   2.756   4.033
 5187SOL    HW116460   4.910   2.744   3.968
 5187SOL    HW216461   4.758   2.700   4.006
 5188SOL     OW16462   0.579   1.120   3.935
 5188SOL    HW116463   0.588   1.045   4.000
 5188SOL    HW216464   0.655   1.116   3.869
 5189SOL     OW16465   4.949   6.108   6.377
 5189SOL    HW116466   4.931   6.076   6.470
 5189SOL    HW216467   4.879   6.070   6.315
 5190SOL     OW16468   2.180   2.883   2.012
 5190SOL    HW116469   2.190   2.834   2.098
 5190SOL    HW216470   2.262   2.869   1.957
 5191SOL     OW16471   4.708   0.303   2.416
 5191SOL    HW116472   4.742   0.327   2.325
 5191SOL    HW216473   4.754   0.219   2.447
 5192SOL     OW16474   6.206   3.947   1.385
 5192SOL    HW116475   6.220   3.893   1.468
 5192SOL    HW216476   6.148   4.026   1.407
 5193SOL     OW16477   3.761   4.852   2.184
 5193SOL    HW116478   3.720   4.911   2.253
 5193SOL    HW216479   3.694   4.832   2.112
 5194SOL     OW16480   5.458   0.812   0.203
 5194SOL    HW116481   5.376   0.756   0.190
 5194SOL    HW216482   5.449   0.863   0.288
 5195SOL     OW16483   0.270   6.931   4.901
 5195SOL    HW116484   0.310   6.845   4.932
 5195SOL    HW216485   0.204   6.963   4.969
 5196SOL     OW16486   6.696   3.939   3.788
 5196SOL    HW116487   6.738   3.949   3.878
 5196SOL    HW216488   6.767   3.915   3.721
 5197SOL     OW16489   3.831   5.476   5.475
 5197SOL    HW116490   3.811   5.405   5.543
 5197SOL    HW216491   3.790   5.451   5.388
 5198SOL     OW16492   4.358   1.682   5.310
 5198SOL    HW116493   4.326   1.626   5.386
 5198SOL    HW216494   4.299   1.667   5.230
 5199SOL     OW16495   0.096   5.637   1.264
 5199SOL    HW116496   0.038   5.673   1.338
 5199SOL    HW216497   0.051   5.558   1.223
 5200SOL     OW16498   6.831   0.395   4.613
 5200SOL    HW116499   6.815   0.344   4.529
 5200SOL    HW216500   6.929   0.405   4.628
 5201SOL     OW16501   6.333   4.509   5.377
 5201SOL    HW116502   6.315   4.413   5.398
 5201SOL    HW216503   6.330   4.562   5.462
 5202SOL     OW16504   3.843   2.218   6.044
 5202SOL    HW116505   3.752   2.243   6.076
 5202SOL    HW216506   3.836   2.141   5.980
 5203SOL     OW16507   0.888   0.666   6.389
 5203SOL    HW116508   0.919   0.687   6.296
 5203SOL    HW216509   0.843   0.576   6.389
 5204SOL     OW16510   1.862   0.465   1.699
 5204SOL    HW116511   1.826   0.375   1.724
 5204SOL    HW216512   1.789   0.533   1.707
 5205SOL     OW16513   6.923   0.160   1.759
 5205SOL    HW116514   6.917   0.211   1.673
 5205SOL    HW216515   6.831   0.136   1.790
 5206SOL     OW16516   0.667   4.889   4.265
 5206SOL    HW116517   0.581   4.842   4.285
 5206SOL    HW216518   0.744   4.836   4.302
 5207SOL     OW16519   4.973   0.230   5.006
 5207SOL    HW116520   4.967   0.225   4.906
 5207SOL    HW216521   4.887   0.267   5.042
 5208SOL     OW16522   6.829   2.135   0.182
 5208SOL    HW116523   6.873   2.086   0.257
 5208SOL    HW216524   6.750   2.082   0.150
 5209SOL     OW16525   5.299   6.208   2.676
 5209SOL    HW116526   5.345   6.157   2.603
 5209SOL    HW216527   5.313   6.161   2.763
 5210SOL     OW16528   5.863   4.336   1.303
 5210SOL    HW116529   5.816   4.359   1.217
 5210SOL    HW216530   5.952   4.381   1.305
 5211SOL     OW16531   5.436   2.977   5.454
 5211SOL    HW116532   5.349   2.946   5.491
 5211SOL    HW216533   5.428   2.990   5.356
 5212SOL     OW16534   6.700   4.111   0.123
 5212SOL    HW116535   6.631   4.104   0.195
 5212SOL    HW216536   6.673   4.054   0.045
 5213SOL     OW16537   3.573   2.904   3.349
 5213SOL    HW116538   3.506   2.977   3.353
 5213SOL    HW216539   3.661   2.938   3.382
 5214SOL     OW16540   5.308   3.354   6.066
 5214SOL    HW116541   5.262   3.326   5.982
 5214SOL    HW216542   5.395   3.307   6.074
 5215SOL     OW16543   0.107   5.684   5.141
 5215SOL    HW116544   0.187   5.641   5.099
 5215SOL    HW216545   0.136   5.762   5.197
 5216SOL     OW16546   6.113   3.968   1.125
 5216SOL    HW116547   6.156   4.050   1.086
 5216SOL    HW216548   6.141   3.959   1.220
 5217SOL     OW16549   3.946   6.257   2.769
 5217SOL    HW116550   3.878   6.292   2.705
 5217SOL    HW216551   4.006   6.332   2.798
 5218SOL     OW16552   5.674   0.089   0.645
 5218SOL    HW116553   5.673   0.140   0.559
 5218SOL    HW216554   5.715   0.146   0.716
 5219SOL     OW16555   3.745   1.612   4.987
 5219SOL    HW116556   3.808   1.537   5.006
 5219SOL    HW216557   3.749   1.635   4.890
 5220SOL     OW16558   2.006   4.847   4.566
 5220SOL    HW116559   2.056   4.835   4.651
 5220SOL    HW216560   1.915   4.805   4.574
 5221SOL     OW16561   5.196   5.663   1.106
 5221SOL    HW116562   5.137   5.711   1.171
 5221SOL    HW216563   5.291   5.691   1.120
 5222SOL     OW16564   6.816   3.643   1.937
 5222SOL    HW116565   6.720   3.661   1.915
 5222SOL    HW216566   6.854   3.721   1.987
 5223SOL     OW16567   0.183   2.689   1.086
 5223SOL    HW116568   0.251   2.655   1.150
 5223SOL    HW216569   0.228   2.715   1.000
 5224SOL     OW16570   1.691   1.128   4.382
 5224SOL    HW116571   1.790   1.130   4.366
 5224SOL    HW216572   1.673   1.133   4.480
 5225SOL     OW16573   6.816   2.429   5.741
 5225SOL    HW116574   6.795   2.341   5.698
 5225SOL    HW216575   6.775   2.431   5.833
 5226SOL     OW16576   0.072   6.616   4.236
 5226SOL    HW116577   7.023   6.565   4.189
 5226SOL    HW216578   0.160   6.596   4.193
 5227SOL     OW16579   1.359   3.165   5.893
 5227SOL    HW116580   1.368   3.194   5.798
 5227SOL    HW216581   1.288   3.220   5.938
 5228SOL     OW16582   1.184   2.169   4.938
 5228SOL    HW116583   1.239   2.204   5.014
 5228SOL    HW216584   1.245   2.146   4.861
 5229SOL     OW16585   3.629   1.740   6.456
 5229SOL    HW116586   3.574   1.798   6.516
 5229SOL    HW216587   3.726   1.765   6.465
 5230SOL     OW16588   6.693   0.112   1.879
 5230SOL    HW116589   6.668   0.174   1.954
 5230SOL    HW216590   6.645   0.139   1.796
 5231SOL     OW16591   6.162   3.412   1.976
 5231SOL    HW116592   6.117   3.349   2.040
 5231SOL    HW216593   6.217   3.477   2.028
 5232SOL     OW16594   1.470   1.943   5.723
 5232SOL    HW116595   1.422   1.975   5.805
 5232SOL    HW216596   1.567   1.965   5.731
 5233SOL     OW16597   3.109   6.869   3.393
 5233SOL    HW116598   3.176   6.884   3.320
 5233SOL    HW216599   3.045   6.797   3.366
 5234SOL     OW16600   2.764   2.464   6.543
 5234SOL    HW116601   2.712   2.485   6.625
 5234SOL    HW216602   2.708   2.482   6.462
 5235SOL     OW16603   2.412   2.610   1.499
 5235SOL    HW116604   2.410   2.512   1.476
 5235SOL    HW216605   2.378   2.663   1.421
 5236SOL     OW16606   2.868   4.775   2.505
 5236SOL    HW116607   2.840   4.870   2.495
 5236SOL    HW216608   2.896   4.758   2.600
 5237SOL     OW16609   1.947   1.755   2.143
 5237SOL    HW116610   1.973   1.852   2.138
 5237SOL    HW216611   1.886   1.742   2.221
 5238SOL     OW16612   6.311   0.745   2.803
 5238SOL    HW116613   6.242   0.695   2.855
 5238SOL    HW216614   6.401   0.705   2.820
 5239SOL     OW16615   2.876   4.180   0.468
 5239SOL    HW116616   2.880   4.094   0.520
 5239SOL    HW216617   2.951   4.182   0.401
 5240SOL     OW16618   2.149   4.197   5.930
 5240SOL    HW116619   2.247   4.188   5.950
 5240SOL    HW216620   2.113   4.109   5.897
 5241SOL     OW16621   1.730   6.333   3.538
 5241SOL    HW116622   1.742   6.388   3.621
 5241SOL    HW216623   1.794   6.364   3.468
 5242SOL     OW16624   4.551   6.030   5.466
 5242SOL    HW116625   4.502   6.026   5.379
 5242SOL    HW216626   4.646   6.055   5.449
 5243SOL     OW16627   2.357   5.673   3.858
 5243SOL    HW116628   2.432   5.708   3.915
 5243SOL    HW216629   2.384   5.587   3.817
 5244SOL     OW16630   4.794   1.412   6.378
 5244SOL    HW116631   4.724   1.444   6.314
 5244SOL    HW216632   4.750   1.373   6.459
 5245SOL     OW16633   3.055   4.032   2.268
 5245SOL    HW116634   3.030   3.943   2.307
 5245SOL    HW216635   2.999   4.104   2.310
 5246SOL     OW16636   6.473   3.405   6.141
 5246SOL    HW116637   6.551   3.377   6.198
 5246SOL    HW216638   6.488   3.498   6.107
 5247SOL     OW16639   4.655   1.259   6.074
 5247SOL    HW116640   4.639   1.357   6.082
 5247SOL    HW216641   4.658   1.233   5.978
 5248SOL     OW16642   4.712   0.765   3.379
 5248SOL    HW116643   4.737   0.829   3.307
 5248SOL    HW216644   4.617   0.778   3.405
 5249SOL     OW16645   0.100   5.173   1.258
 5249SOL    HW116646   0.004   5.156   1.234
 5249SOL    HW216647   0.155   5.093   1.234
 5250SOL     OW16648   1.985   5.289   0.605
 5250SOL    HW116649   2.024   5.375   0.572
 5250SOL    HW216650   2.056   5.238   0.654
 5251SOL     OW16651   0.986   4.693   0.175
 5251SOL    HW116652   0.986   4.595   0.197
 5251SOL    HW216653   1.080   4.722   0.155
 5252SOL     OW16654   3.487   5.287   3.190
 5252SOL    HW116655   3.482   5.298   3.289
 5252SOL    HW216656   3.572   5.328   3.156
 5253SOL     OW16657   0.046   6.256   4.449
 5253SOL    HW116658   0.135   6.276   4.489
 5253SOL    HW216659   7.006   6.331   4.470
 5254SOL     OW16660   4.744   6.174   2.588
 5254SOL    HW116661   4.675   6.174   2.516
 5254SOL    HW216662   4.818   6.111   2.563
 5255SOL     OW16663   0.273   1.159   6.172
 5255SOL    HW116664   0.221   1.100   6.111
 5255SOL    HW216665   0.357   1.113   6.199
 5256SOL     OW16666   4.215   2.239   2.600
 5256SOL    HW116667   4.286   2.232   2.669
 5256SOL    HW216668   4.252   2.216   2.510
 5257SOL     OW16669   5.507   1.117   6.846
 5257SOL    HW116670   5.459   1.129   6.759
 5257SOL    HW216671   5.603   1.142   6.834
 5258SOL     OW16672   5.728   1.504   5.214
 5258SOL    HW116673   5.693   1.597   5.227
 5258SOL    HW216674   5.809   1.507   5.155
 5259SOL     OW16675   4.980   5.770   4.034
 5259SOL    HW116676   4.903   5.789   3.973
 5259SOL    HW216677   5.060   5.822   4.004
 5260SOL     OW16678   2.135   5.870   1.569
 5260SOL    HW116679   2.211   5.912   1.520
 5260SOL    HW216680   2.128   5.910   1.661
 5261SOL     OW16681   6.164   4.773   6.974
 5261SOL    HW116682   6.236   4.836   7.002
 5261SOL    HW216683   6.139   4.714   0.028
 5262SOL     OW16684   2.158   2.275   1.855
 5262SOL    HW116685   2.170   2.329   1.939
 5262SOL    HW216686   2.206   2.188   1.865
 5263SOL     OW16687   1.382   6.197   3.138
 5263SOL    HW116688   1.340   6.170   3.224
 5263SOL    HW216689   1.320   6.257   3.088
 5264SOL     OW16690   6.840   2.566   2.355
 5264SOL    HW116691   6.849   2.613   2.268
 5264SOL    HW216692   6.815   2.632   2.426
 5265SOL     OW16693   0.053   5.834   5.606
 5265SOL    HW116694   0.031   5.920   5.652
 5265SOL    HW216695   7.020   5.761   5.643
 5266SOL     OW16696   1.563   0.024   5.862
 5266SOL    HW116697   1.636   0.088   5.842
 5266SOL    HW216698   1.474   0.070   5.855
 5267SOL     OW16699   5.723   1.458   4.807
 5267SOL    HW116700   5.635   1.503   4.820
 5267SOL    HW216701   5.777   1.509   4.740
 5268SOL     OW16702   5.302   0.154   5.842
 5268SOL    HW116703   5.360   0.073   5.850
 5268SOL    HW216704   5.337   0.212   5.768
 5269SOL     OW16705   1.369   0.498   4.303
 5269SOL    HW116706   1.312   0.429   4.259
 5269SOL    HW216707   1.329   0.588   4.292
 5270SOL     OW16708   0.773   1.861   6.770
 5270SOL    HW116709   0.749   1.958   6.763
 5270SOL    HW216710   0.765   1.817   6.681
 5271SOL     OW16711   1.321   5.944   5.583
 5271SOL    HW116712   1.336   5.987   5.672
 5271SOL    HW216713   1.236   5.979   5.543
 5272SOL     OW16714   4.202   0.399   6.295
 5272SOL    HW116715   4.280   0.457   6.274
 5272SOL    HW216716   4.206   0.370   6.391
 5273SOL     OW16717   2.371   1.487   3.498
 5273SOL    HW116718   2.377   1.456   3.403
 5273SOL    HW216719   2.305   1.431   3.547
 5274SOL     OW16720   5.349   4.350   1.526
 5274SOL    HW116721   5.345   4.435   1.578
 5274SOL    HW216722   5.422   4.355   1.459
 5275SOL     OW16723   5.340   1.132   6.059
 5275SOL    HW116724   5.383   1.207   6.109
 5275SOL    HW216725   5.328   1.159   5.963
 5276SOL     OW16726   3.507   6.399   1.517
 5276SOL    HW116727   3.524   6.481   1.462
 5276SOL    HW216728   3.431   6.347   1.478
 5277SOL     OW16729   1.958   3.613   1.674
 5277SOL    HW116730   1.945   3.712   1.672
 5277SOL    HW216731   1.897   3.573   1.744
 5278SOL     OW16732   3.522   3.494   1.933
 5278SOL    HW116733   3.579   3.568   1.969
 5278SOL    HW216734   3.432   3.496   1.976
 5279SOL     OW16735   1.766   6.334   2.731
 5279SOL    HW116736   1.671   6.315   2.704
 5279SOL    HW216737   1.768   6.421   2.782
 5280SOL     OW16738   3.857   0.676   4.576
 5280SOL    HW116739   3.839   0.754   4.516
 5280SOL    HW216740   3.844   0.704   4.671
 5281SOL     OW16741   6.891   2.698   3.909
 5281SOL    HW116742   6.972   2.656   3.868
 5281SOL    HW216743   6.848   2.633   3.971
 5282SOL     OW16744   4.711   2.511   1.336
 5282SOL    HW116745   4.794   2.469   1.299
 5282SOL    HW216746   4.731   2.554   1.424
 5283SOL     OW16747   5.105   4.758   5.816
 5283SOL    HW116748   5.060   4.670   5.805
 5283SOL    HW216749   5.189   4.760   5.763
 5284SOL     OW16750   5.266   2.725   4.201
 5284SOL    HW116751   5.324   2.715   4.121
 5284SOL    HW216752   5.322   2.733   4.283
 5285SOL     OW16753   4.411   6.302   2.990
 5285SOL    HW116754   4.421   6.304   3.089
 5285SOL    HW216755   4.397   6.207   2.960
 5286SOL     OW16756   2.116   5.153   1.935
 5286SOL    HW116757   2.204   5.123   1.972
 5286SOL    HW216758   2.130   5.195   1.845
 5287SOL     OW16759   1.206   1.151   2.439
 5287SOL    HW116760   1.121   1.192   2.474
 5287SOL    HW216761   1.283   1.178   2.497
 5288SOL     OW16762   4.101   0.176   1.057
 5288SOL    HW116763   4.007   0.202   1.080
 5288SOL    HW216764   4.138   0.237   0.988
 5289SOL     OW16765   1.660   6.491   1.111
 5289SOL    HW116766   1.705   6.404   1.092
 5289SOL    HW216767   1.705   6.536   1.187
 5290SOL     OW16768   5.504   5.729   0.069
 5290SOL    HW116769   5.491   5.795   7.017
 5290SOL    HW216770   5.428   5.665   0.069
 5291SOL     OW16771   1.081   5.465   0.196
 5291SOL    HW116772   1.085   5.565   0.186
 5291SOL    HW216773   1.173   5.429   0.204
 5292SOL     OW16774   5.520   1.731   1.011
 5292SOL    HW116775   5.603   1.760   0.963
 5292SOL    HW216776   5.530   1.636   1.039
 5293SOL     OW16777   2.215   1.557   4.194
 5293SOL    HW116778   2.232   1.562   4.292
 5293SOL    HW216779   2.254   1.637   4.149
 5294SOL     OW16780   3.693   2.481   6.421
 5294SOL    HW116781   3.759   2.414   6.385
 5294SOL    HW216782   3.615   2.487   6.358
 5295SOL     OW16783   6.445   1.790   2.799
 5295SOL    HW116784   6.446   1.889   2.781
 5295SOL    HW216785   6.388   1.771   2.878
 5296SOL     OW16786   0.213   2.652   6.797
 5296SOL    HW116787   0.140   2.630   6.732
 5296SOL    HW216788   0.190   2.735   6.847
 5297SOL     OW16789   1.172   2.583   1.758
 5297SOL    HW116790   1.264   2.603   1.725
 5297SOL    HW216791   1.108   2.581   1.680
 5298SOL     OW16792   1.416   4.622   1.754
 5298SOL    HW116793   1.416   4.649   1.851
 5298SOL    HW216794   1.463   4.691   1.700
 5299SOL     OW16795   3.986   0.023   0.626
 5299SOL    HW116796   3.993   0.112   0.581
 5299SOL    HW216797   4.065   6.990   0.600
 5300SOL     OW16798   6.750   5.302   3.837
 5300SOL    HW116799   6.714   5.271   3.924
 5300SOL    HW216800   6.850   5.292   3.837
 5301SOL     OW16801   6.132   0.403   6.932
 5301SOL    HW116802   6.158   0.489   6.888
 5301SOL    HW216803   6.203   0.335   6.915
 5302SOL     OW16804   6.956   4.142   3.938
 5302SOL    HW116805   6.889   4.203   3.894
 5302SOL    HW216806   6.909   4.084   4.005
 5303SOL     OW16807   1.930   4.371   3.162
 5303SOL    HW116808   1.962   4.280   3.137
 5303SOL    HW216809   1.986   4.407   3.236
 5304SOL     OW16810   4.536   2.329   5.849
 5304SOL    HW116811   4.555   2.277   5.765
 5304SOL    HW216812   4.439   2.352   5.853
 5305SOL     OW16813   3.335   1.909   5.161
 5305SOL    HW116814   3.349   1.845   5.236
 5305SOL    HW216815   3.388   1.879   5.081
 5306SOL     OW16816   2.630   6.928   3.435
 5306SOL    HW116817   2.717   6.930   3.484
 5306SOL    HW216818   2.557   6.959   3.495
 5307SOL     OW16819   5.368   6.436   6.668
 5307SOL    HW116820   5.294   6.465   6.729
 5307SOL    HW216821   5.398   6.513   6.612
 5308SOL     OW16822   6.803   1.480   2.042
 5308SOL    HW116823   6.799   1.574   2.075
 5308SOL    HW216824   6.713   1.438   2.050
 5309SOL     OW16825   4.258   3.431   5.197
 5309SOL    HW116826   4.222   3.397   5.110
 5309SOL    HW216827   4.192   3.413   5.269
 5310SOL     OW16828   5.028   2.626   0.092
 5310SOL    HW116829   4.966   2.671   0.028
 5310SOL    HW216830   4.984   2.620   0.182
 5311SOL     OW16831   6.818   6.429   0.087
 5311SOL    HW116832   6.753   6.357   0.064
 5311SOL    HW216833   6.819   6.441   0.187
 5312SOL     OW16834   0.387   3.598   1.259
 5312SOL    HW116835   0.424   3.682   1.219
 5312SOL    HW216836   0.432   3.581   1.347
 5313SOL     OW16837   0.137   6.723   0.112
 5313SOL    HW116838   0.103   6.631   0.093
 5313SOL    HW216839   0.180   6.760   0.030
 5314SOL     OW16840   3.536   5.203   1.181
 5314SOL    HW116841   3.624   5.160   1.160
 5314SOL    HW216842   3.506   5.175   1.272
 5315SOL     OW16843   5.751   1.228   1.980
 5315SOL    HW116844   5.752   1.227   1.880
 5315SOL    HW216845   5.741   1.135   2.014
 5316SOL     OW16846   5.375   5.352   4.296
 5316SOL    HW116847   5.440   5.391   4.361
 5316SOL    HW216848   5.333   5.270   4.335
 5317SOL     OW16849   6.457   4.979   1.768
 5317SOL    HW116850   6.417   4.926   1.693
 5317SOL    HW216851   6.404   5.063   1.781
 5318SOL     OW16852   7.003   2.441   3.813
 5318SOL    HW116853   6.926   2.378   3.823
 5318SOL    HW216854   7.014   2.464   3.717
 5319SOL     OW16855   3.032   6.119   2.769
 5319SOL    HW116856   3.089   6.178   2.828
 5319SOL    HW216857   3.020   6.163   2.680
 5320SOL     OW16858   6.848   2.564   0.080
 5320SOL    HW116859   6.935   2.610   0.066
 5320SOL    HW216860   6.783   2.628   0.121
 5321SOL     OW16861   2.800   4.423   6.781
 5321SOL    HW116862   2.839   4.456   6.694
 5321SOL    HW216863   2.747   4.340   6.764
 5322SOL     OW16864   2.545   6.723   0.085
 5322SOL    HW116865   2.453   6.745   0.117
 5322SOL    HW216866   2.589   6.660   0.150
 5323SOL     OW16867   6.071   3.036   0.554
 5323SOL    HW116868   6.044   2.973   0.626
 5323SOL    HW216869   6.169   3.053   0.558
 5324SOL     OW16870   4.205   3.290   1.476
 5324SOL    HW116871   4.273   3.332   1.416
 5324SOL    HW216872   4.119   3.341   1.471
 5325SOL     OW16873   3.255   6.181   5.557
 5325SOL    HW116874   3.220   6.240   5.630
 5325SOL    HW216875   3.252   6.230   5.470
 5326SOL     OW16876   6.402   0.873   3.165
 5326SOL    HW116877   6.360   0.909   3.082
 5326SOL    HW216878   6.478   0.932   3.192
 5327SOL     OW16879   6.527   0.088   4.069
 5327SOL    HW116880   6.554   0.037   4.151
 5327SOL    HW216881   6.442   0.137   4.087
 5328SOL     OW16882   3.330   5.083   6.659
 5328SOL    HW116883   3.401   5.152   6.672
 5328SOL    HW216884   3.240   5.125   6.671
 5329SOL     OW16885   0.649   6.210   6.826
 5329SOL    HW116886   0.581   6.137   6.836
 5329SOL    HW216887   0.688   6.232   6.916
 5330SOL     OW16888   4.237   4.765   0.854
 5330SOL    HW116889   4.286   4.843   0.816
 5330SOL    HW216890   4.167   4.735   0.789
 5331SOL     OW16891   5.794   1.210   6.824
 5331SOL    HW116892   5.828   1.295   6.784
 5331SOL    HW216893   5.834   1.132   6.775
 5332SOL     OW16894   6.406   2.282   6.736
 5332SOL    HW116895   6.395   2.184   6.751
 5332SOL    HW216896   6.503   2.306   6.742
 5333SOL     OW16897   0.766   6.853   3.923
 5333SOL    HW116898   0.820   6.852   3.839
 5333SOL    HW216899   0.670   6.866   3.901
 5334SOL     OW16900   3.033   5.953   1.272
 5334SOL    HW116901   3.002   5.895   1.196
 5334SOL    HW216902   3.123   5.992   1.250
 5335SOL     OW16903   6.990   4.860   1.815
 5335SOL    HW116904   6.948   4.939   1.771
 5335SOL    HW216905   0.066   4.870   1.813
 5336SOL     OW16906   1.610   3.314   5.454
 5336SOL    HW116907   1.648   3.357   5.536
 5336SOL    HW216908   1.685   3.290   5.391
 5337SOL     OW16909   6.885   1.876   0.908
 5337SOL    HW116910   6.964   1.825   0.943
 5337SOL    HW216911   6.874   1.961   0.959
 5338SOL     OW16912   0.254   3.856   0.805
 5338SOL    HW116913   0.308   3.815   0.731
 5338SOL    HW216914   0.212   3.941   0.773
 5339SOL     OW16915   5.108   3.231   3.055
 5339SOL    HW116916   5.182   3.260   2.994
 5339SOL    HW216917   5.131   3.143   3.096
 5340SOL     OW16918   4.887   3.505   0.988
 5340SOL    HW116919   4.984   3.522   1.004
 5340SOL    HW216920   4.855   3.431   1.047
 5341SOL     OW16921   4.728   4.948   3.496
 5341SOL    HW116922   4.717   5.047   3.498
 5341SOL    HW216923   4.653   4.906   3.445
 5342SOL     OW16924   6.479   5.745   4.950
 5342SOL    HW116925   6.496   5.671   5.014
 5342SOL    HW216926   6.468   5.831   5.000
 5343SOL     OW16927   3.551   3.183   6.920
 5343SOL    HW116928   3.618   3.117   6.953
 5343SOL    HW216929   3.499   3.143   6.844
 5344SOL     OW16930   6.554   1.804   0.190
 5344SOL    HW116931   6.483   1.789   0.259
 5344SOL    HW216932   6.623   1.732   0.197
 5345SOL     OW16933   3.598   1.298   0.447
 5345SOL    HW116934   3.676   1.348   0.408
 5345SOL    HW216935   3.559   1.238   0.378
 5346SOL     OW16936   2.073   6.208   3.274
 5346SOL    HW116937   2.013   6.128   3.267
 5346SOL    HW216938   2.021   6.287   3.307
 5347SOL     OW16939   6.216   1.262   5.243
 5347SOL    HW116940   6.262   1.184   5.200
 5347SOL    HW216941   6.254   1.276   5.335
 5348SOL     OW16942   4.707   2.784   5.481
 5348SOL    HW116943   4.704   2.797   5.382
 5348SOL    HW216944   4.762   2.855   5.523
 5349SOL     OW16945   0.838   4.309   0.505
 5349SOL    HW116946   0.919   4.260   0.472
 5349SOL    HW216947   0.846   4.325   0.603
 5350SOL     OW16948   1.291   6.859   6.554
 5350SOL    HW116949   1.202   6.905   6.556
 5350SOL    HW216950   1.310   6.825   6.462
 5351SOL     OW16951   0.335   5.630   3.799
 5351SOL    HW116952   0.261   5.654   3.862
 5351SOL    HW216953   0.409   5.697   3.805
 5352SOL     OW16954   0.595   2.510   5.785
 5352SOL    HW116955   0.689   2.501   5.818
 5352SOL    HW216956   0.596   2.538   5.689
 5353SOL     OW16957   3.142   6.573   3.225
 5353SOL    HW116958   3.150   6.492   3.284
 5353SOL    HW216959   3.227   6.583   3.173
 5354SOL     OW16960   3.262   5.815   2.201
 5354SOL    HW116961   3.288   5.751   2.273
 5354SOL    HW216962   3.252   5.765   2.115
 5355SOL     OW16963   5.478   5.050   5.314
 5355SOL    HW116964   5.490   5.124   5.380
 5355SOL    HW216965   5.567   5.012   5.290
 5356SOL     OW16966   0.821   6.766   1.600
 5356SOL    HW116967   0.901   6.710   1.620
 5356SOL    HW216968   0.771   6.784   1.685
 5357SOL     OW16969   6.181   3.685   2.847
 5357SOL    HW116970   6.241   3.762   2.824
 5357SOL    HW216971   6.226   3.600   2.820
 5358SOL     OW16972   5.899   1.145   6.518
 5358SOL    HW116973   5.974   1.089   6.552
 5358SOL    HW216974   5.816   1.089   6.510
 5359SOL     OW16975   2.849   2.122   6.820
 5359SOL    HW116976   2.852   2.222   6.830
 5359SOL    HW216977   2.879   2.079   6.905
 5360SOL     OW16978   5.436   5.221   2.985
 5360SOL    HW116979   5.373   5.152   2.948
 5360SOL    HW216980   5.529   5.184   2.986
 5361SOL     OW16981   1.597   3.656   2.961
 5361SOL    HW116982   1.559   3.691   2.875
 5361SOL    HW216983   1.530   3.670   3.034
 5362SOL     OW16984   6.082   1.570   3.633
 5362SOL    HW116985   6.072   1.663   3.669
 5362SOL    HW216986   6.058   1.504   3.705
 5363SOL     OW16987   6.045   5.195   4.890
 5363SOL    HW116988   6.015   5.218   4.982
 5363SOL    HW216989   6.112   5.120   4.894
 5364SOL     OW16990   4.532   2.413   1.495
 5364SOL    HW116991   4.604   2.451   1.437
 5364SOL    HW216992   4.484   2.487   1.542
 5365SOL     OW16993   3.744   3.269   5.991
 5365SOL    HW116994   3.673   3.270   6.062
 5365SOL    HW216995   3.821   3.214   6.023
 5366SOL     OW16996   0.617   4.979   3.604
 5366SOL    HW116997   0.566   5.021   3.529
 5366SOL    HW216998   0.592   4.883   3.611
 5367SOL     OW16999   6.407   6.319   1.476
 5367SOL    HW117000   6.394   6.348   1.570
 5367SOL    HW217001   6.387   6.396   1.414
 5368SOL     OW17002   6.708   6.233   5.034
 5368SOL    HW117003   6.747   6.141   5.032
 5368SOL    HW217004   6.722   6.277   4.946
 5369SOL     OW17005   3.744   6.733   2.963
 5369SOL    HW117006   3.812   6.800   2.994
 5369SOL    HW217007   3.731   6.664   3.034
 5370SOL     OW17008   2.550   2.782   0.549
 5370SOL    HW117009   2.553   2.855   0.480
 5370SOL    HW217010   2.491   2.708   0.516
 5371SOL     OW17011   6.087   5.440   3.540
 5371SOL    HW117012   6.105   5.528   3.584
 5371SOL    HW217013   6.074   5.369   3.610
 5372SOL     OW17014   0.977   0.391   4.046
 5372SOL    HW117015   0.933   0.427   4.128
 5372SOL    HW217016   0.907   0.358   3.982
 5373SOL     OW17017   4.035   6.867   0.279
 5373SOL    HW117018   3.948   6.906   0.249
 5373SOL    HW217019   4.019   6.776   0.318
 5374SOL     OW17020   1.208   4.061   1.339
 5374SOL    HW117021   1.177   4.132   1.402
 5374SOL    HW217022   1.177   3.972   1.372
 5375SOL     OW17023   2.853   4.877   5.104
 5375SOL    HW117024   2.863   4.907   5.198
 5375SOL    HW217025   2.892   4.786   5.093
 5376SOL     OW17026   0.455   0.394   1.872
 5376SOL    HW117027   0.483   0.339   1.793
 5376SOL    HW217028   0.496   0.356   1.955
 5377SOL     OW17029   0.986   2.559   1.963
 5377SOL    HW117030   1.039   2.599   1.888
 5377SOL    HW217031   1.008   2.604   2.049
 5378SOL     OW17032   5.759   6.722   3.239
 5378SOL    HW117033   5.670   6.730   3.195
 5378SOL    HW217034   5.778   6.805   3.291
 5379SOL     OW17035   2.654   2.410   4.317
 5379SOL    HW117036   2.589   2.335   4.323
 5379SOL    HW217037   2.744   2.375   4.289
 5380SOL     OW17038   5.060   6.556   1.861
 5380SOL    HW117039   5.020   6.506   1.785
 5380SOL    HW217040   4.992   6.620   1.898
 5381SOL     OW17041   3.299   2.137   2.372
 5381SOL    HW117042   3.357   2.125   2.452
 5381SOL    HW217043   3.204   2.146   2.401
 5382SOL     OW17044   4.957   0.667   2.787
 5382SOL    HW117045   4.939   0.601   2.714
 5382SOL    HW217046   5.013   0.623   2.858
 5383SOL     OW17047   2.700   3.884   5.303
 5383SOL    HW117048   2.620   3.933   5.270
 5383SOL    HW217049   2.771   3.949   5.329
 5384SOL     OW17050   4.908   6.352   5.686
 5384SOL    HW117051   4.900   6.254   5.708
 5384SOL    HW217052   4.990   6.389   5.729
 5385SOL     OW17053   3.843   4.095   0.687
 5385SOL    HW117054   3.843   4.040   0.771
 5385SOL    HW217055   3.808   4.039   0.612
 5386SOL     OW17056   4.446   4.495   3.380
 5386SOL    HW117057   4.490   4.468   3.294
 5386SOL    HW217058   4.488   4.445   3.456
 5387SOL     OW17059   0.877   2.238   4.186
 5387SOL    HW117060   0.926   2.282   4.260
 5387SOL    HW217061   0.867   2.303   4.110
 5388SOL     OW17062   6.356   6.500   3.593
 5388SOL    HW117063   6.309   6.476   3.507
 5388SOL    HW217064   6.289   6.533   3.659
 5389SOL     OW17065   5.563   1.631   4.463
 5389SOL    HW117066   5.622   1.609   4.540
 5389SOL    HW217067   5.557   1.552   4.402
 5390SOL     OW17068   5.821   3.114   3.216
 5390SOL    HW117069   5.871   3.176   3.276
 5390SOL    HW217070   5.877   3.033   3.198
 5391SOL     OW17071   4.247   2.943   0.705
 5391SOL    HW117072   4.343   2.969   0.715
 5391SOL    HW217073   4.233   2.900   0.616
 5392SOL     OW17074   5.016   0.970   4.235
 5392SOL    HW117075   4.946   0.899   4.238
 5392SOL    HW217076   5.069   0.968   4.320
 5393SOL     OW17077   4.332   2.381   3.049
 5393SOL    HW117078   4.322   2.330   3.135
 5393SOL    HW217079   4.242   2.396   3.009
 5394SOL     OW17080   6.952   2.772   2.806
 5394SOL    HW117081   0.006   2.727   2.762
 5394SOL    HW217082   6.897   2.704   2.854
 5395SOL     OW17083   6.960   0.591   1.428
 5395SOL    HW117084   0.036   0.592   1.421
 5395SOL    HW217085   6.926   0.684   1.442
 5396SOL     OW17086   4.232   2.676   0.104
 5396SOL    HW117087   4.251   2.639   0.195
 5396SOL    HW217088   4.308   2.654   0.043
 5397SOL     OW17089   0.594   6.916   2.491
 5397SOL    HW117090   0.581   6.910   2.590
 5397SOL    HW217091   0.596   6.824   2.452
 5398SOL     OW17092   5.901   2.391   3.068
 5398SOL    HW117093   5.849   2.316   3.029
 5398SOL    HW217094   5.951   2.439   2.996
 5399SOL     OW17095   2.460   3.026   0.147
 5399SOL    HW117096   2.445   3.005   0.051
 5399SOL    HW217097   2.487   3.122   0.156
 5400SOL     OW17098   5.418   2.645   0.733
 5400SOL    HW117099   5.403   2.696   0.818
 5400SOL    HW217100   5.354   2.678   0.663
 5401SOL     OW17101   4.957   3.984   1.337
 5401SOL    HW117102   4.955   4.017   1.431
 5401SOL    HW217103   4.863   3.969   1.305
 5402SOL     OW17104   1.717   6.305   1.948
 5402SOL    HW117105   1.723   6.270   2.042
 5402SOL    HW217106   1.696   6.230   1.886
 5403SOL     OW17107   5.945   2.293   5.474
 5403SOL    HW117108   6.002   2.279   5.555
 5403SOL    HW217109   5.852   2.314   5.503
 5404SOL     OW17110   4.819   6.479   0.536
 5404SOL    HW117111   4.824   6.568   0.490
 5404SOL    HW217112   4.788   6.409   0.471
 5405SOL     OW17113   6.704   4.924   6.222
 5405SOL    HW117114   6.766   4.860   6.177
 5405SOL    HW217115   6.690   5.003   6.162
 5406SOL     OW17116   1.888   1.267   5.454
 5406SOL    HW117117   1.976   1.271   5.501
 5406SOL    HW217118   1.825   1.333   5.496
 5407SOL     OW17119   2.196   1.228   2.922
 5407SOL    HW117120   2.136   1.234   2.842
 5407SOL    HW217121   2.287   1.197   2.893
 5408SOL     OW17122   1.536   1.785   4.383
 5408SOL    HW117123   1.437   1.785   4.371
 5408SOL    HW217124   1.575   1.703   4.339
 5409SOL     OW17125   0.100   4.168   3.478
 5409SOL    HW117126   0.004   4.143   3.466
 5409SOL    HW217127   0.132   4.139   3.568
 5410SOL     OW17128   5.825   1.885   0.264
 5410SOL    HW117129   5.903   1.854   0.319
 5410SOL    HW217130   5.857   1.914   0.174
 5411SOL     OW17131   3.300   5.756   1.405
 5411SOL    HW117132   3.201   5.758   1.396
 5411SOL    HW217133   3.325   5.695   1.480
 5412SOL     OW17134   1.624   2.236   5.892
 5412SOL    HW117135   1.703   2.280   5.935
 5412SOL    HW217136   1.654   2.155   5.842
 5413SOL     OW17137   6.711   5.815   5.791
 5413SOL    HW117138   6.777   5.812   5.866
 5413SOL    HW217139   6.740   5.752   5.718
 5414SOL     OW17140   5.992   5.844   6.426
 5414SOL    HW117141   5.968   5.930   6.472
 5414SOL    HW217142   5.937   5.770   6.464
 5415SOL     OW17143   2.032   1.710   0.053
 5415SOL    HW117144   1.982   1.686   0.136
 5415SOL    HW217145   2.116   1.758   0.077
 5416SOL     OW17146   3.826   5.686   6.166
 5416SOL    HW117147   3.920   5.716   6.151
 5416SOL    HW217148   3.823   5.586   6.166
 5417SOL     OW17149   5.365   0.230   1.974
 5417SOL    HW117150   5.348   0.319   1.932
 5417SOL    HW217151   5.289   0.168   1.953
 5418SOL     OW17152   0.619   3.590   5.428
 5418SOL    HW117153   0.521   3.608   5.419
 5418SOL    HW217154   0.636   3.493   5.408
 5419SOL     OW17155   3.790   2.194   6.394
 5419SOL    HW117156   3.750   2.158   6.310
 5419SOL    HW217157   3.864   2.257   6.371
 5420SOL     OW17158   2.516   1.444   1.093
 5420SOL    HW117159   2.420   1.434   1.065
 5420SOL    HW217160   2.525   1.423   1.190
 5421SOL     OW17161   4.308   5.140   1.702
 5421SOL    HW117162   4.337   5.116   1.610
 5421SOL    HW217163   4.223   5.193   1.697
 5422SOL     OW17164   2.325   6.961   2.717
 5422SOL    HW117165   2.343   6.901   2.796
 5422SOL    HW217166   2.412   6.991   2.678
 5423SOL     OW17167   4.281   0.028   2.375
 5423SOL    HW117168   4.338   7.008   2.444
 5423SOL    HW217169   4.186   7.020   2.386
 5424SOL     OW17170   3.589   3.348   4.923
 5424SOL    HW117171   3.607   3.263   4.972
 5424SOL    HW217172   3.523   3.332   4.850
 5425SOL     OW17173   1.122   5.103   5.137
 5425SOL    HW117174   1.189   5.108   5.063
 5425SOL    HW217175   1.050   5.039   5.112
 5426SOL     OW17176   1.104   4.557   0.441
 5426SOL    HW117177   1.091   4.535   0.344
 5426SOL    HW217178   1.162   4.638   0.449
 5427SOL     OW17179   4.639   1.853   0.236
 5427SOL    HW117180   4.684   1.942   0.224
 5427SOL    HW217181   4.631   1.833   0.334
 5428SOL     OW17182   4.572   5.645   2.869
 5428SOL    HW117183   4.613   5.656   2.959
 5428SOL    HW217184   4.597   5.556   2.831
 5429SOL     OW17185   2.610   6.625   3.657
 5429SOL    HW117186   2.609   6.625   3.757
 5429SOL    HW217187   2.529   6.672   3.622
 5430SOL     OW17188   0.924   4.394   5.429
 5430SOL    HW117189   0.828   4.394   5.402
 5430SOL    HW217190   0.939   4.460   5.502
 5431SOL     OW17191   5.129   4.372   1.333
 5431SOL    HW117192   5.035   4.362   1.365
 5431SOL    HW217193   5.191   4.332   1.401
 5432SOL     OW17194   0.457   5.090   5.949
 5432SOL    HW117195   0.508   5.137   5.878
 5432SOL    HW217196   0.515   5.019   5.990
 5433SOL     OW17197   2.666   0.215   1.243
 5433SOL    HW117198   2.764   0.233   1.252
 5433SOL    HW217199   2.652   0.120   1.213
 5434SOL     OW17200   5.297   5.732   4.275
 5434SOL    HW117201   5.305   5.671   4.196
 5434SOL    HW217202   5.202   5.732   4.308
 5435SOL     OW17203   6.350   3.615   6.921
 5435SOL    HW117204   6.411   3.596   6.844
 5435SOL    HW217205   6.329   3.712   6.925
 5436SOL     OW17206   1.210   4.652   1.219
 5436SOL    HW117207   1.206   4.743   1.178
 5436SOL    HW217208   1.181   4.583   1.153
 5437SOL     OW17209   3.914   6.438   6.392
 5437SOL    HW117210   3.828   6.487   6.382
 5437SOL    HW217211   3.940   6.397   6.304
 5438SOL     OW17212   5.405   6.799   2.660
 5438SOL    HW117213   5.306   6.795   2.646
 5438SOL    HW217214   5.451   6.749   2.587
 5439SOL     OW17215   1.571   3.919   1.381
 5439SOL    HW117216   1.661   3.881   1.402
 5439SOL    HW217217   1.500   3.859   1.419
 5440SOL     OW17218   6.378   6.859   4.358
 5440SOL    HW117219   6.326   6.906   4.429
 5440SOL    HW217220   6.396   6.764   4.386
 5441SOL     OW17221   5.424   0.986   5.076
 5441SOL    HW117222   5.508   0.963   5.126
 5441SOL    HW217223   5.380   1.065   5.118
 5442SOL     OW17224   2.718   0.727   6.499
 5442SOL    HW117225   2.744   0.817   6.466
 5442SOL    HW217226   2.777   0.700   6.575
 5443SOL     OW17227   5.756   0.892   3.569
 5443SOL    HW117228   5.849   0.901   3.603
 5443SOL    HW217229   5.733   0.795   3.560
 5444SOL     OW17230   0.915   1.534   6.040
 5444SOL    HW117231   0.958   1.458   5.991
 5444SOL    HW217232   0.943   1.532   6.136
 5445SOL     OW17233   5.632   6.663   4.724
 5445SOL    HW117234   5.714   6.643   4.671
 5445SOL    HW217235   5.551   6.636   4.671
 5446SOL     OW17236   2.216   5.080   6.056
 5446SOL    HW117237   2.272   5.029   5.991
 5446SOL    HW217238   2.140   5.023   6.087
 5447SOL     OW17239   6.474   2.034   1.444
 5447SOL    HW117240   6.382   2.025   1.483
 5447SOL    HW217241   6.534   1.965   1.486
 5448SOL     OW17242   6.076   4.759   1.621
 5448SOL    HW117243   6.060   4.697   1.545
 5448SOL    HW217244   6.160   4.811   1.605
 5449SOL     OW17245   2.220   0.299   2.386
 5449SOL    HW117246   2.207   0.226   2.319
 5449SOL    HW217247   2.266   0.261   2.467
 5450SOL     OW17248   4.705   5.849   2.147
 5450SOL    HW117249   4.631   5.879   2.087
 5450SOL    HW217250   4.687   5.757   2.180
 5451SOL     OW17251   0.753   5.955   4.028
 5451SOL    HW117252   0.662   5.987   4.000
 5451SOL    HW217253   0.779   6.000   4.113
 5452SOL     OW17254   2.091   3.973   2.936
 5452SOL    HW117255   2.050   3.954   2.847
 5452SOL    HW217256   2.104   3.888   2.986
 5453SOL     OW17257   5.977   4.652   4.233
 5453SOL    HW117258   6.077   4.651   4.241
 5453SOL    HW217259   5.945   4.745   4.216
 5454SOL     OW17260   5.891   3.700   2.092
 5454SOL    HW117261   5.885   3.615   2.145
 5454SOL    HW217262   5.948   3.685   2.011
 5455SOL     OW17263   2.527   2.122   3.407
 5455SOL    HW117264   2.498   2.212   3.437
 5455SOL    HW217265   2.514   2.056   3.481
 5456SOL     OW17266   4.924   2.748   0.853
 5456SOL    HW117267   4.954   2.778   0.763
 5456SOL    HW217268   4.958   2.656   0.871
 5457SOL     OW17269   6.827   1.652   0.270
 5457SOL    HW117270   6.777   1.565   0.269
 5457SOL    HW217271   6.926   1.633   0.271
 5458SOL     OW17272   6.328   5.032   5.827
 5458SOL    HW117273   6.318   4.959   5.896
 5458SOL    HW217274   6.347   4.991   5.738
 5459SOL     OW17275   2.546   3.662   5.342
 5459SOL    HW117276   2.456   3.705   5.355
 5459SOL    HW217277   2.612   3.730   5.311
 5460SOL     OW17278   0.269   0.796   1.625
 5460SOL    HW117279   0.225   0.807   1.715
 5460SOL    HW217280   0.353   0.851   1.623
 5461SOL     OW17281   5.729   1.397   6.577
 5461SOL    HW117282   5.719   1.436   6.486
 5461SOL    HW217283   5.704   1.301   6.576
 5462SOL     OW17284   5.013   5.391   6.625
 5462SOL    HW117285   5.033   5.436   6.712
 5462SOL    HW217286   5.032   5.294   6.633
 5463SOL     OW17287   2.307   5.557   6.609
 5463SOL    HW117288   2.293   5.638   6.666
 5463SOL    HW217289   2.226   5.498   6.615
 5464SOL     OW17290   1.964   5.420   4.172
 5464SOL    HW117291   1.943   5.418   4.270
 5464SOL    HW217292   2.008   5.507   4.149
 5465SOL     OW17293   0.911   0.745   4.888
 5465SOL    HW117294   0.887   0.771   4.795
 5465SOL    HW217295   0.955   0.655   4.887
 5466SOL     OW17296   4.749   2.358   5.059
 5466SOL    HW117297   4.834   2.328   5.102
 5466SOL    HW217298   4.756   2.347   4.960
 5467SOL     OW17299   5.655   3.848   4.333
 5467SOL    HW117300   5.568   3.847   4.284
 5467SOL    HW217301   5.650   3.916   4.406
 5468SOL     OW17302   0.451   3.031   1.459
 5468SOL    HW117303   0.482   3.123   1.435
 5468SOL    HW217304   0.424   3.029   1.556
 5469SOL     OW17305   4.416   1.636   3.724
 5469SOL    HW117306   4.445   1.543   3.748
 5469SOL    HW217307   4.496   1.696   3.722
 5470SOL     OW17308   2.672   4.800   4.038
 5470SOL    HW117309   2.581   4.835   4.017
 5470SOL    HW217310   2.739   4.840   3.976
 5471SOL     OW17311   5.410   0.587   3.486
 5471SOL    HW117312   5.426   0.660   3.552
 5471SOL    HW217313   5.347   0.520   3.526
 5472SOL     OW17314   2.594   4.006   6.929
 5472SOL    HW117315   2.505   4.023   6.972
 5472SOL    HW217316   2.639   3.929   6.976
 5473SOL     OW17317   2.765   4.697   2.263
 5473SOL    HW117318   2.826   4.724   2.337
 5473SOL    HW217319   2.808   4.624   2.209
 5474SOL     OW17320   0.882   4.977   1.574
 5474SOL    HW117321   0.842   5.014   1.490
 5474SOL    HW217322   0.823   4.998   1.652
 5475SOL     OW17323   0.446   0.749   5.283
 5475SOL    HW117324   0.367   0.690   5.299
 5475SOL    HW217325   0.530   0.696   5.298
 5476SOL     OW17326   2.043   0.962   5.079
 5476SOL    HW117327   2.047   0.893   5.151
 5476SOL    HW217328   2.123   0.953   5.020
 5477SOL     OW17329   1.970   3.753   3.088
 5477SOL    HW117330   1.894   3.782   3.147
 5477SOL    HW217331   1.935   3.733   2.997
 5478SOL     OW17332   6.264   3.480   5.986
 5478SOL    HW117333   6.271   3.517   5.893
 5478SOL    HW217334   6.351   3.440   6.012
 5479SOL     OW17335   4.856   3.312   3.820
 5479SOL    HW117336   4.823   3.234   3.872
 5479SOL    HW217337   4.870   3.390   3.881
 5480SOL     OW17338   1.213   3.206   5.014
 5480SOL    HW117339   1.275   3.282   4.994
 5480SOL    HW217340   1.266   3.123   5.032
 5481SOL     OW17341   4.410   1.188   0.256
 5481SOL    HW117342   4.475   1.121   0.293
 5481SOL    HW217343   4.424   1.276   0.302
 5482SOL     OW17344   5.023   4.518   2.647
 5482SOL    HW117345   4.949   4.566   2.695
 5482SOL    HW217346   5.005   4.419   2.650
 5483SOL     OW17347   6.028   1.766   0.413
 5483SOL    HW117348   6.027   1.813   0.502
 5483SOL    HW217349   6.122   1.758   0.381
 5484SOL     OW17350   6.290   0.446   5.290
 5484SOL    HW117351   6.340   0.465   5.205
 5484SOL    HW217352   6.203   0.402   5.269
 5485SOL     OW17353   2.884   0.908   4.073
 5485SOL    HW117354   2.955   0.978   4.074
 5485SOL    HW217355   2.894   0.851   3.992
 5486SOL     OW17356   0.802   0.288   3.860
 5486SOL    HW117357   0.766   0.348   3.789
 5486SOL    HW217358   0.739   0.212   3.875
 5487SOL     OW17359   4.908   5.266   1.159
 5487SOL    HW117360   4.842   5.304   1.095
 5487SOL    HW217361   4.860   5.216   1.231
 5488SOL     OW17362   5.196   0.864   6.039
 5488SOL    HW117363   5.185   0.931   6.113
 5488SOL    HW217364   5.106   0.833   6.009
 5489SOL     OW17365   7.017   3.639   2.385
 5489SOL    HW117366   6.995   3.558   2.331
 5489SOL    HW217367   0.092   3.655   2.383
 5490SOL     OW17368   2.906   1.772   6.530
 5490SOL    HW117369   2.903   1.860   6.577
 5490SOL    HW217370   2.823   1.720   6.549
 5491SOL     OW17371   6.851   5.488   2.880
 5491SOL    HW117372   6.881   5.513   2.972
 5491SOL    HW217373   6.769   5.540   2.857
 5492SOL     OW17374   0.942   1.045   4.897
 5492SOL    HW117375   0.899   0.954   4.891
 5492SOL    HW217376   0.946   1.086   4.806
 5493SOL     OW17377   3.850   1.852   0.924
 5493SOL    HW117378   3.754   1.828   0.939
 5493SOL    HW217379   3.880   1.818   0.835
 5494SOL     OW17380   4.994   3.129   2.559
 5494SOL    HW117381   5.082   3.081   2.561
 5494SOL    HW217382   4.970   3.151   2.465
 5495SOL     OW17383   3.762   2.896   3.789
 5495SOL    HW117384   3.682   2.871   3.735
 5495SOL    HW217385   3.734   2.911   3.884
 5496SOL     OW17386   5.009   5.696   1.795
 5496SOL    HW117387   4.916   5.658   1.795
 5496SOL    HW217388   5.039   5.708   1.890
 5497SOL     OW17389   5.658   0.320   0.443
 5497SOL    HW117390   5.694   0.289   0.355
 5497SOL    HW217391   5.702   0.405   0.469
 5498SOL     OW17392   4.538   1.570   4.344
 5498SOL    HW117393   4.537   1.480   4.387
 5498SOL    HW217394   4.466   1.627   4.384
 5499SOL     OW17395   0.159   0.780   5.004
 5499SOL    HW117396   0.075   0.729   4.983
 5499SOL    HW217397   0.144   0.839   5.083
 5500SOL     OW17398   2.406   6.383   0.883
 5500SOL    HW117399   2.331   6.371   0.949
 5500SOL    HW217400   2.489   6.342   0.920
 5501SOL     OW17401   3.379   0.423   2.603
 5501SOL    HW117402   3.288   0.420   2.644
 5501SOL    HW217403   3.372   0.422   2.503
 5502SOL     OW17404   4.522   3.528   0.720
 5502SOL    HW117405   4.613   3.488   0.726
 5502SOL    HW217406   4.510   3.596   0.792
 5503SOL     OW17407   0.027   0.047   3.797
 5503SOL    HW117408   0.023   0.135   3.750
 5503SOL    HW217409   6.966   0.033   3.850
 5504SOL     OW17410   2.880   2.265   4.531
 5504SOL    HW117411   2.863   2.268   4.432
 5504SOL    HW217412   2.978   2.254   4.547
 5505SOL     OW17413   3.302   4.623   1.056
 5505SOL    HW117414   3.259   4.672   1.131
 5505SOL    HW217415   3.274   4.663   0.969
 5506SOL     OW17416   0.363   6.708   5.686
 5506SOL    HW117417   0.410   6.747   5.608
 5506SOL    HW217418   0.429   6.679   5.755
 5507SOL     OW17419   3.130   4.941   5.298
 5507SOL    HW117420   3.035   4.953   5.328
 5507SOL    HW217421   3.143   4.847   5.266
 5508SOL     OW17422   1.447   0.683   5.540
 5508SOL    HW117423   1.400   0.612   5.594
 5508SOL    HW217424   1.450   0.655   5.444
 5509SOL     OW17425   6.650   0.279   6.615
 5509SOL    HW117426   6.571   0.335   6.640
 5509SOL    HW217427   6.713   0.273   6.692
 5510SOL     OW17428   6.653   0.415   6.355
 5510SOL    HW117429   6.657   0.363   6.440
 5510SOL    HW217430   6.573   0.476   6.356
 5511SOL     OW17431   0.114   2.901   1.543
 5511SOL    HW117432   0.190   2.943   1.493
 5511SOL    HW217433   0.063   2.972   1.592
 5512SOL     OW17434   6.186   0.647   0.449
 5512SOL    HW117435   6.203   0.723   0.387
 5512SOL    HW217436   6.115   0.588   0.410
 5513SOL     OW17437   2.462   5.957   4.697
 5513SOL    HW117438   2.539   5.914   4.744
 5513SOL    HW217439   2.480   6.055   4.687
 5514SOL     OW17440   6.063   5.833   3.569
 5514SOL    HW117441   6.118   5.914   3.550
 5514SOL    HW217442   6.045   5.785   3.483
 5515SOL     OW17443   0.025   4.145   3.029
 5515SOL    HW117444   0.081   4.153   2.946
 5515SOL    HW217445   0.066   4.079   3.091
 5516SOL     OW17446   0.946   2.511   0.289
 5516SOL    HW117447   0.950   2.581   0.218
 5516SOL    HW217448   0.982   2.425   0.253
 5517SOL     OW17449   2.686   1.083   2.590
 5517SOL    HW117450   2.768   1.036   2.559
 5517SOL    HW217451   2.612   1.017   2.601
 5518SOL     OW17452   5.336   4.111   5.476
 5518SOL    HW117453   5.406   4.143   5.539
 5518SOL    HW217454   5.378   4.091   5.387
 5519SOL     OW17455   5.523   4.122   2.386
 5519SOL    HW117456   5.620   4.141   2.404
 5519SOL    HW217457   5.482   4.081   2.468
 5520SOL     OW17458   1.488   2.602   1.115
 5520SOL    HW117459   1.451   2.583   1.024
 5520SOL    HW217460   1.539   2.687   1.114
 5521SOL     OW17461   5.253   5.060   0.206
 5521SOL    HW117462   5.317   5.136   0.215
 5521SOL    HW217463   5.180   5.070   0.274
 5522SOL     OW17464   1.993   2.402   2.065
 5522SOL    HW117465   1.988   2.473   2.135
 5522SOL    HW217466   1.937   2.324   2.093
 5523SOL     OW17467   3.084   6.760   1.637
 5523SOL    HW117468   3.090   6.754   1.737
 5523SOL    HW217469   3.154   6.822   1.603
 5524SOL     OW17470   6.182   6.774   5.805
 5524SOL    HW117471   6.220   6.685   5.776
 5524SOL    HW217472   6.191   6.839   5.730
 5525SOL     OW17473   6.275   5.948   3.132
 5525SOL    HW117474   6.281   5.892   3.215
 5525SOL    HW217475   6.257   5.889   3.053
 5526SOL     OW17476   5.003   2.857   4.916
 5526SOL    HW117477   4.937   2.932   4.919
 5526SOL    HW217478   4.989   2.798   4.996
 5527SOL     OW17479   1.910   3.416   0.152
 5527SOL    HW117480   1.915   3.330   0.100
 5527SOL    HW217481   1.908   3.493   0.088
 5528SOL     OW17482   6.634   3.130   2.718
 5528SOL    HW117483   6.598   3.065   2.651
 5528SOL    HW217484   6.607   3.101   2.810
 5529SOL     OW17485   1.308   0.884   3.874
 5529SOL    HW117486   1.352   0.800   3.842
 5529SOL    HW217487   1.268   0.932   3.796
 5530SOL     OW17488   6.320   2.886   6.959
 5530SOL    HW117489   6.350   2.931   0.019
 5530SOL    HW217490   6.260   2.948   6.907
 5531SOL     OW17491   1.699   3.031   0.139
 5531SOL    HW117492   1.671   2.946   0.183
 5531SOL    HW217493   1.657   3.108   0.186
 5532SOL     OW17494   2.327   2.291   1.002
 5532SOL    HW117495   2.413   2.261   1.043
 5532SOL    HW217496   2.297   2.375   1.046
 5533SOL     OW17497   3.838   0.317   1.076
 5533SOL    HW117498   3.793   0.279   1.157
 5533SOL    HW217499   3.770   0.359   1.017
 5534SOL     OW17500   0.422   3.926   5.363
 5534SOL    HW117501   0.330   3.959   5.344
 5534SOL    HW217502   0.436   3.919   5.462
 5535SOL     OW17503   5.513   3.731   3.415
 5535SOL    HW117504   5.466   3.750   3.329
 5535SOL    HW217505   5.455   3.758   3.492
 5536SOL     OW17506   2.512   0.810   4.258
 5536SOL    HW117507   2.480   0.786   4.166
 5536SOL    HW217508   2.496   0.907   4.274
 5537SOL     OW17509   3.917   0.840   4.802
 5537SOL    HW117510   3.878   0.814   4.890
 5537SOL    HW217511   4.013   0.863   4.813
 5538SOL     OW17512   5.657   2.224   2.424
 5538SOL    HW117513   5.586   2.197   2.360
 5538SOL    HW217514   5.732   2.158   2.420
 5539SOL     OW17515   2.621   0.250   6.578
 5539SOL    HW117516   2.695   0.218   6.637
 5539SOL    HW217517   2.571   0.323   6.624
 5540SOL     OW17518   5.570   6.666   5.273
 5540SOL    HW117519   5.504   6.647   5.202
 5540SOL    HW217520   5.649   6.714   5.234
 5541SOL     OW17521   4.669   2.877   0.122
 5541SOL    HW117522   4.660   2.967   0.166
 5541SOL    HW217523   4.594   2.818   0.152
 5542SOL     OW17524   5.055   4.389   0.203
 5542SOL    HW117525   5.014   4.311   0.250
 5542SOL    HW217526   5.015   4.474   0.237
 5543SOL     OW17527   1.070   0.296   6.699
 5543SOL    HW117528   1.145   0.348   6.657
 5543SOL    HW217529   1.108   0.215   6.745
 5544SOL     OW17530   3.933   5.025   0.811
 5544SOL    HW117531   3.868   5.097   0.836
 5544SOL    HW217532   3.973   5.045   0.722
 5545SOL     OW17533   5.397   1.255   3.151
 5545SOL    HW117534   5.388   1.347   3.114
 5545SOL    HW217535   5.310   1.227   3.193
 5546SOL     OW17536   0.129   5.416   4.586
 5546SOL    HW117537   0.208   5.416   4.525
 5546SOL    HW217538   0.135   5.337   4.648
 5547SOL     OW17539   5.156   1.639   4.818
 5547SOL    HW117540   5.143   1.586   4.735
 5547SOL    HW217541   5.209   1.722   4.798
 5548SOL     OW17542   0.344   4.057   5.056
 5548SOL    HW117543   0.278   4.063   4.980
 5548SOL    HW217544   0.426   4.011   5.025
 5549SOL     OW17545   3.427   3.017   0.536
 5549SOL    HW117546   3.511   2.963   0.545
 5549SOL    HW217547   3.436   3.079   0.458
 5550SOL     OW17548   2.434   4.134   1.523
 5550SOL    HW117549   2.414   4.145   1.426
 5550SOL    HW217550   2.417   4.220   1.571
 5551SOL     OW17551   1.680   4.847   2.578
 5551SOL    HW117552   1.593   4.798   2.569
 5551SOL    HW217553   1.681   4.897   2.665
 5552SOL     OW17554   1.052   0.006   0.131
 5552SOL    HW117555   1.130   6.970   0.114
 5552SOL    HW217556   1.043   0.071   0.055
 5553SOL     OW17557   5.315   0.579   6.691
 5553SOL    HW117558   5.297   0.607   6.785
 5553SOL    HW217559   5.381   0.504   6.690
 5554SOL     OW17560   6.769   2.457   1.625
 5554SOL    HW117561   6.787   2.358   1.619
 5554SOL    HW217562   6.703   2.475   1.697
 5555SOL     OW17563   1.117   5.280   1.845
 5555SOL    HW117564   1.123   5.378   1.828
 5555SOL    HW217565   1.159   5.231   1.768
 5556SOL     OW17566   0.374   0.978   4.801
 5556SOL    HW117567   0.362   0.978   4.900
 5556SOL    HW217568   0.472   0.979   4.779
 5557SOL     OW17569   3.648   6.002   2.595
 5557SOL    HW117570   3.665   5.930   2.661
 5557SOL    HW217571   3.732   6.055   2.582
 5558SOL     OW17572   4.607   3.915   6.611
 5558SOL    HW117573   4.578   4.009   6.628
 5558SOL    HW217574   4.527   3.855   6.609
 5559SOL     OW17575   3.663   0.885   2.444
 5559SOL    HW117576   3.744   0.936   2.415
 5559SOL    HW217577   3.688   0.818   2.513
 5560SOL     OW17578   0.095   5.220   3.648
 5560SOL    HW117579   0.038   5.271   3.713
 5560SOL    HW217580   0.182   5.268   3.635
 5561SOL     OW17581   3.624   0.109   3.661
 5561SOL    HW117582   3.673   0.022   3.668
 5561SOL    HW217583   3.628   0.157   3.749
 5562SOL     OW17584   3.662   3.559   0.458
 5562SOL    HW117585   3.713   3.584   0.376
 5562SOL    HW217586   3.725   3.517   0.524
 5563SOL     OW17587   2.500   4.656   2.258
 5563SOL    HW117588   2.597   4.652   2.280
 5563SOL    HW217589   2.481   4.596   2.181
 5564SOL     OW17590   4.697   7.021   6.269
 5564SOL    HW117591   4.688   0.094   6.293
 5564SOL    HW217592   4.634   6.966   6.324
 5565SOL     OW17593   3.955   1.606   5.977
 5565SOL    HW117594   4.011   1.539   5.930
 5565SOL    HW217595   3.943   1.578   6.073
 5566SOL     OW17596   1.114   4.871   5.851
 5566SOL    HW117597   1.081   4.955   5.809
 5566SOL    HW217598   1.072   4.859   5.941
 5567SOL     OW17599   0.325   4.757   0.438
 5567SOL    HW117600   0.355   4.708   0.356
 5567SOL    HW217601   0.227   4.775   0.432
 5568SOL     OW17602   4.735   4.910   1.529
 5568SOL    HW117603   4.698   4.905   1.622
 5568SOL    HW217604   4.659   4.911   1.464
 5569SOL     OW17605   2.399   2.635   2.942
 5569SOL    HW117606   2.442   2.607   3.027
 5569SOL    HW217607   2.351   2.722   2.956
 5570SOL     OW17608   6.688   3.686   1.291
 5570SOL    HW117609   6.604   3.689   1.346
 5570SOL    HW217610   6.678   3.618   1.218
 5571SOL     OW17611   6.550   4.729   1.074
 5571SOL    HW117612   6.462   4.731   1.026
 5571SOL    HW217613   6.535   4.718   1.172
 5572SOL     OW17614   1.754   4.205   5.019
 5572SOL    HW117615   1.762   4.261   4.937
 5572SOL    HW217616   1.657   4.192   5.040
 5573SOL     OW17617   3.226   5.283   4.233
 5573SOL    HW117618   3.261   5.265   4.141
 5573SOL    HW217619   3.133   5.247   4.241
 5574SOL     OW17620   1.052   1.661   5.130
 5574SOL    HW117621   1.089   1.754   5.127
 5574SOL    HW217622   1.025   1.638   5.224
 5575SOL     OW17623   0.218   0.094   1.633
 5575SOL    HW117624   0.150   0.117   1.702
 5575SOL    HW217625   0.282   0.026   1.671
 5576SOL     OW17626   1.780   5.036   3.376
 5576SOL    HW117627   1.774   4.937   3.363
 5576SOL    HW217628   1.695   5.071   3.414
 5577SOL     OW17629   1.796   3.200   6.249
 5577SOL    HW117630   1.764   3.168   6.160
 5577SOL    HW217631   1.875   3.261   6.236
 5578SOL     OW17632   3.531   4.106   3.612
 5578SOL    HW117633   3.590   4.056   3.675
 5578SOL    HW217634   3.497   4.189   3.657
 5579SOL     OW17635   6.741   2.891   2.287
 5579SOL    HW117636   6.750   2.977   2.238
 5579SOL    HW217637   6.747   2.815   2.223
 5580SOL     OW17638   5.472   2.235   5.530
 5580SOL    HW117639   5.487   2.297   5.453
 5580SOL    HW217640   5.490   2.141   5.502
 5581SOL     OW17641   1.188   2.373   6.357
 5581SOL    HW117642   1.134   2.456   6.342
 5581SOL    HW217643   1.272   2.396   6.406
 5582SOL     OW17644   3.030   2.649   6.087
 5582SOL    HW117645   2.989   2.737   6.111
 5582SOL    HW217646   3.098   2.663   6.015
 5583SOL     OW17647   5.704   0.261   0.881
 5583SOL    HW117648   5.687   0.359   0.895
 5583SOL    HW217649   5.685   0.211   0.965
 5584SOL     OW17650   1.731   3.208   4.462
 5584SOL    HW117651   1.721   3.290   4.517
 5584SOL    HW217652   1.787   3.229   4.381
 5585SOL     OW17653   5.445   4.967   1.597
 5585SOL    HW117654   5.540   4.996   1.587
 5585SOL    HW217655   5.395   5.034   1.651
 5586SOL     OW17656   0.635   4.811   0.658
 5586SOL    HW117657   0.705   4.813   0.586
 5586SOL    HW217658   0.557   4.756   0.626
 5587SOL     OW17659   6.424   0.885   6.124
 5587SOL    HW117660   6.447   0.982   6.115
 5587SOL    HW217661   6.473   0.847   6.202
 5588SOL     OW17662   3.522   6.746   1.076
 5588SOL    HW117663   3.571   6.809   1.016
 5588SOL    HW217664   3.445   6.706   1.027
 5589SOL     OW17665   6.494   4.758   6.107
 5589SOL    HW117666   6.466   4.677   6.157
 5589SOL    HW217667   6.547   4.818   6.167
 5590SOL     OW17668   6.082   5.565   2.810
 5590SOL    HW117669   6.046   5.475   2.783
 5590SOL    HW217670   6.124   5.558   2.900
 5591SOL     OW17671   5.256   1.329   1.782
 5591SOL    HW117672   5.319   1.309   1.857
 5591SOL    HW217673   5.257   1.254   1.716
 5592SOL     OW17674   0.594   4.572   3.015
 5592SOL    HW117675   0.682   4.597   3.056
 5592SOL    HW217676   0.522   4.632   3.049
 5593SOL     OW17677   0.643   3.706   0.436
 5593SOL    HW117678   0.570   3.679   0.373
 5593SOL    HW217679   0.648   3.641   0.511
 5594SOL     OW17680   6.304   1.826   5.656
 5594SOL    HW117681   6.350   1.805   5.742
 5594SOL    HW217682   6.327   1.757   5.588
 5595SOL     OW17683   0.491   2.325   0.358
 5595SOL    HW117684   0.547   2.381   0.296
 5595SOL    HW217685   0.415   2.379   0.393
 5596SOL     OW17686   3.218   5.825   3.568
 5596SOL    HW117687   3.125   5.820   3.604
 5596SOL    HW217688   3.277   5.762   3.619
 5597SOL     OW17689   4.920   3.426   1.960
 5597SOL    HW117690   4.879   3.405   1.871
 5597SOL    HW217691   4.849   3.426   2.030
 5598SOL     OW17692   5.078   0.828   5.247
 5598SOL    HW117693   5.042   0.920   5.232
 5598SOL    HW217694   5.167   0.834   5.293
 5599SOL     OW17695   0.955   0.739   3.305
 5599SOL    HW117696   1.053   0.721   3.306
 5599SOL    HW217697   0.908   0.663   3.260
 5600SOL     OW17698   1.709   2.498   5.045
 5600SOL    HW117699   1.659   2.585   5.042
 5600SOL    HW217700   1.794   2.506   4.993
 5601SOL     OW17701   2.327   1.138   6.185
 5601SOL    HW117702   2.318   1.099   6.277
 5601SOL    HW217703   2.301   1.234   6.186
 5602SOL     OW17704   1.568   0.699   0.139
 5602SOL    HW117705   1.610   0.630   0.197
 5602SOL    HW217706   1.633   0.726   0.068
 5603SOL     OW17707   5.928   4.268   5.479
 5603SOL    HW117708   5.981   4.334   5.426
 5603SOL    HW217709   5.967   4.176   5.466
 5604SOL     OW17710   5.988   1.538   6.103
 5604SOL    HW117711   6.024   1.487   6.181
 5604SOL    HW217712   5.944   1.475   6.039
 5605SOL     OW17713   1.019   2.070   6.699
 5605SOL    HW117714   1.071   2.108   6.623
 5605SOL    HW217715   0.965   2.143   6.742
 5606SOL     OW17716   5.770   6.921   2.788
 5606SOL    HW117717   5.700   6.930   2.718
 5606SOL    HW217718   5.837   6.995   2.778
 5607SOL     OW17719   5.860   0.489   1.239
 5607SOL    HW117720   5.865   0.389   1.247
 5607SOL    HW217721   5.938   0.522   1.185
 5608SOL     OW17722   4.099   6.164   5.468
 5608SOL    HW117723   4.038   6.134   5.541
 5608SOL    HW217724   4.184   6.112   5.471
 5609SOL     OW17725   1.225   5.685   5.697
 5609SOL    HW117726   1.272   5.763   5.657
 5609SOL    HW217727   1.194   5.624   5.624
 5610SOL     OW17728   4.429   0.541   6.236
 5610SOL    HW117729   4.500   0.558   6.303
 5610SOL    HW217730   4.381   0.626   6.215
 5611SOL     OW17731   2.046   4.148   4.292
 5611SOL    HW117732   2.129   4.118   4.245
 5611SOL    HW217733   1.971   4.153   4.226
 5612SOL     OW17734   3.060   6.701   4.602
 5612SOL    HW117735   3.042   6.704   4.701
 5612SOL    HW217736   3.141   6.646   4.584
 5613SOL     OW17737   3.677   5.521   1.401
 5613SOL    HW117738   3.592   5.478   1.432
 5613SOL    HW217739   3.733   5.545   1.480
 5614SOL     OW17740   5.008   2.040   4.125
 5614SOL    HW117741   4.932   1.994   4.172
 5614SOL    HW217742   5.020   2.000   4.034
 5615SOL     OW17743   1.740   1.224   1.558
 5615SOL    HW117744   1.766   1.147   1.500
 5615SOL    HW217745   1.762   1.203   1.653
 5616SOL     OW17746   1.838   0.182   4.892
 5616SOL    HW117747   1.927   0.138   4.895
 5616SOL    HW217748   1.774   0.124   4.841
 5617SOL     OW17749   0.857   0.609   5.308
 5617SOL    HW117750   0.953   0.586   5.292
 5617SOL    HW217751   0.851   0.680   5.377
 5618SOL     OW17752   6.338   4.943   3.013
 5618SOL    HW117753   6.379   4.996   3.087
 5618SOL    HW217754   6.260   4.892   3.049
 5619SOL     OW17755   2.156   3.737   5.094
 5619SOL    HW117756   2.199   3.827   5.094
 5619SOL    HW217757   2.107   3.724   5.008
 5620SOL     OW17758   4.187   1.452   7.014
 5620SOL    HW117759   4.092   1.477   6.998
 5620SOL    HW217760   4.233   1.525   0.041
 5621SOL     OW17761   2.567   1.590   6.843
 5621SOL    HW117762   2.519   1.671   6.809
 5621SOL    HW217763   2.508   1.510   6.834
 5622SOL     OW17764   5.316   0.784   5.373
 5622SOL    HW117765   5.338   0.692   5.341
 5622SOL    HW217766   5.389   0.817   5.433
 5623SOL     OW17767   0.683   6.183   0.281
 5623SOL    HW117768   0.621   6.248   0.326
 5623SOL    HW217769   0.630   6.106   0.245
 5624SOL     OW17770   0.456   3.930   2.053
 5624SOL    HW117771   0.515   3.945   1.974
 5624SOL    HW217772   0.360   3.930   2.024
 5625SOL     OW17773   6.282   2.262   5.422
 5625SOL    HW117774   6.339   2.252   5.503
 5625SOL    HW217775   6.237   2.175   5.401
 5626SOL     OW17776   5.120   6.238   4.040
 5626SOL    HW117777   5.198   6.252   4.101
 5626SOL    HW217778   5.056   6.173   4.081
 5627SOL     OW17779   1.112   6.761   1.033
 5627SOL    HW117780   1.126   6.775   1.131
 5627SOL    HW217781   1.184   6.701   0.997
 5628SOL     OW17782   1.523   1.274   4.217
 5628SOL    HW117783   1.579   1.299   4.138
 5628SOL    HW217784   1.578   1.221   4.281
 5629SOL     OW17785   3.797   3.050   3.479
 5629SOL    HW117786   3.800   3.012   3.572
 5629SOL    HW217787   3.887   3.039   3.436
 5630SOL     OW17788   6.401   4.282   1.431
 5630SOL    HW117789   6.415   4.210   1.363
 5630SOL    HW217790   6.489   4.305   1.474
 5631SOL     OW17791   5.365   1.482   5.987
 5631SOL    HW117792   5.292   1.537   6.029
 5631SOL    HW217793   5.326   1.426   5.914
 5632SOL     OW17794   2.796   2.387   6.878
 5632SOL    HW117795   2.836   2.441   6.953
 5632SOL    HW217796   2.722   2.439   6.836
 5633SOL     OW17797   0.104   3.051   5.499
 5633SOL    HW117798   0.187   3.057   5.444
 5633SOL    HW217799   0.058   2.963   5.482
 5634SOL     OW17800   5.004   5.907   4.596
 5634SOL    HW117801   5.030   5.822   4.642
 5634SOL    HW217802   5.068   5.927   4.522
 5635SOL     OW17803   3.472   1.592   5.784
 5635SOL    HW117804   3.484   1.505   5.736
 5635SOL    HW217805   3.540   1.599   5.857
 5636SOL     OW17806   4.052   6.438   4.611
 5636SOL    HW117807   4.103   6.378   4.551
 5636SOL    HW217808   4.066   6.410   4.706
 5637SOL     OW17809   6.245   0.389   3.251
 5637SOL    HW117810   6.321   0.349   3.199
 5637SOL    HW217811   6.282   0.445   3.325
 5638SOL     OW17812   6.167   3.621   0.169
 5638SOL    HW117813   6.122   3.605   0.081
 5638SOL    HW217814   6.126   3.561   0.238
 5639SOL     OW17815   4.195   0.282   0.077
 5639SOL    HW117816   4.263   0.210   0.064
 5639SOL    HW217817   4.124   0.273   0.007
 5640SOL     OW17818   1.805   0.238   3.028
 5640SOL    HW117819   1.714   0.271   3.005
 5640SOL    HW217820   1.805   0.204   3.123
 5641SOL     OW17821   6.450   5.880   4.194
 5641SOL    HW117822   6.470   5.793   4.239
 5641SOL    HW217823   6.535   5.921   4.161
 5642SOL     OW17824   1.995   2.057   0.209
 5642SOL    HW117825   1.898   2.073   0.192
 5642SOL    HW217826   2.050   2.109   0.143
 5643SOL     OW17827   5.415   1.721   6.423
 5643SOL    HW117828   5.348   1.762   6.361
 5643SOL    HW217829   5.507   1.739   6.388
 5644SOL     OW17830   2.590   1.036   6.139
 5644SOL    HW117831   2.605   0.966   6.069
 5644SOL    HW217832   2.492   1.057   6.144
 5645SOL     OW17833   5.531   3.685   4.785
 5645SOL    HW117834   5.551   3.652   4.692
 5645SOL    HW217835   5.440   3.727   4.787
 5646SOL     OW17836   1.085   4.021   2.758
 5646SOL    HW117837   1.171   4.069   2.739
 5646SOL    HW217838   1.058   3.969   2.677
 5647SOL     OW17839   5.820   6.640   2.732
 5647SOL    HW117840   5.729   6.642   2.772
 5647SOL    HW217841   5.823   6.700   2.652
 5648SOL     OW17842   4.949   5.928   3.594
 5648SOL    HW117843   4.953   5.828   3.596
 5648SOL    HW217844   4.968   5.964   3.685
 5649SOL     OW17845   0.828   6.814   4.329
 5649SOL    HW117846   0.909   6.828   4.387
 5649SOL    HW217847   0.764   6.753   4.376
 5650SOL     OW17848   6.725   4.111   6.168
 5650SOL    HW117849   6.738   4.052   6.089
 5650SOL    HW217850   6.645   4.170   6.154
 5651SOL     OW17851   2.858   1.210   0.327
 5651SOL    HW117852   2.814   1.251   0.247
 5651SOL    HW217853   2.873   1.280   0.396
 5652SOL     OW17854   0.258   5.863   2.766
 5652SOL    HW117855   0.296   5.771   2.756
 5652SOL    HW217856   0.295   5.922   2.693
 5653SOL     OW17857   0.212   0.266   2.764
 5653SOL    HW117858   0.199   0.364   2.780
 5653SOL    HW217859   0.309   0.245   2.756
 5654SOL     OW17860   2.902   5.964   5.276
 5654SOL    HW117861   2.980   5.909   5.246
 5654SOL    HW217862   2.935   6.047   5.320
 5655SOL     OW17863   5.235   2.584   5.195
 5655SOL    HW117864   5.294   2.656   5.158
 5655SOL    HW217865   5.173   2.623   5.264
 5656SOL     OW17866   6.995   3.623   0.349
 5656SOL    HW117867   6.992   3.594   0.445
 5656SOL    HW217868   6.944   3.558   0.293
 5657SOL     OW17869   5.079   5.702   4.767
 5657SOL    HW117870   5.143   5.779   4.774
 5657SOL    HW217871   5.042   5.682   4.858
 5658SOL     OW17872   2.557   3.122   5.778
 5658SOL    HW117873   2.529   3.158   5.689
 5658SOL    HW217874   2.653   3.144   5.793
 5659SOL     OW17875   2.177   4.213   6.900
 5659SOL    HW117876   2.124   4.195   6.818
 5659SOL    HW217877   2.152   4.302   6.938
 5660SOL     OW17878   3.918   6.760   5.175
 5660SOL    HW117879   3.888   6.700   5.250
 5660SOL    HW217880   3.878   6.851   5.187
 5661SOL     OW17881   0.706   5.902   5.881
 5661SOL    HW117882   0.637   5.941   5.943
 5661SOL    HW217883   0.665   5.828   5.828
 5662SOL     OW17884   3.383   6.627   0.727
 5662SOL    HW117885   3.358   6.664   0.816
 5662SOL    HW217886   3.302   6.586   0.684
 5663SOL     OW17887   1.822   3.469   5.929
 5663SOL    HW117888   1.821   3.370   5.941
 5663SOL    HW217889   1.773   3.513   6.004
 5664SOL     OW17890   4.713   5.168   4.361
 5664SOL    HW117891   4.639   5.137   4.420
 5664SOL    HW217892   4.682   5.248   4.308
 5665SOL     OW17893   1.843   1.607   0.739
 5665SOL    HW117894   1.896   1.525   0.760
 5665SOL    HW217895   1.749   1.595   0.772
 5666SOL     OW17896   5.618   2.501   5.120
 5666SOL    HW117897   5.542   2.494   5.185
 5666SOL    HW217898   5.663   2.590   5.129
 5667SOL     OW17899   2.692   4.778   4.303
 5667SOL    HW117900   2.697   4.769   4.204
 5667SOL    HW217901   2.612   4.730   4.337
 5668SOL     OW17902   4.708   4.211   4.130
 5668SOL    HW117903   4.791   4.229   4.183
 5668SOL    HW217904   4.700   4.113   4.112
 5669SOL     OW17905   5.469   4.495   6.119
 5669SOL    HW117906   5.569   4.489   6.121
 5669SOL    HW217907   5.440   4.534   6.031
 5670SOL     OW17908   1.589   2.633   3.999
 5670SOL    HW117909   1.648   2.671   3.928
 5670SOL    HW217910   1.582   2.534   3.986
 5671SOL     OW17911   6.727   5.206   3.153
 5671SOL    HW117912   6.667   5.181   3.077
 5671SOL    HW217913   6.823   5.197   3.125
 5672SOL     OW17914   5.114   3.066   5.072
 5672SOL    HW117915   5.075   3.154   5.100
 5672SOL    HW217916   5.141   3.071   4.976
 5673SOL     OW17917   1.023   2.147   0.399
 5673SOL    HW117918   1.104   2.190   0.439
 5673SOL    HW217919   1.024   2.161   0.300
 5674SOL     OW17920   2.359   5.120   5.027
 5674SOL    HW117921   2.338   5.070   4.943
 5674SOL    HW217922   2.458   5.132   5.035
 5675SOL     OW17923   3.046   2.548   0.808
 5675SOL    HW117924   2.947   2.551   0.819
 5675SOL    HW217925   3.076   2.452   0.804
 5676SOL     OW17926   3.416   1.276   2.025
 5676SOL    HW117927   3.384   1.220   2.101
 5676SOL    HW217928   3.340   1.329   1.988
 5677SOL     OW17929   0.389   1.658   6.328
 5677SOL    HW117930   0.410   1.597   6.404
 5677SOL    HW217931   0.435   1.746   6.341
 5678SOL     OW17932   3.596   2.099   2.248
 5678SOL    HW117933   3.497   2.113   2.253
 5678SOL    HW217934   3.633   2.153   2.172
 5679SOL     OW17935   0.003   4.024   5.480
 5679SOL    HW117936   0.043   4.081   5.408
 5679SOL    HW217937   0.067   3.951   5.503
 5680SOL     OW17938   0.343   5.572   4.967
 5680SOL    HW117939   0.380   5.538   4.881
 5680SOL    HW217940   0.414   5.621   5.017
 5681SOL     OW17941   1.491   3.614   3.564
 5681SOL    HW117942   1.478   3.709   3.536
 5681SOL    HW217943   1.559   3.570   3.505
 5682SOL     OW17944   2.051   4.647   1.237
 5682SOL    HW117945   2.030   4.727   1.182
 5682SOL    HW217946   1.971   4.621   1.291
 5683SOL     OW17947   6.886   0.503   6.283
 5683SOL    HW117948   6.794   0.466   6.295
 5683SOL    HW217949   6.881   0.589   6.233
 5684SOL     OW17950   2.198   3.106   4.890
 5684SOL    HW117951   2.264   3.082   4.960
 5684SOL    HW217952   2.215   3.050   4.808
 5685SOL     OW17953   2.623   1.544   2.332
 5685SOL    HW117954   2.606   1.643   2.327
 5685SOL    HW217955   2.541   1.497   2.365
 5686SOL     OW17956   5.455   5.614   6.281
 5686SOL    HW117957   5.481   5.696   6.230
 5686SOL    HW217958   5.425   5.543   6.217
 5687SOL     OW17959   2.405   7.014   6.062
 5687SOL    HW117960   2.362   0.037   6.140
 5687SOL    HW217961   2.362   6.926   6.048
 5688SOL     OW17962   1.916   2.090   3.096
 5688SOL    HW117963   1.987   2.051   3.038
 5688SOL    HW217964   1.904   2.034   3.178
 5689SOL     OW17965   0.387   2.736   1.718
 5689SOL    HW117966   0.474   2.725   1.672
 5689SOL    HW217967   0.349   2.646   1.741
 5690SOL     OW17968   3.249   5.376   0.245
 5690SOL    HW117969   3.198   5.389   0.160
 5690SOL    HW217970   3.324   5.442   0.249
 5691SOL     OW17971   4.550   2.584   3.909
 5691SOL    HW117972   4.546   2.562   4.006
 5691SOL    HW217973   4.479   2.533   3.860
 5692SOL     OW17974   5.998   4.670   1.858
 5692SOL    HW117975   6.076   4.654   1.919
 5692SOL    HW217976   6.030   4.716   1.775
 5693SOL     OW17977   3.940   0.220   2.242
 5693SOL    HW117978   3.891   0.281   2.180
 5693SOL    HW217979   4.008   0.168   2.191
 5694SOL     OW17980   0.284   0.341   1.448
 5694SOL    HW117981   0.300   0.308   1.355
 5694SOL    HW217982   0.256   0.265   1.506
 5695SOL     OW17983   2.477   1.182   2.179
 5695SOL    HW117984   2.560   1.194   2.232
 5695SOL    HW217985   2.501   1.158   2.085
 5696SOL     OW17986   0.582   0.174   4.185
 5696SOL    HW117987   0.584   0.125   4.097
 5696SOL    HW217988   0.613   0.113   4.258
 5697SOL     OW17989   6.486   2.241   0.202
 5697SOL    HW117990   6.389   2.247   0.177
 5697SOL    HW217991   6.530   2.168   0.149
 5698SOL     OW17992   3.497   2.122   4.407
 5698SOL    HW117993   3.399   2.116   4.389
 5698SOL    HW217994   3.518   2.077   4.494
 5699SOL     OW17995   2.001   3.197   2.570
 5699SOL    HW117996   2.025   3.161   2.480
 5699SOL    HW217997   1.903   3.186   2.586
 5700SOL     OW17998   6.485   0.296   2.833
 5700SOL    HW117999   6.511   0.388   2.803
 5700SOL    HW218000   6.501   0.287   2.931
 5701SOL     OW18001   1.026   1.003   0.514
 5701SOL    HW118002   1.017   0.909   0.481
 5701SOL    HW218003   1.019   1.004   0.613
 5702SOL     OW18004   1.616   6.946   4.863
 5702SOL    HW118005   1.569   7.014   4.918
 5702SOL    HW218006   1.594   6.960   4.766
 5703SOL     OW18007   0.707   2.952   5.988
 5703SOL    HW118008   0.803   2.972   5.969
 5703SOL    HW218009   0.651   2.979   5.909
 5704SOL     OW18010   3.735   5.267   4.417
 5704SOL    HW118011   3.740   5.336   4.345
 5704SOL    HW218012   3.693   5.307   4.499
 5705SOL     OW18013   5.639   0.429   5.322
 5705SOL    HW118014   5.596   0.339   5.316
 5705SOL    HW218015   5.616   0.483   5.241
 5706SOL     OW18016   5.084   1.969   1.429
 5706SOL    HW118017   5.003   1.973   1.488
 5706SOL    HW218018   5.146   2.043   1.452
 5707SOL     OW18019   6.345   5.373   1.185
 5707SOL    HW118020   6.311   5.423   1.106
 5707SOL    HW218021   6.270   5.324   1.229
 5708SOL     OW18022   5.067   6.167   1.737
 5708SOL    HW118023   5.130   6.185   1.813
 5708SOL    HW218024   5.018   6.081   1.754
 5709SOL     OW18025   0.150   2.823   2.406
 5709SOL    HW118026   0.081   2.883   2.446
 5709SOL    HW218027   0.241   2.854   2.434
 5710SOL     OW18028   4.612   1.511   0.598
 5710SOL    HW118029   4.699   1.463   0.614
 5710SOL    HW218030   4.550   1.492   0.674
 5711SOL     OW18031   4.467   1.804   2.505
 5711SOL    HW118032   4.368   1.799   2.518
 5711SOL    HW218033   4.487   1.866   2.428
 5712SOL     OW18034   6.172   5.899   0.080
 5712SOL    HW118035   6.194   5.986   0.036
 5712SOL    HW218036   6.240   5.881   0.151
 5713SOL     OW18037   1.529   1.220   0.708
 5713SOL    HW118038   1.443   1.179   0.738
 5713SOL    HW218039   1.546   1.194   0.613
 5714SOL     OW18040   6.301   0.039   0.731
 5714SOL    HW118041   6.237   0.099   0.683
 5714SOL    HW218042   6.389   0.039   0.684
 5715SOL     OW18043   0.120   6.689   1.284
 5715SOL    HW118044   0.124   6.783   1.318
 5715SOL    HW218045   0.079   6.688   1.193
 5716SOL     OW18046   0.473   4.738   5.212
 5716SOL    HW118047   0.539   4.731   5.137
 5716SOL    HW218048   0.391   4.787   5.180
 5717SOL     OW18049   0.474   5.296   3.500
 5717SOL    HW118050   0.565   5.308   3.539
 5717SOL    HW218051   0.457   5.199   3.484
 5718SOL     OW18052   0.937   4.160   6.936
 5718SOL    HW118053   0.957   4.208   6.851
 5718SOL    HW218054   0.985   4.071   6.936
 5719SOL     OW18055   2.692   3.608   0.284
 5719SOL    HW118056   2.629   3.554   0.340
 5719SOL    HW218057   2.726   3.551   0.209
 5720SOL     OW18058   3.398   5.198   6.058
 5720SOL    HW118059   3.483   5.245   6.036
 5720SOL    HW218060   3.416   5.101   6.074
 5721SOL     OW18061   1.620   2.780   0.188
 5721SOL    HW118062   1.667   2.749   0.105
 5721SOL    HW218063   1.602   2.702   0.248
 5722SOL     OW18064   1.849   0.443   6.304
 5722SOL    HW118065   1.931   0.490   6.271
 5722SOL    HW218066   1.773   0.508   6.310
 5723SOL     OW18067   4.121   3.147   0.621
 5723SOL    HW118068   4.174   3.069   0.655
 5723SOL    HW218069   4.158   3.232   0.659
 5724SOL     OW18070   5.751   2.201   5.880
 5724SOL    HW118071   5.729   2.199   5.782
 5724SOL    HW218072   5.761   2.107   5.914
 5725SOL     OW18073   0.012   4.609   4.962
 5725SOL    HW118074   0.099   4.640   5.000
 5725SOL    HW218075   0.028   4.558   4.877
 5726SOL     OW18076   4.937   4.219   2.098
 5726SOL    HW118077   4.989   4.142   2.135
 5726SOL    HW218078   4.995   4.273   2.037
 5727SOL     OW18079   1.096   2.566   5.208
 5727SOL    HW118080   1.003   2.597   5.230
 5727SOL    HW218081   1.126   2.500   5.276
 5728SOL     OW18082   3.157   6.921   5.398
 5728SOL    HW118083   3.171   6.823   5.384
 5728SOL    HW218084   3.062   6.937   5.426
 5729SOL     OW18085   2.500   2.201   4.427
 5729SOL    HW118086   2.555   2.222   4.508
 5729SOL    HW218087   2.550   2.141   4.366
 5730SOL     OW18088   6.294   4.210   4.932
 5730SOL    HW118089   6.244   4.127   4.957
 5730SOL    HW218090   6.346   4.243   5.012
 5731SOL     OW18091   0.652   6.355   2.641
 5731SOL    HW118092   0.616   6.365   2.548
 5731SOL    HW218093   0.597   6.411   2.704
 5732SOL     OW18094   6.083   0.566   3.552
 5732SOL    HW118095   6.075   0.511   3.635
 5732SOL    HW218096   6.178   0.597   3.541
 5733SOL     OW18097   2.852   1.045   4.963
 5733SOL    HW118098   2.826   0.987   4.886
 5733SOL    HW218099   2.893   1.129   4.929
 5734SOL     OW18100   1.453   6.447   3.550
 5734SOL    HW118101   1.414   6.398   3.628
 5734SOL    HW218102   1.547   6.416   3.534
 5735SOL     OW18103   2.936   0.567   1.340
 5735SOL    HW118104   2.889   0.608   1.418
 5735SOL    HW218105   3.023   0.616   1.324
 5736SOL     OW18106   1.849   5.095   0.479
 5736SOL    HW118107   1.844   5.048   0.567
 5736SOL    HW218108   1.893   5.184   0.491
 5737SOL     OW18109   5.641   3.818   0.323
 5737SOL    HW118110   5.674   3.738   0.271
 5737SOL    HW218111   5.686   3.821   0.412
 5738SOL     OW18112   0.489   4.877   4.724
 5738SOL    HW118113   0.459   4.909   4.635
 5738SOL    HW218114   0.571   4.820   4.714
 5739SOL     OW18115   0.686   3.129   0.755
 5739SOL    HW118116   0.628   3.105   0.833
 5739SOL    HW218117   0.740   3.049   0.728
 5740SOL     OW18118   4.037   4.932   0.056
 5740SOL    HW118119   4.033   4.975   6.989
 5740SOL    HW218120   4.048   4.834   0.046
 5741SOL     OW18121   0.062   3.175   1.956
 5741SOL    HW118122   7.006   3.225   1.922
 5741SOL    HW218123   0.116   3.141   1.878
 5742SOL     OW18124   0.180   5.627   3.569
 5742SOL    HW118125   0.246   5.647   3.642
 5742SOL    HW218126   0.219   5.558   3.507
 5743SOL     OW18127   1.465   6.197   5.306
 5743SOL    HW118128   1.497   6.284   5.268
 5743SOL    HW218129   1.413   6.215   5.390
 5744SOL     OW18130   6.091   0.217   1.539
 5744SOL    HW118131   6.132   0.246   1.626
 5744SOL    HW218132   6.104   0.289   1.471
 5745SOL     OW18133   1.018   3.392   3.325
 5745SOL    HW118134   1.026   3.394   3.425
 5745SOL    HW218135   0.930   3.431   3.298
 5746SOL     OW18136   6.394   3.917   6.897
 5746SOL    HW118137   6.491   3.925   6.918
 5746SOL    HW218138   6.377   3.955   6.806
 5747SOL     OW18139   1.017   6.090   3.457
 5747SOL    HW118140   1.070   6.083   3.541
 5747SOL    HW218141   0.919   6.081   3.478
 5748SOL     OW18142   1.768   0.027   3.758
 5748SOL    HW118143   1.774   0.111   3.705
 5748SOL    HW218144   1.678   0.023   3.803
 5749SOL     OW18145   1.280   1.162   2.930
 5749SOL    HW118146   1.338   1.243   2.930
 5749SOL    HW218147   1.209   1.171   3.000
 5750SOL     OW18148   5.975   6.491   2.371
 5750SOL    HW118149   5.994   6.402   2.412
 5750SOL    HW218150   6.054   6.523   2.320
 5751SOL     OW18151   0.996   2.933   5.875
 5751SOL    HW118152   0.959   2.969   5.790
 5751SOL    HW218153   1.042   3.007   5.925
 5752SOL     OW18154   1.292   1.468   6.518
 5752SOL    HW118155   1.347   1.402   6.467
 5752SOL    HW218156   1.301   1.451   6.616
 5753SOL     OW18157   4.545   1.780   0.523
 5753SOL    HW118158   4.445   1.787   0.522
 5753SOL    HW218159   4.571   1.692   0.563
 5754SOL     OW18160   5.577   5.885   0.423
 5754SOL    HW118161   5.672   5.912   0.404
 5754SOL    HW218162   5.553   5.912   0.516
 5755SOL     OW18163   3.142   3.574   1.534
 5755SOL    HW118164   3.211   3.539   1.598
 5755SOL    HW218165   3.067   3.614   1.585
 5756SOL     OW18166   6.798   6.269   3.941
 5756SOL    HW118167   6.717   6.215   3.963
 5756SOL    HW218168   6.787   6.310   3.850
 5757SOL     OW18169   6.515   6.336   2.316
 5757SOL    HW118170   6.423   6.330   2.279
 5757SOL    HW218171   6.521   6.282   2.400
 5758SOL     OW18172   2.668   1.544   5.817
 5758SOL    HW118173   2.697   1.611   5.749
 5758SOL    HW218174   2.746   1.518   5.873
 5759SOL     OW18175   0.781   1.779   6.010
 5759SOL    HW118176   0.820   1.690   6.032
 5759SOL    HW218177   0.683   1.769   5.992
 5760SOL     OW18178   6.681   6.101   1.366
 5760SOL    HW118179   6.737   6.029   1.324
 5760SOL    HW218180   6.739   6.157   1.425
 5761SOL     OW18181   4.464   0.281   4.458
 5761SOL    HW118182   4.375   0.263   4.499
 5761SOL    HW218183   4.477   0.221   4.379
 5762SOL     OW18184   5.938   6.196   1.150
 5762SOL    HW118185   5.975   6.257   1.080
 5762SOL    HW218186   5.876   6.247   1.209
 5763SOL     OW18187   2.654   0.948   0.713
 5763SOL    HW118188   2.574   0.937   0.654
 5763SOL    HW218189   2.667   1.044   0.734
 5764SOL     OW18190   4.135   3.418   6.118
 5764SOL    HW118191   4.098   3.406   6.211
 5764SOL    HW218192   4.063   3.402   6.051
 5765SOL     OW18193   6.409   5.513   6.698
 5765SOL    HW118194   6.439   5.478   6.609
 5765SOL    HW218195   6.421   5.612   6.701
 5766SOL     OW18196   2.789   1.207   3.450
 5766SOL    HW118197   2.734   1.133   3.488
 5766SOL    HW218198   2.853   1.240   3.520
 5767SOL     OW18199   5.099   6.785   0.268
 5767SOL    HW118200   5.131   6.774   0.174
 5767SOL    HW218201   5.178   6.786   0.330
 5768SOL     OW18202   6.456   6.925   1.909
 5768SOL    HW118203   6.444   6.989   1.833
 5768SOL    HW218204   6.541   6.874   1.897
 5769SOL     OW18205   1.334   4.403   2.905
 5769SOL    HW118206   1.416   4.403   2.847
 5769SOL    HW218207   1.351   4.348   2.987
 5770SOL     OW18208   5.802   1.939   1.680
 5770SOL    HW118209   5.771   1.933   1.775
 5770SOL    HW218210   5.900   1.922   1.676
 5771SOL     OW18211   1.308   1.059   1.321
 5771SOL    HW118212   1.405   1.041   1.336
 5771SOL    HW218213   1.270   1.108   1.399
 5772SOL     OW18214   6.463   5.304   5.316
 5772SOL    HW118215   6.488   5.263   5.403
 5772SOL    HW218216   6.379   5.356   5.326
 5773SOL     OW18217   5.497   5.596   4.724
 5773SOL    HW118218   5.417   5.656   4.729
 5773SOL    HW218219   5.502   5.539   4.805
 5774SOL     OW18220   2.429   4.920   2.232
 5774SOL    HW118221   2.403   4.970   2.315
 5774SOL    HW218222   2.449   4.825   2.255
 5775SOL     OW18223   1.100   0.681   0.513
 5775SOL    HW118224   1.134   0.590   0.534
 5775SOL    HW218225   1.000   0.680   0.512
 5776SOL     OW18226   4.984   1.213   5.452
 5776SOL    HW118227   5.005   1.266   5.533
 5776SOL    HW218228   5.070   1.180   5.411
 5777SOL     OW18229   5.907   6.752   4.838
 5777SOL    HW118230   5.974   6.813   4.880
 5777SOL    HW218231   5.912   6.662   4.881
 5778SOL     OW18232   2.885   6.895   3.619
 5778SOL    HW118233   2.876   6.795   3.627
 5778SOL    HW218234   2.968   6.917   3.568
 5779SOL     OW18235   4.193   0.142   1.649
 5779SOL    HW118236   4.183   0.216   1.716
 5779SOL    HW218237   4.102   0.116   1.616
 5780SOL     OW18238   6.141   3.930   0.702
 5780SOL    HW118239   6.187   3.841   0.693
 5780SOL    HW218240   6.205   3.996   0.742
 5781SOL     OW18241   3.501   4.216   5.169
 5781SOL    HW118242   3.535   4.262   5.251
 5781SOL    HW218243   3.486   4.119   5.189
 5782SOL     OW18244   4.364   1.474   3.092
 5782SOL    HW118245   4.364   1.535   3.171
 5782SOL    HW218246   4.275   1.480   3.046
 5783SOL     OW18247   3.044   5.843   2.728
 5783SOL    HW118248   3.100   5.838   2.645
 5783SOL    HW218249   3.058   5.931   2.772
 5784SOL     OW18250   1.606   6.195   0.622
 5784SOL    HW118251   1.528   6.133   0.621
 5784SOL    HW218252   1.574   6.289   0.623
 5785SOL     OW18253   2.260   2.725   6.306
 5785SOL    HW118254   2.174   2.739   6.257
 5785SOL    HW218255   2.269   2.629   6.331
 5786SOL     OW18256   1.014   2.174   5.935
 5786SOL    HW118257   1.042   2.198   6.028
 5786SOL    HW218258   1.025   2.076   5.920
 5787SOL     OW18259   1.047   2.608   4.653
 5787SOL    HW118260   1.113   2.570   4.588
 5787SOL    HW218261   1.053   2.558   4.740
 5788SOL     OW18262   0.482   1.916   1.771
 5788SOL    HW118263   0.532   1.844   1.819
 5788SOL    HW218264   0.494   2.003   1.818
 5789SOL     OW18265   2.844   0.146   6.705
 5789SOL    HW118266   2.936   0.172   6.736
 5789SOL    HW218267   2.822   0.055   6.738
 5790SOL     OW18268   0.013   6.442   2.960
 5790SOL    HW118269   0.059   6.363   3.000
 5790SOL    HW218270   0.079   6.494   2.905
 5791SOL     OW18271   4.352   0.484   1.204
 5791SOL    HW118272   4.254   0.497   1.188
 5791SOL    HW218273   4.375   0.508   1.298
 5792SOL     OW18274   4.692   2.482   2.790
 5792SOL    HW118275   4.665   2.577   2.806
 5792SOL    HW218276   4.791   2.474   2.797
 5793SOL     OW18277   4.352   1.535   0.826
 5793SOL    HW118278   4.371   1.625   0.867
 5793SOL    HW218279   4.340   1.468   0.899
 5794SOL     OW18280   3.226   6.013   7.005
 5794SOL    HW118281   3.272   5.931   0.018
 5794SOL    HW218282   3.155   5.986   6.941
 5795SOL     OW18283   0.817   0.479   0.739
 5795SOL    HW118284   0.808   0.431   0.826
 5795SOL    HW218285   0.888   0.550   0.747
 5796SOL     OW18286   4.574   0.311   5.911
 5796SOL    HW118287   4.622   0.233   5.869
 5796SOL    HW218288   4.567   0.296   6.010
 5797SOL     OW18289   6.701   1.861   0.442
 5797SOL    HW118290   6.725   1.823   0.353
 5797SOL    HW218291   6.721   1.795   0.514
 5798SOL     OW18292   2.104   2.667   4.802
 5798SOL    HW118293   2.116   2.658   4.703
 5798SOL    HW218294   2.022   2.618   4.831
 5799SOL     OW18295   2.803   0.109   3.717
 5799SOL    HW118296   2.715   0.122   3.672
 5799SOL    HW218297   2.834   0.015   3.702
 5800SOL     OW18298   1.410   6.061   1.900
 5800SOL    HW118299   1.366   6.149   1.883
 5800SOL    HW218300   1.341   5.995   1.931
 5801SOL     OW18301   1.295   2.066   2.890
 5801SOL    HW118302   1.395   2.069   2.884
 5801SOL    HW218303   1.260   2.155   2.918
 5802SOL     OW18304   0.037   6.892   2.795
 5802SOL    HW118305   7.003   6.852   2.724
 5802SOL    HW218306   0.012   6.854   2.884
 5803SOL     OW18307   0.670   0.015   4.361
 5803SOL    HW118308   0.614   7.012   4.439
 5803SOL    HW218309   0.711   6.957   4.320
 5804SOL     OW18310   6.008   1.788   3.810
 5804SOL    HW118311   5.922   1.808   3.856
 5804SOL    HW218312   6.069   1.867   3.818
 5805SOL     OW18313   1.129   3.050   1.622
 5805SOL    HW118314   1.180   2.965   1.612
 5805SOL    HW218315   1.156   3.115   1.551
 5806SOL     OW18316   6.641   3.998   1.676
 5806SOL    HW118317   6.607   3.960   1.762
 5806SOL    HW218318   6.690   3.926   1.626
 5807SOL     OW18319   1.280   1.357   1.951
 5807SOL    HW118320   1.337   1.428   1.910
 5807SOL    HW218321   1.269   1.375   2.048
 5808SOL     OW18322   6.587   7.001   5.654
 5808SOL    HW118323   6.573   7.023   5.750
 5808SOL    HW218324   6.521   6.931   5.626
 5809SOL     OW18325   0.190   3.668   4.747
 5809SOL    HW118326   0.254   3.743   4.728
 5809SOL    HW218327   0.117   3.702   4.807
 5810SOL     OW18328   1.191   6.475   5.413
 5810SOL    HW118329   1.140   6.492   5.497
 5810SOL    HW218330   1.269   6.537   5.408
 5811SOL     OW18331   3.356   5.127   0.251
 5811SOL    HW118332   3.323   5.082   0.334
 5811SOL    HW218333   3.314   5.218   0.244
 5812SOL     OW18334   6.767   3.358   6.245
 5812SOL    HW118335   6.771   3.406   6.333
 5812SOL    HW218336   6.860   3.342   6.211
 5813SOL     OW18337   6.165   4.894   1.156
 5813SOL    HW118338   6.113   4.978   1.142
 5813SOL    HW218339   6.174   4.846   1.069
 5814SOL     OW18340   5.151   1.468   2.837
 5814SOL    HW118341   5.250   1.458   2.835
 5814SOL    HW218342   5.110   1.411   2.766
 5815SOL     OW18343   6.194   3.338   4.846
 5815SOL    HW118344   6.100   3.321   4.876
 5815SOL    HW218345   6.224   3.261   4.789
 5816SOL     OW18346   6.657   4.682   0.738
 5816SOL    HW118347   6.732   4.625   0.772
 5816SOL    HW218348   6.570   4.642   0.768
 5817SOL     OW18349   6.612   2.753   4.102
 5817SOL    HW118350   6.698   2.804   4.112
 5817SOL    HW218351   6.577   2.765   4.009
 5818SOL     OW18352   2.650   6.875   3.973
 5818SOL    HW118353   2.621   6.780   3.964
 5818SOL    HW218354   2.574   6.935   3.949
 5819SOL     OW18355   4.238   4.407   1.221
 5819SOL    HW118356   4.218   4.444   1.130
 5819SOL    HW218357   4.220   4.478   1.290
 5820SOL     OW18358   0.629   6.638   2.417
 5820SOL    HW118359   0.558   6.598   2.475
 5820SOL    HW218360   0.714   6.585   2.428
 5821SOL     OW18361   6.325   6.624   2.544
 5821SOL    HW118362   6.343   6.547   2.605
 5821SOL    HW218363   6.377   6.704   2.576
 5822SOL     OW18364   0.904   4.206   2.822
 5822SOL    HW118365   0.928   4.176   2.914
 5822SOL    HW218366   0.966   4.164   2.756
 5823SOL     OW18367   2.377   6.241   4.682
 5823SOL    HW118368   2.290   6.291   4.688
 5823SOL    HW218369   2.423   6.245   4.771
 5824SOL     OW18370   2.471   5.274   2.649
 5824SOL    HW118371   2.443   5.216   2.573
 5824SOL    HW218372   2.416   5.253   2.729
 5825SOL     OW18373   3.792   2.106   4.715
 5825SOL    HW118374   3.693   2.090   4.723
 5825SOL    HW218375   3.823   2.157   4.795
 5826SOL     OW18376   1.298   6.370   5.086
 5826SOL    HW118377   1.307   6.420   5.172
 5826SOL    HW218378   1.375   6.392   5.026
 5827SOL     OW18379   2.156   3.714   3.283
 5827SOL    HW118380   2.087   3.730   3.212
 5827SOL    HW218381   2.232   3.777   3.269
 5828SOL     OW18382   4.652   6.865   4.981
 5828SOL    HW118383   4.676   6.772   4.952
 5828SOL    HW218384   4.561   6.888   4.948
 5829SOL     OW18385   2.295   1.116   3.181
 5829SOL    HW118386   2.307   1.160   3.093
 5829SOL    HW218387   2.232   1.170   3.237
 5830SOL     OW18388   4.522   5.032   4.494
 5830SOL    HW118389   4.519   5.067   4.588
 5830SOL    HW218390   4.484   4.939   4.492
 5831SOL     OW18391   2.229   1.594   4.611
 5831SOL    HW118392   2.152   1.627   4.557
 5831SOL    HW218393   2.315   1.616   4.566
 5832SOL     OW18394   2.170   5.073   3.845
 5832SOL    HW118395   2.193   5.149   3.784
 5832SOL    HW218396   2.112   5.107   3.919
 5833SOL     OW18397   2.630   4.769   1.650
 5833SOL    HW118398   2.677   4.793   1.564
 5833SOL    HW218399   2.606   4.672   1.649
 5834SOL     OW18400   5.806   1.962   6.012
 5834SOL    HW118401   5.791   1.878   6.063
 5834SOL    HW218402   5.854   1.941   5.926
 5835SOL     OW18403   4.191   1.123   3.843
 5835SOL    HW118404   4.187   1.146   3.746
 5835SOL    HW218405   4.256   1.048   3.857
 5836SOL     OW18406   5.051   4.804   1.164
 5836SOL    HW118407   4.972   4.828   1.107
 5836SOL    HW218408   5.123   4.873   1.152
 5837SOL     OW18409   2.424   4.717   0.194
 5837SOL    HW118410   2.491   4.645   0.215
 5837SOL    HW218411   2.392   4.706   0.101
 5838SOL     OW18412   3.130   3.262   0.518
 5838SOL    HW118413   3.092   3.176   0.484
 5838SOL    HW218414   3.221   3.276   0.479
 5839SOL     OW18415   2.670   1.337   1.398
 5839SOL    HW118416   2.711   1.328   1.488
 5839SOL    HW218417   2.611   1.418   1.395
 5840SOL     OW18418   6.947   3.857   3.015
 5840SOL    HW118419   6.890   3.783   3.049
 5840SOL    HW218420   6.903   3.945   3.034
 5841SOL     OW18421   5.058   2.114   0.654
 5841SOL    HW118422   4.965   2.145   0.677
 5841SOL    HW218423   5.058   2.074   0.563
 5842SOL     OW18424   3.853   2.067   2.394
 5842SOL    HW118425   3.755   2.079   2.410
 5842SOL    HW218426   3.871   2.070   2.296
 5843SOL     OW18427   2.772   3.142   0.595
 5843SOL    HW118428   2.739   3.101   0.510
 5843SOL    HW218429   2.840   3.082   0.637
 5844SOL     OW18430   0.133   5.195   5.253
 5844SOL    HW118431   0.218   5.247   5.241
 5844SOL    HW218432   0.063   5.232   5.192
 5845SOL     OW18433   1.789   6.052   2.953
 5845SOL    HW118434   1.798   6.134   2.896
 5845SOL    HW218435   1.797   6.076   3.049
 5846SOL     OW18436   0.981   4.786   5.135
 5846SOL    HW118437   0.937   4.775   5.223
 5846SOL    HW218438   1.073   4.745   5.138
 5847SOL     OW18439   1.790   4.145   6.008
 5847SOL    HW118440   1.729   4.100   5.943
 5847SOL    HW218441   1.793   4.243   5.987
 5848SOL     OW18442   2.858   6.386   1.815
 5848SOL    HW118443   2.789   6.413   1.882
 5848SOL    HW218444   2.837   6.429   1.727
 5849SOL     OW18445   3.057   5.691   6.748
 5849SOL    HW118446   2.966   5.657   6.723
 5849SOL    HW218447   3.126   5.646   6.693
 5850SOL     OW18448   5.722   2.176   1.834
 5850SOL    HW118449   5.711   2.092   1.888
 5850SOL    HW218450   5.673   2.251   1.879
 5851SOL     OW18451   1.136   3.391   5.714
 5851SOL    HW118452   1.116   3.418   5.620
 5851SOL    HW218453   1.235   3.381   5.725
 5852SOL     OW18454   4.561   4.797   3.009
 5852SOL    HW118455   4.571   4.705   3.047
 5852SOL    HW218456   4.612   4.862   3.065
 5853SOL     OW18457   3.944   5.047   0.284
 5853SOL    HW118458   3.894   4.993   0.352
 5853SOL    HW218459   3.959   4.991   0.202
 5854SOL     OW18460   2.742   4.587   5.345
 5854SOL    HW118461   2.655   4.624   5.313
 5854SOL    HW218462   2.816   4.628   5.292
 5855SOL     OW18463   1.549   1.915   4.653
 5855SOL    HW118464   1.576   1.852   4.581
 5855SOL    HW218465   1.628   1.936   4.710
 5856SOL     OW18466   0.407   0.582   2.434
 5856SOL    HW118467   0.479   0.596   2.501
 5856SOL    HW218468   0.446   0.575   2.342
 5857SOL     OW18469   5.862   5.437   6.761
 5857SOL    HW118470   5.958   5.452   6.738
 5857SOL    HW218471   5.850   5.346   6.801
 5858SOL     OW18472   3.048   1.483   2.541
 5858SOL    HW118473   3.086   1.506   2.451
 5858SOL    HW218474   2.962   1.534   2.554
 5859SOL     OW18475   5.689   5.090   1.565
 5859SOL    HW118476   5.744   5.037   1.629
 5859SOL    HW218477   5.689   5.186   1.593
 5860SOL     OW18478   1.708   3.495   2.085
 5860SOL    HW118479   1.748   3.429   2.148
 5860SOL    HW218480   1.657   3.446   2.014
 5861SOL     OW18481   5.675   0.075   5.001
 5861SOL    HW118482   5.657   7.000   5.000
 5861SOL    HW218483   5.671   0.111   4.908
 5862SOL     OW18484   6.858   4.722   2.260
 5862SOL    HW118485   6.854   4.624   2.282
 5862SOL    HW218486   6.769   4.753   2.229
 5863SOL     OW18487   4.039   0.065   5.947
 5863SOL    HW118488   4.073   0.020   5.864
 5863SOL    HW218489   3.977   0.139   5.920
 5864SOL     OW18490   3.664   3.423   3.415
 5864SOL    HW118491   3.616   3.487   3.356
 5864SOL    HW218492   3.642   3.329   3.388
 5865SOL     OW18493   5.867   6.509   1.714
 5865SOL    HW118494   5.883   6.586   1.652
 5865SOL    HW218495   5.812   6.540   1.792
 5866SOL     OW18496   3.383   3.631   3.672
 5866SOL    HW118497   3.434   3.711   3.639
 5866SOL    HW218498   3.296   3.660   3.712
 5867SOL     OW18499   4.855   1.506   0.912
 5867SOL    HW118500   4.894   1.414   0.920
 5867SOL    HW218501   4.766   1.509   0.958
 5868SOL     OW18502   0.986   1.032   0.776
 5868SOL    HW118503   0.940   1.116   0.746
 5868SOL    HW218504   0.971   1.020   0.874
 5869SOL     OW18505   2.105   5.179   3.246
 5869SOL    HW118506   2.083   5.260   3.191
 5869SOL    HW218507   2.195   5.146   3.222
 5870SOL     OW18508   4.534   6.577   4.417
 5870SOL    HW118509   4.609   6.543   4.360
 5870SOL    HW218510   4.447   6.554   4.374
 5871SOL     OW18511   3.937   3.442   3.404
 5871SOL    HW118512   3.962   3.369   3.468
 5871SOL    HW218513   3.837   3.452   3.401
 5872SOL     OW18514   3.365   5.628   1.091
 5872SOL    HW118515   3.341   5.593   1.000
 5872SOL    HW218516   3.327   5.720   1.102
 5873SOL     OW18517   4.451   6.364   2.098
 5873SOL    HW118518   4.473   6.459   2.122
 5873SOL    HW218519   4.373   6.363   2.034
 5874SOL     OW18520   6.936   4.255   4.868
 5874SOL    HW118521   6.839   4.271   4.846
 5874SOL    HW218522   6.989   4.335   4.841
 5875SOL     OW18523   3.757   2.211   0.926
 5875SOL    HW118524   3.819   2.153   0.873
 5875SOL    HW218525   3.793   2.304   0.931
 5876SOL     OW18526   3.390   2.854   2.451
 5876SOL    HW118527   3.412   2.832   2.356
 5876SOL    HW218528   3.334   2.937   2.454
 5877SOL     OW18529   5.082   3.876   1.936
 5877SOL    HW118530   5.121   3.902   1.848
 5877SOL    HW218531   5.005   3.936   1.958
 5878SOL     OW18532   0.966   3.753   1.975
 5878SOL    HW118533   0.927   3.810   2.048
 5878SOL    HW218534   0.894   3.700   1.932
 5879SOL     OW18535   2.008   4.473   4.421
 5879SOL    HW118536   1.994   4.499   4.516
 5879SOL    HW218537   2.092   4.419   4.413
 5880SOL     OW18538   3.064   5.203   6.389
 5880SOL    HW118539   3.154   5.161   6.378
 5880SOL    HW218540   3.060   5.249   6.478
 5881SOL     OW18541   1.638   6.180   3.890
 5881SOL    HW118542   1.648   6.122   3.970
 5881SOL    HW218543   1.685   6.267   3.906
 5882SOL     OW18544   4.393   0.450   2.920
 5882SOL    HW118545   4.486   0.474   2.892
 5882SOL    HW218546   4.348   0.398   2.848
 5883SOL     OW18547   1.152   3.170   4.744
 5883SOL    HW118548   1.062   3.205   4.717
 5883SOL    HW218549   1.163   3.180   4.843
 5884SOL     OW18550   0.356   0.973   2.914
 5884SOL    HW118551   0.414   1.054   2.924
 5884SOL    HW218552   0.261   0.998   2.936
 5885SOL     OW18553   5.316   6.752   0.441
 5885SOL    HW118554   5.286   6.679   0.503
 5885SOL    HW218555   5.348   6.830   0.494
 5886SOL     OW18556   6.059   1.480   6.413
 5886SOL    HW118557   6.000   1.560   6.400
 5886SOL    HW218558   6.088   1.475   6.508
 5887SOL     OW18559   3.716   6.307   2.591
 5887SOL    HW118560   3.756   6.261   2.511
 5887SOL    HW218561   3.621   6.332   2.571
 5888SOL     OW18562   6.796   6.328   2.242
 5888SOL    HW118563   6.699   6.316   2.265
 5888SOL    HW218564   6.842   6.240   2.247
 5889SOL     OW18565   3.084   0.300   6.834
 5889SOL    HW118566   3.070   0.356   6.752
 5889SOL    HW218567   3.065   0.355   6.915
 5890SOL     OW18568   3.950   5.514   5.813
 5890SOL    HW118569   3.945   5.414   5.814
 5890SOL    HW218570   3.871   5.552   5.862
 5891SOL     OW18571   1.377   3.589   6.165
 5891SOL    HW118572   1.347   3.596   6.070
 5891SOL    HW218573   1.430   3.505   6.178
 5892SOL     OW18574   2.057   6.017   2.494
 5892SOL    HW118575   2.047   6.116   2.496
 5892SOL    HW218576   2.073   5.984   2.587
 5893SOL     OW18577   1.604   2.520   2.484
 5893SOL    HW118578   1.516   2.540   2.527
 5893SOL    HW218579   1.594   2.526   2.385
 5894SOL     OW18580   1.579   3.459   4.060
 5894SOL    HW118581   1.657   3.483   4.118
 5894SOL    HW218582   1.595   3.494   3.967
 5895SOL     OW18583   5.564   4.274   2.986
 5895SOL    HW118584   5.561   4.332   2.904
 5895SOL    HW218585   5.543   4.180   2.960
 5896SOL     OW18586   5.075   2.648   5.931
 5896SOL    HW118587   5.174   2.648   5.916
 5896SOL    HW218588   5.055   2.699   6.015
 5897SOL     OW18589   4.104   4.955   1.049
 5897SOL    HW118590   4.136   4.883   0.988
 5897SOL    HW218591   4.009   4.978   1.027
 5898SOL     OW18592   2.755   6.669   3.113
 5898SOL    HW118593   2.658   6.694   3.120
 5898SOL    HW218594   2.784   6.677   3.018
 5899SOL     OW18595   5.085   0.624   3.728
 5899SOL    HW118596   5.092   0.541   3.784
 5899SOL    HW218597   5.150   0.692   3.762
 5900SOL     OW18598   3.546   4.942   1.804
 5900SOL    HW118599   3.575   4.870   1.867
 5900SOL    HW218600   3.626   4.974   1.752
 5901SOL     OW18601   2.996   5.917   4.152
 5901SOL    HW118602   3.038   5.897   4.241
 5901SOL    HW218603   2.901   5.945   4.165
 5902SOL     OW18604   5.981   2.177   0.170
 5902SOL    HW118605   5.955   2.144   0.261
 5902SOL    HW218606   5.964   2.275   0.164
 5903SOL     OW18607   0.205   2.346   6.059
 5903SOL    HW118608   0.205   2.282   6.136
 5903SOL    HW218609   0.262   2.424   6.081
 5904SOL     OW18610   1.767   3.087   2.088
 5904SOL    HW118611   1.822   3.005   2.068
 5904SOL    HW218612   1.676   3.059   2.118
 5905SOL     OW18613   0.104   4.054   2.354
 5905SOL    HW118614   0.154   3.994   2.416
 5905SOL    HW218615   0.073   4.135   2.404
 5906SOL     OW18616   6.870   0.784   2.903
 5906SOL    HW118617   6.915   0.750   2.986
 5906SOL    HW218618   6.782   0.824   2.927
 5907SOL     OW18619   2.569   0.804   3.268
 5907SOL    HW118620   2.563   0.714   3.224
 5907SOL    HW218621   2.658   0.814   3.312
 5908SOL     OW18622   0.437   2.790   5.748
 5908SOL    HW118623   0.342   2.799   5.777
 5908SOL    HW218624   0.461   2.693   5.743
 5909SOL     OW18625   6.142   4.599   6.761
 5909SOL    HW118626   6.237   4.583   6.735
 5909SOL    HW218627   6.138   4.669   6.832
 5910SOL     OW18628   1.560   1.374   3.674
 5910SOL    HW118629   1.621   1.452   3.687
 5910SOL    HW218630   1.611   1.298   3.634
 5911SOL     OW18631   6.545   6.143   0.022
 5911SOL    HW118632   6.518   6.231   7.008
 5911SOL    HW218633   6.519   6.070   6.983
 5912SOL     OW18634   0.555   0.653   3.327
 5912SOL    HW118635   0.581   0.614   3.416
 5912SOL    HW218636   0.552   0.753   3.335
 5913SOL     OW18637   6.705   2.555   1.153
 5913SOL    HW118638   6.698   2.647   1.115
 5913SOL    HW218639   6.662   2.490   1.090
 5914SOL     OW18640   0.922   6.977   0.929
 5914SOL    HW118641   0.832   6.978   0.971
 5914SOL    HW218642   0.965   6.888   0.945
 5915SOL     OW18643   4.043   0.627   5.297
 5915SOL    HW118644   4.138   0.612   5.270
 5915SOL    HW218645   4.038   0.645   5.395
 5916SOL     OW18646   1.306   0.428   2.354
 5916SOL    HW118647   1.393   0.454   2.396
 5916SOL    HW218648   1.317   0.423   2.255
 5917SOL     OW18649   3.051   3.040   0.407
 5917SOL    HW118650   3.122   2.972   0.392
 5917SOL    HW218651   2.961   2.997   0.400
 5918SOL     OW18652   3.325   6.833   3.987
 5918SOL    HW118653   3.294   6.892   4.062
 5918SOL    HW218654   3.404   6.779   4.017
 5919SOL     OW18655   3.037   3.604   4.425
 5919SOL    HW118656   3.114   3.634   4.481
 5919SOL    HW218657   3.070   3.574   4.336
 5920SOL     OW18658   1.154   0.717   5.774
 5920SOL    HW118659   1.102   0.714   5.689
 5920SOL    HW218660   1.165   0.624   5.810
 5921SOL     OW18661   2.742   4.990   0.287
 5921SOL    HW118662   2.725   4.996   0.188
 5921SOL    HW218663   2.828   5.036   0.309
 5922SOL     OW18664   5.147   2.332   2.472
 5922SOL    HW118665   5.213   2.321   2.546
 5922SOL    HW218666   5.115   2.427   2.469
 5923SOL     OW18667   5.863   0.863   2.793
 5923SOL    HW118668   5.891   0.838   2.885
 5923SOL    HW218669   5.884   0.788   2.730
 5924SOL     OW18670   6.620   6.581   3.529
 5924SOL    HW118671   6.622   6.624   3.439
 5924SOL    HW218672   6.548   6.512   3.532
 5925SOL     OW18673   4.919   0.883   0.781
 5925SOL    HW118674   4.851   0.934   0.728
 5925SOL    HW218675   4.884   0.870   0.874
 5926SOL     OW18676   5.530   3.224   3.194
 5926SOL    HW118677   5.618   3.185   3.223
 5926SOL    HW218678   5.513   3.199   3.099
 5927SOL     OW18679   0.632   6.605   1.424
 5927SOL    HW118680   0.638   6.612   1.324
 5927SOL    HW218681   0.705   6.658   1.466
 5928SOL     OW18682   3.273   0.532   6.955
 5928SOL    HW118683   3.298   0.450   6.904
 5928SOL    HW218684   3.181   0.519   6.994
 5929SOL     OW18685   1.108   0.870   1.302
 5929SOL    HW118686   1.163   0.952   1.290
 5929SOL    HW218687   1.075   0.866   1.397
 5930SOL     OW18688   0.963   4.070   1.612
 5930SOL    HW118689   0.872   4.080   1.652
 5930SOL    HW218690   1.029   4.049   1.684
 5931SOL     OW18691   4.566   5.815   3.423
 5931SOL    HW118692   4.648   5.873   3.429
 5931SOL    HW218693   4.592   5.720   3.440
 5932SOL     OW18694   3.906   6.188   0.104
 5932SOL    HW118695   3.819   6.213   0.148
 5932SOL    HW218696   3.892   6.108   0.046
 5933SOL     OW18697   6.938   5.795   4.328
 5933SOL    HW118698   6.991   5.718   4.364
 5933SOL    HW218699   7.000   5.872   4.310
 5934SOL     OW18700   3.324   4.009   0.084
 5934SOL    HW118701   3.234   4.040   0.052
 5934SOL    HW218702   3.323   4.004   0.184
 5935SOL     OW18703   1.170   0.342   5.460
 5935SOL    HW118704   1.233   0.381   5.526
 5935SOL    HW218705   1.159   0.244   5.478
 5936SOL     OW18706   3.671   2.860   2.403
 5936SOL    HW118707   3.579   2.872   2.442
 5936SOL    HW218708   3.667   2.793   2.329
 5937SOL     OW18709   0.601   3.075   0.356
 5937SOL    HW118710   0.504   3.086   0.331
 5937SOL    HW218711   0.624   2.978   0.359
 5938SOL     OW18712   0.906   3.732   4.374
 5938SOL    HW118713   0.891   3.771   4.465
 5938SOL    HW218714   0.836   3.663   4.355
 5939SOL     OW18715   4.515   1.136   5.636
 5939SOL    HW118716   4.549   1.061   5.579
 5939SOL    HW218717   4.469   1.099   5.717
 5940SOL     OW18718   5.039   5.101   1.617
 5940SOL    HW118719   5.024   5.022   1.558
 5940SOL    HW218720   4.963   5.111   1.680
 5941SOL     OW18721   0.788   1.896   3.376
 5941SOL    HW118722   0.829   1.811   3.409
 5941SOL    HW218723   0.697   1.877   3.338
 5942SOL     OW18724   4.983   2.541   6.372
 5942SOL    HW118725   4.995   2.576   6.465
 5942SOL    HW218726   4.939   2.452   6.375
 5943SOL     OW18727   1.924   5.171   1.548
 5943SOL    HW118728   1.971   5.231   1.613
 5943SOL    HW218729   1.956   5.190   1.456
 5944SOL     OW18730   6.394   3.856   5.997
 5944SOL    HW118731   6.423   3.877   5.904
 5944SOL    HW218732   6.361   3.940   6.041
 5945SOL     OW18733   6.688   6.551   4.266
 5945SOL    HW118734   6.608   6.520   4.214
 5945SOL    HW218735   6.660   6.620   4.332
 5946SOL     OW18736   2.197   3.140   0.258
 5946SOL    HW118737   2.271   3.112   0.197
 5946SOL    HW218738   2.110   3.137   0.208
 5947SOL     OW18739   3.584   3.295   4.365
 5947SOL    HW118740   3.561   3.226   4.433
 5947SOL    HW218741   3.672   3.336   4.388
 5948SOL     OW18742   4.902   4.081   1.604
 5948SOL    HW118743   4.925   4.153   1.669
 5948SOL    HW218744   4.803   4.064   1.607
 5949SOL     OW18745   1.112   3.734   3.329
 5949SOL    HW118746   1.176   3.672   3.374
 5949SOL    HW218747   1.163   3.806   3.282
 5950SOL     OW18748   2.833   6.664   4.469
 5950SOL    HW118749   2.830   6.669   4.369
 5950SOL    HW218750   2.926   6.681   4.500
 5951SOL     OW18751   6.904   3.130   6.389
 5951SOL    HW118752   6.959   3.210   6.369
 5951SOL    HW218753   6.870   3.090   6.304
 5952SOL     OW18754   3.858   3.936   1.792
 5952SOL    HW118755   3.853   3.856   1.852
 5952SOL    HW218756   3.774   3.990   1.800
 5953SOL     OW18757   6.542   3.135   6.219
 5953SOL    HW118758   6.512   3.177   6.133
 5953SOL    HW218759   6.627   3.179   6.250
 5954SOL     OW18760   1.874   5.129   3.641
 5954SOL    HW118761   1.919   5.150   3.554
 5954SOL    HW218762   1.786   5.085   3.624
 5955SOL     OW18763   3.935   2.712   0.357
 5955SOL    HW118764   3.899   2.734   0.447
 5955SOL    HW218765   3.895   2.625   0.326
 5956SOL     OW18766   4.403   2.607   5.754
 5956SOL    HW118767   4.346   2.550   5.813
 5956SOL    HW218768   4.492   2.623   5.798
 5957SOL     OW18769   6.306   2.193   3.724
 5957SOL    HW118770   6.347   2.135   3.653
 5957SOL    HW218771   6.371   2.202   3.800
 5958SOL     OW18772   2.376   5.909   2.902
 5958SOL    HW118773   2.316   5.867   2.969
 5958SOL    HW218774   2.342   6.001   2.879
 5959SOL     OW18775   5.204   3.552   3.102
 5959SOL    HW118776   5.199   3.471   3.161
 5959SOL    HW218777   5.115   3.595   3.096
 5960SOL     OW18778   5.696   0.180   6.457
 5960SOL    HW118779   5.669   0.084   6.456
 5960SOL    HW218780   5.617   0.238   6.475
 5961SOL     OW18781   3.282   1.972   4.130
 5961SOL    HW118782   3.381   1.975   4.142
 5961SOL    HW218783   3.251   1.877   4.128
 5962SOL     OW18784   4.698   4.318   0.360
 5962SOL    HW118785   4.697   4.357   0.268
 5962SOL    HW218786   4.619   4.352   0.412
 5963SOL     OW18787   1.797   4.268   0.419
 5963SOL    HW118788   1.825   4.276   0.323
 5963SOL    HW218789   1.821   4.177   0.454
 5964SOL     OW18790   1.918   0.501   3.087
 5964SOL    HW118791   1.876   0.416   3.054
 5964SOL    HW218792   1.933   0.495   3.186
 5965SOL     OW18793   2.337   0.283   0.885
 5965SOL    HW118794   2.405   0.285   0.958
 5965SOL    HW218795   2.382   0.291   0.797
 5966SOL     OW18796   2.557   1.937   5.011
 5966SOL    HW118797   2.592   1.972   5.097
 5966SOL    HW218798   2.632   1.897   4.958
 5967SOL     OW18799   4.552   2.514   5.186
 5967SOL    HW118800   4.537   2.564   5.100
 5967SOL    HW218801   4.632   2.455   5.177
 5968SOL     OW18802   6.282   1.908   3.014
 5968SOL    HW118803   6.274   1.885   3.111
 5968SOL    HW218804   6.344   1.985   3.002
 5969SOL     OW18805   5.379   6.797   1.305
 5969SOL    HW118806   5.314   6.839   1.368
 5969SOL    HW218807   5.372   6.841   1.216
 5970SOL     OW18808   6.424   2.640   0.109
 5970SOL    HW118809   6.360   2.716   0.097
 5970SOL    HW218810   6.392   2.579   0.181
 5971SOL     OW18811   6.490   5.296   3.348
 5971SOL    HW118812   6.580   5.286   3.304
 5971SOL    HW218813   6.502   5.305   3.447
 5972SOL     OW18814   5.791   5.043   1.024
 5972SOL    HW118815   5.781   5.022   1.121
 5972SOL    HW218816   5.702   5.065   0.985
 5973SOL     OW18817   3.202   1.021   2.510
 5973SOL    HW118818   3.224   1.111   2.546
 5973SOL    HW218819   3.249   0.951   2.563
 5974SOL     OW18820   5.804   1.224   4.650
 5974SOL    HW118821   5.724   1.174   4.617
 5974SOL    HW218822   5.778   1.282   4.727
 5975SOL     OW18823   4.457   5.192   1.477
 5975SOL    HW118824   4.532   5.234   1.526
 5975SOL    HW218825   4.462   5.216   1.380
 5976SOL     OW18826   1.629   3.971   5.445
 5976SOL    HW118827   1.579   3.900   5.396
 5976SOL    HW218828   1.594   4.061   5.416
 5977SOL     OW18829   6.944   5.441   1.161
 5977SOL    HW118830   6.982   5.350   1.150
 5977SOL    HW218831   6.851   5.443   1.124
 5978SOL     OW18832   3.058   3.862   5.938
 5978SOL    HW118833   3.021   3.792   5.877
 5978SOL    HW218834   3.157   3.852   5.944
 5979SOL     OW18835   6.198   6.985   0.974
 5979SOL    HW118836   6.223   7.002   0.879
 5979SOL    HW218837   6.278   6.953   1.025
 5980SOL     OW18838   2.948   2.997   0.753
 5980SOL    HW118839   3.028   3.057   0.764
 5980SOL    HW218840   2.951   2.924   0.822
 5981SOL     OW18841   3.236   2.898   0.948
 5981SOL    HW118842   3.137   2.886   0.953
 5981SOL    HW218843   3.279   2.811   0.920
 5982SOL     OW18844   5.120   2.204   0.958
 5982SOL    HW118845   5.180   2.282   0.941
 5982SOL    HW218846   5.173   2.128   0.994
 5983SOL     OW18847   6.828   1.485   3.413
 5983SOL    HW118848   6.825   1.540   3.330
 5983SOL    HW218849   6.818   1.388   3.389
 5984SOL     OW18850   6.171   6.308   2.808
 5984SOL    HW118851   6.151   6.341   2.900
 5984SOL    HW218852   6.266   6.330   2.785
 5985SOL     OW18853   6.918   4.136   2.689
 5985SOL    HW118854   6.921   4.041   2.720
 5985SOL    HW218855   6.889   4.195   2.764
 5986SOL     OW18856   3.843   3.291   3.027
 5986SOL    HW118857   3.923   3.235   3.010
 5986SOL    HW218858   3.832   3.357   2.953
 5987SOL     OW18859   6.829   6.138   4.230
 5987SOL    HW118860   6.927   6.158   4.228
 5987SOL    HW218861   6.796   6.123   4.137
 5988SOL     OW18862   1.081   2.879   0.246
 5988SOL    HW118863   1.041   2.925   0.325
 5988SOL    HW218864   1.013   2.820   0.203
 5989SOL     OW18865   2.046   6.801   5.741
 5989SOL    HW118866   2.032   6.751   5.656
 5989SOL    HW218867   2.037   6.899   5.725
 5990SOL     OW18868   2.520   3.964   1.712
 5990SOL    HW118869   2.478   4.034   1.654
 5990SOL    HW218870   2.499   3.983   1.808
 5991SOL     OW18871   5.562   1.221   0.577
 5991SOL    HW118872   5.651   1.175   0.571
 5991SOL    HW218873   5.565   1.290   0.649
 5992SOL     OW18874   2.383   4.763   3.337
 5992SOL    HW118875   2.332   4.740   3.420
 5992SOL    HW218876   2.324   4.748   3.257
 5993SOL     OW18877   5.396   2.234   0.567
 5993SOL    HW118878   5.367   2.149   0.610
 5993SOL    HW218879   5.448   2.289   0.633
 5994SOL     OW18880   6.976   4.145   0.412
 5994SOL    HW118881   6.977   4.095   0.325
 5994SOL    HW218882   6.916   4.224   0.404
 5995SOL     OW18883   5.366   3.135   1.053
 5995SOL    HW118884   5.278   3.182   1.060
 5995SOL    HW218885   5.437   3.201   1.028
 5996SOL     OW18886   2.817   0.194   1.917
 5996SOL    HW118887   2.727   0.235   1.901
 5996SOL    HW218888   2.805   0.103   1.958
 5997SOL     OW18889   6.357   0.321   4.178
 5997SOL    HW118890   6.342   0.332   4.079
 5997SOL    HW218891   6.278   0.357   4.227
 5998SOL     OW18892   6.020   6.192   6.285
 5998SOL    HW118893   6.030   6.150   6.376
 5998SOL    HW218894   5.955   6.267   6.291
 5999SOL     OW18895   5.335   3.512   1.242
 5999SOL    HW118896   5.392   3.526   1.162
 5999SOL    HW218897   5.378   3.445   1.303
 6000SOL     OW18898   1.009   4.817   1.363
 6000SOL    HW118899   1.067   4.747   1.405
 6000SOL    HW218900   0.950   4.857   1.433
 6001SOL     OW18901   6.752   5.933   5.373
 6001SOL    HW118902   6.809   5.991   5.314
 6001SOL    HW218903   6.745   5.976   5.463
 6002SOL     OW18904   5.509   4.666   4.799
 6002SOL    HW118905   5.568   4.733   4.755
 6002SOL    HW218906   5.504   4.684   4.898
 6003SOL     OW18907   2.477   2.198   5.311
 6003SOL    HW118908   2.420   2.121   5.341
 6003SOL    HW218909   2.561   2.163   5.270
 6004SOL     OW18910   5.216   3.274   5.363
 6004SOL    HW118911   5.291   3.209   5.372
 6004SOL    HW218912   5.244   3.362   5.402
 6005SOL     OW18913   3.959   4.284   0.522
 6005SOL    HW118914   3.939   4.228   0.603
 6005SOL    HW218915   3.885   4.350   0.509
 6006SOL     OW18916   3.526   6.071   6.847
 6006SOL    HW118917   3.496   5.976   6.853
 6006SOL    HW218918   3.504   6.108   6.757
 6007SOL     OW18919   2.753   6.699   4.894
 6007SOL    HW118920   2.707   6.739   4.814
 6007SOL    HW218921   2.754   6.599   4.885
 6008SOL     OW18922   1.964   3.920   6.461
 6008SOL    HW118923   2.036   3.850   6.468
 6008SOL    HW218924   1.965   3.959   6.369
 6009SOL     OW18925   3.102   5.577   3.042
 6009SOL    HW118926   3.180   5.522   3.073
 6009SOL    HW218927   3.094   5.570   2.943
 6010SOL     OW18928   0.210   4.762   5.103
 6010SOL    HW118929   0.218   4.813   5.018
 6010SOL    HW218930   0.172   4.821   5.174
 6011SOL     OW18931   5.422   1.553   3.179
 6011SOL    HW118932   5.488   1.572   3.251
 6011SOL    HW218933   5.335   1.524   3.219
 6012SOL     OW18934   6.523   1.162   6.108
 6012SOL    HW118935   6.558   1.219   6.183
 6012SOL    HW218936   6.451   1.212   6.059
 6013SOL     OW18937   5.283   1.248   2.515
 6013SOL    HW118938   5.315   1.253   2.610
 6013SOL    HW218939   5.221   1.171   2.505
 6014SOL     OW18940   3.618   3.605   3.834
 6014SOL    HW118941   3.528   3.643   3.813
 6014SOL    HW218942   3.611   3.505   3.843
 6015SOL     OW18943   6.034   6.970   3.990
 6015SOL    HW118944   6.044   6.933   4.082
 6015SOL    HW218945   5.953   0.005   3.986
 6016SOL     OW18946   4.416   2.327   4.926
 6016SOL    HW118947   4.335   2.347   4.981
 6016SOL    HW218948   4.484   2.399   4.939
 6017SOL     OW18949   1.177   1.855   5.319
 6017SOL    HW118950   1.193   1.877   5.223
 6017SOL    HW218951   1.237   1.910   5.376
 6018SOL     OW18952   2.956   1.399   3.950
 6018SOL    HW118953   2.859   1.397   3.927
 6018SOL    HW218954   2.967   1.435   4.043
 6019SOL     OW18955   6.901   4.616   6.254
 6019SOL    HW118956   6.978   4.598   6.316
 6019SOL    HW218957   6.870   4.529   6.215
 6020SOL     OW18958   0.215   5.615   5.473
 6020SOL    HW118959   0.216   5.710   5.502
 6020SOL    HW218960   0.308   5.585   5.452
 6021SOL     OW18961   5.599   0.465   3.325
 6021SOL    HW118962   5.575   0.476   3.228
 6021SOL    HW218963   5.534   0.515   3.381
 6022SOL     OW18964   6.516   2.841   1.407
 6022SOL    HW118965   6.609   2.813   1.430
 6022SOL    HW218966   6.486   2.913   1.469
 6023SOL     OW18967   4.414   6.411   2.683
 6023SOL    HW118968   4.370   6.497   2.709
 6023SOL    HW218969   4.433   6.358   2.766
 6024SOL     OW18970   0.509   6.005   7.008
 6024SOL    HW118971   0.579   5.969   0.046
 6024SOL    HW218972   0.459   5.929   6.966
 6025SOL     OW18973   3.216   0.801   5.627
 6025SOL    HW118974   3.224   0.884   5.573
 6025SOL    HW218975   3.161   0.820   5.708
 6026SOL     OW18976   5.826   5.643   3.470
 6026SOL    HW118977   5.921   5.610   3.467
 6026SOL    HW218978   5.800   5.677   3.380
 6027SOL     OW18979   5.975   4.895   6.034
 6027SOL    HW118980   5.876   4.887   6.035
 6027SOL    HW218981   6.001   4.991   6.042
 6028SOL     OW18982   6.143   6.016   5.951
 6028SOL    HW118983   6.110   5.987   5.861
 6028SOL    HW218984   6.183   5.938   5.999
 6029SOL     OW18985   2.945   2.091   2.703
 6029SOL    HW118986   3.021   2.067   2.762
 6029SOL    HW218987   2.980   2.117   2.613
 6030SOL     OW18988   5.928   3.195   4.637
 6030SOL    HW118989   5.994   3.139   4.588
 6030SOL    HW218990   5.907   3.277   4.584
 6031SOL     OW18991   0.140   6.875   4.172
 6031SOL    HW118992   0.094   6.908   4.090
 6031SOL    HW218993   0.123   6.777   4.183
 6032SOL     OW18994   3.349   6.903   3.272
 6032SOL    HW118995   3.359   6.927   3.175
 6032SOL    HW218996   3.438   6.881   3.311
 6033SOL     OW18997   0.970   1.780   2.364
 6033SOL    HW118998   0.976   1.684   2.390
 6033SOL    HW218999   0.969   1.837   2.446
 6034SOL     OW19000   0.604   0.498   0.265
 6034SOL    HW119001   0.590   0.475   0.362
 6034SOL    HW219002   0.609   0.413   0.212
 6035SOL     OW19003   2.409   0.578   2.825
 6035SOL    HW119004   2.400   0.587   2.725
 6035SOL    HW219005   2.320   0.554   2.864
 6036SOL     OW19006   6.673   3.267   0.658
 6036SOL    HW119007   6.581   3.229   0.656
 6036SOL    HW219008   6.671   3.363   0.630
 6037SOL     OW19009   4.713   0.542   6.026
 6037SOL    HW119010   4.683   0.453   6.059
 6037SOL    HW219011   4.811   0.538   6.005
 6038SOL     OW19012   1.418   1.298   6.324
 6038SOL    HW119013   1.514   1.272   6.329
 6038SOL    HW219014   1.370   1.235   6.264
 6039SOL     OW19015   3.955   3.081   3.769
 6039SOL    HW119016   3.995   3.117   3.854
 6039SOL    HW219017   3.870   3.033   3.790
 6040SOL     OW19018   0.673   2.099   0.424
 6040SOL    HW119019   0.676   2.067   0.519
 6040SOL    HW219020   0.627   2.188   0.420
 6041SOL     OW19021   0.586   3.105   4.574
 6041SOL    HW119022   0.510   3.095   4.639
 6041SOL    HW219023   0.663   3.049   4.604
 6042SOL     OW19024   2.532   6.044   3.882
 6042SOL    HW119025   2.607   5.980   3.866
 6042SOL    HW219026   2.566   6.126   3.926
 6043SOL     OW19027   2.015   6.228   2.727
 6043SOL    HW119028   2.064   6.212   2.813
 6043SOL    HW219029   1.935   6.285   2.745
 6044SOL     OW19030   6.833   3.240   0.411
 6044SOL    HW119031   6.801   3.272   0.500
 6044SOL    HW219032   6.903   3.170   0.425
 6045SOL     OW19033   5.039   1.154   4.041
 6045SOL    HW119034   5.049   1.059   4.071
 6045SOL    HW219035   4.958   1.161   3.982
 6046SOL     OW19036   3.835   3.610   2.621
 6046SOL    HW119037   3.842   3.541   2.549
 6046SOL    HW219038   3.775   3.684   2.590
 6047SOL     OW19039   0.303   1.494   0.147
 6047SOL    HW119040   0.226   1.444   0.107
 6047SOL    HW219041   0.349   1.547   0.076
 6048SOL     OW19042   5.788   5.912   3.178
 6048SOL    HW119043   5.844   5.905   3.095
 6048SOL    HW219044   5.713   5.846   3.173
 6049SOL     OW19045   5.263   5.071   5.890
 6049SOL    HW119046   5.274   4.980   5.932
 6049SOL    HW219047   5.335   5.131   5.924
 6050SOL     OW19048   2.771   5.436   3.015
 6050SOL    HW119049   2.835   5.391   3.077
 6050SOL    HW219050   2.769   5.387   2.928
 6051SOL     OW19051   0.889   1.205   2.252
 6051SOL    HW119052   0.814   1.267   2.227
 6051SOL    HW219053   0.925   1.162   2.169
 6052SOL     OW19054   5.694   5.694   0.261
 6052SOL    HW119055   5.650   5.683   0.172
 6052SOL    HW219056   5.651   5.771   0.310
 6053SOL     OW19057   3.964   2.411   6.375
 6053SOL    HW119058   4.037   2.477   6.355
 6053SOL    HW219059   3.972   2.379   6.469
 6054SOL     OW19060   4.118   3.588   0.595
 6054SOL    HW119061   4.068   3.672   0.616
 6054SOL    HW219062   4.083   3.514   0.654
 6055SOL     OW19063   2.942   4.356   1.406
 6055SOL    HW119064   3.017   4.337   1.341
 6055SOL    HW219065   2.893   4.438   1.377
 6056SOL     OW19066   5.460   5.668   3.524
 6056SOL    HW119067   5.463   5.765   3.548
 6056SOL    HW219068   5.449   5.659   3.425
 6057SOL     OW19069   5.571   1.354   3.764
 6057SOL    HW119070   5.642   1.296   3.723
 6057SOL    HW219071   5.574   1.444   3.722
 6058SOL     OW19072   0.238   2.443   5.812
 6058SOL    HW119073   0.223   2.390   5.895
 6058SOL    HW219074   0.177   2.522   5.811
 6059SOL     OW19075   3.583   2.418   6.907
 6059SOL    HW119076   3.567   2.411   6.808
 6059SOL    HW219077   3.500   2.452   6.952
 6060SOL     OW19078   1.762   2.291   0.470
 6060SOL    HW119079   1.838   2.326   0.524
 6060SOL    HW219080   1.701   2.237   0.528
 6061SOL     OW19081   3.069   4.108   0.004
 6061SOL    HW119082   3.040   4.064   0.089
 6061SOL    HW219083   3.050   4.047   6.950
 6062SOL     OW19084   2.240   2.423   6.013
 6062SOL    HW119085   2.324   2.390   5.972
 6062SOL    HW219086   2.198   2.491   5.952
 6063SOL     OW19087   5.026   4.260   6.060
 6063SOL    HW119088   4.973   4.187   6.103
 6063SOL    HW219089   5.111   4.222   6.023
 6064SOL     OW19090   5.576   6.264   0.630
 6064SOL    HW119091   5.534   6.265   0.539
 6064SOL    HW219092   5.504   6.260   0.700
 6065SOL     OW19093   2.363   6.093   1.549
 6065SOL    HW119094   2.383   6.020   1.483
 6065SOL    HW219095   2.427   6.087   1.625
 6066SOL     OW19096   5.852   5.779   2.068
 6066SOL    HW119097   5.854   5.687   2.109
 6066SOL    HW219098   5.856   5.848   2.140
 6067SOL     OW19099   6.865   5.635   5.638
 6067SOL    HW119100   6.890   5.580   5.718
 6067SOL    HW219101   6.912   5.600   5.558
 6068SOL     OW19102   4.744   1.691   4.498
 6068SOL    HW119103   4.693   1.721   4.578
 6068SOL    HW219104   4.681   1.675   4.422
 6069SOL     OW19105   0.339   4.862   5.763
 6069SOL    HW119106   0.385   4.897   5.681
 6069SOL    HW219107   0.359   4.923   5.840
 6070SOL     OW19108   2.761   1.182   0.803
 6070SOL    HW119109   2.846   1.148   0.762
 6070SOL    HW219110   2.782   1.263   0.858
 6071SOL     OW19111   5.712   0.898   6.535
 6071SOL    HW119112   5.702   0.850   6.448
 6071SOL    HW219113   5.623   0.900   6.582
 6072SOL     OW19114   6.685   2.985   0.073
 6072SOL    HW119115   6.602   3.033   0.100
 6072SOL    HW219116   6.697   2.993   6.997
 6073SOL     OW19117   4.679   3.920   1.296
 6073SOL    HW119118   4.686   3.862   1.215
 6073SOL    HW219119   4.604   3.889   1.353
 6074SOL     OW19120   0.939   6.163   2.885
 6074SOL    HW119121   1.002   6.087   2.900
 6074SOL    HW219122   0.879   6.173   2.965
 6075SOL     OW19123   6.320   0.216   6.878
 6075SOL    HW119124   6.372   0.283   6.826
 6075SOL    HW219125   6.306   0.134   6.822
 6076SOL     OW19126   0.404   6.545   3.884
 6076SOL    HW119127   0.341   6.621   3.865
 6076SOL    HW219128   0.480   6.548   3.819
 6077SOL     OW19129   4.993   5.909   2.794
 6077SOL    HW119130   4.915   5.939   2.849
 6077SOL    HW219131   5.034   5.828   2.836
 6078SOL     OW19132   5.082   4.593   0.708
 6078SOL    HW119133   5.069   4.690   0.729
 6078SOL    HW219134   5.178   4.569   0.720
 6079SOL     OW19135   3.316   1.896   0.562
 6079SOL    HW119136   3.236   1.840   0.585
 6079SOL    HW219137   3.339   1.881   0.466
 6080SOL     OW19138   0.325   3.477   5.391
 6080SOL    HW119139   0.327   3.377   5.392
 6080SOL    HW219140   0.276   3.508   5.309
 6081SOL     OW19141   1.955   3.896   3.950
 6081SOL    HW119142   1.947   3.979   3.896
 6081SOL    HW219143   1.878   3.890   4.013
 6082SOL     OW19144   5.326   1.466   1.274
 6082SOL    HW119145   5.284   1.550   1.307
 6082SOL    HW219146   5.254   1.401   1.248
 6083SOL     OW19147   5.147   6.896   6.419
 6083SOL    HW119148   5.226   6.840   6.394
 6083SOL    HW219149   5.073   6.882   6.354
 6084SOL     OW19150   6.145   5.128   3.216
 6084SOL    HW119151   6.079   5.072   3.166
 6084SOL    HW219152   6.096   5.202   3.264
 6085SOL     OW19153   0.611   6.602   0.439
 6085SOL    HW119154   0.570   6.637   0.524
 6085SOL    HW219155   0.596   6.503   0.434
 6086SOL     OW19156   3.612   3.368   0.103
 6086SOL    HW119157   3.599   3.317   0.018
 6086SOL    HW219158   3.533   3.354   0.163
 6087SOL     OW19159   4.407   0.053   0.935
 6087SOL    HW119160   4.388   0.033   0.839
 6087SOL    HW219161   4.400   6.993   0.989
 6088SOL     OW19162   4.245   5.965   2.135
 6088SOL    HW119163   4.178   6.021   2.086
 6088SOL    HW219164   4.201   5.921   2.213
 6089SOL     OW19165   6.755   3.998   3.155
 6089SOL    HW119166   6.695   3.948   3.218
 6089SOL    HW219167   6.821   4.052   3.207
 6090SOL     OW19168   3.768   5.667   5.079
 6090SOL    HW119169   3.780   5.767   5.083
 6090SOL    HW219170   3.672   5.645   5.098
 6091SOL     OW19171   0.629   2.276   2.604
 6091SOL    HW119172   0.546   2.241   2.562
 6091SOL    HW219173   0.691   2.200   2.623
 6092SOL     OW19174   2.580   6.913   1.330
 6092SOL    HW119175   2.635   6.830   1.317
 6092SOL    HW219176   2.507   6.915   1.262
 6093SOL     OW19177   2.683   2.831   1.517
 6093SOL    HW119178   2.646   2.739   1.512
 6093SOL    HW219179   2.625   2.894   1.465
 6094SOL     OW19180   0.850   6.997   5.491
 6094SOL    HW119181   0.781   0.034   5.451
 6094SOL    HW219182   0.851   7.009   5.590
 6095SOL     OW19183   5.301   5.142   2.113
 6095SOL    HW119184   5.383   5.085   2.122
 6095SOL    HW219185   5.328   5.236   2.089
 6096SOL     OW19186   4.993   6.055   2.558
 6096SOL    HW119187   5.021   6.148   2.582
 6096SOL    HW219188   4.991   5.999   2.641
 6097SOL     OW19189   2.920   5.234   2.547
 6097SOL    HW119190   2.982   5.178   2.492
 6097SOL    HW219191   2.952   5.329   2.545
 6098SOL     OW19192   5.954   0.607   5.359
 6098SOL    HW119193   5.891   0.648   5.425
 6098SOL    HW219194   5.928   0.635   5.267
 6099SOL     OW19195   3.598   6.825   5.241
 6099SOL    HW119196   3.537   6.852   5.315
 6099SOL    HW219197   3.602   6.725   5.236
 6100SOL     OW19198   0.278   6.054   4.804
 6100SOL    HW119199   0.304   6.075   4.709
 6100SOL    HW219200   0.359   6.064   4.863
 6101SOL     OW19201   0.504   2.517   1.940
 6101SOL    HW119202   0.522   2.615   1.934
 6101SOL    HW219203   0.425   2.494   1.884
 6102SOL     OW19204   3.375   0.176   3.009
 6102SOL    HW119205   3.417   0.174   2.918
 6102SOL    HW219206   3.438   0.134   3.075
 6103SOL     OW19207   5.596   1.076   2.373
 6103SOL    HW119208   5.626   1.128   2.453
 6103SOL    HW219209   5.573   0.983   2.400
 6104SOL     OW19210   6.575   1.151   4.585
 6104SOL    HW119211   6.580   1.052   4.596
 6104SOL    HW219212   6.667   1.188   4.570
 6105SOL     OW19213   4.073   4.479   5.645
 6105SOL    HW119214   4.165   4.490   5.684
 6105SOL    HW219215   4.080   4.445   5.551
 6106SOL     OW19216   6.135   3.986   4.953
 6106SOL    HW119217   6.205   3.967   4.884
 6106SOL    HW219218   6.045   3.960   4.917
 6107SOL     OW19219   5.724   4.955   5.245
 6107SOL    HW119220   5.769   4.912   5.323
 6107SOL    HW219221   5.788   4.958   5.167
 6108SOL     OW19222   2.504   1.356   6.377
 6108SOL    HW119223   2.449   1.370   6.294
 6108SOL    HW219224   2.528   1.259   6.385
 6109SOL     OW19225   0.067   6.245   3.964
 6109SOL    HW119226   0.148   6.219   3.911
 6109SOL    HW219227   7.009   6.205   3.922
 6110SOL     OW19228   1.406   1.245   3.907
 6110SOL    HW119229   1.430   1.240   3.810
 6110SOL    HW219230   1.308   1.262   3.916
 6111SOL     OW19231   2.009   3.207   0.616
 6111SOL    HW119232   2.034   3.111   0.602
 6111SOL    HW219233   1.993   3.251   0.527
 6112SOL     OW19234   4.726   6.408   3.962
 6112SOL    HW119235   4.634   6.447   3.965
 6112SOL    HW219236   4.736   6.352   3.880
 6113SOL     OW19237   2.987   5.449   0.715
 6113SOL    HW119238   2.914   5.517   0.724
 6113SOL    HW219239   3.025   5.454   0.623
 6114SOL     OW19240   4.365   3.395   1.288
 6114SOL    HW119241   4.457   3.360   1.302
 6114SOL    HW219242   4.365   3.495   1.298
 6115SOL     OW19243   6.946   0.548   5.097
 6115SOL    HW119244   6.862   0.602   5.101
 6115SOL    HW219245   6.937   0.467   5.156
 6116SOL     OW19246   6.399   3.404   0.286
 6116SOL    HW119247   6.337   3.426   0.361
 6116SOL    HW219248   6.355   3.340   0.224
 6117SOL     OW19249   2.418   2.308   1.474
 6117SOL    HW119250   2.467   2.253   1.542
 6117SOL    HW219251   2.464   2.302   1.386
 6118SOL     OW19252   5.206   0.481   1.869
 6118SOL    HW119253   5.243   0.550   1.932
 6118SOL    HW219254   5.272   0.464   1.796
 6119SOL     OW19255   0.392   1.302   6.847
 6119SOL    HW119256   0.437   1.243   6.780
 6119SOL    HW219257   0.437   1.391   6.849
 6120SOL     OW19258   3.090   0.502   3.893
 6120SOL    HW119259   3.185   0.478   3.876
 6120SOL    HW219260   3.030   0.429   3.858
 6121SOL     OW19261   2.172   2.123   4.965
 6121SOL    HW119262   2.213   2.036   4.991
 6121SOL    HW219263   2.239   2.197   4.979
 6122SOL     OW19264   5.119   4.776   5.139
 6122SOL    HW119265   5.122   4.852   5.204
 6122SOL    HW219266   5.089   4.810   5.050
 6123SOL     OW19267   6.316   1.028   5.102
 6123SOL    HW119268   6.296   1.040   5.005
 6123SOL    HW219269   6.285   0.938   5.132
 6124SOL     OW19270   2.115   5.650   4.106
 6124SOL    HW119271   2.140   5.700   4.023
 6124SOL    HW219272   2.151   5.698   4.186
 6125SOL     OW19273   3.597   1.731   5.516
 6125SOL    HW119274   3.605   1.647   5.569
 6125SOL    HW219275   3.525   1.720   5.447
 6126SOL     OW19276   6.147   3.069   6.843
 6126SOL    HW119277   6.086   3.004   6.800
 6126SOL    HW219278   6.093   3.135   6.896
 6127SOL     OW19279   5.475   1.411   2.904
 6127SOL    HW119280   5.457   1.500   2.863
 6127SOL    HW219281   5.571   1.405   2.930
 6128SOL     OW19282   5.827   5.669   6.563
 6128SOL    HW119283   5.760   5.742   6.552
 6128SOL    HW219284   5.789   5.597   6.621
 6129SOL     OW19285   2.729   5.608   3.210
 6129SOL    HW119286   2.745   5.558   3.125
 6129SOL    HW219287   2.654   5.565   3.261
 6130SOL     OW19288   5.643   2.974   0.076
 6130SOL    HW119289   5.735   2.959   0.111
 6130SOL    HW219290   5.608   2.890   0.034
 6131SOL     OW19291   6.625   2.398   3.101
 6131SOL    HW119292   6.526   2.400   3.113
 6131SOL    HW219293   6.664   2.485   3.130
 6132SOL     OW19294   4.462   6.400   6.176
 6132SOL    HW119295   4.470   6.301   6.183
 6132SOL    HW219296   4.553   6.441   6.176
 6133SOL     OW19297   0.816   2.379   3.046
 6133SOL    HW119298   0.861   2.365   3.134
 6133SOL    HW219299   0.834   2.472   3.013
 6134SOL     OW19300   0.215   6.207   5.073
 6134SOL    HW119301   0.188   6.201   5.169
 6134SOL    HW219302   0.160   6.143   5.019
 6135SOL     OW19303   6.583   6.801   0.403
 6135SOL    HW119304   6.635   6.864   0.345
 6135SOL    HW219305   6.635   6.717   0.415
 6136SOL     OW19306   1.111   1.834   3.513
 6136SOL    HW119307   1.087   1.749   3.559
 6136SOL    HW219308   1.200   1.824   3.468
 6137SOL     OW19309   6.791   4.872   1.060
 6137SOL    HW119310   6.854   4.833   1.127
 6137SOL    HW219311   6.713   4.811   1.047
 6138SOL     OW19312   5.350   0.630   2.446
 6138SOL    HW119313   5.327   0.557   2.382
 6138SOL    HW219314   5.445   0.658   2.432
 6139SOL     OW19315   1.588   1.831   5.000
 6139SOL    HW119316   1.675   1.786   4.981
 6139SOL    HW219317   1.604   1.928   5.020
 6140SOL     OW19318   2.231   0.124   3.059
 6140SOL    HW119319   2.313   0.066   3.061
 6140SOL    HW219320   2.219   0.167   3.148
 6141SOL     OW19321   1.236   1.101   7.013
 6141SOL    HW119322   1.331   1.083   0.017
 6141SOL    HW219323   1.179   1.113   0.071
 6142SOL     OW19324   6.540   0.226   1.401
 6142SOL    HW119325   6.465   0.289   1.380
 6142SOL    HW219326   6.581   0.194   1.315
 6143SOL     OW19327   0.774   3.284   5.608
 6143SOL    HW119328   0.732   3.281   5.518
 6143SOL    HW219329   0.800   3.378   5.631
 6144SOL     OW19330   3.338   5.277   2.719
 6144SOL    HW119331   3.278   5.355   2.734
 6144SOL    HW219332   3.431   5.300   2.746
 6145SOL     OW19333   4.844   3.062   3.603
 6145SOL    HW119334   4.848   3.104   3.513
 6145SOL    HW219335   4.867   3.130   3.673
 6146SOL     OW19336   5.823   0.269   5.457
 6146SOL    HW119337   5.872   0.332   5.517
 6146SOL    HW219338   5.767   0.322   5.393
 6147SOL     OW19339   1.238   2.197   5.687
 6147SOL    HW119340   1.291   2.160   5.764
 6147SOL    HW219341   1.141   2.196   5.710
 6148SOL     OW19342   3.776   5.238   6.955
 6148SOL    HW119343   3.789   5.140   6.936
 6148SOL    HW219344   3.827   5.292   6.888
 6149SOL     OW19345   3.663   2.101   1.580
 6149SOL    HW119346   3.729   2.167   1.616
 6149SOL    HW219347   3.583   2.097   1.639
 6150SOL     OW19348   0.288   4.266   4.701
 6150SOL    HW119349   0.372   4.235   4.657
 6150SOL    HW219350   0.241   4.188   4.743
 6151SOL     OW19351   3.713   4.868   3.150
 6151SOL    HW119352   3.634   4.919   3.186
 6151SOL    HW219353   3.732   4.899   3.056
 6152SOL     OW19354   1.224   3.722   2.837
 6152SOL    HW119355   1.184   3.790   2.775
 6152SOL    HW219356   1.320   3.708   2.813
 6153SOL     OW19357   4.974   6.061   1.188
 6153SOL    HW119358   4.904   5.997   1.219
 6153SOL    HW219359   4.930   6.137   1.139
 6154SOL     OW19360   4.922   4.238   2.567
 6154SOL    HW119361   4.851   4.302   2.538
 6154SOL    HW219362   4.901   4.147   2.531
 6155SOL     OW19363   1.925   1.033   3.845
 6155SOL    HW119364   1.917   1.117   3.897
 6155SOL    HW219365   1.983   1.048   3.765
 6156SOL     OW19366   5.264   4.309   2.429
 6156SOL    HW119367   5.355   4.270   2.415
 6156SOL    HW219368   5.195   4.243   2.399
 6157SOL     OW19369   0.574   3.065   1.005
 6157SOL    HW119370   0.615   3.139   1.058
 6157SOL    HW219371   0.549   2.990   1.066
 6158SOL     OW19372   2.888   1.822   5.375
 6158SOL    HW119373   2.923   1.909   5.410
 6158SOL    HW219374   2.788   1.823   5.374
 6159SOL     OW19375   5.549   2.752   6.953
 6159SOL    HW119376   5.567   2.683   6.883
 6159SOL    HW219377   5.453   2.746   6.981
 6160SOL     OW19378   0.540   0.198   1.426
 6160SOL    HW119379   0.517   0.102   1.442
 6160SOL    HW219380   0.457   0.253   1.428
 6161SOL     OW19381   4.730   3.658   6.696
 6161SOL    HW119382   4.717   3.742   6.643
 6161SOL    HW219383   4.707   3.677   6.792
 6162SOL     OW19384   6.519   5.771   1.693
 6162SOL    HW119385   6.568   5.744   1.611
 6162SOL    HW219386   6.420   5.768   1.676
 6163SOL     OW19387   6.169   6.034   2.793
 6163SOL    HW119388   6.161   6.131   2.817
 6163SOL    HW219389   6.082   6.002   2.754
 6164SOL     OW19390   3.375   3.864   3.918
 6164SOL    HW119391   3.373   3.830   4.012
 6164SOL    HW219392   3.468   3.857   3.882
 6165SOL     OW19393   3.654   1.117   0.008
 6165SOL    HW119394   3.746   1.105   6.993
 6165SOL    HW219395   3.641   1.213   0.033
 6166SOL     OW19396   2.957   1.934   6.254
 6166SOL    HW119397   2.941   1.850   6.201
 6166SOL    HW219398   2.872   1.962   6.298
 6167SOL     OW19399   1.687   3.112   3.348
 6167SOL    HW119400   1.612   3.062   3.392
 6167SOL    HW219401   1.652   3.197   3.309
 6168SOL     OW19402   0.378   3.581   4.297
 6168SOL    HW119403   0.417   3.671   4.275
 6168SOL    HW219404   0.359   3.576   4.395
 6169SOL     OW19405   2.538   0.727   6.777
 6169SOL    HW119406   2.508   0.674   6.857
 6169SOL    HW219407   2.522   0.674   6.694
 6170SOL     OW19408   2.825   4.617   0.876
 6170SOL    HW119409   2.740   4.618   0.929
 6170SOL    HW219410   2.804   4.625   0.779
 6171SOL     OW19411   2.248   3.976   1.991
 6171SOL    HW119412   2.216   3.925   1.911
 6171SOL    HW219413   2.283   3.912   2.060
 6172SOL     OW19414   2.903   5.517   1.971
 6172SOL    HW119415   2.956   5.436   1.945
 6172SOL    HW219416   2.805   5.496   1.965
 6173SOL     OW19417   1.318   5.591   2.304
 6173SOL    HW119418   1.236   5.536   2.284
 6173SOL    HW219419   1.373   5.544   2.374
 6174SOL     OW19420   5.475   4.152   1.754
 6174SOL    HW119421   5.474   4.212   1.834
 6174SOL    HW219422   5.454   4.205   1.672
 6175SOL     OW19423   5.220   0.358   4.072
 6175SOL    HW119424   5.246   0.266   4.045
 6175SOL    HW219425   5.228   0.367   4.172
 6176SOL     OW19426   4.957   3.136   6.498
 6176SOL    HW119427   4.860   3.141   6.472
 6176SOL    HW219428   4.989   3.227   6.525
 6177SOL     OW19429   6.917   3.076   2.718
 6177SOL    HW119430   6.824   3.043   2.701
 6177SOL    HW219431   6.945   3.051   2.811
 6178SOL     OW19432   5.827   3.472   1.577
 6178SOL    HW119433   5.734   3.507   1.589
 6178SOL    HW219434   5.825   3.372   1.581
 6179SOL     OW19435   0.728   1.603   5.109
 6179SOL    HW119436   0.819   1.585   5.070
 6179SOL    HW219437   0.680   1.668   5.051
 6180SOL     OW19438   3.483   0.356   5.979
 6180SOL    HW119439   3.457   0.390   6.070
 6180SOL    HW219440   3.577   0.323   5.982
 6181SOL     OW19441   4.492   5.961   6.762
 6181SOL    HW119442   4.419   5.992   6.701
 6181SOL    HW219443   4.459   5.960   6.856
 6182SOL     OW19444   5.093   6.802   5.816
 6182SOL    HW119445   5.023   6.760   5.873
 6182SOL    HW219446   5.088   6.764   5.724
 6183SOL     OW19447   3.706   1.092   2.844
 6183SOL    HW119448   3.713   1.003   2.888
 6183SOL    HW219449   3.653   1.084   2.759
 6184SOL     OW19450   5.914   0.140   6.299
 6184SOL    HW119451   5.871   0.087   6.226
 6184SOL    HW219452   5.842   0.186   6.352
 6185SOL     OW19453   1.568   3.045   6.012
 6185SOL    HW119454   1.577   2.946   6.004
 6185SOL    HW219455   1.485   3.075   5.964
 6186SOL     OW19456   5.150   0.116   4.522
 6186SOL    HW119457   5.141   0.148   4.427
 6186SOL    HW219458   5.145   0.017   4.523
 6187SOL     OW19459   2.959   4.816   4.798
 6187SOL    HW119460   2.934   4.746   4.865
 6187SOL    HW219461   2.888   4.822   4.728
 6188SOL     OW19462   2.741   0.047   1.510
 6188SOL    HW119463   2.764   7.004   1.581
 6188SOL    HW219464   2.683   0.003   1.441
 6189SOL     OW19465   5.103   4.761   3.225
 6189SOL    HW119466   5.107   4.861   3.228
 6189SOL    HW219467   5.050   4.727   3.302
 6190SOL     OW19468   5.025   2.760   5.670
 6190SOL    HW119469   5.077   2.727   5.748
 6190SOL    HW219470   4.934   2.788   5.699
 6191SOL     OW19471   6.358   2.223   6.456
 6191SOL    HW119472   6.275   2.169   6.453
 6191SOL    HW219473   6.369   2.262   6.548
 6192SOL     OW19474   3.212   2.158   0.612
 6192SOL    HW119475   3.259   2.236   0.571
 6192SOL    HW219476   3.266   2.075   0.597
 6193SOL     OW19477   6.423   6.850   1.401
 6193SOL    HW119478   6.513   6.851   1.444
 6193SOL    HW219479   6.360   6.910   1.451
 6194SOL     OW19480   1.670   0.607   0.436
 6194SOL    HW119481   1.638   0.538   0.502
 6194SOL    HW219482   1.710   0.683   0.485
 6195SOL     OW19483   2.735   6.873   5.834
 6195SOL    HW119484   2.651   6.859   5.782
 6195SOL    HW219485   2.714   6.884   5.931
 6196SOL     OW19486   0.131   1.387   6.081
 6196SOL    HW119487   0.182   1.314   6.127
 6196SOL    HW219488   0.047   1.406   6.133
 6197SOL     OW19489   2.303   2.990   0.627
 6197SOL    HW119490   2.236   2.997   0.554
 6197SOL    HW219491   2.305   2.897   0.663
 6198SOL     OW19492   3.736   5.102   2.600
 6198SOL    HW119493   3.712   5.183   2.654
 6198SOL    HW219494   3.777   5.034   2.660
 6199SOL     OW19495   0.611   0.786   6.399
 6199SOL    HW119496   0.629   0.833   6.485
 6199SOL    HW219497   0.694   0.738   6.370
 6200SOL     OW19498   4.099   1.110   5.932
 6200SOL    HW119499   4.082   1.028   5.987
 6200SOL    HW219500   4.014   1.139   5.888
 6201SOL     OW19501   2.348   4.343   4.135
 6201SOL    HW119502   2.439   4.377   4.159
 6201SOL    HW219503   2.312   4.395   4.058
 6202SOL     OW19504   2.875   2.633   1.356
 6202SOL    HW119505   2.829   2.719   1.335
 6202SOL    HW219506   2.961   2.628   1.306
 6203SOL     OW19507   5.509   2.092   5.211
 6203SOL    HW119508   5.518   2.191   5.225
 6203SOL    HW219509   5.600   2.050   5.210
 6204SOL     OW19510   1.559   6.451   5.975
 6204SOL    HW119511   1.574   6.359   6.010
 6204SOL    HW219512   1.599   6.517   6.039
 6205SOL     OW19513   5.223   6.400   0.152
 6205SOL    HW119514   5.258   6.306   0.143
 6205SOL    HW219515   5.282   6.451   0.215
 6206SOL     OW19516   5.520   6.982   3.352
 6206SOL    HW119517   5.463   0.040   3.368
 6206SOL    HW219518   5.502   6.947   3.260
 6207SOL     OW19519   1.830   4.169   4.504
 6207SOL    HW119520   1.762   4.241   4.515
 6207SOL    HW219521   1.921   4.206   4.524
 6208SOL     OW19522   5.877   5.866   5.946
 6208SOL    HW119523   5.892   5.906   6.036
 6208SOL    HW219524   5.941   5.791   5.931
 6209SOL     OW19525   2.947   4.954   1.116
 6209SOL    HW119526   2.936   5.002   1.203
 6209SOL    HW219527   2.857   4.939   1.075
 6210SOL     OW19528   6.779   4.906   2.970
 6210SOL    HW119529   6.830   4.821   2.979
 6210SOL    HW219530   6.841   4.984   2.982
 6211SOL     OW19531   2.595   0.573   5.197
 6211SOL    HW119532   2.513   0.515   5.200
 6211SOL    HW219533   2.567   0.669   5.190
 6212SOL     OW19534   6.754   0.226   3.675
 6212SOL    HW119535   6.841   0.274   3.684
 6212SOL    HW219536   6.770   0.127   3.668
 6213SOL     OW19537   6.589   0.390   0.051
 6213SOL    HW119538   6.578   0.341   6.988
 6213SOL    HW219539   6.661   0.458   0.041
 6214SOL     OW19540   5.862   5.073   2.378
 6214SOL    HW119541   5.880   5.104   2.284
 6214SOL    HW219542   5.833   4.977   2.377
 6215SOL     OW19543   2.540   5.357   1.095
 6215SOL    HW119544   2.569   5.424   1.163
 6215SOL    HW219545   2.466   5.394   1.039
 6216SOL     OW19546   6.708   1.889   2.443
 6216SOL    HW119547   6.790   1.888   2.385
 6216SOL    HW219548   6.647   1.962   2.412
 6217SOL     OW19549   5.423   1.863   1.460
 6217SOL    HW119550   5.362   1.911   1.524
 6217SOL    HW219551   5.377   1.782   1.426
 6218SOL     OW19552   3.819   5.031   4.326
 6218SOL    HW119553   3.818   5.126   4.357
 6218SOL    HW219554   3.891   4.981   4.375
 6219SOL     OW19555   0.529   1.328   4.094
 6219SOL    HW119556   0.488   1.399   4.037
 6219SOL    HW219557   0.538   1.244   4.041
 6220SOL     OW19558   1.646   3.820   5.179
 6220SOL    HW119559   1.555   3.782   5.192
 6220SOL    HW219560   1.648   3.878   5.098
 6221SOL     OW19561   4.038   4.929   4.450
 6221SOL    HW119562   4.104   4.969   4.513
 6221SOL    HW219563   4.085   4.900   4.367
 6222SOL     OW19564   0.163   1.594   1.499
 6222SOL    HW119565   0.235   1.597   1.569
 6222SOL    HW219566   0.076   1.573   1.543
 6223SOL     OW19567   5.012   4.071   4.503
 6223SOL    HW119568   4.927   4.019   4.507
 6223SOL    HW219569   5.078   4.032   4.568
 6224SOL     OW19570   2.259   0.260   4.749
 6224SOL    HW119571   2.316   0.232   4.672
 6224SOL    HW219572   2.309   0.325   4.806
 6225SOL     OW19573   4.062   1.932   6.976
 6225SOL    HW119574   3.968   1.936   6.942
 6225SOL    HW219575   4.072   1.854   0.014
 6226SOL     OW19576   6.633   6.714   4.462
 6226SOL    HW119577   6.710   6.776   4.444
 6226SOL    HW219578   6.565   6.761   4.519
 6227SOL     OW19579   2.903   4.684   0.221
 6227SOL    HW119580   2.928   4.777   0.192
 6227SOL    HW219581   2.806   4.669   0.204
 6228SOL     OW19582   6.535   1.712   2.519
 6228SOL    HW119583   6.600   1.783   2.493
 6228SOL    HW219584   6.493   1.736   2.607
 6229SOL     OW19585   1.674   2.699   1.947
 6229SOL    HW119586   1.577   2.689   1.967
 6229SOL    HW219587   1.718   2.609   1.946
 6230SOL     OW19588   2.292   2.360   3.309
 6230SOL    HW119589   2.311   2.291   3.239
 6230SOL    HW219590   2.375   2.410   3.330
 6231SOL     OW19591   6.697   5.672   1.459
 6231SOL    HW119592   6.610   5.671   1.410
 6231SOL    HW219593   6.737   5.580   1.458
 6232SOL     OW19594   1.054   1.339   0.017
 6232SOL    HW119595   1.046   1.308   0.112
 6232SOL    HW219596   0.968   1.382   7.013
 6233SOL     OW19597   4.589   1.344   6.684
 6233SOL    HW119598   4.534   1.423   6.712
 6233SOL    HW219599   4.546   1.260   6.716
 6234SOL     OW19600   2.052   2.644   3.637
 6234SOL    HW119601   2.026   2.729   3.591
 6234SOL    HW219602   2.011   2.641   3.728
 6235SOL     OW19603   1.929   5.820   2.847
 6235SOL    HW119604   1.988   5.781   2.918
 6235SOL    HW219605   1.878   5.898   2.885
 6236SOL     OW19606   6.572   3.907   0.303
 6236SOL    HW119607   6.494   3.862   0.259
 6236SOL    HW219608   6.544   3.997   0.336
 6237SOL     OW19609   4.024   6.087   6.769
 6237SOL    HW119610   3.964   6.130   6.702
 6237SOL    HW219611   3.976   6.079   6.857
 6238SOL     OW19612   4.570   3.871   0.852
 6238SOL    HW119613   4.592   3.931   0.775
 6238SOL    HW219614   4.471   3.874   0.869
 6239SOL     OW19615   2.463   6.968   3.653
 6239SOL    HW119616   2.389   6.932   3.597
 6239SOL    HW219617   2.432   6.978   3.747
 6240SOL     OW19618   1.525   3.563   0.116
 6240SOL    HW119619   1.480   3.613   0.042
 6240SOL    HW219620   1.584   3.625   0.168
 6241SOL     OW19621   4.646   0.141   1.690
 6241SOL    HW119622   4.708   0.150   1.612
 6241SOL    HW219623   4.566   0.200   1.675
 6242SOL     OW19624   4.022   2.101   3.700
 6242SOL    HW119625   3.923   2.087   3.700
 6242SOL    HW219626   4.064   2.049   3.775
 6243SOL     OW19627   5.737   5.560   3.056
 6243SOL    HW119628   5.814   5.506   3.091
 6243SOL    HW219629   5.751   5.579   2.959
 6244SOL     OW19630   2.106   2.006   2.093
 6244SOL    HW119631   2.128   1.990   1.997
 6244SOL    HW219632   2.185   2.046   2.139
 6245SOL     OW19633   2.044   3.672   0.632
 6245SOL    HW119634   2.035   3.621   0.718
 6245SOL    HW219635   2.117   3.632   0.577
 6246SOL     OW19636   4.652   0.545   0.246
 6246SOL    HW119637   4.745   0.551   0.283
 6246SOL    HW219638   4.595   0.614   0.289
 6247SOL     OW19639   6.867   5.968   2.721
 6247SOL    HW119640   6.942   5.963   2.787
 6247SOL    HW219641   6.818   5.881   2.719
 6248SOL     OW19642   1.014   5.473   1.160
 6248SOL    HW119643   0.965   5.512   1.081
 6248SOL    HW219644   1.011   5.537   1.236
 6249SOL     OW19645   5.988   4.136   6.617
 6249SOL    HW119646   5.983   4.229   6.653
 6249SOL    HW219647   5.943   4.073   6.681
 6250SOL     OW19648   6.185   4.600   5.827
 6250SOL    HW119649   6.240   4.648   5.758
 6250SOL    HW219650   6.183   4.502   5.806
 6251SOL     OW19651   4.792   1.869   1.073
 6251SOL    HW119652   4.798   1.869   1.173
 6251SOL    HW219653   4.714   1.812   1.044
 6252SOL     OW19654   2.029   6.097   5.465
 6252SOL    HW119655   2.098   6.064   5.400
 6252SOL    HW219656   1.939   6.097   5.420
 6253SOL     OW19657   2.724   3.948   1.516
 6253SOL    HW119658   2.735   3.857   1.475
 6253SOL    HW219659   2.636   3.952   1.564
 6254SOL     OW19660   4.986   7.022   0.193
 6254SOL    HW119661   5.021   6.947   0.249
 6254SOL    HW219662   5.035   0.001   0.106
 6255SOL     OW19663   0.158   2.397   3.228
 6255SOL    HW119664   0.058   2.392   3.222
 6255SOL    HW219665   0.184   2.456   3.304
 6256SOL     OW19666   3.701   5.186   4.100
 6256SOL    HW119667   3.796   5.160   4.119
 6256SOL    HW219668   3.700   5.273   4.049
 6257SOL     OW19669   4.238   3.258   0.244
 6257SOL    HW119670   4.159   3.306   0.284
 6257SOL    HW219671   4.304   3.325   0.210
 6258SOL     OW19672   4.441   2.338   2.765
 6258SOL    HW119673   4.523   2.393   2.749
 6258SOL    HW219674   4.426   2.329   2.863
 6259SOL     OW19675   3.129   2.369   1.494
 6259SOL    HW119676   3.227   2.372   1.475
 6259SOL    HW219677   3.079   2.348   1.410
 6260SOL     OW19678   3.494   3.980   0.856
 6260SOL    HW119679   3.402   3.944   0.874
 6260SOL    HW219680   3.493   4.033   0.771
 6261SOL     OW19681   4.693   0.063   6.854
 6261SOL    HW119682   4.610   0.117   6.847
 6261SOL    HW219683   4.738   0.060   6.764
 6262SOL     OW19684   0.543   6.035   5.312
 6262SOL    HW119685   0.536   6.054   5.410
 6262SOL    HW219686   0.515   6.116   5.261
 6263SOL     OW19687   6.303   1.248   1.094
 6263SOL    HW119688   6.393   1.245   1.137
 6263SOL    HW219689   6.234   1.270   1.162
 6264SOL     OW19690   2.286   1.513   0.111
 6264SOL    HW119691   2.205   1.456   0.099
 6264SOL    HW219692   2.272   1.600   0.062
 6265SOL     OW19693   5.020   3.849   1.121
 6265SOL    HW119694   5.003   3.910   1.198
 6265SOL    HW219695   4.934   3.818   1.083
 6266SOL     OW19696   2.652   0.008   2.379
 6266SOL    HW119697   2.653   6.945   2.329
 6266SOL    HW219698   2.739   0.021   2.426
 6267SOL     OW19699   2.615   0.257   6.976
 6267SOL    HW119700   2.538   0.245   0.014
 6267SOL    HW219701   2.594   0.215   6.887
 6268SOL     OW19702   2.387   5.564   3.222
 6268SOL    HW119703   2.417   5.613   3.140
 6268SOL    HW219704   2.365   5.631   3.294
 6269SOL     OW19705   6.057   4.263   0.358
 6269SOL    HW119706   6.055   4.175   0.405
 6269SOL    HW219707   5.971   4.277   0.310
 6270SOL     OW19708   0.595   0.883   4.398
 6270SOL    HW119709   0.523   0.837   4.451
 6270SOL    HW219710   0.586   0.982   4.409
 6271SOL     OW19711   6.413   1.797   1.029
 6271SOL    HW119712   6.422   1.819   0.932
 6271SOL    HW219713   6.338   1.850   1.068
 6272SOL     OW19714   2.117   2.172   3.427
 6272SOL    HW119715   2.167   2.248   3.386
 6272SOL    HW219716   2.039   2.208   3.479
 6273SOL     OW19717   4.119   0.526   2.407
 6273SOL    HW119718   4.176   0.444   2.410
 6273SOL    HW219719   4.178   0.607   2.413
 6274SOL     OW19720   2.979   6.725   6.518
 6274SOL    HW119721   2.959   6.820   6.492
 6274SOL    HW219722   2.949   6.709   6.612
 6275SOL     OW19723   3.088   0.687   4.364
 6275SOL    HW119724   3.035   0.664   4.282
 6275SOL    HW219725   3.124   0.780   4.356
 6276SOL     OW19726   1.129   5.272   3.721
 6276SOL    HW119727   1.081   5.281   3.808
 6276SOL    HW219728   1.145   5.363   3.683
 6277SOL     OW19729   5.841   3.419   4.509
 6277SOL    HW119730   5.777   3.472   4.564
 6277SOL    HW219731   5.907   3.480   4.466
 6278SOL     OW19732   4.482   0.373   3.883
 6278SOL    HW119733   4.436   0.286   3.903
 6278SOL    HW219734   4.450   0.443   3.948
 6279SOL     OW19735   4.797   1.297   7.001
 6279SOL    HW119736   4.814   1.390   6.968
 6279SOL    HW219737   4.699   1.276   6.993
 6280SOL     OW19738   0.875   5.274   6.018
 6280SOL    HW119739   0.807   5.210   6.053
 6280SOL    HW219740   0.915   5.239   5.934
 6281SOL     OW19741   2.815   6.788   5.151
 6281SOL    HW119742   2.768   6.875   5.159
 6281SOL    HW219743   2.795   6.747   5.062
 6282SOL     OW19744   0.898   0.345   3.260
 6282SOL    HW119745   0.799   0.350   3.271
 6282SOL    HW219746   0.929   0.417   3.198
 6283SOL     OW19747   0.781   3.565   5.028
 6283SOL    HW119748   0.697   3.553   4.976
 6283SOL    HW219749   0.802   3.482   5.079
 6284SOL     OW19750   2.490   4.803   6.271
 6284SOL    HW119751   2.479   4.705   6.291
 6284SOL    HW219752   2.400   4.843   6.252
 6285SOL     OW19753   2.015   4.658   2.881
 6285SOL    HW119754   2.097   4.604   2.901
 6285SOL    HW219755   2.034   4.755   2.896
 6286SOL     OW19756   6.340   6.707   4.618
 6286SOL    HW119757   6.269   6.777   4.609
 6286SOL    HW219758   6.310   6.636   4.681
 6287SOL     OW19759   3.526   4.906   2.765
 6287SOL    HW119760   3.463   4.936   2.838
 6287SOL    HW219761   3.478   4.908   2.677
 6288SOL     OW19762   5.512   3.503   1.024
 6288SOL    HW119763   5.590   3.540   1.075
 6288SOL    HW219764   5.543   3.430   0.964
 6289SOL     OW19765   1.282   6.860   2.448
 6289SOL    HW119766   1.344   6.919   2.395
 6289SOL    HW219767   1.188   6.889   2.434
 6290SOL     OW19768   5.922   3.672   3.662
 6290SOL    HW119769   5.934   3.573   3.655
 6290SOL    HW219770   6.010   3.717   3.650
 6291SOL     OW19771   4.152   3.567   3.222
 6291SOL    HW119772   4.243   3.544   3.258
 6291SOL    HW219773   4.083   3.508   3.265
 6292SOL     OW19774   0.211   1.250   1.914
 6292SOL    HW119775   0.149   1.280   1.987
 6292SOL    HW219776   0.205   1.315   1.838
 6293SOL     OW19777   5.384   4.856   0.414
 6293SOL    HW119778   5.369   4.948   0.449
 6293SOL    HW219779   5.355   4.852   0.318
 6294SOL     OW19780   3.819   5.717   2.221
 6294SOL    HW119781   3.743   5.778   2.199
 6294SOL    HW219782   3.787   5.622   2.221
 6295SOL     OW19783   6.724   6.281   5.868
 6295SOL    HW119784   6.683   6.339   5.798
 6295SOL    HW219785   6.652   6.246   5.929
 6296SOL     OW19786   6.675   0.613   2.475
 6296SOL    HW119787   6.593   0.650   2.517
 6296SOL    HW219788   6.718   0.683   2.418
 6297SOL     OW19789   5.417   0.936   5.683
 6297SOL    HW119790   5.325   0.937   5.645
 6297SOL    HW219791   5.419   0.880   5.766
 6298SOL     OW19792   6.975   2.154   3.649
 6298SOL    HW119793   6.921   2.217   3.704
 6298SOL    HW219794   0.016   2.206   3.592
 6299SOL     OW19795   6.252   2.744   0.642
 6299SOL    HW119796   6.264   2.667   0.579
 6299SOL    HW219797   6.340   2.791   0.653
 6300SOL     OW19798   5.101   1.334   3.486
 6300SOL    HW119799   5.028   1.388   3.529
 6300SOL    HW219800   5.188   1.354   3.531
 6301SOL     OW19801   3.242   0.602   1.046
 6301SOL    HW119802   3.217   0.526   0.986
 6301SOL    HW219803   3.312   0.658   1.002
 6302SOL     OW19804   6.592   0.411   2.317
 6302SOL    HW119805   6.633   0.480   2.378
 6302SOL    HW219806   6.519   0.364   2.366
 6303SOL     OW19807   1.846   5.939   5.063
 6303SOL    HW119808   1.764   5.993   5.082
 6303SOL    HW219809   1.839   5.898   4.972
 6304SOL     OW19810   4.136   0.931   4.916
 6304SOL    HW119811   4.088   1.012   4.948
 6304SOL    HW219812   4.189   0.892   4.991
 6305SOL     OW19813   5.154   1.451   2.384
 6305SOL    HW119814   5.139   1.502   2.469
 6305SOL    HW219815   5.218   1.375   2.401
 6306SOL     OW19816   6.475   2.744   4.483
 6306SOL    HW119817   6.461   2.670   4.417
 6306SOL    HW219818   6.573   2.750   4.505
 6307SOL     OW19819   1.923   4.707   0.150
 6307SOL    HW119820   1.998   4.718   0.215
 6307SOL    HW219821   1.836   4.713   0.199
 6308SOL     OW19822   3.973   2.607   5.953
 6308SOL    HW119823   3.929   2.662   5.882
 6308SOL    HW219824   3.979   2.512   5.921
 6309SOL     OW19825   5.898   2.156   5.126
 6309SOL    HW119826   5.877   2.241   5.078
 6309SOL    HW219827   5.911   2.083   5.058
 6310SOL     OW19828   0.178   5.261   4.326
 6310SOL    HW119829   0.161   5.262   4.227
 6310SOL    HW219830   0.253   5.198   4.346
 6311SOL     OW19831   6.019   6.881   4.242
 6311SOL    HW119832   6.036   6.785   4.262
 6311SOL    HW219833   6.025   6.935   4.326
 6312SOL     OW19834   5.288   4.468   5.685
 6312SOL    HW119835   5.201   4.483   5.732
 6312SOL    HW219836   5.269   4.437   5.591
 6313SOL     OW19837   2.468   5.248   3.987
 6313SOL    HW119838   2.443   5.211   4.076
 6313SOL    HW219839   2.390   5.294   3.946
 6314SOL     OW19840   1.390   0.513   3.602
 6314SOL    HW119841   1.436   0.526   3.515
 6314SOL    HW219842   1.457   0.513   3.676
 6315SOL     OW19843   2.340   4.023   7.019
 6315SOL    HW119844   2.292   4.093   6.967
 6315SOL    HW219845   2.312   3.932   6.987
 6316SOL     OW19846   4.415   1.638   5.581
 6316SOL    HW119847   4.479   1.563   5.560
 6316SOL    HW219848   4.465   1.712   5.626
 6317SOL     OW19849   6.108   5.338   4.656
 6317SOL    HW119850   6.191   5.291   4.625
 6317SOL    HW219851   6.070   5.291   4.735
 6318SOL     OW19852   1.641   2.298   4.548
 6318SOL    HW119853   1.660   2.280   4.645
 6318SOL    HW219854   1.696   2.236   4.492
 6319SOL     OW19855   0.515   1.915   2.854
 6319SOL    HW119856   0.600   1.866   2.832
 6319SOL    HW219857   0.527   1.963   2.941
 6320SOL     OW19858   0.089   1.711   3.244
 6320SOL    HW119859   7.022   1.703   3.287
 6320SOL    HW219860   0.127   1.801   3.261
 6321SOL     OW19861   2.893   3.823   6.143
 6321SOL    HW119862   2.879   3.922   6.146
 6321SOL    HW219863   2.963   3.802   6.075
 6322SOL     OW19864   2.316   0.780   0.148
 6322SOL    HW119865   2.362   0.861   0.112
 6322SOL    HW219866   2.227   0.770   0.104
 6323SOL     OW19867   4.262   1.524   1.476
 6323SOL    HW119868   4.362   1.521   1.485
 6323SOL    HW219869   4.224   1.577   1.552
 6324SOL     OW19870   3.718   1.992   6.585
 6324SOL    HW119871   3.631   2.025   6.548
 6324SOL    HW219872   3.793   2.043   6.545
 6325SOL     OW19873   1.718   2.777   2.599
 6325SOL    HW119874   1.713   2.733   2.509
 6325SOL    HW219875   1.626   2.798   2.632
 6326SOL     OW19876   4.466   6.254   1.341
 6326SOL    HW119877   4.415   6.168   1.352
 6326SOL    HW219878   4.564   6.235   1.350
 6327SOL     OW19879   4.112   5.470   5.573
 6327SOL    HW119880   4.036   5.459   5.510
 6327SOL    HW219881   4.077   5.498   5.663
 6328SOL     OW19882   2.799   4.474   6.374
 6328SOL    HW119883   2.850   4.533   6.312
 6328SOL    HW219884   2.862   4.431   6.438
 6329SOL     OW19885   0.983   1.403   2.833
 6329SOL    HW119886   1.000   1.402   2.931
 6329SOL    HW219887   0.897   1.451   2.815
 6330SOL     OW19888   3.954   0.277   0.528
 6330SOL    HW119889   3.860   0.304   0.549
 6330SOL    HW219890   3.987   0.329   0.449
 6331SOL     OW19891   5.197   2.884   2.158
 6331SOL    HW119892   5.161   2.794   2.135
 6331SOL    HW219893   5.291   2.892   2.127
 6332SOL     OW19894   5.127   6.771   2.580
 6332SOL    HW119895   5.130   6.704   2.505
 6332SOL    HW219896   5.057   6.743   2.646
 6333SOL     OW19897   1.694   4.846   2.891
 6333SOL    HW119898   1.739   4.926   2.851
 6333SOL    HW219899   1.600   4.842   2.859
 6334SOL     OW19900   2.810   1.595   2.545
 6334SOL    HW119901   2.744   1.588   2.619
 6334SOL    HW219902   2.768   1.562   2.460
 6335SOL     OW19903   0.332   2.012   0.495
 6335SOL    HW119904   0.334   1.913   0.512
 6335SOL    HW219905   0.354   2.029   0.399
 6336SOL     OW19906   1.109   3.406   5.443
 6336SOL    HW119907   1.052   3.470   5.391
 6336SOL    HW219908   1.083   3.312   5.420
 6337SOL     OW19909   6.843   4.835   4.678
 6337SOL    HW119910   6.754   4.791   4.688
 6337SOL    HW219911   6.909   4.771   4.640
 6338SOL     OW19912   3.764   1.029   4.210
 6338SOL    HW119913   3.770   1.095   4.286
 6338SOL    HW219914   3.851   1.027   4.161
 6339SOL     OW19915   0.148   2.680   4.466
 6339SOL    HW119916   0.144   2.746   4.390
 6339SOL    HW219917   0.243   2.657   4.485
 6340SOL     OW19918   2.216   5.767   4.354
 6340SOL    HW119919   2.273   5.834   4.307
 6340SOL    HW219920   2.268   5.728   4.430
 6341SOL     OW19921   6.495   5.328   2.268
 6341SOL    HW119922   6.568   5.305   2.333
 6341SOL    HW219923   6.467   5.423   2.283
 6342SOL     OW19924   1.009   3.499   0.351
 6342SOL    HW119925   0.975   3.588   0.382
 6342SOL    HW219926   1.101   3.509   0.314
 6343SOL     OW19927   4.635   0.931   0.696
 6343SOL    HW119928   4.611   0.841   0.735
 6343SOL    HW219929   4.597   1.003   0.754
 6344SOL     OW19930   6.607   4.623   4.681
 6344SOL    HW119931   6.586   4.586   4.590
 6344SOL    HW219932   6.531   4.682   4.710
 6345SOL     OW19933   2.644   2.276   2.018
 6345SOL    HW119934   2.743   2.285   2.007
 6345SOL    HW219935   2.615   2.186   1.985
 6346SOL     OW19936   0.147   5.525   4.264
 6346SOL    HW119937   0.183   5.437   4.297
 6346SOL    HW219938   0.205   5.599   4.297
 6347SOL     OW19939   3.199   0.229   0.729
 6347SOL    HW119940   3.236   0.137   0.716
 6347SOL    HW219941   3.113   0.223   0.780
 6348SOL     OW19942   0.612   2.596   4.817
 6348SOL    HW119943   0.531   2.568   4.867
 6348SOL    HW219944   0.659   2.514   4.781
 6349SOL     OW19945   1.525   1.113   0.469
 6349SOL    HW119946   1.520   1.017   0.440
 6349SOL    HW219947   1.433   1.153   0.464
 6350SOL     OW19948   0.094   5.212   3.365
 6350SOL    HW119949   0.027   5.280   3.336
 6350SOL    HW219950   0.089   5.200   3.464
 6351SOL     OW19951   6.759   1.391   2.741
 6351SOL    HW119952   6.802   1.324   2.801
 6351SOL    HW219953   6.748   1.478   2.790
 6352SOL     OW19954   0.436   5.114   2.324
 6352SOL    HW119955   0.419   5.201   2.279
 6352SOL    HW219956   0.355   5.087   2.376
 6353SOL     OW19957   0.557   6.128   1.696
 6353SOL    HW119958   0.572   6.204   1.632
 6353SOL    HW219959   0.475   6.147   1.751
 6354SOL     OW19960   0.337   6.996   4.315
 6354SOL    HW119961   0.384   0.052   4.276
 6354SOL    HW219962   0.267   6.964   4.251
 6355SOL     OW19963   1.004   2.794   2.174
 6355SOL    HW119964   1.088   2.843   2.197
 6355SOL    HW219965   0.942   2.855   2.125
 6356SOL     OW19966   3.451   3.697   1.216
 6356SOL    HW119967   3.424   3.718   1.310
 6356SOL    HW219968   3.516   3.621   1.216
 6357SOL     OW19969   5.340   1.937   1.015
 6357SOL    HW119970   5.268   1.934   1.084
 6357SOL    HW219971   5.387   1.849   1.011
 6358SOL     OW19972   0.900   3.154   4.464
 6358SOL    HW119973   0.862   3.147   4.372
 6358SOL    HW219974   0.888   3.066   4.511
 6359SOL     OW19975   6.906   1.701   7.023
 6359SOL    HW119976   6.944   1.766   0.065
 6359SOL    HW219977   6.874   1.751   6.942
 6360SOL     OW19978   2.662   5.416   4.159
 6360SOL    HW119979   2.745   5.453   4.117
 6360SOL    HW219980   2.607   5.371   4.088
 6361SOL     OW19981   3.165   6.731   5.672
 6361SOL    HW119982   3.078   6.735   5.720
 6361SOL    HW219983   3.205   6.823   5.668
 6362SOL     OW19984   6.414   5.146   6.186
 6362SOL    HW119985   6.399   5.190   6.275
 6362SOL    HW219986   6.334   5.090   6.163
 6363SOL     OW19987   0.609   5.628   4.290
 6363SOL    HW119988   0.511   5.641   4.274
 6363SOL    HW219989   0.627   5.630   4.388
 6364SOL     OW19990   2.022   2.753   6.584
 6364SOL    HW119991   1.934   2.794   6.563
 6364SOL    HW219992   2.096   2.810   6.548
 6365SOL     OW19993   4.575   5.133   2.807
 6365SOL    HW119994   4.541   5.211   2.754
 6365SOL    HW219995   4.585   5.054   2.747
 6366SOL     OW19996   0.262   4.482   5.121
 6366SOL    HW119997   0.300   4.462   5.031
 6366SOL    HW219998   0.245   4.580   5.128
 6367SOL     OW19999   6.099   6.268   2.524
 6367SOL    HW120000   6.166   6.280   2.450
 6367SOL    HW220001   6.146   6.265   2.612
 6368SOL     OW20002   3.706   0.913   3.451
 6368SOL    HW120003   3.697   0.989   3.386
 6368SOL    HW220004   3.742   0.833   3.404
 6369SOL     OW20005   2.299   4.926   5.569
 6369SOL    HW120006   2.387   4.907   5.527
 6369SOL    HW220007   2.262   5.011   5.533
 6370SOL     OW20008   5.331   2.869   1.853
 6370SOL    HW120009   5.287   2.956   1.876
 6370SOL    HW220010   5.277   2.821   1.784
 6371SOL     OW20011   4.554   1.559   4.048
 6371SOL    HW120012   4.460   1.572   4.017
 6371SOL    HW220013   4.557   1.559   4.147
 6372SOL     OW20014   2.890   7.000   2.541
 6372SOL    HW120015   2.875   6.903   2.525
 6372SOL    HW220016   2.910   7.016   2.637
 6373SOL     OW20017   3.625   5.354   0.132
 6373SOL    HW120018   3.622   5.312   0.222
 6373SOL    HW220019   3.672   5.294   0.068
 6374SOL     OW20020   3.101   3.042   2.706
 6374SOL    HW120021   3.116   3.079   2.797
 6374SOL    HW220022   3.079   2.944   2.713
 6375SOL     OW20023   1.829   5.797   2.090
 6375SOL    HW120024   1.920   5.761   2.070
 6375SOL    HW220025   1.817   5.807   2.189
 6376SOL     OW20026   1.168   1.910   5.056
 6376SOL    HW120027   1.158   2.004   5.022
 6376SOL    HW220028   1.242   1.864   5.006
 6377SOL     OW20029   1.088   2.061   3.659
 6377SOL    HW120030   1.183   2.086   3.675
 6377SOL    HW220031   1.085   1.975   3.607
 6378SOL     OW20032   4.433   5.487   3.430
 6378SOL    HW120033   4.348   5.503   3.381
 6378SOL    HW220034   4.475   5.402   3.397
 6379SOL     OW20035   2.348   4.994   1.989
 6379SOL    HW120036   2.384   4.960   2.076
 6379SOL    HW220037   2.419   4.990   1.920
 6380SOL     OW20038   1.413   0.822   5.841
 6380SOL    HW120039   1.392   0.914   5.808
 6380SOL    HW220040   1.335   0.762   5.827
 6381SOL     OW20041   2.913   3.297   2.089
 6381SOL    HW120042   2.964   3.368   2.039
 6381SOL    HW220043   2.891   3.222   2.027
 6382SOL     OW20044   1.077   4.871   4.637
 6382SOL    HW120045   1.043   4.886   4.730
 6382SOL    HW220046   1.075   4.957   4.586
 6383SOL     OW20047   3.591   1.557   3.792
 6383SOL    HW120048   3.529   1.512   3.728
 6383SOL    HW220049   3.592   1.506   3.878
 6384SOL     OW20050   0.082   4.586   2.439
 6384SOL    HW120051   0.130   4.627   2.362
 6384SOL    HW220052   7.016   4.553   2.410
 6385SOL     OW20053   0.906   5.485   5.239
 6385SOL    HW120054   0.947   5.419   5.302
 6385SOL    HW220055   0.900   5.574   5.284
 6386SOL     OW20056   2.506   5.483   1.697
 6386SOL    HW120057   2.470   5.470   1.604
 6386SOL    HW220058   2.457   5.559   1.741
 6387SOL     OW20059   6.222   0.725   5.414
 6387SOL    HW120060   6.143   0.679   5.374
 6387SOL    HW220061   6.305   0.678   5.385
 6388SOL     OW20062   2.108   5.025   2.866
 6388SOL    HW120063   2.145   5.118   2.856
 6388SOL    HW220064   2.157   4.978   2.939
 6389SOL     OW20065   1.021   4.746   1.777
 6389SOL    HW120066   1.043   4.844   1.776
 6389SOL    HW220067   1.099   4.694   1.740
 6390SOL     OW20068   0.845   2.856   4.158
 6390SOL    HW120069   0.874   2.952   4.164
 6390SOL    HW220070   0.920   2.797   4.187
 6391SOL     OW20071   3.796   0.733   0.085
 6391SOL    HW120072   3.759   0.825   0.092
 6391SOL    HW220073   3.721   0.667   0.080
 6392SOL     OW20074   1.508   5.870   4.231
 6392SOL    HW120075   1.562   5.804   4.284
 6392SOL    HW220076   1.430   5.823   4.189
 6393SOL     OW20077   5.261   1.486   0.173
 6393SOL    HW120078   5.223   1.439   0.093
 6393SOL    HW220079   5.231   1.440   0.256
 6394SOL     OW20080   3.297   4.814   1.846
 6394SOL    HW120081   3.349   4.732   1.869
 6394SOL    HW220082   3.336   4.893   1.894
 6395SOL     OW20083   5.789   2.129   0.379
 6395SOL    HW120084   5.745   2.195   0.318
 6395SOL    HW220085   5.803   2.043   0.330
 6396SOL     OW20086   6.555   3.632   6.033
 6396SOL    HW120087   6.498   3.714   6.031
 6396SOL    HW220088   6.635   3.649   6.091
 6397SOL     OW20089   6.300   1.214   0.559
 6397SOL    HW120090   6.216   1.248   0.516
 6397SOL    HW220091   6.284   1.196   0.656
 6398SOL     OW20092   3.897   0.970   1.463
 6398SOL    HW120093   3.886   1.023   1.379
 6398SOL    HW220094   3.983   0.997   1.508
 6399SOL     OW20095   2.195   6.540   6.544
 6399SOL    HW120096   2.176   6.599   6.466
 6399SOL    HW220097   2.290   6.510   6.541
 6400SOL     OW20098   2.786   5.078   4.642
 6400SOL    HW120099   2.845   5.116   4.713
 6400SOL    HW220100   2.788   4.978   4.647
 6401SOL     OW20101   0.660   4.778   4.981
 6401SOL    HW120102   0.603   4.786   4.899
 6401SOL    HW220103   0.724   4.702   4.970
 6402SOL     OW20104   2.086   2.605   3.279
 6402SOL    HW120105   2.062   2.514   3.247
 6402SOL    HW220106   2.154   2.645   3.219
 6403SOL     OW20107   1.097   6.945   1.271
 6403SOL    HW120108   1.010   6.958   1.318
 6403SOL    HW220109   1.145   0.009   1.266
 6404SOL     OW20110   4.907   0.943   2.816
 6404SOL    HW120111   4.991   0.985   2.851
 6404SOL    HW220112   4.916   0.844   2.817
 6405SOL     OW20113   3.586   0.539   2.020
 6405SOL    HW120114   3.654   0.579   1.959
 6405SOL    HW220115   3.505   0.597   2.023
 6406SOL     OW20116   2.775   2.002   3.877
 6406SOL    HW120117   2.735   2.076   3.823
 6406SOL    HW220118   2.776   1.918   3.824
 6407SOL     OW20119   5.177   5.451   6.420
 6407SOL    HW120120   5.104   5.430   6.485
 6407SOL    HW220121   5.167   5.394   6.338
 6408SOL     OW20122   5.682   2.137   0.763
 6408SOL    HW120123   5.727   2.173   0.681
 6408SOL    HW220124   5.623   2.208   0.802
 6409SOL     OW20125   0.761   5.021   1.838
 6409SOL    HW120126   0.669   4.991   1.862
 6409SOL    HW220127   0.827   4.983   1.903
 6410SOL     OW20128   0.982   1.121   2.014
 6410SOL    HW120129   1.074   1.087   1.990
 6410SOL    HW220130   0.957   1.195   1.952
 6411SOL     OW20131   1.139   1.218   3.967
 6411SOL    HW120132   1.122   1.246   3.873
 6411SOL    HW220133   1.058   1.235   4.022
 6412SOL     OW20134   5.982   2.463   4.541
 6412SOL    HW120135   5.894   2.504   4.564
 6412SOL    HW220136   5.996   2.465   4.442
 6413SOL     OW20137   0.321   4.927   0.749
 6413SOL    HW120138   0.335   4.829   0.737
 6413SOL    HW220139   0.409   4.972   0.768
 6414SOL     OW20140   6.500   0.261   3.131
 6414SOL    HW120141   6.589   0.300   3.153
 6414SOL    HW220142   6.500   0.163   3.150
 6415SOL     OW20143   1.818   1.711   2.372
 6415SOL    HW120144   1.728   1.694   2.331
 6415SOL    HW220145   1.833   1.646   2.446
 6416SOL     OW20146   2.645   6.608   6.212
 6416SOL    HW120147   2.695   6.522   6.211
 6416SOL    HW220148   2.547   6.590   6.197
 6417SOL     OW20149   0.769   6.298   4.116
 6417SOL    HW120150   0.756   6.261   4.024
 6417SOL    HW220151   0.861   6.277   4.149
 6418SOL     OW20152   6.908   5.307   2.674
 6418SOL    HW120153   6.864   5.363   2.744
 6418SOL    HW220154   6.850   5.228   2.653
 6419SOL     OW20155   2.314   3.781   0.438
 6419SOL    HW120156   2.392   3.825   0.483
 6419SOL    HW220157   2.313   3.684   0.462
 6420SOL     OW20158   0.884   3.139   6.614
 6420SOL    HW120159   0.919   3.051   6.647
 6420SOL    HW220160   0.785   3.132   6.598
 6421SOL     OW20161   5.411   2.069   0.312
 6421SOL    HW120162   5.315   2.057   0.339
 6421SOL    HW220163   5.452   2.142   0.366
 6422SOL     OW20164   5.991   2.748   3.039
 6422SOL    HW120165   6.031   2.788   2.957
 6422SOL    HW220166   6.039   2.663   3.062
 6423SOL     OW20167   4.727   4.008   0.664
 6423SOL    HW120168   4.811   3.962   0.691
 6423SOL    HW220169   4.747   4.104   0.642
 6424SOL     OW20170   6.343   4.729   5.193
 6424SOL    HW120171   6.327   4.649   5.250
 6424SOL    HW220172   6.298   4.715   5.104
 6425SOL     OW20173   0.214   5.299   0.811
 6425SOL    HW120174   0.131   5.245   0.824
 6425SOL    HW220175   0.260   5.311   0.898
 6426SOL     OW20176   6.857   2.852   3.257
 6426SOL    HW120177   6.795   2.920   3.296
 6426SOL    HW220178   6.927   2.828   3.325
 6427SOL     OW20179   1.049   2.663   5.552
 6427SOL    HW120180   1.124   2.597   5.555
 6427SOL    HW220181   0.971   2.622   5.505
 6428SOL     OW20182   6.527   3.047   4.371
 6428SOL    HW120183   6.481   2.965   4.406
 6428SOL    HW220184   6.625   3.029   4.363
 6429SOL     OW20185   1.003   1.116   5.159
 6429SOL    HW120186   0.969   1.102   5.066
 6429SOL    HW220187   1.074   1.185   5.159
 6430SOL     OW20188   6.238   3.226   0.132
 6430SOL    HW120189   6.155   3.230   0.187
 6430SOL    HW220190   6.271   3.132   0.128
 6431SOL     OW20191   5.877   1.109   2.886
 6431SOL    HW120192   5.881   1.021   2.840
 6431SOL    HW220193   5.788   1.121   2.929
 6432SOL     OW20194   6.031   3.497   0.373
 6432SOL    HW120195   6.109   3.463   0.424
 6432SOL    HW220196   5.950   3.499   0.431
 6433SOL     OW20197   2.296   3.599   1.553
 6433SOL    HW120198   2.236   3.657   1.498
 6433SOL    HW220199   2.373   3.567   1.496
 6434SOL     OW20200   1.609   5.108   0.208
 6434SOL    HW120201   1.682   5.141   0.148
 6434SOL    HW220202   1.638   5.116   0.304
 6435SOL     OW20203   5.108   3.151   0.732
 6435SOL    HW120204   5.153   3.231   0.690
 6435SOL    HW220205   5.141   3.068   0.688
 6436SOL     OW20206   2.504   2.484   2.126
 6436SOL    HW120207   2.430   2.518   2.067
 6436SOL    HW220208   2.550   2.407   2.081
 6437SOL     OW20209   0.604   0.754   0.313
 6437SOL    HW120210   0.522   0.765   0.370
 6437SOL    HW220211   0.615   0.657   0.289
 6438SOL     OW20212   0.908   3.692   3.956
 6438SOL    HW120213   0.855   3.607   3.961
 6438SOL    HW220214   0.970   3.697   4.034
 6439SOL     OW20215   0.163   6.342   2.386
 6439SOL    HW120216   0.185   6.268   2.451
 6439SOL    HW220217   0.114   6.303   2.308
 6440SOL     OW20218   0.304   0.795   1.932
 6440SOL    HW120219   0.289   0.824   2.026
 6440SOL    HW220220   0.313   0.875   1.873
 6441SOL     OW20221   4.686   1.257   2.880
 6441SOL    HW120222   4.705   1.308   2.964
 6441SOL    HW220223   4.729   1.303   2.803
 6442SOL     OW20224   3.243   0.779   3.323
 6442SOL    HW120225   3.279   0.693   3.359
 6442SOL    HW220226   3.157   0.761   3.274
 6443SOL     OW20227   2.399   0.711   0.395
 6443SOL    HW120228   2.393   0.742   0.300
 6443SOL    HW220229   2.405   0.789   0.456
 6444SOL     OW20230   0.616   1.242   2.610
 6444SOL    HW120231   0.674   1.161   2.605
 6444SOL    HW220232   0.673   1.324   2.609
 6445SOL     OW20233   3.405   4.011   5.728
 6445SOL    HW120234   3.498   3.996   5.694
 6445SOL    HW220235   3.401   4.100   5.774
 6446SOL     OW20236   0.076   1.929   0.555
 6446SOL    HW120237   0.156   1.980   0.522
 6446SOL    HW220238   0.086   1.911   0.653
 6447SOL     OW20239   1.494   0.510   3.350
 6447SOL    HW120240   1.534   0.600   3.332
 6447SOL    HW220241   1.429   0.487   3.278
 6448SOL     OW20242   0.067   2.387   2.927
 6448SOL    HW120243   0.137   2.356   2.863
 6448SOL    HW220244   0.109   2.408   3.016
 6449SOL     OW20245   4.032   2.826   0.818
 6449SOL    HW120246   3.939   2.862   0.821
 6449SOL    HW220247   4.090   2.889   0.766
 6450SOL     OW20248   6.747   2.999   0.693
 6450SOL    HW120249   6.819   2.992   0.624
 6450SOL    HW220250   6.736   3.094   0.720
 6451SOL     OW20251   2.630   6.611   3.965
 6451SOL    HW120252   2.683   6.581   4.045
 6451SOL    HW220253   2.553   6.548   3.950
 6452SOL     OW20254   3.647   5.999   4.980
 6452SOL    HW120255   3.734   6.025   4.937
 6452SOL    HW220256   3.572   6.048   4.935
 6453SOL     OW20257   2.101   5.393   6.699
 6453SOL    HW120258   2.049   5.340   6.632
 6453SOL    HW220259   2.039   5.425   6.771
 6454SOL     OW20260   3.760   1.347   4.673
 6454SOL    HW120261   3.702   1.356   4.754
 6454SOL    HW220262   3.853   1.377   4.695
 6455SOL     OW20263   5.991   3.353   6.752
 6455SOL    HW120264   5.923   3.317   6.687
 6455SOL    HW220265   5.956   3.342   6.845
 6456SOL     OW20266   0.286   1.342   5.268
 6456SOL    HW120267   0.334   1.334   5.355
 6456SOL    HW220268   0.251   1.253   5.240
 6457SOL     OW20269   5.725   3.080   2.365
 6457SOL    HW120270   5.717   3.177   2.388
 6457SOL    HW220271   5.723   3.070   2.265
 6458SOL     OW20272   0.839   6.298   3.342
 6458SOL    HW120273   0.895   6.241   3.282
 6458SOL    HW220274   0.746   6.260   3.347
 6459SOL     OW20275   5.414   4.235   1.064
 6459SOL    HW120276   5.365   4.315   1.029
 6459SOL    HW220277   5.512   4.247   1.050
 6460SOL     OW20278   3.308   4.840   1.560
 6460SOL    HW120279   3.321   4.861   1.657
 6460SOL    HW220280   3.212   4.820   1.542
 6461SOL     OW20281   3.019   6.219   5.342
 6461SOL    HW120282   2.943   6.263   5.294
 6461SOL    HW220283   3.103   6.234   5.291
 6462SOL     OW20284   2.129   3.472   3.150
 6462SOL    HW120285   2.055   3.443   3.211
 6462SOL    HW220286   2.183   3.543   3.194
 6463SOL     OW20287   1.090   3.742   5.843
 6463SOL    HW120288   1.034   3.670   5.884
 6463SOL    HW220289   1.053   3.766   5.753
 6464SOL     OW20290   1.502   5.146   1.992
 6464SOL    HW120291   1.472   5.098   1.909
 6464SOL    HW220292   1.508   5.081   2.068
 6465SOL     OW20293   6.157   0.898   2.443
 6465SOL    HW120294   6.145   0.807   2.482
 6465SOL    HW220295   6.161   0.966   2.516
 6466SOL     OW20296   0.030   2.159   5.049
 6466SOL    HW120297   0.000   2.143   4.956
 6466SOL    HW220298   0.044   2.258   5.063
 6467SOL     OW20299   3.550   0.715   6.086
 6467SOL    HW120300   3.595   0.688   6.170
 6467SOL    HW220301   3.458   0.748   6.106
 6468SOL     OW20302   5.258   3.925   2.156
 6468SOL    HW120303   5.199   3.930   2.076
 6468SOL    HW220304   5.348   3.964   2.134
 6469SOL     OW20305   6.068   0.818   5.712
 6469SOL    HW120306   6.123   0.866   5.644
 6469SOL    HW220307   6.098   0.724   5.720
 6470SOL     OW20308   6.373   6.052   4.420
 6470SOL    HW120309   6.367   5.998   4.336
 6470SOL    HW220310   6.280   6.073   4.453
 6471SOL     OW20311   6.262   5.646   5.491
 6471SOL    HW120312   6.191   5.697   5.443
 6471SOL    HW220313   6.288   5.696   5.574
 6472SOL     OW20314   1.765   6.318   1.497
 6472SOL    HW120315   1.804   6.318   1.588
 6472SOL    HW220316   1.683   6.260   1.495
 6473SOL     OW20317   2.474   0.811   5.143
 6473SOL    HW120318   2.430   0.839   5.057
 6473SOL    HW220319   2.555   0.868   5.158
 6474SOL     OW20320   2.682   3.483   5.744
 6474SOL    HW120321   2.749   3.500   5.816
 6474SOL    HW220322   2.725   3.430   5.670
 6475SOL     OW20323   4.376   5.123   3.881
 6475SOL    HW120324   4.409   5.146   3.789
 6475SOL    HW220325   4.448   5.142   3.948
 6476SOL     OW20326   5.275   4.815   2.430
 6476SOL    HW120327   5.206   4.796   2.500
 6476SOL    HW220328   5.273   4.913   2.408
 6477SOL     OW20329   6.556   6.410   6.973
 6477SOL    HW120330   6.483   6.479   6.969
 6477SOL    HW220331   6.643   6.453   6.950
 6478SOL     OW20332   5.104   5.963   1.495
 6478SOL    HW120333   5.177   6.030   1.511
 6478SOL    HW220334   5.036   5.969   1.568
 6479SOL     OW20335   3.323   5.679   2.653
 6479SOL    HW120336   3.400   5.684   2.590
 6479SOL    HW220337   3.344   5.731   2.736
 6480SOL     OW20338   2.927   0.878   1.491
 6480SOL    HW120339   2.922   0.939   1.570
 6480SOL    HW220340   2.856   0.902   1.425
 6481SOL     OW20341   4.553   0.851   1.122
 6481SOL    HW120342   4.483   0.912   1.086
 6481SOL    HW220343   4.512   0.788   1.188
 6482SOL     OW20344   6.692   0.089   6.407
 6482SOL    HW120345   6.599   0.050   6.411
 6482SOL    HW220346   6.703   0.156   6.480
 6483SOL     OW20347   2.253   5.738   1.922
 6483SOL    HW120348   2.178   5.707   1.981
 6483SOL    HW220349   2.229   5.827   1.882
 6484SOL     OW20350   5.256   6.763   3.146
 6484SOL    HW120351   5.355   6.760   3.141
 6484SOL    HW220352   5.220   6.826   3.077
 6485SOL     OW20353   0.692   2.800   3.049
 6485SOL    HW120354   0.708   2.863   3.125
 6485SOL    HW220355   0.629   2.727   3.079
 6486SOL     OW20356   1.996   2.908   3.611
 6486SOL    HW120357   1.942   2.961   3.675
 6486SOL    HW220358   1.987   2.947   3.519
 6487SOL     OW20359   6.001   5.023   3.521
 6487SOL    HW120360   5.951   5.087   3.579
 6487SOL    HW220361   5.945   5.001   3.441
 6488SOL     OW20362   3.272   5.170   5.188
 6488SOL    HW120363   3.213   5.230   5.134
 6488SOL    HW220364   3.217   5.096   5.226
 6489SOL     OW20365   2.735   2.037   6.360
 6489SOL    HW120366   2.785   2.122   6.374
 6489SOL    HW220367   2.711   1.996   6.448
 6490SOL     OW20368   5.261   1.632   0.855
 6490SOL    HW120369   5.206   1.645   0.773
 6490SOL    HW220370   5.340   1.693   0.854
 6491SOL     OW20371   4.650   0.891   5.873
 6491SOL    HW120372   4.617   0.880   5.967
 6491SOL    HW220373   4.699   0.977   5.865
 6492SOL     OW20374   6.280   5.810   5.763
 6492SOL    HW120375   6.357   5.871   5.782
 6492SOL    HW220376   6.235   5.786   5.850
 6493SOL     OW20377   1.055   6.828   5.085
 6493SOL    HW120378   1.063   6.915   5.134
 6493SOL    HW220379   1.144   6.804   5.046
 6494SOL     OW20380   0.818   1.011   3.260
 6494SOL    HW120381   0.853   0.927   3.302
 6494SOL    HW220382   0.799   0.994   3.163
 6495SOL     OW20383   5.613   4.652   2.024
 6495SOL    HW120384   5.537   4.593   2.052
 6495SOL    HW220385   5.637   4.631   1.929
 6496SOL     OW20386   0.537   6.271   3.633
 6496SOL    HW120387   0.552   6.359   3.678
 6496SOL    HW220388   0.568   6.277   3.538
 6497SOL     OW20389   0.372   6.005   0.344
 6497SOL    HW120390   0.290   5.985   0.398
 6497SOL    HW220391   0.356   6.087   0.288
 6498SOL     OW20392   1.419   4.408   4.007
 6498SOL    HW120393   1.419   4.362   3.918
 6498SOL    HW220394   1.438   4.341   4.079
 6499SOL     OW20395   6.413   1.632   3.405
 6499SOL    HW120396   6.381   1.538   3.417
 6499SOL    HW220397   6.492   1.649   3.464
 6500SOL     OW20398   5.969   4.983   3.071
 6500SOL    HW120399   5.901   4.988   2.998
 6500SOL    HW220400   5.987   4.888   3.094
 6501SOL     OW20401   6.892   3.574   0.745
 6501SOL    HW120402   6.874   3.671   0.730
 6501SOL    HW220403   6.825   3.538   0.811
 6502SOL     OW20404   0.804   5.046   1.314
 6502SOL    HW120405   0.794   4.954   1.277
 6502SOL    HW220406   0.857   5.102   1.251
 6503SOL     OW20407   4.420   6.905   4.449
 6503SOL    HW120408   4.434   6.934   4.544
 6503SOL    HW220409   4.456   6.812   4.438
 6504SOL     OW20410   1.759   1.139   0.835
 6504SOL    HW120411   1.667   1.167   0.809
 6504SOL    HW220412   1.762   1.119   0.933
 6505SOL     OW20413   5.588   5.610   0.647
 6505SOL    HW120414   5.674   5.659   0.635
 6505SOL    HW220415   5.529   5.627   0.569
 6506SOL     OW20416   2.259   1.519   0.823
 6506SOL    HW120417   2.354   1.496   0.800
 6506SOL    HW220418   2.204   1.435   0.826
 6507SOL     OW20419   2.817   0.845   2.234
 6507SOL    HW120420   2.849   0.754   2.208
 6507SOL    HW220421   2.868   0.914   2.181
 6508SOL     OW20422   2.220   1.722   2.227
 6508SOL    HW120423   2.137   1.703   2.173
 6508SOL    HW220424   2.202   1.701   2.323
 6509SOL     OW20425   0.862   3.143   4.186
 6509SOL    HW120426   0.934   3.190   4.135
 6509SOL    HW220427   0.788   3.117   4.124
 6510SOL     OW20428   6.402   4.652   6.635
 6510SOL    HW120429   6.372   4.719   6.567
 6510SOL    HW220430   6.475   4.595   6.595
 6511SOL     OW20431   6.962   6.770   5.898
 6511SOL    HW120432   0.001   6.799   5.825
 6511SOL    HW220433   7.006   6.699   5.953
 6512SOL     OW20434   5.205   5.948   3.946
 6512SOL    HW120435   5.280   5.962   3.882
 6512SOL    HW220436   5.223   5.997   4.031
 6513SOL     OW20437   1.186   6.694   3.310
 6513SOL    HW120438   1.164   6.769   3.248
 6513SOL    HW220439   1.101   6.650   3.340
 6514SOL     OW20440   3.295   0.220   3.347
 6514SOL    HW120441   3.243   0.149   3.300
 6514SOL    HW220442   3.239   0.261   3.418
 6515SOL     OW20443   0.501   0.906   3.309
 6515SOL    HW120444   0.571   0.936   3.245
 6515SOL    HW220445   0.473   0.983   3.366
 6516SOL     OW20446   1.146   1.105   5.620
 6516SOL    HW120447   1.144   1.016   5.574
 6516SOL    HW220448   1.148   1.178   5.551
 6517SOL     OW20449   2.077   2.258   0.876
 6517SOL    HW120450   2.016   2.189   0.913
 6517SOL    HW220451   2.167   2.248   0.918
 6518SOL     OW20452   5.679   6.493   0.825
 6518SOL    HW120453   5.768   6.492   0.872
 6518SOL    HW220454   5.666   6.406   0.778
 6519SOL     OW20455   1.030   2.012   4.147
 6519SOL    HW120456   1.121   2.045   4.125
 6519SOL    HW220457   0.969   2.090   4.164
 6520SOL     OW20458   5.910   5.502   1.494
 6520SOL    HW120459   5.835   5.473   1.553
 6520SOL    HW220460   5.884   5.587   1.447
 6521SOL     OW20461   1.318   2.134   5.414
 6521SOL    HW120462   1.404   2.084   5.418
 6521SOL    HW220463   1.282   2.147   5.507
 6522SOL     OW20464   2.474   5.729   4.566
 6522SOL    HW120465   2.432   5.648   4.608
 6522SOL    HW220466   2.456   5.808   4.624
 6523SOL     OW20467   1.808   2.643   0.018
 6523SOL    HW120468   1.900   2.681   0.019
 6523SOL    HW220469   1.759   2.676   6.961
 6524SOL     OW20470   4.055   3.376   5.372
 6524SOL    HW120471   3.985   3.393   5.302
 6524SOL    HW220472   4.040   3.437   5.450
 6525SOL     OW20473   0.431   2.609   4.470
 6525SOL    HW120474   0.448   2.547   4.547
 6525SOL    HW220475   0.515   2.621   4.418
 6526SOL     OW20476   1.317   5.312   4.061
 6526SOL    HW120477   1.281   5.400   4.031
 6526SOL    HW220478   1.343   5.257   3.981
 6527SOL     OW20479   2.472   1.536   3.975
 6527SOL    HW120480   2.504   1.618   4.023
 6527SOL    HW220481   2.533   1.459   3.996
 6528SOL     OW20482   0.683   0.187   3.396
 6528SOL    HW120483   0.772   0.185   3.442
 6528SOL    HW220484   0.626   0.112   3.431
 6529SOL     OW20485   6.956   2.971   2.460
 6529SOL    HW120486   6.880   2.941   2.402
 6529SOL    HW220487   6.921   3.025   2.536
 6530SOL     OW20488   0.608   1.865   0.723
 6530SOL    HW120489   0.629   1.774   0.759
 6530SOL    HW220490   0.555   1.857   0.639
 6531SOL     OW20491   5.049   2.124   5.032
 6531SOL    HW120492   5.029   2.051   4.966
 6531SOL    HW220493   5.036   2.213   4.989
 6532SOL     OW20494   1.106   2.537   7.023
 6532SOL    HW120495   1.151   2.531   6.934
 6532SOL    HW220496   1.156   2.601   0.058
 6533SOL     OW20497   4.641   0.404   1.163
 6533SOL    HW120498   4.552   0.449   1.155
 6533SOL    HW220499   4.640   0.343   1.242
 6534SOL     OW20500   2.047   3.330   0.367
 6534SOL    HW120501   1.983   3.357   0.294
 6534SOL    HW220502   2.116   3.268   0.330
 6535SOL     OW20503   1.859   3.622   5.461
 6535SOL    HW120504   1.955   3.639   5.483
 6535SOL    HW220505   1.800   3.675   5.523
 6536SOL     OW20506   6.703   2.330   6.737
 6536SOL    HW120507   6.739   2.296   6.650
 6536SOL    HW220508   6.768   2.310   6.810
 6537SOL     OW20509   1.226   0.453   6.534
 6537SOL    HW120510   1.218   0.539   6.483
 6537SOL    HW220511   1.320   0.441   6.566
 6538SOL     OW20512   1.892   2.990   5.692
 6538SOL    HW120513   1.916   3.001   5.788
 6538SOL    HW220514   1.925   3.068   5.640
 6539SOL     OW20515   3.248   1.801   6.180
 6539SOL    HW120516   3.312   1.725   6.188
 6539SOL    HW220517   3.251   1.856   6.263
 6540SOL     OW20518   3.878   1.914   4.025
 6540SOL    HW120519   3.963   1.909   3.973
 6540SOL    HW220520   3.867   1.831   4.080
 6541SOL     OW20521   2.793   2.868   5.445
 6541SOL    HW120522   2.807   2.962   5.414
 6541SOL    HW220523   2.766   2.868   5.542
 6542SOL     OW20524   5.760   3.834   3.509
 6542SOL    HW120525   5.793   3.773   3.581
 6542SOL    HW220526   5.662   3.817   3.494
 6543SOL     OW20527   0.732   6.314   6.191
 6543SOL    HW120528   0.739   6.215   6.182
 6543SOL    HW220529   0.750   6.357   6.102
 6544SOL     OW20530   0.140   5.583   2.487
 6544SOL    HW120531   0.076   5.660   2.485
 6544SOL    HW220532   0.154   5.554   2.581
 6545SOL     OW20533   5.830   3.153   6.506
 6545SOL    HW120534   5.838   3.118   6.413
 6545SOL    HW220535   5.838   3.078   6.571
 6546SOL     OW20536   3.600   4.525   6.017
 6546SOL    HW120537   3.500   4.517   6.013
 6546SOL    HW220538   3.631   4.598   5.957
 6547SOL     OW20539   5.161   0.316   6.729
 6547SOL    HW120540   5.132   0.338   6.822
 6547SOL    HW220541   5.259   0.299   6.728
 6548SOL     OW20542   5.776   3.418   5.510
 6548SOL    HW120543   5.756   3.356   5.586
 6548SOL    HW220544   5.828   3.497   5.545
 6549SOL     OW20545   3.031   2.126   2.456
 6549SOL    HW120546   3.007   2.029   2.466
 6549SOL    HW220547   2.950   2.178   2.430
 6550SOL     OW20548   1.114   5.498   3.171
 6550SOL    HW120549   1.177   5.431   3.131
 6550SOL    HW220550   1.051   5.451   3.234
 6551SOL     OW20551   3.064   5.095   2.354
 6551SOL    HW120552   3.098   5.002   2.369
 6551SOL    HW220553   2.997   5.094   2.280
 6552SOL     OW20554   4.520   5.209   6.668
 6552SOL    HW120555   4.510   5.152   6.750
 6552SOL    HW220556   4.440   5.269   6.660
 6553SOL     OW20557   7.020   3.263   3.122
 6553SOL    HW120558   6.987   3.188   3.180
 6553SOL    HW220559   0.066   3.228   3.059
 6554SOL     OW20560   6.999   3.761   4.427
 6554SOL    HW120561   0.008   3.711   4.508
 6554SOL    HW220562   6.930   3.828   4.454
 6555SOL     OW20563   0.685   1.279   1.600
 6555SOL    HW120564   0.688   1.243   1.693
 6555SOL    HW220565   0.757   1.236   1.545
 6556SOL     OW20566   3.909   0.035   4.003
 6556SOL    HW120567   3.822   0.050   4.050
 6556SOL    HW220568   3.944   6.967   4.027
 6557SOL     OW20569   5.408   6.287   0.410
 6557SOL    HW120570   5.406   6.387   0.402
 6557SOL    HW220571   5.316   6.253   0.429
 6558SOL     OW20572   0.213   6.243   5.842
 6558SOL    HW120573   0.150   6.305   5.888
 6558SOL    HW220574   0.216   6.156   5.891
 6559SOL     OW20575   3.229   3.295   1.039
 6559SOL    HW120576   3.321   3.267   1.011
 6559SOL    HW220577   3.180   3.215   1.074
 6560SOL     OW20578   4.540   1.676   1.052
 6560SOL    HW120579   4.499   1.731   1.125
 6560SOL    HW220580   4.529   1.579   1.074
 6561SOL     OW20581   3.412   3.836   4.201
 6561SOL    HW120582   3.510   3.851   4.189
 6561SOL    HW220583   3.392   3.819   4.297
 6562SOL     OW20584   6.865   4.550   5.326
 6562SOL    HW120585   6.965   4.545   5.337
 6562SOL    HW220586   6.841   4.534   5.231
 6563SOL     OW20587   0.699   5.346   2.318
 6563SOL    HW120588   0.723   5.441   2.299
 6563SOL    HW220589   0.610   5.325   2.276
 6564SOL     OW20590   1.770   5.288   2.765
 6564SOL    HW120591   1.788   5.191   2.746
 6564SOL    HW220592   1.709   5.295   2.844
 6565SOL     OW20593   6.562   3.519   5.502
 6565SOL    HW120594   6.467   3.504   5.476
 6565SOL    HW220595   6.573   3.509   5.601
 6566SOL     OW20596   3.929   0.938   0.864
 6566SOL    HW120597   4.018   0.893   0.850
 6566SOL    HW220598   3.882   0.946   0.776
 6567SOL     OW20599   6.247   2.466   0.867
 6567SOL    HW120600   6.266   2.542   0.929
 6567SOL    HW220601   6.256   2.380   0.916
 6568SOL     OW20602   4.460   3.891   1.482
 6568SOL    HW120603   4.528   3.950   1.528
 6568SOL    HW220604   4.368   3.927   1.500
 6569SOL     OW20605   1.195   4.962   6.198
 6569SOL    HW120606   1.234   4.889   6.254
 6569SOL    HW220607   1.265   5.032   6.182
 6570SOL     OW20608   6.560   3.679   1.887
 6570SOL    HW120609   6.555   3.630   1.800
 6570SOL    HW220610   6.480   3.737   1.898
 6571SOL     OW20611   2.406   6.078   3.635
 6571SOL    HW120612   2.469   6.073   3.558
 6571SOL    HW220613   2.455   6.055   3.719
 6572SOL     OW20614   1.213   4.557   6.136
 6572SOL    HW120615   1.133   4.606   6.170
 6572SOL    HW220616   1.184   4.476   6.086
 6573SOL     OW20617   1.887   2.071   1.715
 6573SOL    HW120618   1.875   2.081   1.814
 6573SOL    HW220619   1.927   2.155   1.678
 6574SOL     OW20620   1.862   4.454   4.179
 6574SOL    HW120621   1.913   4.456   4.264
 6574SOL    HW220622   1.779   4.509   4.188
 6575SOL     OW20623   2.042   1.920   2.911
 6575SOL    HW120624   2.070   1.996   2.852
 6575SOL    HW220625   1.966   1.871   2.868
 6576SOL     OW20626   1.101   5.947   4.226
 6576SOL    HW120627   1.120   5.907   4.316
 6576SOL    HW220628   1.016   5.999   4.230
 6577SOL     OW20629   0.095   3.557   5.092
 6577SOL    HW120630   0.190   3.530   5.110
 6577SOL    HW220631   0.051   3.586   5.177
 6578SOL     OW20632   6.268   5.422   3.304
 6578SOL    HW120633   6.364   5.393   3.308
 6578SOL    HW220634   6.225   5.407   3.393
 6579SOL     OW20635   0.217   4.073   3.770
 6579SOL    HW120636   0.131   4.073   3.821
 6579SOL    HW220637   0.255   3.980   3.769
 6580SOL     OW20638   5.539   2.356   0.800
 6580SOL    HW120639   5.581   2.445   0.786
 6580SOL    HW220640   5.451   2.367   0.845
 6581SOL     OW20641   2.558   2.659   5.675
 6581SOL    HW120642   2.635   2.719   5.699
 6581SOL    HW220643   2.485   2.713   5.634
 6582SOL     OW20644   6.910   6.948   1.942
 6582SOL    HW120645   6.827   7.003   1.935
 6582SOL    HW220646   6.990   7.008   1.937
 6583SOL     OW20647   6.296   1.397   6.309
 6583SOL    HW120648   6.280   1.341   6.227
 6583SOL    HW220649   6.209   1.416   6.353
 6584SOL     OW20650   5.493   2.440   0.127
 6584SOL    HW120651   5.398   2.454   0.155
 6584SOL    HW220652   5.554   2.472   0.200
 6585SOL     OW20653   2.794   0.987   1.833
 6585SOL    HW120654   2.867   1.006   1.767
 6585SOL    HW220655   2.708   0.970   1.784
 6586SOL     OW20656   6.559   2.048   0.032
 6586SOL    HW120657   6.535   1.955   0.061
 6586SOL    HW220658   6.498   2.077   6.982
 6587SOL     OW20659   2.029   6.322   2.384
 6587SOL    HW120660   2.053   6.382   2.460
 6587SOL    HW220661   1.949   6.358   2.336
 6588SOL     OW20662   2.706   2.235   0.045
 6588SOL    HW120663   2.728   2.288   6.987
 6588SOL    HW220664   2.739   2.284   0.126
 6589SOL     OW20665   4.967   1.707   6.212
 6589SOL    HW120666   4.929   1.795   6.185
 6589SOL    HW220667   5.050   1.690   6.159
 6590SOL     OW20668   6.674   1.167   5.798
 6590SOL    HW120669   6.595   1.110   5.774
 6590SOL    HW220670   6.751   1.144   5.739
 6591SOL     OW20671   5.351   0.208   3.345
 6591SOL    HW120672   5.359   0.215   3.444
 6591SOL    HW220673   5.391   0.290   3.303
 6592SOL     OW20674   6.186   5.670   4.498
 6592SOL    HW120675   6.128   5.668   4.580
 6592SOL    HW220676   6.171   5.756   4.449
 6593SOL     OW20677   5.097   1.003   2.503
 6593SOL    HW120678   5.082   0.907   2.479
 6593SOL    HW220679   5.009   1.048   2.519
 6594SOL     OW20680   5.852   1.056   0.024
 6594SOL    HW120681   5.773   1.049   0.085
 6594SOL    HW220682   5.837   1.130   6.982
 6595SOL     OW20683   1.970   3.114   0.096
 6595SOL    HW120684   1.879   3.102   0.136
 6595SOL    HW220685   1.973   3.072   0.006
 6596SOL     OW20686   3.247   6.671   5.320
 6596SOL    HW120687   3.253   6.675   5.220
 6596SOL    HW220688   3.197   6.589   5.347
 6597SOL     OW20689   0.138   4.150   6.677
 6597SOL    HW120690   0.169   4.243   6.698
 6597SOL    HW220691   0.162   4.127   6.583
 6598SOL     OW20692   2.194   5.634   4.777
 6598SOL    HW120693   2.260   5.663   4.846
 6598SOL    HW220694   2.240   5.579   4.708
 6599SOL     OW20695   4.323   3.186   6.258
 6599SOL    HW120696   4.295   3.269   6.305
 6599SOL    HW220697   4.295   3.190   6.162
 6600SOL     OW20698   4.221   5.029   4.646
 6600SOL    HW120699   4.186   4.943   4.684
 6600SOL    HW220700   4.263   5.083   4.719
 6601SOL     OW20701   0.573   0.682   1.287
 6601SOL    HW120702   0.539   0.670   1.380
 6601SOL    HW220703   0.672   0.694   1.289
 6602SOL     OW20704   6.669   1.594   1.522
 6602SOL    HW120705   6.628   1.607   1.612
 6602SOL    HW220706   6.688   1.497   1.508
 6603SOL     OW20707   2.526   1.989   1.863
 6603SOL    HW120708   2.598   1.938   1.910
 6603SOL    HW220709   2.567   2.048   1.794
 6604SOL     OW20710   3.882   5.833   4.020
 6604SOL    HW120711   3.880   5.752   3.961
 6604SOL    HW220712   3.889   5.804   4.115
 6605SOL     OW20713   4.994   6.089   6.975
 6605SOL    HW120714   5.018   6.024   6.903
 6605SOL    HW220715   5.034   6.060   0.038
 6606SOL     OW20716   6.694   1.699   2.851
 6606SOL    HW120717   6.709   1.732   2.944
 6606SOL    HW220718   6.597   1.706   2.828
 6607SOL     OW20719   1.365   2.475   3.070
 6607SOL    HW120720   1.432   2.406   3.042
 6607SOL    HW220721   1.273   2.442   3.050
 6608SOL     OW20722   5.344   4.906   4.931
 6608SOL    HW120723   5.302   4.980   4.982
 6608SOL    HW220724   5.416   4.864   4.986
 6609SOL     OW20725   5.555   1.811   0.262
 6609SOL    HW120726   5.650   1.842   0.261
 6609SOL    HW220727   5.495   1.885   0.292
 6610SOL     OW20728   3.938   1.227   0.562
 6610SOL    HW120729   4.022   1.174   0.580
 6610SOL    HW220730   3.899   1.256   0.649
 6611SOL     OW20731   5.754   3.040   2.969
 6611SOL    HW120732   5.733   2.944   2.988
 6611SOL    HW220733   5.765   3.089   3.056
 6612SOL     OW20734   1.188   6.068   6.588
 6612SOL    HW120735   1.124   6.023   6.525
 6612SOL    HW220736   1.174   6.167   6.584
 6613SOL     OW20737   5.268   4.918   0.851
 6613SOL    HW120738   5.301   4.874   0.935
 6613SOL    HW220739   5.291   4.861   0.772
 6614SOL     OW20740   5.646   4.774   5.558
 6614SOL    HW120741   5.720   4.809   5.616
 6614SOL    HW220742   5.561   4.770   5.612
 6615SOL     OW20743   0.173   4.053   5.253
 6615SOL    HW120744   0.229   4.047   5.170
 6615SOL    HW220745   0.076   4.043   5.229
 6616SOL     OW20746   4.771   0.848   4.345
 6616SOL    HW120747   4.726   0.866   4.257
 6616SOL    HW220748   4.765   0.751   4.367
 6617SOL     OW20749   4.182   0.083   4.952
 6617SOL    HW120750   4.278   0.094   4.977
 6617SOL    HW220751   4.145   0.171   4.923
 6618SOL     OW20752   6.980   4.885   1.274
 6618SOL    HW120753   0.031   4.892   1.207
 6618SOL    HW220754   7.019   4.887   1.366
 6619SOL     OW20755   0.090   6.184   1.668
 6619SOL    HW120756   0.162   6.209   1.603
 6619SOL    HW220757   0.093   6.086   1.685
 6620SOL     OW20758   4.187   3.303   5.731
 6620SOL    HW120759   4.121   3.230   5.748
 6620SOL    HW220760   4.148   3.367   5.665
 6621SOL     OW20761   2.067   4.078   0.166
 6621SOL    HW120762   2.129   4.038   0.099
 6621SOL    HW220763   2.077   4.031   0.254
 6622SOL     OW20764   6.511   5.465   0.924
 6622SOL    HW120765   6.570   5.412   0.984
 6622SOL    HW220766   6.440   5.510   0.978
 6623SOL     OW20767   3.466   4.036   2.487
 6623SOL    HW120768   3.371   4.033   2.517
 6623SOL    HW220769   3.518   4.095   2.550
 6624SOL     OW20770   4.203   4.950   4.178
 6624SOL    HW120771   4.193   5.049   4.178
 6624SOL    HW220772   4.285   4.925   4.126
 6625SOL     OW20773   6.165   6.514   0.301
 6625SOL    HW120774   6.223   6.585   0.262
 6625SOL    HW220775   6.101   6.555   0.366
 6626SOL     OW20776   2.638   4.920   3.655
 6626SOL    HW120777   2.650   5.011   3.693
 6626SOL    HW220778   2.714   4.861   3.683
 6627SOL     OW20779   1.833   6.637   1.643
 6627SOL    HW120780   1.889   6.561   1.677
 6627SOL    HW220781   1.746   6.640   1.693
 6628SOL     OW20782   4.282   5.824   3.454
 6628SOL    HW120783   4.260   5.734   3.415
 6628SOL    HW220784   4.379   5.843   3.441
 6629SOL     OW20785   3.324   4.039   0.375
 6629SOL    HW120786   3.334   3.965   0.441
 6629SOL    HW220787   3.307   4.125   0.423
 6630SOL     OW20788   3.456   1.322   6.487
 6630SOL    HW120789   3.468   1.236   6.437
 6630SOL    HW220790   3.545   1.357   6.517
 6631SOL     OW20791   4.521   0.213   1.329
 6631SOL    HW120792   4.590   0.148   1.296
 6631SOL    HW220793   4.430   0.182   1.301
 6632SOL     OW20794   6.413   2.703   2.865
 6632SOL    HW120795   6.359   2.686   2.783
 6632SOL    HW220796   6.435   2.801   2.872
 6633SOL     OW20797   0.661   6.351   1.944
 6633SOL    HW120798   0.684   6.256   1.924
 6633SOL    HW220799   0.738   6.410   1.920
 6634SOL     OW20800   6.733   2.607   5.541
 6634SOL    HW120801   6.700   2.544   5.470
 6634SOL    HW220802   6.802   2.561   5.596
 6635SOL     OW20803   4.187   4.931   2.979
 6635SOL    HW120804   4.146   4.867   2.914
 6635SOL    HW220805   4.158   4.907   3.071
 6636SOL     OW20806   1.790   3.497   4.424
 6636SOL    HW120807   1.835   3.437   4.358
 6636SOL    HW220808   1.697   3.465   4.441
 6637SOL     OW20809   6.685   2.319   1.869
 6637SOL    HW120810   6.673   2.307   1.967
 6637SOL    HW220811   6.673   2.232   1.822
 6638SOL     OW20812   2.035   0.245   6.787
 6638SOL    HW120813   2.030   0.148   6.761
 6638SOL    HW220814   1.943   0.284   6.789
 6639SOL     OW20815   4.307   5.593   6.200
 6639SOL    HW120816   4.390   5.572   6.251
 6639SOL    HW220817   4.327   5.590   6.102
 6640SOL     OW20818   5.865   2.924   3.480
 6640SOL    HW120819   5.775   2.890   3.507
 6640SOL    HW220820   5.858   2.973   3.394
 6641SOL     OW20821   2.655   5.469   6.922
 6641SOL    HW120822   2.582   5.434   6.864
 6641SOL    HW220823   2.666   5.410   7.002
 6642SOL     OW20824   6.524   6.237   6.619
 6642SOL    HW120825   6.618   6.233   6.650
 6642SOL    HW220826   6.522   6.237   6.519
 6643SOL     OW20827   3.662   5.556   0.496
 6643SOL    HW120828   3.748   5.574   0.449
 6643SOL    HW220829   3.647   5.625   0.566
 6644SOL     OW20830   1.692   4.162   1.719
 6644SOL    HW120831   1.610   4.167   1.661
 6644SOL    HW220832   1.665   4.140   1.812
 6645SOL     OW20833   6.298   5.013   5.290
 6645SOL    HW120834   6.356   5.049   5.216
 6645SOL    HW220835   6.290   4.914   5.280
 6646SOL     OW20836   1.189   5.799   4.025
 6646SOL    HW120837   1.185   5.850   4.110
 6646SOL    HW220838   1.119   5.833   3.962
 6647SOL     OW20839   4.197   1.708   1.984
 6647SOL    HW120840   4.172   1.792   2.033
 6647SOL    HW220841   4.123   1.641   1.994
 6648SOL     OW20842   4.122   5.674   1.757
 6648SOL    HW120843   4.123   5.654   1.855
 6648SOL    HW220844   4.216   5.677   1.722
 6649SOL     OW20845   4.481   1.960   5.995
 6649SOL    HW120846   4.401   2.017   5.979
 6649SOL    HW220847   4.542   2.005   6.059
 6650SOL     OW20848   3.340   0.921   3.772
 6650SOL    HW120849   3.317   1.002   3.719
 6650SOL    HW220850   3.267   0.902   3.838
 6651SOL     OW20851   1.190   1.821   0.716
 6651SOL    HW120852   1.105   1.871   0.703
 6651SOL    HW220853   1.183   1.764   0.798
 6652SOL     OW20854   0.803   5.226   3.069
 6652SOL    HW120855   0.867   5.245   3.144
 6652SOL    HW220856   0.786   5.310   3.018
 6653SOL     OW20857   3.229   3.632   3.357
 6653SOL    HW120858   3.246   3.654   3.261
 6653SOL    HW220859   3.315   3.641   3.409
 6654SOL     OW20860   1.683   3.607   1.746
 6654SOL    HW120861   1.584   3.616   1.757
 6654SOL    HW220862   1.726   3.695   1.764
 6655SOL     OW20863   1.555   0.673   0.690
 6655SOL    HW120864   1.640   0.725   0.678
 6655SOL    HW220865   1.477   0.734   0.676
 6656SOL     OW20866   0.024   2.665   2.034
 6656SOL    HW120867   0.035   2.712   1.947
 6656SOL    HW220868   0.098   2.692   2.096
 6657SOL     OW20869   3.051   4.769   5.653
 6657SOL    HW120870   3.099   4.848   5.615
 6657SOL    HW220871   3.117   4.709   5.700
 6658SOL     OW20872   6.405   0.044   6.329
 6658SOL    HW120873   6.419   6.984   6.276
 6658SOL    HW220874   6.442   0.122   6.279
 6659SOL     OW20875   1.708   2.707   6.800
 6659SOL    HW120876   1.687   2.637   6.732
 6659SOL    HW220877   1.721   2.795   6.755
 6660SOL     OW20878   0.937   6.807   2.774
 6660SOL    HW120879   0.916   6.900   2.805
 6660SOL    HW220880   1.037   6.796   2.767
 6661SOL     OW20881   6.915   6.236   3.563
 6661SOL    HW120882   6.969   6.319   3.579
 6661SOL    HW220883   6.821   6.251   3.595
 6662SOL     OW20884   1.625   4.008   5.867
 6662SOL    HW120885   1.600   4.069   5.791
 6662SOL    HW220886   1.542   3.976   5.912
 6663SOL     OW20887   0.637   4.918   2.252
 6663SOL    HW120888   0.563   4.982   2.270
 6663SOL    HW220889   0.599   4.834   2.211
 6664SOL     OW20890   6.850   1.824   2.665
 6664SOL    HW120891   6.789   1.783   2.733
 6664SOL    HW220892   6.804   1.828   2.577
 6665SOL     OW20893   2.531   0.151   2.139
 6665SOL    HW120894   2.474   0.071   2.119
 6665SOL    HW220895   2.615   0.121   2.184
 6666SOL     OW20896   5.327   1.112   0.643
 6666SOL    HW120897   5.413   1.149   0.609
 6666SOL    HW220898   5.261   1.104   0.568
 6667SOL     OW20899   6.467   5.111   4.810
 6667SOL    HW120900   6.426   5.202   4.808
 6667SOL    HW220901   6.395   5.042   4.823
 6668SOL     OW20902   0.265   6.431   1.267
 6668SOL    HW120903   0.263   6.345   1.318
 6668SOL    HW220904   0.195   6.493   1.303
 6669SOL     OW20905   1.146   5.258   2.885
 6669SOL    HW120906   1.093   5.340   2.908
 6669SOL    HW220907   1.167   5.208   2.968
 6670SOL     OW20908   4.303   4.758   0.405
 6670SOL    HW120909   4.265   4.828   0.344
 6670SOL    HW220910   4.229   4.719   0.460
 6671SOL     OW20911   0.650   3.316   5.367
 6671SOL    HW120912   0.558   3.278   5.355
 6671SOL    HW220913   0.704   3.299   5.285
 6672SOL     OW20914   0.443   0.392   5.519
 6672SOL    HW120915   0.520   0.411   5.458
 6672SOL    HW220916   0.474   0.398   5.614
 6673SOL     OW20917   4.809   5.771   1.023
 6673SOL    HW120918   4.758   5.834   0.964
 6673SOL    HW220919   4.868   5.713   0.967
 6674SOL     OW20920   0.497   7.015   5.512
 6674SOL    HW120921   0.532   0.062   5.451
 6674SOL    HW220922   0.409   0.020   5.551
 6675SOL     OW20923   6.867   6.287   0.377
 6675SOL    HW120924   6.943   6.227   0.353
 6675SOL    HW220925   6.902   6.373   0.412
 6676SOL     OW20926   0.326   1.876   1.171
 6676SOL    HW120927   0.331   1.931   1.088
 6676SOL    HW220928   0.323   1.937   1.251
 6677SOL     OW20929   6.788   4.369   0.385
 6677SOL    HW120930   6.780   4.468   0.395
 6677SOL    HW220931   6.799   4.346   0.289
 6678SOL     OW20932   0.650   3.280   4.322
 6678SOL    HW120933   0.735   3.259   4.273
 6678SOL    HW220934   0.634   3.211   4.392
 6679SOL     OW20935   1.649   0.803   4.791
 6679SOL    HW120936   1.640   0.712   4.831
 6679SOL    HW220937   1.660   0.870   4.863
 6680SOL     OW20938   2.663   0.965   6.388
 6680SOL    HW120939   2.613   0.984   6.304
 6680SOL    HW220940   2.697   1.050   6.427
 6681SOL     OW20941   5.219   5.645   0.087
 6681SOL    HW120942   5.182   5.636   0.179
 6681SOL    HW220943   5.201   5.737   0.052
 6682SOL     OW20944   6.683   5.391   1.776
 6682SOL    HW120945   6.651   5.469   1.829
 6682SOL    HW220946   6.735   5.329   1.835
 6683SOL     OW20947   5.100   1.479   4.589
 6683SOL    HW120948   5.075   1.557   4.531
 6683SOL    HW220949   5.024   1.415   4.594
 6684SOL     OW20950   1.982   1.322   2.738
 6684SOL    HW120951   1.926   1.327   2.821
 6684SOL    HW220952   1.936   1.266   2.669
 6685SOL     OW20953   5.570   2.797   6.583
 6685SOL    HW120954   5.482   2.843   6.587
 6685SOL    HW220955   5.594   2.778   6.488
 6686SOL     OW20956   6.258   3.371   4.281
 6686SOL    HW120957   6.309   3.327   4.207
 6686SOL    HW220958   6.278   3.469   4.281
 6687SOL     OW20959   0.617   0.842   0.041
 6687SOL    HW120960   0.697   0.887   0.001
 6687SOL    HW220961   0.629   0.835   0.140
 6688SOL     OW20962   0.758   5.157   2.525
 6688SOL    HW120963   0.735   5.211   2.444
 6688SOL    HW220964   0.832   5.203   2.575
 6689SOL     OW20965   4.542   4.990   0.089
 6689SOL    HW120966   4.558   4.926   0.014
 6689SOL    HW220967   4.596   4.962   0.169
 6690SOL     OW20968   1.199   1.688   0.971
 6690SOL    HW120969   1.236   1.597   0.991
 6690SOL    HW220970   1.101   1.689   0.992
 6691SOL     OW20971   1.845   5.002   1.045
 6691SOL    HW120972   1.780   5.018   0.971
 6691SOL    HW220973   1.938   5.018   1.011
 6692SOL     OW20974   4.464   4.258   6.113
 6692SOL    HW120975   4.438   4.169   6.150
 6692SOL    HW220976   4.547   4.290   6.158
 6693SOL     OW20977   3.933   3.876   5.508
 6693SOL    HW120978   3.933   3.947   5.579
 6693SOL    HW220979   4.020   3.878   5.459
 6694SOL     OW20980   2.586   6.271   0.079
 6694SOL    HW120981   2.672   6.258   0.127
 6694SOL    HW220982   2.548   6.361   0.101
 6695SOL     OW20983   1.643   1.415   6.694
 6695SOL    HW120984   1.608   1.322   6.704
 6695SOL    HW220985   1.570   1.481   6.712
 6696SOL     OW20986   1.891   2.850   1.314
 6696SOL    HW120987   1.871   2.841   1.411
 6696SOL    HW220988   1.918   2.761   1.277
 6697SOL     OW20989   4.827   3.039   3.930
 6697SOL    HW120990   4.762   3.027   3.854
 6697SOL    HW220991   4.803   2.976   4.004
 6698SOL     OW20992   2.988   4.420   0.232
 6698SOL    HW120993   2.940   4.507   0.223
 6698SOL    HW220994   2.935   4.347   0.188
 6699SOL     OW20995   1.252   3.461   6.499
 6699SOL    HW120996   1.189   3.464   6.576
 6699SOL    HW220997   1.283   3.367   6.483
 6700SOL     OW20998   7.009   6.563   6.129
 6700SOL    HW120999   0.054   6.593   6.196
 6700SOL    HW221000   6.918   6.565   6.170
 6701SOL     OW21001   0.316   2.905   1.268
 6701SOL    HW121002   0.383   2.874   1.201
 6701SOL    HW221003   0.361   2.957   1.341
 6702SOL     OW21004   1.291   3.551   0.638
 6702SOL    HW121005   1.206   3.499   0.641
 6702SOL    HW221006   1.339   3.542   0.726
 6703SOL     OW21007   0.446   2.581   6.707
 6703SOL    HW121008   0.421   2.580   6.610
 6703SOL    HW221009   0.365   2.603   6.762
 6704SOL     OW21010   4.898   2.575   3.184
 6704SOL    HW121011   4.835   2.505   3.151
 6704SOL    HW221012   4.846   2.653   3.220
 6705SOL     OW21013   5.885   1.266   0.915
 6705SOL    HW121014   5.801   1.262   0.969
 6705SOL    HW221015   5.959   1.222   0.966
 6706SOL     OW21016   1.146   5.946   6.857
 6706SOL    HW121017   1.222   5.977   6.915
 6706SOL    HW221018   1.120   6.018   6.794
 6707SOL     OW21019   1.061   5.441   2.485
 6707SOL    HW121020   1.015   5.364   2.528
 6707SOL    HW221021   1.079   5.420   2.388
 6708SOL     OW21022   2.200   6.529   1.602
 6708SOL    HW121023   2.292   6.560   1.627
 6708SOL    HW221024   2.136   6.605   1.609
 6709SOL     OW21025   5.077   1.797   3.176
 6709SOL    HW121026   5.088   1.845   3.263
 6709SOL    HW221027   4.980   1.795   3.152
 6710SOL     OW21028   1.500   2.083   0.370
 6710SOL    HW121029   1.512   1.985   0.357
 6710SOL    HW221030   1.571   2.132   0.319
 6711SOL     OW21031   5.113   3.543   0.101
 6711SOL    HW121032   5.032   3.583   0.143
 6711SOL    HW221033   5.126   3.450   0.137
 6712SOL     OW21034   3.586   6.135   1.117
 6712SOL    HW121035   3.510   6.193   1.145
 6712SOL    HW221036   3.553   6.042   1.103
 6713SOL     OW21037   1.674   1.837   3.091
 6713SOL    HW121038   1.628   1.750   3.109
 6713SOL    HW221039   1.691   1.885   3.177
 6714SOL     OW21040   6.482   0.346   4.580
 6714SOL    HW121041   6.504   0.371   4.675
 6714SOL    HW221042   6.442   0.254   4.579
 6715SOL     OW21043   6.387   2.156   0.674
 6715SOL    HW121044   6.394   2.089   0.601
 6715SOL    HW221045   6.344   2.114   0.754
 6716SOL     OW21046   2.922   6.188   0.891
 6716SOL    HW121047   3.022   6.189   0.888
 6716SOL    HW221048   2.886   6.152   0.805
 6717SOL     OW21049   4.205   0.978   6.860
 6717SOL    HW121050   4.176   1.037   6.786
 6717SOL    HW221051   4.232   1.033   6.939
 6718SOL     OW21052   3.807   6.992   0.240
 6718SOL    HW121053   3.773   7.013   0.332
 6718SOL    HW221054   3.826   0.053   0.191
 6719SOL     OW21055   0.675   1.137   5.202
 6719SOL    HW121056   0.753   1.084   5.168
 6719SOL    HW221057   0.705   1.230   5.223
 6720SOL     OW21058   1.478   4.663   1.247
 6720SOL    HW121059   1.525   4.698   1.329
 6720SOL    HW221060   1.380   4.663   1.263
 6721SOL     OW21061   0.226   6.147   2.574
 6721SOL    HW121062   0.268   6.065   2.534
 6721SOL    HW221063   0.282   6.180   2.649
 6722SOL     OW21064   4.843   5.162   6.773
 6722SOL    HW121065   4.920   5.169   6.709
 6722SOL    HW221066   4.871   5.110   6.853
 6723SOL     OW21067   4.608   0.587   2.827
 6723SOL    HW121068   4.589   0.636   2.742
 6723SOL    HW221069   4.577   0.642   2.904
 6724SOL     OW21070   3.728   4.724   5.831
 6724SOL    HW121071   3.718   4.774   5.745
 6724SOL    HW221072   3.776   4.637   5.814
 6725SOL     OW21073   6.860   5.139   1.172
 6725SOL    HW121074   6.812   5.139   1.259
 6725SOL    HW221075   6.867   5.046   1.137
 6726SOL     OW21076   2.385   2.843   1.855
 6726SOL    HW121077   2.439   2.763   1.829
 6726SOL    HW221078   2.392   2.912   1.783
 6727SOL     OW21079   3.245   4.129   0.648
 6727SOL    HW121080   3.152   4.123   0.609
 6727SOL    HW221081   3.288   4.038   0.644
 6728SOL     OW21082   4.458   1.627   4.905
 6728SOL    HW121083   4.395   1.576   4.963
 6728SOL    HW221084   4.505   1.564   4.843
 6729SOL     OW21085   4.674   6.295   3.309
 6729SOL    HW121086   4.738   6.255   3.375
 6729SOL    HW221087   4.724   6.352   3.244
 6730SOL     OW21088   1.229   0.442   2.046
 6730SOL    HW121089   1.278   0.464   1.961
 6730SOL    HW221090   1.150   0.502   2.056
 6731SOL     OW21091   1.907   3.988   2.076
 6731SOL    HW121092   1.843   3.914   2.055
 6731SOL    HW221093   1.890   4.065   2.014
 6732SOL     OW21094   2.649   5.639   0.138
 6732SOL    HW121095   2.608   5.730   0.129
 6732SOL    HW221096   2.666   5.600   0.048
 6733SOL     OW21097   6.030   5.937   4.674
 6733SOL    HW121098   6.005   5.947   4.770
 6733SOL    HW221099   5.981   5.860   4.634
 6734SOL     OW21100   2.691   3.783   5.578
 6734SOL    HW121101   2.616   3.725   5.608
 6734SOL    HW221102   2.696   3.782   5.478
 6735SOL     OW21103   0.878   6.528   6.663
 6735SOL    HW121104   0.855   6.431   6.664
 6735SOL    HW221105   0.859   6.566   6.573
 6736SOL     OW21106   2.105   4.150   2.420
 6736SOL    HW121107   2.076   4.213   2.492
 6736SOL    HW221108   2.166   4.196   2.356
 6737SOL     OW21109   2.035   6.975   0.830
 6737SOL    HW121110   1.941   7.008   0.821
 6737SOL    HW221111   2.079   6.977   0.740
 6738SOL     OW21112   5.001   1.621   1.173
 6738SOL    HW121113   4.945   1.561   1.229
 6738SOL    HW221114   4.962   1.627   1.081
 6739SOL     OW21115   4.131   6.621   5.686
 6739SOL    HW121116   4.136   6.538   5.741
 6739SOL    HW221117   4.209   6.625   5.624
 6740SOL     OW21118   5.851   2.896   5.685
 6740SOL    HW121119   5.950   2.888   5.677
 6740SOL    HW221120   5.827   2.976   5.740
 6741SOL     OW21121   0.550   0.007   6.385
 6741SOL    HW121122   0.539   6.961   6.456
 6741SOL    HW221123   0.490   0.084   6.405
 6742SOL     OW21124   6.298   6.053   4.799
 6742SOL    HW121125   6.257   5.977   4.748
 6742SOL    HW221126   6.236   6.082   4.871
 6743SOL     OW21127   5.737   2.282   1.401
 6743SOL    HW121128   5.783   2.198   1.428
 6743SOL    HW221129   5.640   2.263   1.385
 6744SOL     OW21130   4.786   6.422   4.322
 6744SOL    HW121131   4.874   6.374   4.327
 6744SOL    HW221132   4.798   6.517   4.351
 6745SOL     OW21133   1.083   3.231   3.064
 6745SOL    HW121134   0.989   3.254   3.090
 6745SOL    HW221135   1.133   3.315   3.043
 6746SOL     OW21136   6.605   1.146   0.824
 6746SOL    HW121137   6.507   1.145   0.842
 6746SOL    HW221138   6.621   1.173   0.729
 6747SOL     OW21139   4.504   5.583   6.747
 6747SOL    HW121140   4.455   5.498   6.729
 6747SOL    HW221141   4.601   5.571   6.724
 6748SOL     OW21142   0.069   6.533   2.131
 6748SOL    HW121143   7.002   6.512   2.167
 6748SOL    HW221144   0.117   6.593   2.195
 6749SOL     OW21145   3.212   5.435   1.262
 6749SOL    HW121146   3.195   5.352   1.210
 6749SOL    HW221147   3.264   5.500   1.206
 6750SOL     OW21148   2.189   3.000   5.270
 6750SOL    HW121149   2.223   3.026   5.361
 6750SOL    HW221150   2.266   2.994   5.207
 6751SOL     OW21151   3.991   1.883   5.988
 6751SOL    HW121152   4.012   1.790   5.958
 6751SOL    HW221153   3.942   1.879   6.075
 6752SOL     OW21154   0.103   1.869   0.115
 6752SOL    HW121155   0.090   1.897   0.020
 6752SOL    HW221156   0.178   1.920   0.155
 6753SOL     OW21157   6.529   1.224   0.005
 6753SOL    HW121158   6.489   1.310   6.996
 6753SOL    HW221159   6.575   1.178   6.953
 6754SOL     OW21160   4.567   0.775   6.576
 6754SOL    HW121161   4.525   0.813   6.658
 6754SOL    HW221162   4.661   0.810   6.567
 6755SOL     OW21163   5.523   2.111   3.684
 6755SOL    HW121164   5.599   2.153   3.734
 6755SOL    HW221165   5.459   2.183   3.655
 6756SOL     OW21166   4.864   4.242   3.785
 6756SOL    HW121167   4.827   4.159   3.825
 6756SOL    HW221168   4.814   4.322   3.820
 6757SOL     OW21169   6.117   4.453   1.269
 6757SOL    HW121170   6.072   4.542   1.257
 6757SOL    HW221171   6.207   4.466   1.309
 6758SOL     OW21172   5.926   1.508   3.412
 6758SOL    HW121173   5.970   1.549   3.491
 6758SOL    HW221174   5.868   1.431   3.441
 6759SOL     OW21175   1.343   5.380   3.086
 6759SOL    HW121176   1.330   5.453   3.019
 6759SOL    HW221177   1.427   5.331   3.064
 6760SOL     OW21178   6.779   3.875   5.258
 6760SOL    HW121179   6.706   3.938   5.232
 6760SOL    HW221180   6.800   3.886   5.355
 6761SOL     OW21181   5.860   2.672   6.356
 6761SOL    HW121182   5.812   2.591   6.390
 6761SOL    HW221183   5.950   2.646   6.321
 6762SOL     OW21184   0.146   4.035   3.231
 6762SOL    HW121185   0.106   4.098   3.297
 6762SOL    HW221186   0.243   4.021   3.251
 6763SOL     OW21187   5.714   0.048   4.722
 6763SOL    HW121188   5.785   0.118   4.733
 6763SOL    HW221189   5.749   6.984   4.755
 6764SOL     OW21190   1.861   3.591   6.939
 6764SOL    HW121191   1.918   3.533   6.881
 6764SOL    HW221192   1.781   3.622   6.887
 6765SOL     OW21193   4.954   5.057   2.621
 6765SOL    HW121194   4.896   5.042   2.541
 6765SOL    HW221195   4.904   5.031   2.704
 6766SOL     OW21196   1.778   2.778   5.948
 6766SOL    HW121197   1.778   2.771   5.848
 6766SOL    HW221198   1.871   2.767   5.982
 6767SOL     OW21199   0.585   3.033   5.758
 6767SOL    HW121200   0.517   2.961   5.744
 6767SOL    HW221201   0.545   3.122   5.733
 6768SOL     OW21202   6.595   0.743   6.286
 6768SOL    HW121203   6.692   0.729   6.265
 6768SOL    HW221204   6.578   0.718   6.381
 6769SOL     OW21205   1.120   2.789   6.088
 6769SOL    HW121206   1.205   2.756   6.048
 6769SOL    HW221207   1.057   2.816   6.015
 6770SOL     OW21208   0.010   1.702   3.769
 6770SOL    HW121209   0.084   1.766   3.790
 6770SOL    HW221210   6.973   1.695   3.848
 6771SOL     OW21211   6.077   1.834   2.821
 6771SOL    HW121212   6.127   1.881   2.894
 6771SOL    HW221213   5.992   1.884   2.801
 6772SOL     OW21214   1.049   0.632   2.049
 6772SOL    HW121215   1.060   0.676   1.960
 6772SOL    HW221216   1.055   0.700   2.122
 6773SOL     OW21217   1.668   1.082   2.859
 6773SOL    HW121218   1.705   1.164   2.903
 6773SOL    HW221219   1.636   1.106   2.767
 6774SOL     OW21220   4.135   1.308   5.199
 6774SOL    HW121221   4.154   1.272   5.290
 6774SOL    HW221222   4.089   1.238   5.144
 6775SOL     OW21223   1.365   2.202   4.551
 6775SOL    HW121224   1.344   2.234   4.643
 6775SOL    HW221225   1.460   2.224   4.529
 6776SOL     OW21226   3.682   3.830   3.286
 6776SOL    HW121227   3.617   3.893   3.244
 6776SOL    HW221228   3.692   3.749   3.227
 6777SOL     OW21229   0.485   6.856   6.164
 6777SOL    HW121230   0.489   6.931   6.230
 6777SOL    HW221231   0.555   6.788   6.187
 6778SOL     OW21232   6.637   6.061   1.903
 6778SOL    HW121233   6.620   6.066   1.805
 6778SOL    HW221234   6.550   6.053   1.952
 6779SOL     OW21235   5.012   4.573   6.662
 6779SOL    HW121236   4.963   4.657   6.687
 6779SOL    HW221237   5.102   4.597   6.627
 6780SOL     OW21238   4.849   1.100   2.609
 6780SOL    HW121239   4.750   1.096   2.597
 6780SOL    HW221240   4.876   1.035   2.680
 6781SOL     OW21241   6.196   3.187   3.225
 6781SOL    HW121242   6.125   3.215   3.289
 6781SOL    HW221243   6.193   3.088   3.213
 6782SOL     OW21244   0.191   1.393   2.811
 6782SOL    HW121245   0.178   1.312   2.754
 6782SOL    HW221246   0.121   1.396   2.882
 6783SOL     OW21247   0.269   6.413   6.812
 6783SOL    HW121248   0.343   6.400   6.878
 6783SOL    HW221249   0.183   6.425   6.861
 6784SOL     OW21250   1.322   4.942   0.230
 6784SOL    HW121251   1.234   4.986   0.215
 6784SOL    HW221252   1.394   5.012   0.230
 6785SOL     OW21253   5.343   4.565   1.721
 6785SOL    HW121254   5.321   4.544   1.816
 6785SOL    HW221255   5.286   4.642   1.690
 6786SOL     OW21256   6.635   1.987   5.677
 6786SOL    HW121257   6.544   2.027   5.689
 6786SOL    HW221258   6.628   1.907   5.617
 6787SOL     OW21259   4.095   2.161   1.239
 6787SOL    HW121260   4.021   2.213   1.281
 6787SOL    HW221261   4.060   2.073   1.207
 6788SOL     OW21262   1.128   4.478   1.040
 6788SOL    HW121263   1.031   4.499   1.040
 6788SOL    HW221264   1.148   4.416   0.964
 6789SOL     OW21265   5.472   3.545   2.452
 6789SOL    HW121266   5.520   3.609   2.391
 6789SOL    HW221267   5.384   3.520   2.411
 6790SOL     OW21268   6.976   5.654   0.867
 6790SOL    HW121269   7.013   5.584   0.806
 6790SOL    HW221270   6.877   5.641   0.875
 6791SOL     OW21271   2.442   6.492   3.396
 6791SOL    HW121272   2.455   6.483   3.494
 6791SOL    HW221273   2.448   6.402   3.353
 6792SOL     OW21274   3.415   5.764   6.776
 6792SOL    HW121275   3.498   5.726   6.735
 6792SOL    HW221276   3.368   5.822   6.709
 6793SOL     OW21277   2.658   4.199   6.745
 6793SOL    HW121278   2.639   4.137   6.821
 6793SOL    HW221279   2.602   4.173   6.666
 6794SOL     OW21280   4.824   2.232   4.438
 6794SOL    HW121281   4.884   2.260   4.363
 6794SOL    HW221282   4.732   2.216   4.404
 6795SOL     OW21283   0.690   1.057   1.990
 6795SOL    HW121284   0.632   1.139   1.991
 6795SOL    HW221285   0.784   1.083   2.014
 6796SOL     OW21286   6.568   2.994   2.483
 6796SOL    HW121287   6.555   3.055   2.405
 6796SOL    HW221288   6.626   2.917   2.456
 6797SOL     OW21289   1.879   4.105   1.231
 6797SOL    HW121290   1.963   4.145   1.193
 6797SOL    HW221291   1.819   4.078   1.156
 6798SOL     OW21292   4.799   1.512   1.911
 6798SOL    HW121293   4.712   1.468   1.888
 6798SOL    HW221294   4.873   1.464   1.864
 6799SOL     OW21295   5.525   6.777   3.080
 6799SOL    HW121296   5.525   6.875   3.060
 6799SOL    HW221297   5.552   6.726   2.998
 6800SOL     OW21298   6.506   2.672   2.360
 6800SOL    HW121299   6.604   2.667   2.380
 6800SOL    HW221300   6.488   2.751   2.301
 6801SOL     OW21301   1.723   5.252   5.042
 6801SOL    HW121302   1.675   5.324   5.091
 6801SOL    HW221303   1.749   5.285   4.952
 6802SOL     OW21304   2.653   4.489   1.668
 6802SOL    HW121305   2.672   4.400   1.628
 6802SOL    HW221306   2.718   4.508   1.741
 6803SOL     OW21307   6.131   4.938   6.738
 6803SOL    HW121308   6.095   5.021   6.782
 6803SOL    HW221309   6.119   4.860   6.800
 6804SOL     OW21310   3.399   4.946   2.070
 6804SOL    HW121311   3.466   4.872   2.059
 6804SOL    HW221312   3.432   5.010   2.139
 6805SOL     OW21313   0.694   4.476   3.299
 6805SOL    HW121314   0.703   4.442   3.392
 6805SOL    HW221315   0.648   4.408   3.242
 6806SOL     OW21316   6.280   3.794   1.919
 6806SOL    HW121317   6.296   3.829   2.011
 6806SOL    HW221318   6.182   3.780   1.905
 6807SOL     OW21319   3.544   3.419   2.412
 6807SOL    HW121320   3.515   3.512   2.434
 6807SOL    HW221321   3.527   3.401   2.315
 6808SOL     OW21322   3.810   6.395   3.116
 6808SOL    HW121323   3.757   6.412   3.033
 6808SOL    HW221324   3.903   6.429   3.104
 6809SOL     OW21325   5.625   2.482   0.372
 6809SOL    HW121326   5.695   2.413   0.387
 6809SOL    HW221327   5.620   2.542   0.452
 6810SOL     OW21328   2.541   6.904   4.354
 6810SOL    HW121329   2.623   6.924   4.301
 6810SOL    HW221330   2.566   6.882   4.448
 6811SOL     OW21331   6.228   1.492   1.469
 6811SOL    HW121332   6.223   1.442   1.556
 6811SOL    HW221333   6.261   1.584   1.486
 6812SOL     OW21334   3.483   4.360   5.444
 6812SOL    HW121335   3.493   4.460   5.446
 6812SOL    HW221336   3.391   4.335   5.472
 6813SOL     OW21337   0.185   3.641   2.025
 6813SOL    HW121338   0.175   3.675   1.931
 6813SOL    HW221339   0.188   3.541   2.024
 6814SOL     OW21340   4.070   2.353   1.852
 6814SOL    HW121341   3.989   2.386   1.804
 6814SOL    HW221342   4.147   2.348   1.789
 6815SOL     OW21343   1.058   5.764   0.203
 6815SOL    HW121344   1.027   5.778   0.297
 6815SOL    HW221345   1.006   5.822   0.142
 6816SOL     OW21346   5.867   6.338   4.522
 6816SOL    HW121347   5.962   6.367   4.515
 6816SOL    HW221348   5.831   6.363   4.613
 6817SOL     OW21349   5.626   0.604   1.814
 6817SOL    HW121350   5.668   0.526   1.862
 6817SOL    HW221351   5.552   0.571   1.756
 6818SOL     OW21352   6.932   6.814   5.553
 6818SOL    HW121353   7.005   6.816   5.485
 6818SOL    HW221354   6.968   6.846   5.641
 6819SOL     OW21355   5.266   3.706   0.629
 6819SOL    HW121356   5.358   3.668   0.629
 6819SOL    HW221357   5.266   3.794   0.582
 6820SOL     OW21358   2.507   3.499   1.398
 6820SOL    HW121359   2.570   3.524   1.325
 6820SOL    HW221360   2.472   3.407   1.383
 6821SOL     OW21361   2.806   3.207   5.970
 6821SOL    HW121362   2.797   3.156   6.055
 6821SOL    HW221363   2.895   3.251   5.967
 6822SOL     OW21364   6.578   4.120   4.880
 6822SOL    HW121365   6.479   4.119   4.864
 6822SOL    HW221366   6.613   4.211   4.860
 6823SOL     OW21367   6.817   3.145   5.913
 6823SOL    HW121368   6.755   3.206   5.864
 6823SOL    HW221369   6.817   3.055   5.870
 6824SOL     OW21370   0.675   0.456   3.680
 6824SOL    HW121371   0.610   0.512   3.732
 6824SOL    HW221372   0.759   0.508   3.664
 6825SOL     OW21373   4.517   4.606   1.583
 6825SOL    HW121374   4.460   4.528   1.609
 6825SOL    HW221375   4.600   4.607   1.640
 6826SOL     OW21376   5.992   1.147   3.708
 6826SOL    HW121377   6.091   1.158   3.717
 6826SOL    HW221378   5.971   1.050   3.700
 6827SOL     OW21379   5.307   5.465   5.806
 6827SOL    HW121380   5.233   5.529   5.827
 6827SOL    HW221381   5.319   5.459   5.707
 6828SOL     OW21382   2.612   2.404   2.806
 6828SOL    HW121383   2.710   2.389   2.818
 6828SOL    HW221384   2.574   2.332   2.748
 6829SOL     OW21385   5.409   6.605   3.937
 6829SOL    HW121386   5.364   6.637   4.021
 6829SOL    HW221387   5.367   6.520   3.907
 6830SOL     OW21388   3.836   6.279   2.085
 6830SOL    HW121389   3.917   6.231   2.053
 6830SOL    HW221390   3.762   6.268   2.019
 6831SOL     OW21391   2.328   1.049   7.022
 6831SOL    HW121392   2.313   1.124   0.064
 6831SOL    HW221393   2.422   1.051   6.990
 6832SOL     OW21394   3.355   3.633   0.078
 6832SOL    HW121395   3.424   3.561   0.069
 6832SOL    HW221396   3.354   3.667   0.172
 6833SOL     OW21397   4.762   5.408   6.874
 6833SOL    HW121398   4.667   5.388   6.896
 6833SOL    HW221399   4.800   5.331   6.822
 6834SOL     OW21400   6.043   5.732   5.654
 6834SOL    HW121401   6.048   5.643   5.699
 6834SOL    HW221402   6.131   5.779   5.662
 6835SOL     OW21403   4.036   0.265   3.096
 6835SOL    HW121404   3.939   0.291   3.103
 6835SOL    HW221405   4.050   0.212   3.013
 6836SOL     OW21406   0.781   4.771   7.013
 6836SOL    HW121407   0.702   4.712   6.996
 6836SOL    HW221408   0.827   4.742   0.073
 6837SOL     OW21409   6.468   2.119   1.848
 6837SOL    HW121410   6.378   2.116   1.804
 6837SOL    HW221411   6.471   2.195   1.913
 6838SOL     OW21412   1.980   4.562   6.728
 6838SOL    HW121413   1.970   4.656   6.695
 6838SOL    HW221414   1.928   4.500   6.669
 6839SOL     OW21415   5.728   2.456   5.600
 6839SOL    HW121416   5.774   2.523   5.658
 6839SOL    HW221417   5.633   2.483   5.587
 6840SOL     OW21418   3.131   7.005   4.672
 6840SOL    HW121419   3.034   7.022   4.688
 6840SOL    HW221420   3.181   7.017   4.758
 6841SOL     OW21421   4.528   6.254   0.758
 6841SOL    HW121422   4.568   6.237   0.848
 6841SOL    HW221423   4.519   6.353   0.744
 6842SOL     OW21424   1.390   3.273   3.704
 6842SOL    HW121425   1.401   3.366   3.669
 6842SOL    HW221426   1.363   3.212   3.629
 6843SOL     OW21427   4.950   2.937   1.855
 6843SOL    HW121428   4.877   2.940   1.924
 6843SOL    HW221429   4.956   2.845   1.818
 6844SOL     OW21430   3.031   0.003   5.106
 6844SOL    HW121431   3.041   0.077   5.173
 6844SOL    HW221432   2.970   6.956   5.143
 6845SOL     OW21433   3.697   3.634   6.908
 6845SOL    HW121434   3.732   3.594   6.992
 6845SOL    HW221435   3.628   3.574   6.868
 6846SOL     OW21436   4.139   3.437   4.123
 6846SOL    HW121437   4.235   3.410   4.124
 6846SOL    HW221438   4.084   3.366   4.169
 6847SOL     OW21439   5.429   2.695   2.568
 6847SOL    HW121440   5.458   2.780   2.524
 6847SOL    HW221441   5.402   2.714   2.663
 6848SOL     OW21442   0.673   5.911   5.040
 6848SOL    HW121443   0.606   5.964   4.988
 6848SOL    HW221444   0.664   5.932   5.137
 6849SOL     OW21445   3.166   0.289   4.888
 6849SOL    HW121446   3.157   0.364   4.823
 6849SOL    HW221447   3.213   0.320   4.970
 6850SOL     OW21448   6.572   3.566   1.656
 6850SOL    HW121449   6.556   3.471   1.684
 6850SOL    HW221450   6.521   3.585   1.572
 6851SOL     OW21451   1.642   5.976   6.677
 6851SOL    HW121452   1.647   5.935   6.768
 6851SOL    HW221453   1.550   5.967   6.641
 6852SOL     OW21454   5.872   5.098   2.109
 6852SOL    HW121455   5.782   5.083   2.067
 6852SOL    HW221456   5.941   5.108   2.037
 6853SOL     OW21457   6.325   3.929   4.761
 6853SOL    HW121458   6.296   3.979   4.679
 6853SOL    HW221459   6.416   3.891   4.746
 6854SOL     OW21460   6.298   1.258   6.772
 6854SOL    HW121461   6.269   1.192   6.702
 6854SOL    HW221462   6.276   1.221   6.863
 6855SOL     OW21463   2.793   6.917   1.746
 6855SOL    HW121464   2.717   6.928   1.811
 6855SOL    HW221465   2.867   6.980   1.771
 6856SOL     OW21466   0.554   6.054   5.613
 6856SOL    HW121467   0.547   5.960   5.648
 6856SOL    HW221468   0.648   6.085   5.620
 6857SOL     OW21469   5.034   0.649   6.678
 6857SOL    HW121470   5.041   0.747   6.694
 6857SOL    HW221471   5.125   0.611   6.661
 6858SOL     OW21472   3.491   2.715   6.715
 6858SOL    HW121473   3.584   2.714   6.679
 6858SOL    HW221474   3.462   2.809   6.732
 6859SOL     OW21475   4.439   0.841   0.173
 6859SOL    HW121476   4.535   0.828   0.149
 6859SOL    HW221477   4.432   0.910   0.245
 6860SOL     OW21478   4.968   3.583   6.560
 6860SOL    HW121479   5.040   3.585   6.629
 6860SOL    HW221480   4.884   3.623   6.598
 6861SOL     OW21481   6.115   3.457   0.740
 6861SOL    HW121482   6.033   3.489   0.692
 6861SOL    HW221483   6.106   3.476   0.838
 6862SOL     OW21484   2.525   4.649   4.700
 6862SOL    HW121485   2.543   4.683   4.793
 6862SOL    HW221486   2.476   4.719   4.648
 6863SOL     OW21487   1.324   3.376   3.974
 6863SOL    HW121488   1.340   3.309   3.902
 6863SOL    HW221489   1.411   3.415   4.005
 6864SOL     OW21490   3.831   5.386   6.156
 6864SOL    HW121491   3.928   5.368   6.139
 6864SOL    HW221492   3.775   5.320   6.108
 6865SOL     OW21493   0.668   2.686   4.315
 6865SOL    HW121494   0.710   2.746   4.247
 6865SOL    HW221495   0.723   2.687   4.399
 6866SOL     OW21496   0.786   3.902   2.656
 6866SOL    HW121497   0.729   3.927   2.734
 6866SOL    HW221498   0.820   3.984   2.611
 6867SOL     OW21499   2.106   5.623   3.368
 6867SOL    HW121500   2.146   5.694   3.426
 6867SOL    HW221501   2.098   5.538   3.420
 6868SOL     OW21502   1.971   5.528   4.881
 6868SOL    HW121503   2.049   5.579   4.845
 6868SOL    HW221504   1.932   5.577   4.959
 6869SOL     OW21505   0.358   3.552   5.128
 6869SOL    HW121506   0.406   3.505   5.054
 6869SOL    HW221507   0.414   3.629   5.159
 6870SOL     OW21508   5.450   3.509   2.973
 6870SOL    HW121509   5.529   3.569   2.983
 6870SOL    HW221510   5.375   3.543   3.029
 6871SOL     OW21511   5.028   5.733   1.328
 6871SOL    HW121512   5.059   5.805   1.390
 6871SOL    HW221513   4.929   5.737   1.318
 6872SOL     OW21514   3.452   4.417   0.966
 6872SOL    HW121515   3.399   4.484   1.018
 6872SOL    HW221516   3.453   4.442   0.869
 6873SOL     OW21517   5.702   4.801   4.681
 6873SOL    HW121518   5.681   4.898   4.664
 6873SOL    HW221519   5.799   4.792   4.704
 6874SOL     OW21520   0.703   1.842   6.247
 6874SOL    HW121521   0.606   1.866   6.238
 6874SOL    HW221522   0.741   1.824   6.156
 6875SOL     OW21523   3.985   0.504   4.753
 6875SOL    HW121524   3.912   0.436   4.761
 6875SOL    HW221525   3.967   0.563   4.675
 6876SOL     OW21526   3.455   5.917   4.609
 6876SOL    HW121527   3.452   5.990   4.677
 6876SOL    HW221528   3.524   5.939   4.539
 6877SOL     OW21529   1.658   3.624   6.094
 6877SOL    HW121530   1.597   3.547   6.074
 6877SOL    HW221531   1.603   3.702   6.127
 6878SOL     OW21532   1.170   1.334   4.594
 6878SOL    HW121533   1.195   1.430   4.606
 6878SOL    HW221534   1.247   1.276   4.622
 6879SOL     OW21535   6.757   0.747   5.108
 6879SOL    HW121536   6.713   0.737   5.019
 6879SOL    HW221537   6.712   0.820   5.159
 6880SOL     OW21538   1.217   4.235   4.882
 6880SOL    HW121539   1.203   4.160   4.947
 6880SOL    HW221540   1.259   4.199   4.799
 6881SOL     OW21541   5.381   5.784   1.569
 6881SOL    HW121542   5.415   5.791   1.663
 6881SOL    HW221543   5.281   5.790   1.569
 6882SOL     OW21544   2.430   5.974   5.725
 6882SOL    HW121545   2.373   6.048   5.688
 6882SOL    HW221546   2.503   6.014   5.780
 6883SOL     OW21547   2.962   5.970   2.255
 6883SOL    HW121548   2.984   6.067   2.246
 6883SOL    HW221549   2.939   5.932   2.165
 6884SOL     OW21550   1.856   5.179   1.976
 6884SOL    HW121551   1.951   5.155   1.955
 6884SOL    HW221552   1.848   5.278   1.982
 6885SOL     OW21553   4.240   4.781   5.081
 6885SOL    HW121554   4.176   4.774   5.157
 6885SOL    HW221555   4.279   4.691   5.061
 6886SOL     OW21556   5.244   1.095   1.650
 6886SOL    HW121557   5.177   1.029   1.615
 6886SOL    HW221558   5.333   1.077   1.610
 6887SOL     OW21559   6.236   0.762   5.071
 6887SOL    HW121560   6.294   0.761   4.990
 6887SOL    HW221561   6.218   0.668   5.100
 6888SOL     OW21562   5.761   0.130   4.050
 6888SOL    HW121563   5.847   0.166   4.086
 6888SOL    HW221564   5.706   0.205   4.014
 6889SOL     OW21565   1.979   4.043   6.222
 6889SOL    HW121566   2.065   4.021   6.176
 6889SOL    HW221567   1.925   4.105   6.165
 6890SOL     OW21568   1.909   0.596   1.229
 6890SOL    HW121569   1.890   0.498   1.231
 6890SOL    HW221570   1.901   0.629   1.135
 6891SOL     OW21571   4.428   5.415   5.834
 6891SOL    HW121572   4.356   5.482   5.850
 6891SOL    HW221573   4.448   5.367   5.920
 6892SOL     OW21574   3.327   1.478   4.969
 6892SOL    HW121575   3.376   1.519   4.892
 6892SOL    HW221576   3.386   1.478   5.050
 6893SOL     OW21577   5.059   0.438   1.100
 6893SOL    HW121578   5.036   0.342   1.114
 6893SOL    HW221579   5.119   0.447   1.020
 6894SOL     OW21580   5.805   4.426   6.509
 6894SOL    HW121581   5.747   4.409   6.588
 6894SOL    HW221582   5.901   4.415   6.536
 6895SOL     OW21583   4.316   5.373   5.408
 6895SOL    HW121584   4.275   5.394   5.497
 6895SOL    HW221585   4.324   5.457   5.354
 6896SOL     OW21586   4.784   1.475   2.700
 6896SOL    HW121587   4.750   1.509   2.788
 6896SOL    HW221588   4.741   1.526   2.626
 6897SOL     OW21589   3.652   0.550   1.335
 6897SOL    HW121590   3.734   0.599   1.366
 6897SOL    HW221591   3.606   0.602   1.264
 6898SOL     OW21592   4.363   1.564   2.694
 6898SOL    HW121593   4.403   1.627   2.761
 6898SOL    HW221594   4.335   1.616   2.613
 6899SOL     OW21595   5.653   6.104   6.226
 6899SOL    HW121596   5.727   6.038   6.212
 6899SOL    HW221597   5.567   6.055   6.238
 6900SOL     OW21598   4.171   0.400   6.561
 6900SOL    HW121599   4.182   0.303   6.584
 6900SOL    HW221600   4.245   0.453   6.602
 6901SOL     OW21601   2.041   0.882   0.102
 6901SOL    HW121602   2.038   0.808   0.168
 6901SOL    HW221603   2.063   0.968   0.148
 6902SOL     OW21604   6.752   5.695   2.651
 6902SOL    HW121605   6.738   5.602   2.618
 6902SOL    HW221606   6.724   5.760   2.580
 6903SOL     OW21607   4.941   4.194   0.352
 6903SOL    HW121608   4.848   4.229   0.363
 6903SOL    HW221609   4.939   4.095   0.339
 6904SOL     OW21610   0.617   0.669   2.624
 6904SOL    HW121611   0.599   0.613   2.705
 6904SOL    HW221612   0.601   0.765   2.646
 6905SOL     OW21613   3.512   5.386   0.973
 6905SOL    HW121614   3.523   5.313   1.039
 6905SOL    HW221615   3.573   5.462   0.996
 6906SOL     OW21616   5.864   6.271   3.289
 6906SOL    HW121617   5.913   6.218   3.220
 6906SOL    HW221618   5.791   6.215   3.328
 6907SOL     OW21619   3.496   0.396   1.511
 6907SOL    HW121620   3.550   0.445   1.443
 6907SOL    HW221621   3.399   0.418   1.498
 6908SOL     OW21622   5.519   7.005   6.874
 6908SOL    HW121623   5.587   6.951   6.824
 6908SOL    HW221624   5.459   0.029   6.810
 6909SOL     OW21625   2.301   2.375   0.088
 6909SOL    HW121626   2.359   2.303   0.051
 6909SOL    HW221627   2.265   2.346   0.177
 6910SOL     OW21628   5.426   1.465   1.020
 6910SOL    HW121629   5.358   1.503   0.957
 6910SOL    HW221630   5.383   1.448   1.108
 6911SOL     OW21631   4.220   0.516   5.048
 6911SOL    HW121632   4.312   0.476   5.039
 6911SOL    HW221633   4.166   0.492   4.968
 6912SOL     OW21634   4.202   4.790   2.016
 6912SOL    HW121635   4.227   4.886   2.012
 6912SOL    HW221636   4.281   4.734   1.991
 6913SOL     OW21637   4.729   5.434   5.386
 6913SOL    HW121638   4.652   5.410   5.327
 6913SOL    HW221639   4.695   5.474   5.471
 6914SOL     OW21640   6.394   4.852   0.128
 6914SOL    HW121641   6.397   4.753   0.119
 6914SOL    HW221642   6.386   4.877   0.224
 6915SOL     OW21643   0.268   6.561   0.687
 6915SOL    HW121644   0.329   6.634   0.720
 6915SOL    HW221645   0.280   6.550   0.589
 6916SOL     OW21646   6.257   0.310   5.632
 6916SOL    HW121647   6.231   0.219   5.666
 6916SOL    HW221648   6.312   0.299   5.549
 6917SOL     OW21649   4.298   6.916   5.867
 6917SOL    HW121650   4.394   6.901   5.892
 6917SOL    HW221651   4.242   6.840   5.899
 6918SOL     OW21652   2.335   2.804   3.492
 6918SOL    HW121653   2.313   2.709   3.467
 6918SOL    HW221654   2.423   2.806   3.540
 6919SOL     OW21655   1.278   6.097   3.356
 6919SOL    HW121656   1.297   6.005   3.390
 6919SOL    HW221657   1.183   6.122   3.377
 6920SOL     OW21658   5.503   5.753   4.435
 6920SOL    HW121659   5.417   5.745   4.384
 6920SOL    HW221660   5.566   5.681   4.407
 6921SOL     OW21661   1.186   5.494   3.569
 6921SOL    HW121662   1.218   5.564   3.633
 6921SOL    HW221663   1.096   5.518   3.535
 6922SOL     OW21664   1.983   6.595   0.782
 6922SOL    HW121665   1.934   6.641   0.708
 6922SOL    HW221666   1.927   6.595   0.864
 6923SOL     OW21667   4.909   5.510   3.449
 6923SOL    HW121668   4.814   5.543   3.448
 6923SOL    HW221669   4.918   5.439   3.519
 6924SOL     OW21670   6.072   5.791   2.323
 6924SOL    HW121671   6.107   5.720   2.262
 6924SOL    HW221672   6.051   5.751   2.412
 6925SOL     OW21673   5.040   5.503   2.549
 6925SOL    HW121674   4.955   5.547   2.578
 6925SOL    HW221675   5.021   5.439   2.475
 6926SOL     OW21676   2.893   4.077   5.363
 6926SOL    HW121677   2.839   4.161   5.375
 6926SOL    HW221678   2.903   4.031   5.451
 6927SOL     OW21679   4.031   3.702   0.890
 6927SOL    HW121680   3.967   3.770   0.853
 6927SOL    HW221681   4.022   3.617   0.838
 6928SOL     OW21682   6.998   0.730   6.607
 6928SOL    HW121683   0.064   0.740   6.650
 6928SOL    HW221684   6.992   0.791   6.528
 6929SOL     OW21685   3.124   5.262   1.959
 6929SOL    HW121686   3.139   5.312   2.045
 6929SOL    HW221687   3.109   5.165   1.978
 6930SOL     OW21688   0.179   0.490   3.159
 6930SOL    HW121689   0.233   0.554   3.104
 6930SOL    HW221690   0.220   0.399   3.154
 6931SOL     OW21691   2.296   0.025   0.080
 6931SOL    HW121692   2.352   0.008   7.022
 6931SOL    HW221693   2.271   6.962   0.122
 6932SOL     OW21694   2.537   2.374   0.540
 6932SOL    HW121695   2.533   2.301   0.471
 6932SOL    HW221696   2.506   2.460   0.499
 6933SOL     OW21697   2.115   6.098   4.956
 6933SOL    HW121698   2.022   6.102   4.991
 6933SOL    HW221699   2.113   6.076   4.858
 6934SOL     OW21700   5.574   4.942   6.694
 6934SOL    HW121701   5.545   5.037   6.698
 6934SOL    HW221702   5.672   4.937   6.675
 6935SOL     OW21703   4.724   5.704   3.088
 6935SOL    HW121704   4.641   5.753   3.115
 6935SOL    HW221705   4.804   5.758   3.112
 6936SOL     OW21706   0.659   4.527   0.505
 6936SOL    HW121707   0.729   4.458   0.525
 6936SOL    HW221708   0.700   4.605   0.459
 6937SOL     OW21709   4.839   6.240   6.058
 6937SOL    HW121710   4.774   6.276   5.991
 6937SOL    HW221711   4.923   6.294   6.055
 6938SOL     OW21712   5.688   2.761   5.193
 6938SOL    HW121713   5.704   2.807   5.280
 6938SOL    HW221714   5.759   2.786   5.128
 6939SOL     OW21715   6.641   4.578   2.010
 6939SOL    HW121716   6.599   4.488   2.004
 6939SOL    HW221717   6.714   4.585   1.942
 6940SOL     OW21718   4.211   0.682   4.764
 6940SOL    HW121719   4.223   0.732   4.850
 6940SOL    HW221720   4.116   0.653   4.756
 6941SOL     OW21721   4.169   3.444   4.872
 6941SOL    HW121722   4.117   3.383   4.932
 6941SOL    HW221723   4.266   3.421   4.878
 6942SOL     OW21724   6.104   1.682   6.972
 6942SOL    HW121725   6.062   1.702   6.883
 6942SOL    HW221726   6.034   1.683   0.019
 6943SOL     OW21727   6.235   5.750   6.446
 6943SOL    HW121728   6.223   5.652   6.429
 6943SOL    HW221729   6.152   5.799   6.417
 6944SOL     OW21730   1.482   6.430   0.526
 6944SOL    HW121731   1.542   6.460   0.452
 6944SOL    HW221732   1.461   6.508   0.586
 6945SOL     OW21733   4.613   2.071   6.191
 6945SOL    HW121734   4.590   2.167   6.209
 6945SOL    HW221735   4.582   2.014   6.266
 6946SOL     OW21736   6.479   3.909   3.513
 6946SOL    HW121737   6.442   3.996   3.547
 6946SOL    HW221738   6.579   3.913   3.513
 6947SOL     OW21739   3.876   6.949   1.379
 6947SOL    HW121740   3.781   6.947   1.349
 6947SOL    HW221741   3.901   6.860   1.418
 6948SOL     OW21742   3.815   2.582   5.449
 6948SOL    HW121743   3.785   2.674   5.424
 6948SOL    HW221744   3.886   2.588   5.519
 6949SOL     OW21745   5.022   0.763   2.393
 6949SOL    HW121746   4.998   0.668   2.375
 6949SOL    HW221747   5.039   0.810   2.306
 6950SOL     OW21748   3.382   1.455   3.197
 6950SOL    HW121749   3.428   1.532   3.152
 6950SOL    HW221750   3.296   1.487   3.236
 6951SOL     OW21751   5.175   4.706   5.516
 6951SOL    HW121752   5.201   4.625   5.463
 6951SOL    HW221753   5.145   4.778   5.454
 6952SOL     OW21754   6.987   4.267   5.654
 6952SOL    HW121755   6.997   4.188   5.594
 6952SOL    HW221756   0.041   4.269   5.718
 6953SOL     OW21757   4.993   2.331   4.871
 6953SOL    HW121758   4.931   2.353   4.796
 6953SOL    HW221759   5.049   2.411   4.893
 6954SOL     OW21760   0.185   4.377   2.006
 6954SOL    HW121761   0.218   4.426   1.925
 6954SOL    HW221762   0.089   4.353   1.993
 6955SOL     OW21763   6.786   0.500   3.022
 6955SOL    HW121764   6.789   0.418   3.080
 6955SOL    HW221765   6.871   0.551   3.033
 6956SOL     OW21766   2.364   4.217   0.912
 6956SOL    HW121767   2.292   4.210   0.843
 6956SOL    HW221768   2.356   4.140   0.976
 6957SOL     OW21769   0.969   4.433   0.217
 6957SOL    HW121770   1.006   4.378   0.292
 6957SOL    HW221771   0.881   4.395   0.189
 6958SOL     OW21772   2.673   3.749   5.957
 6958SOL    HW121773   2.730   3.753   6.040
 6958SOL    HW221774   2.634   3.839   5.939
 6959SOL     OW21775   3.774   1.245   4.426
 6959SOL    HW121776   3.764   1.288   4.515
 6959SOL    HW221777   3.846   1.291   4.375
 6960SOL     OW21778   0.305   5.570   0.017
 6960SOL    HW121779   0.314   5.651   0.074
 6960SOL    HW221780   0.296   5.489   0.075
 6961SOL     OW21781   6.183   1.529   3.039
 6961SOL    HW121782   6.210   1.434   3.022
 6961SOL    HW221783   6.175   1.578   2.953
 6962SOL     OW21784   3.653   3.887   1.070
 6962SOL    HW121785   3.593   3.898   0.990
 6962SOL    HW221786   3.608   3.827   1.137
 6963SOL     OW21787   6.227   6.004   2.331
 6963SOL    HW121788   6.265   5.978   2.419
 6963SOL    HW221789   6.177   5.927   2.291
 6964SOL     OW21790   3.038   5.990   5.611
 6964SOL    HW121791   3.055   6.008   5.708
 6964SOL    HW221792   3.100   6.045   5.555
 6965SOL     OW21793   6.316   1.628   5.392
 6965SOL    HW121794   6.225   1.604   5.358
 6965SOL    HW221795   6.357   1.697   5.332
 6966SOL     OW21796   5.470   2.394   3.869
 6966SOL    HW121797   5.390   2.360   3.919
 6966SOL    HW221798   5.553   2.363   3.915
 6967SOL     OW21799   2.518   2.635   6.005
 6967SOL    HW121800   2.426   2.596   5.997
 6967SOL    HW221801   2.523   2.696   6.083
 6968SOL     OW21802   4.451   0.083   4.272
 6968SOL    HW121803   4.539   0.057   4.232
 6968SOL    HW221804   4.411   0.004   4.318
 6969SOL     OW21805   2.995   3.502   0.620
 6969SOL    HW121806   3.018   3.409   0.591
 6969SOL    HW221807   2.979   3.502   0.719
 6970SOL     OW21808   4.461   4.181   0.771
 6970SOL    HW121809   4.434   4.180   0.675
 6970SOL    HW221810   4.558   4.207   0.778
 6971SOL     OW21811   6.220   1.153   2.297
 6971SOL    HW121812   6.122   1.142   2.279
 6971SOL    HW221813   6.266   1.186   2.215
 6972SOL     OW21814   5.615   5.004   4.450
 6972SOL    HW121815   5.558   5.031   4.373
 6972SOL    HW221816   5.616   5.078   4.517
 6973SOL     OW21817   1.453   4.363   3.736
 6973SOL    HW121818   1.411   4.443   3.692
 6973SOL    HW221819   1.446   4.284   3.676
 6974SOL     OW21820   3.794   4.149   5.035
 6974SOL    HW121821   3.849   4.126   4.955
 6974SOL    HW221822   3.700   4.118   5.020
 6975SOL     OW21823   3.243   6.897   6.152
 6975SOL    HW121824   3.160   6.863   6.107
 6975SOL    HW221825   3.218   6.962   6.223
 6976SOL     OW21826   1.223   6.279   0.436
 6976SOL    HW121827   1.314   6.318   0.444
 6976SOL    HW221828   1.220   6.218   0.356
 6977SOL     OW21829   4.838   2.736   2.114
 6977SOL    HW121830   4.793   2.818   2.078
 6977SOL    HW221831   4.903   2.762   2.185
 6978SOL     OW21832   4.491   2.148   3.829
 6978SOL    HW121833   4.548   2.176   3.752
 6978SOL    HW221834   4.451   2.229   3.872
 6979SOL     OW21835   0.850   4.159   3.885
 6979SOL    HW121836   0.816   4.065   3.890
 6979SOL    HW221837   0.815   4.210   3.964
 6980SOL     OW21838   4.603   1.197   4.803
 6980SOL    HW121839   4.608   1.097   4.804
 6980SOL    HW221840   4.647   1.234   4.885
 6981SOL     OW21841   2.867   3.671   6.947
 6981SOL    HW121842   2.825   3.740   7.006
 6981SOL    HW221843   2.796   3.619   6.899
 6982SOL     OW21844   0.249   0.115   5.270
 6982SOL    HW121845   0.198   0.193   5.233
 6982SOL    HW221846   0.264   0.128   5.368
 6983SOL     OW21847   6.211   1.095   2.620
 6983SOL    HW121848   6.227   1.186   2.582
 6983SOL    HW221849   6.253   1.089   2.711
 6984SOL     OW21850   1.614   1.409   6.044
 6984SOL    HW121851   1.591   1.356   6.125
 6984SOL    HW221852   1.710   1.434   6.046
 6985SOL     OW21853   4.980   0.201   3.990
 6985SOL    HW121854   4.888   0.193   4.028
 6985SOL    HW221855   5.014   0.111   3.964
 6986SOL     OW21856   1.463   6.817   5.198
 6986SOL    HW121857   1.563   6.822   5.193
 6986SOL    HW221858   1.428   6.900   5.241
 6987SOL     OW21859   6.716   3.171   6.608
 6987SOL    HW121860   6.752   3.157   6.515
 6987SOL    HW221861   6.755   3.255   6.646
 6988SOL     OW21862   5.758   1.692   6.086
 6988SOL    HW121863   5.728   1.671   5.993
 6988SOL    HW221864   5.850   1.655   6.100
 6989SOL     OW21865   2.209   2.967   3.793
 6989SOL    HW121866   2.181   3.048   3.742
 6989SOL    HW221867   2.207   2.888   3.732
 6990SOL     OW21868   3.749   3.473   1.008
 6990SOL    HW121869   3.683   3.398   1.005
 6990SOL    HW221870   3.736   3.526   1.091
 6991SOL     OW21871   4.049   4.729   5.258
 6991SOL    HW121872   4.045   4.817   5.305
 6991SOL    HW221873   4.026   4.656   5.322
 6992SOL     OW21874   6.219   6.939   4.570
 6992SOL    HW121875   6.133   6.984   4.548
 6992SOL    HW221876   6.254   6.974   4.657
 6993SOL     OW21877   0.302   6.966   3.245
 6993SOL    HW121878   0.284   6.868   3.234
 6993SOL    HW221879   0.216   7.013   3.264
 6994SOL     OW21880   1.430   2.441   0.169
 6994SOL    HW121881   1.375   2.523   0.186
 6994SOL    HW221882   1.370   2.364   0.151
 6995SOL     OW21883   0.807   5.286   4.242
 6995SOL    HW121884   0.842   5.270   4.150
 6995SOL    HW221885   0.849   5.368   4.281
 6996SOL     OW21886   1.916   6.959   6.335
 6996SOL    HW121887   1.904   0.030   6.304
 6996SOL    HW221888   1.843   6.902   6.298
 6997SOL     OW21889   4.609   5.387   4.182
 6997SOL    HW121890   4.538   5.427   4.239
 6997SOL    HW221891   4.690   5.446   4.184
 6998SOL     OW21892   2.952   1.934   3.016
 6998SOL    HW121893   2.896   2.016   3.027
 6998SOL    HW221894   2.948   1.903   2.920
 6999SOL     OW21895   5.611   2.193   0.131
 6999SOL    HW121896   5.548   2.124   0.167
 6999SOL    HW221897   5.567   2.283   0.131
 7000SOL     OW21898   6.594   0.275   1.664
 7000SOL    HW121899   6.569   0.237   1.574
 7000SOL    HW221900   6.560   0.369   1.671
 7001SOL     OW21901   3.055   1.625   6.357
 7001SOL    HW121902   3.126   1.676   6.308
 7001SOL    HW221903   3.002   1.688   6.414
 7002SOL     OW21904   2.043   4.789   2.256
 7002SOL    HW121905   2.055   4.699   2.213
 7002SOL    HW221906   1.985   4.846   2.197
 7003SOL     OW21907   1.678   6.288   5.756
 7003SOL    HW121908   1.625   6.366   5.789
 7003SOL    HW221909   1.616   6.212   5.735
 7004SOL     OW21910   1.480   3.959   6.836
 7004SOL    HW121911   1.578   3.976   6.827
 7004SOL    HW221912   1.432   4.047   6.847
 7005SOL     OW21913   6.853   0.005   5.928
 7005SOL    HW121914   6.851   0.071   6.003
 7005SOL    HW221915   6.898   6.945   5.958
 7006SOL     OW21916   4.365   4.628   4.029
 7006SOL    HW121917   4.370   4.616   3.930
 7006SOL    HW221918   4.315   4.551   4.069
 7007SOL     OW21919   4.563   4.862   2.703
 7007SOL    HW121920   4.566   4.808   2.787
 7007SOL    HW221921   4.543   4.802   2.625
 7008SOL     OW21922   1.161   5.008   3.989
 7008SOL    HW121923   1.160   4.921   3.940
 7008SOL    HW221924   1.251   5.022   4.030
 7009SOL     OW21925   6.834   3.921   1.920
 7009SOL    HW121926   6.819   3.854   1.847
 7009SOL    HW221927   6.930   3.949   1.921
 7010SOL     OW21928   5.389   4.686   6.347
 7010SOL    HW121929   5.466   4.632   6.313
 7010SOL    HW221930   5.324   4.702   6.273
 7011SOL     OW21931   0.881   0.813   5.517
 7011SOL    HW121932   0.977   0.836   5.531
 7011SOL    HW221933   0.825   0.895   5.528
 7012SOL     OW21934   1.264   1.329   1.466
 7012SOL    HW121935   1.230   1.324   1.560
 7012SOL    HW221936   1.362   1.351   1.467
 7013SOL     OW21937   6.655   2.028   2.136
 7013SOL    HW121938   6.751   2.041   2.162
 7013SOL    HW221939   6.629   2.098   2.069
 7014SOL     OW21940   2.223   5.281   0.759
 7014SOL    HW121941   2.315   5.246   0.779
 7014SOL    HW221942   2.220   5.379   0.780
 7015SOL     OW21943   4.848   2.170   2.714
 7015SOL    HW121944   4.801   2.167   2.626
 7015SOL    HW221945   4.936   2.123   2.705
 7016SOL     OW21946   4.344   4.372   1.594
 7016SOL    HW121947   4.383   4.321   1.671
 7016SOL    HW221948   4.346   4.314   1.512
 7017SOL     OW21949   5.093   1.608   5.259
 7017SOL    HW121950   5.076   1.599   5.358
 7017SOL    HW221951   5.092   1.705   5.234
 7018SOL     OW21952   0.826   3.226   2.917
 7018SOL    HW121953   0.797   3.314   2.877
 7018SOL    HW221954   0.834   3.158   2.844
 7019SOL     OW21955   1.260   5.988   1.254
 7019SOL    HW121956   1.185   5.957   1.312
 7019SOL    HW221957   1.223   6.021   1.167
 7020SOL     OW21958   0.355   5.806   6.891
 7020SOL    HW121959   0.272   5.855   6.866
 7020SOL    HW221960   0.331   5.714   6.923
 7021SOL     OW21961   3.543   6.893   6.076
 7021SOL    HW121962   3.620   6.956   6.079
 7021SOL    HW221963   3.458   6.942   6.095
 7022SOL     OW21964   4.708   5.359   5.792
 7022SOL    HW121965   4.627   5.367   5.850
 7022SOL    HW221966   4.728   5.262   5.777
 7023SOL     OW21967   4.648   4.390   2.787
 7023SOL    HW121968   4.699   4.309   2.815
 7023SOL    HW221969   4.679   4.421   2.697
 7024SOL     OW21970   6.218   6.604   1.108
 7024SOL    HW121971   6.297   6.575   1.161
 7024SOL    HW221972   6.141   6.620   1.169
 7025SOL     OW21973   2.420   0.253   0.143
 7025SOL    HW121974   2.372   0.338   0.164
 7025SOL    HW221975   2.357   0.188   0.100
 7026SOL     OW21976   3.788   1.917   1.409
 7026SOL    HW121977   3.858   1.920   1.480
 7026SOL    HW221978   3.709   1.970   1.438
 7027SOL     OW21979   5.699   5.839   4.076
 7027SOL    HW121980   5.630   5.783   4.121
 7027SOL    HW221981   5.781   5.784   4.060
 7028SOL     OW21982   2.814   0.298   4.624
 7028SOL    HW121983   2.730   0.315   4.573
 7028SOL    HW221984   2.892   0.339   4.577
 7029SOL     OW21985   4.186   1.403   4.522
 7029SOL    HW121986   4.253   1.332   4.544
 7029SOL    HW221987   4.200   1.435   4.428
 7030SOL     OW21988   1.849   3.280   4.224
 7030SOL    HW121989   1.940   3.271   4.181
 7030SOL    HW221990   1.781   3.237   4.165
 7031SOL     OW21991   1.363   1.130   4.628
 7031SOL    HW121992   1.456   1.166   4.621
 7031SOL    HW221993   1.367   1.030   4.629
 7032SOL     OW21994   6.087   2.314   3.853
 7032SOL    HW121995   6.052   2.406   3.835
 7032SOL    HW221996   6.159   2.292   3.788
 7033SOL     OW21997   0.702   0.165   5.356
 7033SOL    HW121998   0.759   0.161   5.273
 7033SOL    HW221999   0.672   0.259   5.370
 7034SOL     OW22000   0.197   4.975   3.313
 7034SOL    HW122001   0.168   5.070   3.325
 7034SOL    HW222002   0.159   4.939   3.228
 7035SOL     OW22003   6.433   4.787   1.980
 7035SOL    HW122004   6.494   4.708   1.981
 7035SOL    HW222005   6.461   4.849   1.906
 7036SOL     OW22006   5.898   4.801   1.002
 7036SOL    HW122007   5.863   4.886   1.041
 7036SOL    HW222008   5.870   4.794   0.906
 7037SOL     OW22009   1.637   0.244   6.455
 7037SOL    HW122010   1.603   0.297   6.532
 7037SOL    HW222011   1.731   0.271   6.435
 7038SOL     OW22012   2.184   3.060   4.476
 7038SOL    HW122013   2.227   3.001   4.544
 7038SOL    HW222014   2.175   3.153   4.512
 7039SOL     OW22015   3.231   2.241   6.765
 7039SOL    HW122016   3.216   2.166   6.701
 7039SOL    HW222017   3.253   2.204   6.855
 7040SOL     OW22018   5.215   2.768   6.669
 7040SOL    HW122019   5.222   2.831   6.747
 7040SOL    HW222020   5.214   2.820   6.584
 7041SOL     OW22021   2.012   1.650   3.419
 7041SOL    HW122022   2.002   1.639   3.518
 7041SOL    HW222023   2.067   1.731   3.400
 7042SOL     OW22024   1.504   0.688   6.582
 7042SOL    HW122025   1.528   0.720   6.490
 7042SOL    HW222026   1.472   0.765   6.637
 7043SOL     OW22027   1.889   2.162   2.127
 7043SOL    HW122028   1.826   2.146   2.051
 7043SOL    HW222029   1.966   2.099   2.120
 7044SOL     OW22030   6.715   6.508   1.858
 7044SOL    HW122031   6.720   6.520   1.958
 7044SOL    HW222032   6.753   6.419   1.834
 7045SOL     OW22033   6.515   5.078   0.041
 7045SOL    HW122034   6.462   4.994   0.038
 7045SOL    HW222035   6.457   5.154   0.069
 7046SOL     OW22036   3.322   1.241   3.994
 7046SOL    HW122037   3.246   1.213   4.053
 7046SOL    HW222038   3.392   1.170   3.994
 7047SOL     OW22039   1.499   0.426   2.833
 7047SOL    HW122040   1.452   0.415   2.745
 7047SOL    HW222041   1.513   0.335   2.874
 7048SOL     OW22042   6.533   5.675   0.013
 7048SOL    HW122043   6.464   5.604   0.029
 7048SOL    HW222044   6.613   5.657   0.070
 7049SOL     OW22045   2.141   0.990   6.606
 7049SOL    HW122046   2.171   0.943   6.689
 7049SOL    HW222047   2.098   1.077   6.630
 7050SOL     OW22048   4.055   3.922   4.795
 7050SOL    HW122049   4.110   3.956   4.872
 7050SOL    HW222050   4.068   3.824   4.786
 7051SOL     OW22051   6.547   6.802   2.983
 7051SOL    HW122052   6.491   6.870   2.936
 7051SOL    HW222053   6.588   6.740   2.916
 7052SOL     OW22054   6.567   0.464   5.331
 7052SOL    HW122055   6.601   0.383   5.284
 7052SOL    HW222056   6.469   0.452   5.351
 7053SOL     OW22057   6.475   4.427   5.865
 7053SOL    HW122058   6.491   4.526   5.864
 7053SOL    HW222059   6.554   4.380   5.827
 7054SOL     OW22060   6.304   1.786   1.366
 7054SOL    HW122061   6.401   1.805   1.357
 7054SOL    HW222062   6.254   1.829   1.291
 7055SOL     OW22063   4.550   1.317   4.419
 7055SOL    HW122064   4.478   1.248   4.422
 7055SOL    HW222065   4.630   1.279   4.372
 7056SOL     OW22066   4.078   5.141   3.812
 7056SOL    HW122067   4.030   5.226   3.836
 7056SOL    HW222068   4.153   5.126   3.877
 7057SOL     OW22069   5.955   5.828   2.958
 7057SOL    HW122070   5.992   5.746   2.914
 7057SOL    HW222071   6.018   5.904   2.944
 7058SOL     OW22072   6.936   4.393   4.491
 7058SOL    HW122073   6.837   4.388   4.503
 7058SOL    HW222074   6.969   4.309   4.448
 7059SOL     OW22075   1.939   1.619   2.629
 7059SOL    HW122076   1.962   1.523   2.645
 7059SOL    HW222077   1.885   1.654   2.706
 7060SOL     OW22078   3.101   6.423   0.927
 7060SOL    HW122079   3.057   6.380   1.006
 7060SOL    HW222080   3.119   6.354   0.857
 7061SOL     OW22081   0.165   0.787   2.832
 7061SOL    HW122082   0.079   0.827   2.862
 7061SOL    HW222083   0.240   0.851   2.850
 7062SOL     OW22084   6.272   1.190   5.585
 7062SOL    HW122085   6.328   1.122   5.630
 7062SOL    HW222086   6.328   1.271   5.565
 7063SOL     OW22087   2.050   6.922   2.344
 7063SOL    HW122088   1.950   6.924   2.354
 7063SOL    HW222089   2.074   6.877   2.258
 7064SOL     OW22090   4.187   2.805   0.437
 7064SOL    HW122091   4.235   2.717   0.428
 7064SOL    HW222092   4.091   2.793   0.413
 7065SOL     OW22093   3.320   3.205   2.193
 7065SOL    HW122094   3.414   3.172   2.197
 7065SOL    HW222095   3.258   3.131   2.217
 7066SOL     OW22096   2.655   5.522   1.294
 7066SOL    HW122097   2.694   5.614   1.301
 7066SOL    HW222098   2.692   5.465   1.368
 7067SOL     OW22099   0.329   3.992   4.153
 7067SOL    HW122100   0.255   3.948   4.102
 7067SOL    HW222101   0.366   3.927   4.220
 7068SOL     OW22102   0.437   0.172   2.657
 7068SOL    HW122103   0.390   0.206   2.576
 7068SOL    HW222104   0.519   0.122   2.629
 7069SOL     OW22105   1.491   4.805   4.984
 7069SOL    HW122106   1.467   4.869   5.056
 7069SOL    HW222107   1.416   4.799   4.918
 7070SOL     OW22108   5.683   5.412   3.479
 7070SOL    HW122109   5.733   5.496   3.499
 7070SOL    HW222110   5.595   5.433   3.437
 7071SOL     OW22111   1.792   0.084   5.279
 7071SOL    HW122112   1.736   0.084   5.362
 7071SOL    HW222113   1.781   7.020   5.231
 7072SOL     OW22114   0.472   6.991   0.001
 7072SOL    HW122115   0.445   0.057   0.038
 7072SOL    HW222116   0.570   6.977   0.017
 7073SOL     OW22117   2.025   2.095   6.234
 7073SOL    HW122118   1.964   2.172   6.219
 7073SOL    HW222119   2.070   2.070   6.148
 7074SOL     OW22120   3.508   1.104   0.263
 7074SOL    HW122121   3.417   1.061   0.266
 7074SOL    HW222122   3.548   1.092   0.172
 7075SOL     OW22123   0.570   5.750   2.361
 7075SOL    HW122124   0.648   5.807   2.336
 7075SOL    HW222125   0.485   5.797   2.337
 7076SOL     OW22126   3.672   1.734   5.981
 7076SOL    HW122127   3.742   1.679   5.935
 7076SOL    HW222128   3.716   1.797   6.045
 7077SOL     OW22129   1.726   5.246   6.616
 7077SOL    HW122130   1.821   5.241   6.585
 7077SOL    HW222131   1.716   5.320   6.683
 7078SOL     OW22132   6.548   0.594   1.926
 7078SOL    HW122133   6.552   0.494   1.918
 7078SOL    HW222134   6.455   0.625   1.905
 7079SOL     OW22135   5.402   5.882   5.367
 7079SOL    HW122136   5.384   5.784   5.373
 7079SOL    HW222137   5.493   5.896   5.328
 7080SOL     OW22138   6.033   0.454   4.068
 7080SOL    HW122139   5.945   0.444   4.113
 7080SOL    HW222140   6.062   0.550   4.072
 7081SOL     OW22141   4.799   0.359   5.176
 7081SOL    HW122142   4.731   0.292   5.205
 7081SOL    HW222143   4.856   0.385   5.254
 7082SOL     OW22144   6.010   1.299   0.074
 7082SOL    HW122145   6.043   1.373   0.132
 7082SOL    HW222146   5.910   1.304   0.067
 7083SOL     OW22147   3.293   0.460   5.745
 7083SOL    HW122148   3.370   0.465   5.681
 7083SOL    HW222149   3.324   0.417   5.830
 7084SOL     OW22150   5.854   5.942   0.351
 7084SOL    HW122151   5.834   5.977   0.260
 7084SOL    HW222152   5.954   5.935   0.363
 7085SOL     OW22153   4.032   1.227   1.192
 7085SOL    HW122154   4.003   1.136   1.165
 7085SOL    HW222155   3.995   1.294   1.128
 7086SOL     OW22156   1.085   1.375   5.910
 7086SOL    HW122157   1.079   1.394   5.812
 7086SOL    HW222158   1.178   1.346   5.933
 7087SOL     OW22159   2.265   2.754   5.049
 7087SOL    HW122160   2.279   2.848   5.080
 7087SOL    HW222161   2.214   2.754   4.963
 7088SOL     OW22162   0.551   2.132   5.534
 7088SOL    HW122163   0.556   2.168   5.441
 7088SOL    HW222164   0.622   2.061   5.546
 7089SOL     OW22165   3.114   2.041   1.408
 7089SOL    HW122166   3.202   2.088   1.401
 7089SOL    HW222167   3.130   1.944   1.426
 7090SOL     OW22168   2.355   2.370   5.490
 7090SOL    HW122169   2.391   2.294   5.435
 7090SOL    HW222170   2.405   2.453   5.467
 7091SOL     OW22171   6.710   6.568   0.783
 7091SOL    HW122172   6.681   6.592   0.876
 7091SOL    HW222173   6.754   6.478   0.784
 7092SOL     OW22174   2.821   2.331   0.567
 7092SOL    HW122175   2.840   2.275   0.649
 7092SOL    HW222176   2.726   2.360   0.569
 7093SOL     OW22177   4.302   3.194   5.976
 7093SOL    HW122178   4.265   3.275   5.930
 7093SOL    HW222179   4.355   3.140   5.911
 7094SOL     OW22180   6.703   0.805   5.962
 7094SOL    HW122181   6.649   0.887   5.980
 7094SOL    HW222182   6.783   0.805   6.022
 7095SOL     OW22183   0.131   3.875   0.459
 7095SOL    HW122184   0.050   3.933   0.460
 7095SOL    HW222185   0.110   3.789   0.506
 7096SOL     OW22186   4.830   0.150   2.699
 7096SOL    HW122187   4.819   0.222   2.767
 7096SOL    HW222188   4.924   0.150   2.665
 7097SOL     OW22189   2.085   0.924   1.790
 7097SOL    HW122190   2.141   0.854   1.833
 7097SOL    HW222191   2.021   0.962   1.857
 7098SOL     OW22192   1.044   0.683   6.163
 7098SOL    HW122193   1.139   0.706   6.146
 7098SOL    HW222194   1.009   0.627   6.087
 7099SOL     OW22195   6.924   1.072   5.669
 7099SOL    HW122196   7.008   1.108   5.712
 7099SOL    HW222197   6.907   0.979   5.702
 7100SOL     OW22198   5.683   1.806   1.465
 7100SOL    HW122199   5.592   1.846   1.464
 7100SOL    HW222200   5.731   1.833   1.548
 7101SOL     OW22201   1.475   0.646   3.861
 7101SOL    HW122202   1.523   0.710   3.800
 7101SOL    HW222203   1.540   0.602   3.922
 7102SOL     OW22204   4.980   2.846   0.596
 7102SOL    HW122205   4.891   2.804   0.577
 7102SOL    HW222206   4.993   2.925   0.537
 7103SOL     OW22207   2.998   0.266   5.988
 7103SOL    HW122208   3.097   0.259   5.978
 7103SOL    HW222209   2.956   0.180   5.960
 7104SOL     OW22210   0.764   2.380   2.003
 7104SOL    HW122211   0.675   2.396   1.959
 7104SOL    HW222212   0.822   2.460   1.989
 7105SOL     OW22213   2.051   3.855   5.448
 7105SOL    HW122214   2.126   3.861   5.383
 7105SOL    HW222215   2.074   3.790   5.520
 7106SOL     OW22216   3.166   2.678   5.265
 7106SOL    HW122217   3.102   2.657   5.339
 7106SOL    HW222218   3.177   2.597   5.207
 7107SOL     OW22219   1.876   1.353   0.439
 7107SOL    HW122220   1.861   1.411   0.358
 7107SOL    HW222221   1.838   1.399   0.520
 7108SOL     OW22222   4.581   6.594   1.859
 7108SOL    HW122223   4.547   6.630   1.946
 7108SOL    HW222224   4.511   6.607   1.788
 7109SOL     OW22225   4.038   5.947   6.418
 7109SOL    HW122226   4.069   5.855   6.396
 7109SOL    HW222227   4.116   6.001   6.452
 7110SOL     OW22228   3.117   4.919   4.122
 7110SOL    HW122229   3.206   4.942   4.161
 7110SOL    HW222230   3.081   4.997   4.071
 7111SOL     OW22231   1.498   2.532   3.422
 7111SOL    HW122232   1.505   2.478   3.505
 7111SOL    HW222233   1.582   2.521   3.368
 7112SOL     OW22234   1.514   6.421   2.506
 7112SOL    HW122235   1.508   6.408   2.605
 7112SOL    HW222236   1.470   6.508   2.481
 7113SOL     OW22237   3.641   3.574   5.147
 7113SOL    HW122238   3.571   3.534   5.088
 7113SOL    HW222239   3.657   3.670   5.121
 7114SOL     OW22240   3.791   6.629   0.612
 7114SOL    HW122241   3.751   6.706   0.664
 7114SOL    HW222242   3.720   6.560   0.596
 7115SOL     OW22243   3.889   1.624   1.526
 7115SOL    HW122244   3.928   1.534   1.547
 7115SOL    HW222245   3.886   1.679   1.610
 7116SOL     OW22246   5.920   3.872   3.025
 7116SOL    HW122247   5.949   3.967   3.035
 7116SOL    HW222248   5.917   3.828   3.114
 7117SOL     OW22249   6.059   6.974   2.505
 7117SOL    HW122250   6.094   6.981   2.412
 7117SOL    HW222251   6.130   7.005   2.569
 7118SOL     OW22252   7.003   3.317   2.642
 7118SOL    HW122253   6.972   3.225   2.664
 7118SOL    HW222254   6.940   3.384   2.681
 7119SOL     OW22255   1.128   2.322   2.686
 7119SOL    HW122256   1.057   2.390   2.668
 7119SOL    HW222257   1.173   2.298   2.600
 7120SOL     OW22258   4.837   6.310   2.812
 7120SOL    HW122259   4.932   6.342   2.813
 7120SOL    HW222260   4.822   6.252   2.732
 7121SOL     OW22261   2.701   6.652   1.318
 7121SOL    HW122262   2.638   6.576   1.332
 7121SOL    HW222263   2.706   6.673   1.220
 7122SOL     OW22264   6.617   6.519   0.383
 7122SOL    HW122265   6.609   6.451   0.456
 7122SOL    HW222266   6.575   6.485   0.300
 7123SOL     OW22267   2.552   5.538   0.369
 7123SOL    HW122268   2.599   5.575   0.289
 7123SOL    HW222269   2.577   5.442   0.381
 7124SOL     OW22270   0.041   6.087   0.315
 7124SOL    HW122271   0.049   6.063   0.218
 7124SOL    HW222272   0.038   6.004   0.370
 7125SOL     OW22273   0.284   6.664   3.284
 7125SOL    HW122274   0.247   6.607   3.357
 7125SOL    HW222275   0.377   6.633   3.262
 7126SOL     OW22276   1.767   4.372   1.071
 7126SOL    HW122277   1.781   4.319   1.155
 7126SOL    HW222278   1.826   4.335   0.999
 7127SOL     OW22279   2.576   0.395   4.487
 7127SOL    HW122280   2.485   0.355   4.503
 7127SOL    HW222281   2.581   0.485   4.530
 7128SOL     OW22282   3.009   3.740   1.727
 7128SOL    HW122283   2.978   3.834   1.726
 7128SOL    HW222284   3.033   3.714   1.821
 7129SOL     OW22285   2.566   1.950   1.344
 7129SOL    HW122286   2.493   1.907   1.398
 7129SOL    HW222287   2.563   1.916   1.250
 7130SOL     OW22288   2.620   0.397   2.832
 7130SOL    HW122289   2.570   0.482   2.814
 7130SOL    HW222290   2.568   0.319   2.797
 7131SOL     OW22291   3.062   1.660   3.625
 7131SOL    HW122292   3.136   1.725   3.609
 7131SOL    HW222293   3.081   1.608   3.708
 7132SOL     OW22294   3.113   4.053   1.981
 7132SOL    HW122295   3.075   4.142   2.007
 7132SOL    HW222296   3.126   3.997   2.063
 7133SOL     OW22297   5.767   3.918   1.954
 7133SOL    HW122298   5.807   3.847   2.011
 7133SOL    HW222299   5.837   3.953   1.891
 7134SOL     OW22300   5.362   4.682   2.710
 7134SOL    HW122301   5.317   4.600   2.745
 7134SOL    HW222302   5.297   4.757   2.708
 7135SOL     OW22303   0.528   2.191   5.801
 7135SOL    HW122304   0.533   2.291   5.808
 7135SOL    HW222305   0.527   2.165   5.704
 7136SOL     OW22306   2.432   2.128   6.328
 7136SOL    HW122307   2.460   2.096   6.238
 7136SOL    HW222308   2.512   2.131   6.389
 7137SOL     OW22309   4.652   1.952   5.252
 7137SOL    HW122310   4.616   2.006   5.176
 7137SOL    HW222311   4.699   1.871   5.216
 7138SOL     OW22312   2.170   2.782   6.844
 7138SOL    HW122313   2.132   2.863   6.888
 7138SOL    HW222314   2.130   2.770   6.753
 7139SOL     OW22315   2.792   1.566   0.686
 7139SOL    HW122316   2.858   1.635   0.716
 7139SOL    HW222317   2.841   1.487   0.651
 7140SOL     OW22318   6.959   4.035   5.100
 7140SOL    HW122319   6.889   3.981   5.146
 7140SOL    HW222320   6.916   4.103   5.042
 7141SOL     OW22321   1.303   6.332   1.891
 7141SOL    HW122322   1.233   6.360   1.826
 7141SOL    HW222323   1.361   6.410   1.914
 7142SOL     OW22324   3.510   6.462   3.328
 7142SOL    HW122325   3.549   6.508   3.408
 7142SOL    HW222326   3.465   6.378   3.356
 7143SOL     OW22327   2.394   2.271   4.015
 7143SOL    HW122328   2.334   2.284   4.093
 7143SOL    HW222329   2.472   2.334   4.021
 7144SOL     OW22330   1.615   3.207   3.831
 7144SOL    HW122331   1.669   3.151   3.767
 7144SOL    HW222332   1.520   3.213   3.798
 7145SOL     OW22333   4.313   6.165   5.724
 7145SOL    HW122334   4.277   6.100   5.657
 7145SOL    HW222335   4.362   6.238   5.677
 7146SOL     OW22336   3.082   5.012   2.047
 7146SOL    HW122337   3.181   4.999   2.053
 7146SOL    HW222338   3.035   4.929   2.074
 7147SOL     OW22339   0.122   1.124   3.148
 7147SOL    HW122340   0.206   1.170   3.176
 7147SOL    HW222341   0.123   1.110   3.049
 7148SOL     OW22342   0.160   1.433   1.041
 7148SOL    HW122343   0.241   1.487   1.062
 7148SOL    HW222344   0.117   1.402   1.126
 7149SOL     OW22345   0.443   0.648   4.935
 7149SOL    HW122346   0.525   0.686   4.978
 7149SOL    HW222347   0.364   0.706   4.955
 7150SOL     OW22348   6.116   3.718   6.692
 7150SOL    HW122349   6.171   3.635   6.687
 7150SOL    HW222350   6.067   3.731   6.605
 7151SOL     OW22351   2.569   6.892   0.811
 7151SOL    HW122352   2.624   6.896   0.894
 7151SOL    HW222353   2.533   6.799   0.799
 7152SOL     OW22354   1.049   2.525   4.011
 7152SOL    HW122355   1.137   2.485   4.036
 7152SOL    HW222356   1.024   2.495   3.919
 7153SOL     OW22357   3.586   1.894   3.283
 7153SOL    HW122358   3.613   1.834   3.358
 7153SOL    HW222359   3.538   1.841   3.214
 7154SOL     OW22360   4.012   6.115   4.929
 7154SOL    HW122361   4.110   6.104   4.942
 7154SOL    HW222362   3.992   6.212   4.913
 7155SOL     OW22363   2.542   1.502   3.075
 7155SOL    HW122364   2.492   1.419   3.049
 7155SOL    HW222365   2.481   1.562   3.127
 7156SOL     OW22366   1.697   5.663   5.422
 7156SOL    HW122367   1.693   5.566   5.446
 7156SOL    HW222368   1.675   5.718   5.502
 7157SOL     OW22369   4.989   3.889   0.717
 7157SOL    HW122370   4.988   3.944   0.800
 7157SOL    HW222371   5.052   3.929   0.651
 7158SOL     OW22372   4.797   6.861   3.993
 7158SOL    HW122373   4.889   6.891   3.969
 7158SOL    HW222374   4.768   6.788   3.931
 7159SOL     OW22375   0.626   5.472   0.200
 7159SOL    HW122376   0.527   5.464   0.189
 7159SOL    HW222377   0.668   5.495   0.113
 7160SOL     OW22378   6.246   0.727   1.303
 7160SOL    HW122379   6.228   0.742   1.400
 7160SOL    HW222380   6.312   0.794   1.270
 7161SOL     OW22381   3.615   4.112   4.489
 7161SOL    HW122382   3.640   4.136   4.582
 7161SOL    HW222383   3.521   4.079   4.487
 7162SOL     OW22384   3.356   4.944   4.381
 7162SOL    HW122385   3.263   4.966   4.411
 7162SOL    HW222386   3.413   5.026   4.386
 7163SOL     OW22387   1.553   6.434   3.070
 7163SOL    HW122388   1.543   6.511   3.134
 7163SOL    HW222389   1.483   6.365   3.090
 7164SOL     OW22390   2.274   2.276   4.569
 7164SOL    HW122391   2.285   2.339   4.646
 7164SOL    HW222392   2.364   2.250   4.533
 7165SOL     OW22393   5.134   5.948   2.333
 7165SOL    HW122394   5.094   5.988   2.415
 7165SOL    HW222395   5.178   6.020   2.279
 7166SOL     OW22396   4.067   5.823   2.346
 7166SOL    HW122397   4.131   5.758   2.387
 7166SOL    HW222398   3.983   5.776   2.319
 7167SOL     OW22399   5.066   3.409   6.360
 7167SOL    HW122400   5.006   3.450   6.428
 7167SOL    HW222401   5.135   3.477   6.331
 7168SOL     OW22402   0.797   1.614   3.889
 7168SOL    HW122403   0.774   1.598   3.985
 7168SOL    HW222404   0.866   1.686   3.883
 7169SOL     OW22405   1.755   2.916   6.455
 7169SOL    HW122406   1.755   2.970   6.371
 7169SOL    HW222407   1.662   2.888   6.477
 7170SOL     OW22408   5.600   4.747   3.599
 7170SOL    HW122409   5.578   4.654   3.626
 7170SOL    HW222410   5.635   4.797   3.678
 7171SOL     OW22411   4.082   3.084   5.266
 7171SOL    HW122412   4.129   3.147   5.328
 7171SOL    HW222413   4.106   2.990   5.288
 7172SOL     OW22414   0.334   6.969   1.916
 7172SOL    HW122415   0.330   6.869   1.915
 7172SOL    HW222416   0.242   7.006   1.914
 7173SOL     OW22417   6.391   6.452   4.445
 7173SOL    HW122418   6.447   6.519   4.494
 7173SOL    HW222419   6.445   6.369   4.430
 7174SOL     OW22420   0.776   6.044   6.173
 7174SOL    HW122421   0.843   5.970   6.169
 7174SOL    HW222422   0.701   6.024   6.110
 7175SOL     OW22423   5.956   3.581   5.729
 7175SOL    HW122424   5.971   3.486   5.753
 7175SOL    HW222425   5.920   3.630   5.808
 7176SOL     OW22426   0.288   3.292   1.608
 7176SOL    HW122427   0.366   3.351   1.629
 7176SOL    HW222428   0.307   3.199   1.640
 7177SOL     OW22429   1.082   5.402   2.224
 7177SOL    HW122430   0.996   5.363   2.192
 7177SOL    HW222431   1.158   5.357   2.177
 7178SOL     OW22432   6.615   1.515   6.655
 7178SOL    HW122433   6.522   1.536   6.627
 7178SOL    HW222434   6.638   1.567   6.737
 7179SOL     OW22435   1.563   4.632   6.189
 7179SOL    HW122436   1.581   4.588   6.101
 7179SOL    HW222437   1.492   4.702   6.178
 7180SOL     OW22438   0.119   0.042   2.602
 7180SOL    HW122439   0.101   6.991   2.667
 7180SOL    HW222440   0.160   0.119   2.651
 7181SOL     OW22441   5.708   6.432   2.423
 7181SOL    HW122442   5.800   6.471   2.419
 7181SOL    HW222443   5.641   6.505   2.438
 7182SOL     OW22444   4.153   3.695   5.852
 7182SOL    HW122445   4.060   3.711   5.820
 7182SOL    HW222446   4.216   3.696   5.774
 7183SOL     OW22447   1.895   3.601   3.900
 7183SOL    HW122448   1.925   3.695   3.885
 7183SOL    HW222449   1.875   3.588   3.997
 7184SOL     OW22450   2.426   5.454   3.668
 7184SOL    HW122451   2.467   5.449   3.577
 7184SOL    HW222452   2.485   5.406   3.733
 7185SOL     OW22453   4.361   2.928   7.020
 7185SOL    HW122454   4.368   2.964   0.089
 7185SOL    HW222455   4.320   2.837   7.022
 7186SOL     OW22456   0.465   6.631   4.692
 7186SOL    HW122457   0.385   6.689   4.673
 7186SOL    HW222458   0.435   6.537   4.709
 7187SOL     OW22459   1.499   5.368   0.955
 7187SOL    HW122460   1.547   5.284   0.982
 7187SOL    HW222461   1.526   5.394   0.862
 7188SOL     OW22462   4.939   6.908   1.894
 7188SOL    HW122463   4.876   6.831   1.879
 7188SOL    HW222464   4.886   6.993   1.902
 7189SOL     OW22465   6.507   0.735   5.354
 7189SOL    HW122466   6.527   0.639   5.336
 7189SOL    HW222467   6.570   0.793   5.302
 7190SOL     OW22468   4.389   5.119   3.001
 7190SOL    HW122469   4.337   5.034   3.004
 7190SOL    HW222470   4.454   5.115   2.925
 7191SOL     OW22471   0.809   3.176   1.773
 7191SOL    HW122472   0.881   3.160   1.840
 7191SOL    HW222473   0.833   3.131   1.687
 7192SOL     OW22474   3.646   4.598   6.799
 7192SOL    HW122475   3.632   4.581   6.897
 7192SOL    HW222476   3.571   4.654   6.764
 7193SOL     OW22477   5.306   1.360   4.191
 7193SOL    HW122478   5.328   1.454   4.168
 7193SOL    HW222479   5.214   1.356   4.231
 7194SOL     OW22480   3.207   1.702   1.543
 7194SOL    HW122481   3.287   1.641   1.544
 7194SOL    HW222482   3.234   1.793   1.575
 7195SOL     OW22483   0.366   6.427   1.868
 7195SOL    HW122484   0.420   6.343   1.880
 7195SOL    HW222485   0.346   6.440   1.771
 7196SOL     OW22486   3.523   3.299   1.215
 7196SOL    HW122487   3.496   3.217   1.164
 7196SOL    HW222488   3.615   3.286   1.253
 7197SOL     OW22489   1.278   1.360   4.194
 7197SOL    HW122490   1.377   1.351   4.207
 7197SOL    HW222491   1.247   1.293   4.126
 7198SOL     OW22492   0.251   6.755   6.031
 7198SOL    HW122493   0.338   6.802   6.042
 7198SOL    HW222494   0.234   6.740   5.933
 7199SOL     OW22495   5.538   6.047   2.508
 7199SOL    HW122496   5.513   5.970   2.566
 7199SOL    HW222497   5.559   6.014   2.416
 7200SOL     OW22498   2.405   2.175   2.191
 7200SOL    HW122499   2.423   2.078   2.176
 7200SOL    HW222500   2.481   2.229   2.155
 7201SOL     OW22501   2.124   4.707   3.457
 7201SOL    HW122502   2.091   4.780   3.517
 7201SOL    HW222503   2.050   4.678   3.396
 7202SOL     OW22504   3.114   0.345   5.540
 7202SOL    HW122505   3.157   0.335   5.630
 7202SOL    HW222506   3.178   0.390   5.478
 7203SOL     OW22507   5.768   0.231   6.901
 7203SOL    HW122508   5.793   0.286   6.821
 7203SOL    HW222509   5.784   0.135   6.881
 7204SOL     OW22510   5.819   1.879   3.063
 7204SOL    HW122511   5.778   1.860   2.974
 7204SOL    HW222512   5.884   1.807   3.087
 7205SOL     OW22513   1.823   4.576   1.369
 7205SOL    HW122514   1.790   4.483   1.382
 7205SOL    HW222515   1.747   4.640   1.378
 7206SOL     OW22516   6.146   1.349   1.713
 7206SOL    HW122517   6.047   1.349   1.703
 7206SOL    HW222518   6.172   1.413   1.786
 7207SOL     OW22519   4.149   6.360   1.620
 7207SOL    HW122520   4.155   6.450   1.578
 7207SOL    HW222521   4.073   6.309   1.580
 7208SOL     OW22522   2.935   0.547   5.142
 7208SOL    HW122523   2.923   0.617   5.212
 7208SOL    HW222524   3.019   0.565   5.090
 7209SOL     OW22525   3.108   3.491   4.165
 7209SOL    HW122526   3.205   3.485   4.187
 7209SOL    HW222527   3.096   3.506   4.067
 7210SOL     OW22528   4.710   0.002   4.190
 7210SOL    HW122529   4.719   6.955   4.120
 7210SOL    HW222530   4.749   6.992   4.276
 7211SOL     OW22531   0.945   4.945   2.014
 7211SOL    HW122532   0.978   5.008   2.084
 7211SOL    HW222533   0.959   4.850   2.045
 7212SOL     OW22534   5.094   6.513   3.113
 7212SOL    HW122535   5.159   6.449   3.154
 7212SOL    HW222536   5.105   6.603   3.155
 7213SOL     OW22537   4.995   6.507   4.880
 7213SOL    HW122538   5.082   6.547   4.850
 7213SOL    HW222539   4.970   6.432   4.818
 7214SOL     OW22540   0.647   4.464   5.380
 7214SOL    HW122541   0.623   4.554   5.417
 7214SOL    HW222542   0.648   4.468   5.280
 7215SOL     OW22543   1.065   3.212   2.187
 7215SOL    HW122544   1.150   3.184   2.232
 7215SOL    HW222545   1.060   3.168   2.097
 7216SOL     OW22546   3.038   1.597   2.269
 7216SOL    HW122547   2.999   1.689   2.270
 7216SOL    HW222548   3.134   1.603   2.242
 7217SOL     OW22549   0.451   2.979   2.040
 7217SOL    HW122550   0.367   2.957   2.089
 7217SOL    HW222551   0.511   2.900   2.040
 7218SOL     OW22552   6.307   2.616   5.106
 7218SOL    HW122553   6.285   2.706   5.142
 7218SOL    HW222554   6.307   2.618   5.006
 7219SOL     OW22555   3.401   0.820   1.440
 7219SOL    HW122556   3.323   0.880   1.454
 7219SOL    HW222557   3.474   0.844   1.505
 7220SOL     OW22558   6.536   1.158   2.695
 7220SOL    HW122559   6.478   1.200   2.765
 7220SOL    HW222560   6.621   1.210   2.686
 7221SOL     OW22561   6.311   4.223   5.484
 7221SOL    HW122562   6.391   4.165   5.494
 7221SOL    HW222563   6.232   4.167   5.458
 7222SOL     OW22564   6.902   6.843   3.694
 7222SOL    HW122565   6.951   6.857   3.780
 7222SOL    HW222566   6.968   6.828   3.621
 7223SOL     OW22567   4.764   0.592   4.979
 7223SOL    HW122568   4.770   0.509   5.033
 7223SOL    HW222569   4.698   0.655   5.020
 7224SOL     OW22570   5.790   1.304   3.575
 7224SOL    HW122571   5.765   1.266   3.485
 7224SOL    HW222572   5.873   1.259   3.608
 7225SOL     OW22573   2.814   0.525   1.587
 7225SOL    HW122574   2.905   0.494   1.613
 7225SOL    HW222575   2.759   0.446   1.559
 7226SOL     OW22576   6.291   6.638   5.051
 7226SOL    HW122577   6.358   6.702   5.013
 7226SOL    HW222578   6.255   6.674   5.137
 7227SOL     OW22579   6.991   2.574   5.863
 7227SOL    HW122580   6.975   2.541   5.956
 7227SOL    HW222581   6.938   2.519   5.798
 7228SOL     OW22582   2.448   1.021   3.385
 7228SOL    HW122583   2.500   0.941   3.354
 7228SOL    HW222584   2.422   1.076   3.305
 7229SOL     OW22585   0.067   0.325   3.327
 7229SOL    HW122586   0.097   0.387   3.255
 7229SOL    HW222587   7.012   0.365   3.375
 7230SOL     OW22588   6.473   5.588   1.339
 7230SOL    HW122589   6.416   5.506   1.332
 7230SOL    HW222590   6.434   5.661   1.283
 7231SOL     OW22591   5.775   0.855   0.306
 7231SOL    HW122592   5.704   0.871   0.375
 7231SOL    HW222593   5.746   0.893   0.218
 7232SOL     OW22594   3.883   3.953   0.902
 7232SOL    HW122595   3.795   3.952   0.950
 7232SOL    HW222596   3.952   3.995   0.961
 7233SOL     OW22597   0.789   1.981   5.605
 7233SOL    HW122598   0.854   1.977   5.682
 7233SOL    HW222599   0.825   1.928   5.529
 7234SOL     OW22600   4.658   1.778   3.718
 7234SOL    HW122601   4.705   1.754   3.803
 7234SOL    HW222602   4.616   1.869   3.727
 7235SOL     OW22603   5.774   2.712   4.522
 7235SOL    HW122604   5.847   2.780   4.526
 7235SOL    HW222605   5.693   2.748   4.568
 7236SOL     OW22606   1.816   1.488   3.218
 7236SOL    HW122607   1.897   1.547   3.218
 7236SOL    HW222608   1.739   1.536   3.176
 7237SOL     OW22609   5.343   5.035   4.700
 7237SOL    HW122610   5.343   4.980   4.783
 7237SOL    HW222611   5.435   5.073   4.685
 7238SOL     OW22612   1.687   0.466   1.436
 7238SOL    HW122613   1.677   0.559   1.473
 7238SOL    HW222614   1.779   0.432   1.457
 7239SOL     OW22615   4.026   0.828   1.881
 7239SOL    HW122616   3.932   0.797   1.865
 7239SOL    HW222617   4.026   0.911   1.936
 7240SOL     OW22618   2.965   3.130   2.275
 7240SOL    HW122619   2.905   3.119   2.354
 7240SOL    HW222620   2.932   3.206   2.219
 7241SOL     OW22621   4.137   6.858   4.524
 7241SOL    HW122622   4.235   6.879   4.516
 7241SOL    HW222623   4.121   6.806   4.608
 7242SOL     OW22624   6.260   5.569   1.011
 7242SOL    HW122625   6.207   5.589   0.928
 7242SOL    HW222626   6.234   5.632   1.084
 7243SOL     OW22627   0.218   5.869   0.766
 7243SOL    HW122628   0.260   5.781   0.791
 7243SOL    HW222629   0.166   5.904   0.843
 7244SOL     OW22630   4.862   2.126   0.999
 7244SOL    HW122631   4.959   2.134   0.976
 7244SOL    HW222632   4.841   2.031   1.022
 7245SOL     OW22633   5.940   2.039   4.191
 7245SOL    HW122634   5.997   2.121   4.194
 7245SOL    HW222635   5.918   2.016   4.096
 7246SOL     OW22636   0.903   5.844   5.642
 7246SOL    HW122637   0.940   5.878   5.728
 7246SOL    HW222638   0.806   5.866   5.636
 7247SOL     OW22639   3.671   5.451   4.026
 7247SOL    HW122640   3.696   5.473   4.120
 7247SOL    HW222641   3.585   5.496   4.003
 7248SOL     OW22642   3.176   0.931   4.301
 7248SOL    HW122643   3.269   0.896   4.293
 7248SOL    HW222644   3.165   1.012   4.244
 7249SOL     OW22645   4.594   3.693   5.676
 7249SOL    HW122646   4.604   3.594   5.682
 7249SOL    HW222647   4.547   3.727   5.758
 7250SOL     OW22648   2.604   3.497   6.583
 7250SOL    HW122649   2.555   3.440   6.648
 7250SOL    HW222650   2.557   3.496   6.495
 7251SOL     OW22651   5.843   0.863   5.245
 7251SOL    HW122652   5.792   0.932   5.194
 7251SOL    HW222653   5.888   0.906   5.324
 7252SOL     OW22654   4.414   3.657   5.268
 7252SOL    HW122655   4.511   3.631   5.267
 7252SOL    HW222656   4.360   3.588   5.221
 7253SOL     OW22657   5.265   4.430   0.948
 7253SOL    HW122658   5.197   4.377   0.897
 7253SOL    HW222659   5.218   4.485   1.017
 7254SOL     OW22660   5.432   6.574   4.572
 7254SOL    HW122661   5.486   6.617   4.499
 7254SOL    HW222662   5.421   6.476   4.552
 7255SOL     OW22663   3.994   3.044   3.251
 7255SOL    HW122664   4.059   3.117   3.233
 7255SOL    HW222665   3.982   2.988   3.169
 7256SOL     OW22666   3.415   5.470   3.831
 7256SOL    HW122667   3.436   5.566   3.845
 7256SOL    HW222668   3.340   5.461   3.766
 7257SOL     OW22669   6.253   4.598   2.592
 7257SOL    HW122670   6.190   4.675   2.579
 7257SOL    HW222671   6.346   4.626   2.567
 7258SOL     OW22672   2.827   0.587   5.567
 7258SOL    HW122673   2.856   0.544   5.653
 7258SOL    HW222674   2.785   0.519   5.508
 7259SOL     OW22675   3.489   4.212   6.183
 7259SOL    HW122676   3.550   4.197   6.261
 7259SOL    HW222677   3.436   4.295   6.199
 7260SOL     OW22678   4.717   2.405   3.057
 7260SOL    HW122679   4.716   2.423   2.958
 7260SOL    HW222680   4.762   2.318   3.074
 7261SOL     OW22681   2.487   5.081   1.118
 7261SOL    HW122682   2.542   5.158   1.085
 7261SOL    HW222683   2.512   4.998   1.069
 7262SOL     OW22684   6.476   0.842   4.537
 7262SOL    HW122685   6.406   0.875   4.473
 7262SOL    HW222686   6.537   0.779   4.489
 7263SOL     OW22687   5.357   5.452   1.845
 7263SOL    HW122688   5.285   5.456   1.775
 7263SOL    HW222689   5.315   5.441   1.935
 7264SOL     OW22690   0.622   6.518   4.224
 7264SOL    HW122691   0.655   6.588   4.287
 7264SOL    HW222692   0.699   6.469   4.184
 7265SOL     OW22693   4.327   3.318   6.722
 7265SOL    HW122694   4.356   3.348   6.632
 7265SOL    HW222695   4.320   3.219   6.724
 7266SOL     OW22696   4.092   1.434   1.913
 7266SOL    HW122697   4.166   1.400   1.853
 7266SOL    HW222698   4.004   1.422   1.867
 7267SOL     OW22699   5.507   2.495   4.546
 7267SOL    HW122700   5.596   2.449   4.555
 7267SOL    HW222701   5.453   2.448   4.477
 7268SOL     OW22702   4.371   0.108   0.542
 7268SOL    HW122703   4.351   0.207   0.545
 7268SOL    HW222704   4.353   0.074   0.450
 7269SOL     OW22705   1.272   0.984   1.686
 7269SOL    HW122706   1.270   0.888   1.660
 7269SOL    HW222707   1.280   0.992   1.785
 7270SOL     OW22708   3.335   2.028   2.079
 7270SOL    HW122709   3.332   2.111   2.134
 7270SOL    HW222710   3.248   2.015   2.032
 7271SOL     OW22711   5.960   5.401   3.933
 7271SOL    HW122712   6.024   5.392   3.856
 7271SOL    HW222713   5.882   5.457   3.905
 7272SOL     OW22714   5.988   1.712   1.051
 7272SOL    HW122715   5.905   1.768   1.056
 7272SOL    HW222716   5.990   1.649   1.129
 7273SOL     OW22717   5.795   5.580   5.435
 7273SOL    HW122718   5.824   5.502   5.491
 7273SOL    HW222719   5.802   5.664   5.488
 7274SOL     OW22720   5.336   4.604   4.184
 7274SOL    HW122721   5.370   4.642   4.270
 7274SOL    HW222722   5.312   4.679   4.122
 7275SOL     OW22723   5.758   6.504   2.000
 7275SOL    HW122724   5.848   6.463   1.996
 7275SOL    HW222725   5.763   6.592   2.047
 7276SOL     OW22726   3.891   1.808   3.664
 7276SOL    HW122727   3.821   1.873   3.691
 7276SOL    HW222728   3.981   1.850   3.671
 7277SOL     OW22729   6.288   1.895   4.108
 7277SOL    HW122730   6.331   1.985   4.106
 7277SOL    HW222731   6.271   1.864   4.014
 7278SOL     OW22732   4.130   1.901   3.904
 7278SOL    HW122733   4.187   1.880   3.984
 7278SOL    HW222734   4.177   1.870   3.821
 7279SOL     OW22735   3.663   3.471   1.497
 7279SOL    HW122736   3.663   3.377   1.463
 7279SOL    HW222737   3.693   3.472   1.593
 7280SOL     OW22738   6.620   1.736   5.507
 7280SOL    HW122739   6.719   1.721   5.512
 7280SOL    HW222740   6.585   1.700   5.421
 7281SOL     OW22741   3.348   6.420   2.848
 7281SOL    HW122742   3.393   6.348   2.795
 7281SOL    HW222743   3.278   6.379   2.906
 7282SOL     OW22744   0.183   3.241   0.954
 7282SOL    HW122745   0.211   3.336   0.971
 7282SOL    HW222746   0.085   3.238   0.937
 7283SOL     OW22747   3.464   5.783   2.855
 7283SOL    HW122748   3.552   5.754   2.892
 7283SOL    HW222749   3.403   5.808   2.931
 7284SOL     OW22750   0.553   0.214   2.924
 7284SOL    HW122751   0.470   0.163   2.901
 7284SOL    HW222752   0.558   0.296   2.865
 7285SOL     OW22753   5.195   2.608   2.102
 7285SOL    HW122754   5.244   2.628   2.187
 7285SOL    HW222755   5.175   2.510   2.097
 7286SOL     OW22756   6.891   1.290   3.922
 7286SOL    HW122757   6.973   1.293   3.980
 7286SOL    HW222758   6.912   1.243   3.837
 7287SOL     OW22759   3.320   1.774   4.387
 7287SOL    HW122760   3.359   1.682   4.380
 7287SOL    HW222761   3.221   1.770   4.370
 7288SOL     OW22762   3.186   1.967   1.664
 7288SOL    HW122763   3.214   2.063   1.661
 7288SOL    HW222764   3.086   1.961   1.660
 7289SOL     OW22765   6.636   2.587   1.846
 7289SOL    HW122766   6.540   2.599   1.822
 7289SOL    HW222767   6.651   2.491   1.872
 7290SOL     OW22768   3.519   2.000   4.726
 7290SOL    HW122769   3.434   2.052   4.735
 7290SOL    HW222770   3.529   1.939   4.805
 7291SOL     OW22771   1.240   1.167   0.499
 7291SOL    HW122772   1.186   1.083   0.507
 7291SOL    HW222773   1.179   1.243   0.477
 7292SOL     OW22774   4.232   1.118   2.526
 7292SOL    HW122775   4.142   1.094   2.564
 7292SOL    HW222776   4.300   1.115   2.599
 7293SOL     OW22777   6.119   1.012   4.234
 7293SOL    HW122778   6.128   1.085   4.302
 7293SOL    HW222779   6.201   0.954   4.239
 7294SOL     OW22780   3.778   0.307   3.103
 7294SOL    HW122781   3.726   0.246   3.044
 7294SOL    HW222782   3.716   0.368   3.151
 7295SOL     OW22783   5.475   3.812   1.874
 7295SOL    HW122784   5.541   3.869   1.825
 7295SOL    HW222785   5.407   3.870   1.918
 7296SOL     OW22786   3.478   6.112   2.310
 7296SOL    HW122787   3.496   6.032   2.252
 7296SOL    HW222788   3.413   6.172   2.264
 7297SOL     OW22789   3.814   0.083   0.852
 7297SOL    HW122790   3.880   0.062   0.780
 7297SOL    HW222791   3.850   0.052   0.940
 7298SOL     OW22792   4.105   4.861   1.561
 7298SOL    HW122793   4.108   4.917   1.478
 7298SOL    HW222794   4.198   4.841   1.592
 7299SOL     OW22795   0.431   3.303   6.957
 7299SOL    HW122796   0.494   3.290   6.880
 7299SOL    HW222797   0.435   3.398   6.987
 7300SOL     OW22798   0.896   3.939   1.361
 7300SOL    HW122799   0.905   4.012   1.427
 7300SOL    HW222800   0.873   3.853   1.408
 7301SOL     OW22801   4.258   1.782   0.487
 7301SOL    HW122802   4.209   1.694   0.488
 7301SOL    HW222803   4.197   1.853   0.452
 7302SOL     OW22804   5.623   1.836   6.280
 7302SOL    HW122805   5.662   1.773   6.214
 7302SOL    HW222806   5.696   1.872   6.339
 7303SOL     OW22807   3.362   1.964   1.454
 7303SOL    HW122808   3.314   1.946   1.540
 7303SOL    HW222809   3.455   1.993   1.474
 7304SOL     OW22810   2.667   0.093   0.533
 7304SOL    HW122811   2.637   7.022   0.523
 7304SOL    HW222812   2.767   0.096   0.536
 7305SOL     OW22813   6.860   6.863   6.270
 7305SOL    HW122814   6.831   6.906   6.355
 7305SOL    HW222815   6.816   6.774   6.259
 7306SOL     OW22816   1.437   3.507   0.858
 7306SOL    HW122817   1.450   3.577   0.928
 7306SOL    HW222818   1.513   3.442   0.861
 7307SOL     OW22819   3.175   6.492   1.894
 7307SOL    HW122820   3.268   6.509   1.861
 7307SOL    HW222821   3.170   6.398   1.929
 7308SOL     OW22822   4.161   1.412   2.866
 7308SOL    HW122823   4.242   1.387   2.812
 7308SOL    HW222824   4.080   1.371   2.824
 7309SOL     OW22825   2.209   4.518   3.966
 7309SOL    HW122826   2.128   4.530   3.908
 7309SOL    HW222827   2.226   4.602   4.017
 7310SOL     OW22828   2.644   3.068   6.935
 7310SOL    HW122829   2.719   3.074   7.000
 7310SOL    HW222830   2.646   2.979   6.889
 7311SOL     OW22831   0.841   6.364   5.864
 7311SOL    HW122832   0.885   6.444   5.905
 7311SOL    HW222833   0.902   6.285   5.874
 7312SOL     OW22834   6.448   1.882   4.604
 7312SOL    HW122835   6.362   1.843   4.571
 7312SOL    HW222836   6.512   1.890   4.528
 7313SOL     OW22837   3.672   1.344   2.960
 7313SOL    HW122838   3.600   1.376   2.899
 7313SOL    HW222839   3.705   1.255   2.927
 7314SOL     OW22840   2.036   5.488   5.319
 7314SOL    HW122841   2.128   5.462   5.291
 7314SOL    HW222842   1.974   5.410   5.304
 7315SOL     OW22843   2.223   5.611   2.671
 7315SOL    HW122844   2.197   5.707   2.663
 7315SOL    HW222845   2.318   5.599   2.641
 7316SOL     OW22846   4.166   0.629   2.014
 7316SOL    HW122847   4.115   0.702   1.969
 7316SOL    HW222848   4.136   0.541   1.977
 7317SOL     OW22849   6.164   1.898   1.165
 7317SOL    HW122850   6.128   1.988   1.192
 7317SOL    HW222851   6.093   1.846   1.119
 7318SOL     OW22852   5.233   6.093   1.259
 7318SOL    HW122853   5.269   6.001   1.274
 7318SOL    HW222854   5.135   6.088   1.240
 7319SOL     OW22855   4.767   5.986   6.136
 7319SOL    HW122856   4.775   6.079   6.100
 7319SOL    HW222857   4.755   5.922   6.060
 7320SOL     OW22858   1.165   2.997   0.016
 7320SOL    HW122859   1.137   2.934   0.087
 7320SOL    HW222860   1.085   3.047   7.005
 7321SOL     OW22861   2.150   2.618   5.469
 7321SOL    HW122862   2.095   2.648   5.547
 7321SOL    HW222863   2.245   2.648   5.481
 7322SOL     OW22864   1.985   1.933   4.180
 7322SOL    HW122865   2.032   1.976   4.257
 7322SOL    HW222866   2.050   1.914   4.106
 7323SOL     OW22867   2.122   2.118   1.170
 7323SOL    HW122868   2.204   2.166   1.139
 7323SOL    HW222869   2.126   2.108   1.270
 7324SOL     OW22870   4.887   3.803   4.485
 7324SOL    HW122871   4.892   3.708   4.453
 7324SOL    HW222872   4.946   3.815   4.564
 7325SOL     OW22873   4.220   1.097   6.401
 7325SOL    HW122874   4.151   1.042   6.354
 7325SOL    HW222875   4.311   1.069   6.370
 7326SOL     OW22876   3.549   6.444   0.602
 7326SOL    HW122877   3.484   6.405   0.536
 7326SOL    HW222878   3.505   6.520   0.651
 7327SOL     OW22879   1.462   4.102   2.968
 7327SOL    HW122880   1.455   4.166   3.044
 7327SOL    HW222881   1.558   4.080   2.951
 7328SOL     OW22882   4.829   5.182   6.289
 7328SOL    HW122883   4.820   5.258   6.354
 7328SOL    HW222884   4.836   5.217   6.196
 7329SOL     OW22885   2.591   4.060   0.368
 7329SOL    HW122886   2.643   4.140   0.400
 7329SOL    HW222887   2.503   4.091   0.330
 7330SOL     OW22888   2.421   3.180   0.766
 7330SOL    HW122889   2.357   3.124   0.714
 7330SOL    HW222890   2.454   3.254   0.707
 7331SOL     OW22891   4.792   1.249   2.359
 7331SOL    HW122892   4.842   1.193   2.425
 7331SOL    HW222893   4.853   1.321   2.325
 7332SOL     OW22894   2.902   6.992   5.429
 7332SOL    HW122895   2.821   6.962   5.378
 7332SOL    HW222896   2.878   0.047   5.486
 7333SOL     OW22897   6.114   1.326   1.281
 7333SOL    HW122898   6.112   1.250   1.346
 7333SOL    HW222899   6.151   1.407   1.327
 7334SOL     OW22900   1.295   4.767   4.772
 7334SOL    HW122901   1.335   4.675   4.768
 7334SOL    HW222902   1.204   4.765   4.730
 7335SOL     OW22903   0.482   2.919   2.912
 7335SOL    HW122904   0.450   2.833   2.871
 7335SOL    HW222905   0.566   2.902   2.964
 7336SOL     OW22906   2.194   0.562   0.562
 7336SOL    HW122907   2.185   0.634   0.632
 7336SOL    HW222908   2.260   0.590   0.494
 7337SOL     OW22909   3.787   1.486   3.152
 7337SOL    HW122910   3.763   1.434   3.070
 7337SOL    HW222911   3.836   1.569   3.126
 7338SOL     OW22912   5.141   3.543   0.433
 7338SOL    HW122913   5.152   3.601   0.514
 7338SOL    HW222914   5.066   3.577   0.377
 7339SOL     OW22915   6.879   6.509   4.090
 7339SOL    HW122916   6.872   6.418   4.050
 7339SOL    HW222917   6.797   6.529   4.143
 7340SOL     OW22918   3.007   6.696   6.843
 7340SOL    HW122919   2.927   6.723   6.896
 7340SOL    HW222920   3.088   6.743   6.878
 7341SOL     OW22921   6.164   5.629   3.744
 7341SOL    HW122922   6.189   5.656   3.837
 7341SOL    HW222923   6.106   5.699   3.704
 7342SOL     OW22924   0.286   5.634   0.455
 7342SOL    HW122925   0.382   5.653   0.432
 7342SOL    HW222926   0.278   5.540   0.489
 7343SOL     OW22927   6.866   2.569   2.949
 7343SOL    HW122928   6.814   2.500   2.899
 7343SOL    HW222929   6.948   2.528   2.987
 7344SOL     OW22930   2.032   1.236   6.665
 7344SOL    HW122931   2.062   1.301   6.595
 7344SOL    HW222932   1.933   1.225   6.661
 7345SOL     OW22933   2.038   6.986   6.754
 7345SOL    HW122934   2.018   6.941   6.667
 7345SOL    HW222935   2.103   6.930   6.806
 7346SOL     OW22936   3.468   4.899   3.855
 7346SOL    HW122937   3.447   4.896   3.953
 7346SOL    HW222938   3.540   4.966   3.839
 7347SOL     OW22939   6.205   2.947   3.410
 7347SOL    HW122940   6.276   2.944   3.480
 7347SOL    HW222941   6.148   3.029   3.424
 7348SOL     OW22942   5.835   0.808   6.133
 7348SOL    HW122943   5.812   0.712   6.114
 7348SOL    HW222944   5.895   0.843   6.062
 7349SOL     OW22945   3.697   1.688   1.292
 7349SOL    HW122946   3.741   1.720   1.376
 7349SOL    HW222947   3.765   1.642   1.234
 7350SOL     OW22948   2.100   1.269   3.342
 7350SOL    HW122949   2.131   1.360   3.312
 7350SOL    HW222950   2.024   1.280   3.406
 7351SOL     OW22951   4.783   4.273   0.641
 7351SOL    HW122952   4.815   4.360   0.680
 7351SOL    HW222953   4.763   4.286   0.544
 7352SOL     OW22954   6.641   1.076   3.179
 7352SOL    HW122955   6.664   1.169   3.207
 7352SOL    HW222956   6.675   1.011   3.246
 7353SOL     OW22957   5.476   1.752   5.491
 7353SOL    HW122958   5.466   1.653   5.484
 7353SOL    HW222959   5.487   1.778   5.587
 7354SOL     OW22960   5.526   4.215   5.267
 7354SOL    HW122961   5.499   4.302   5.226
 7354SOL    HW222962   5.586   4.233   5.345
 7355SOL     OW22963   6.697   5.692   0.576
 7355SOL    HW122964   6.713   5.783   0.538
 7355SOL    HW222965   6.673   5.700   0.672
 7356SOL     OW22966   0.080   1.711   5.904
 7356SOL    HW122967   0.068   1.804   5.871
 7356SOL    HW222968   0.176   1.696   5.927
 7357SOL     OW22969   0.995   1.335   0.812
 7357SOL    HW122970   0.943   1.279   0.748
 7357SOL    HW222971   0.981   1.432   0.789
 7358SOL     OW22972   3.795   0.741   3.818
 7358SOL    HW122973   3.865   0.802   3.781
 7358SOL    HW222974   3.706   0.763   3.777
 7359SOL     OW22975   3.100   3.585   3.909
 7359SOL    HW122976   3.004   3.572   3.881
 7359SOL    HW222977   3.120   3.683   3.913
 7360SOL     OW22978   0.842   4.497   6.623
 7360SOL    HW122979   0.750   4.486   6.587
 7360SOL    HW222980   0.900   4.423   6.590
 7361SOL     OW22981   4.677   6.425   1.136
 7361SOL    HW122982   4.623   6.497   1.180
 7361SOL    HW222983   4.621   6.343   1.125
 7362SOL     OW22984   1.358   5.676   6.531
 7362SOL    HW122985   1.297   5.659   6.609
 7362SOL    HW222986   1.372   5.591   6.481
 7363SOL     OW22987   4.490   2.490   6.516
 7363SOL    HW122988   4.548   2.509   6.595
 7363SOL    HW222989   4.508   2.557   6.445
 7364SOL     OW22990   5.069   6.808   1.002
 7364SOL    HW122991   5.165   6.786   0.985
 7364SOL    HW222992   5.013   6.779   0.924
 7365SOL     OW22993   4.232   6.784   1.384
 7365SOL    HW122994   4.149   6.737   1.414
 7365SOL    HW222995   4.256   6.755   1.292
 7366SOL     OW22996   1.736   0.244   0.392
 7366SOL    HW122997   1.730   0.316   0.323
 7366SOL    HW222998   1.673   0.263   0.467
 7367SOL     OW22999   4.351   2.601   6.759
 7367SOL    HW123000   4.396   2.678   6.713
 7367SOL    HW223001   4.254   2.622   6.772
 7368SOL     OW23002   3.271   2.948   4.517
 7368SOL    HW123003   3.317   2.861   4.537
 7368SOL    HW223004   3.220   2.978   4.597
 7369SOL     OW23005   6.163   0.800   6.443
 7369SOL    HW123006   6.081   0.745   6.456
 7369SOL    HW223007   6.178   0.815   6.345
 7370SOL     OW23008   0.559   5.977   0.807
 7370SOL    HW123009   0.494   5.921   0.859
 7370SOL    HW223010   0.542   5.966   0.709
 7371SOL     OW23011   1.552   4.996   4.274
 7371SOL    HW123012   1.598   5.023   4.189
 7371SOL    HW223013   1.541   5.077   4.332
 7372SOL     OW23014   3.259   0.417   5.104
 7372SOL    HW123015   3.308   0.418   5.191
 7372SOL    HW223016   3.247   0.510   5.071
 7373SOL     OW23017   3.201   0.675   1.298
 7373SOL    HW123018   3.287   0.721   1.322
 7373SOL    HW223019   3.207   0.640   1.205
 7374SOL     OW23020   2.268   3.504   6.541
 7374SOL    HW123021   2.257   3.412   6.580
 7374SOL    HW223022   2.300   3.567   6.611
 7375SOL     OW23023   2.744   6.354   3.575
 7375SOL    HW123024   2.803   6.433   3.560
 7375SOL    HW223025   2.798   6.270   3.568
 7376SOL     OW23026   3.233   3.903   6.632
 7376SOL    HW123027   3.307   3.969   6.644
 7376SOL    HW223028   3.179   3.928   6.551
 7377SOL     OW23029   6.317   6.034   1.742
 7377SOL    HW123030   6.271   5.973   1.677
 7377SOL    HW223031   6.276   6.022   1.833
 7378SOL     OW23032   0.677   1.724   5.353
 7378SOL    HW123033   0.677   1.660   5.276
 7378SOL    HW223034   0.771   1.754   5.371
 7379SOL     OW23035   4.357   0.394   0.493
 7379SOL    HW123036   4.416   0.343   0.430
 7379SOL    HW223037   4.405   0.477   0.522
 7380SOL     OW23038   6.659   2.739   6.452
 7380SOL    HW123039   6.567   2.731   6.491
 7380SOL    HW223040   6.727   2.721   6.524
 7381SOL     OW23041   5.275   2.043   6.934
 7381SOL    HW123042   5.254   2.003   6.844
 7381SOL    HW223043   5.369   2.023   6.958
 7382SOL     OW23044   0.968   5.219   3.989
 7382SOL    HW123045   1.049   5.163   4.005
 7382SOL    HW223046   0.896   5.162   3.949
 7383SOL     OW23047   1.690   4.173   2.778
 7383SOL    HW123048   1.628   4.208   2.708
 7383SOL    HW223049   1.748   4.102   2.739
 7384SOL     OW23050   6.209   1.962   0.838
 7384SOL    HW123051   6.267   1.898   0.789
 7384SOL    HW223052   6.113   1.939   0.823
 7385SOL     OW23053   5.336   0.442   2.234
 7385SOL    HW123054   5.318   0.365   2.294
 7385SOL    HW223055   5.311   0.418   2.140
 7386SOL     OW23056   6.627   1.603   5.894
 7386SOL    HW123057   6.566   1.574   5.820
 7386SOL    HW223058   6.691   1.672   5.859
 7387SOL     OW23059   5.310   6.090   3.322
 7387SOL    HW123060   5.368   6.083   3.240
 7387SOL    HW223061   5.223   6.044   3.305
 7388SOL     OW23062   5.272   3.972   4.890
 7388SOL    HW123063   5.198   4.029   4.855
 7388SOL    HW223064   5.245   3.876   4.888
 7389SOL     OW23065   0.803   3.312   5.112
 7389SOL    HW123066   0.748   3.273   5.038
 7389SOL    HW223067   0.859   3.241   5.154
 7390SOL     OW23068   4.551   0.275   0.290
 7390SOL    HW123069   4.569   0.205   0.221
 7390SOL    HW223070   4.584   0.363   0.257
 7391SOL     OW23071   0.523   5.221   0.075
 7391SOL    HW123072   0.566   5.222   7.009
 7391SOL    HW223073   0.508   5.126   0.104
 7392SOL     OW23074   2.363   4.472   2.063
 7392SOL    HW123075   2.274   4.518   2.060
 7392SOL    HW223076   2.424   4.514   1.997
 7393SOL     OW23077   1.092   3.607   0.032
 7393SOL    HW123078   1.003   3.562   0.040
 7393SOL    HW223079   1.161   3.553   0.081
 7394SOL     OW23080   2.077   3.027   6.198
 7394SOL    HW123081   2.177   3.028   6.190
 7394SOL    HW223082   2.043   3.121   6.200
 7395SOL     OW23083   2.698   0.886   7.009
 7395SOL    HW123084   2.797   0.875   7.001
 7395SOL    HW223085   2.654   0.853   6.925
 7396SOL     OW23086   6.896   6.789   2.186
 7396SOL    HW123087   6.909   6.837   2.273
 7396SOL    HW223088   6.911   6.852   2.110
 7397SOL     OW23089   6.440   3.944   4.347
 7397SOL    HW123090   6.361   3.886   4.327
 7397SOL    HW223091   6.439   3.971   4.443
 7398SOL     OW23092   4.429   6.415   3.247
 7398SOL    HW123093   4.428   6.510   3.217
 7398SOL    HW223094   4.521   6.388   3.272
 7399SOL     OW23095   5.148   5.429   4.024
 7399SOL    HW123096   5.127   5.333   4.009
 7399SOL    HW223097   5.158   5.446   4.122
 7400SOL     OW23098   2.949   3.941   0.199
 7400SOL    HW123099   2.960   3.938   0.298
 7400SOL    HW223100   2.991   3.860   0.159
 7401SOL     OW23101   6.004   2.866   4.629
 7401SOL    HW123102   6.050   2.948   4.665
 7401SOL    HW223103   6.072   2.804   4.591
 7402SOL     OW23104   1.933   6.244   4.508
 7402SOL    HW123105   1.973   6.157   4.538
 7402SOL    HW223106   1.844   6.227   4.465
 7403SOL     OW23107   2.416   3.025   1.633
 7403SOL    HW123108   2.466   3.110   1.650
 7403SOL    HW223109   2.406   3.011   1.535
 7404SOL     OW23110   1.145   2.322   2.956
 7404SOL    HW123111   1.062   2.335   3.009
 7404SOL    HW223112   1.123   2.324   2.858
 7405SOL     OW23113   3.847   4.927   5.956
 7405SOL    HW123114   3.793   4.859   5.907
 7405SOL    HW223115   3.935   4.938   5.911
 7406SOL     OW23116   0.545   6.124   2.726
 7406SOL    HW123117   0.558   6.125   2.825
 7406SOL    HW223118   0.595   6.201   2.685
 7407SOL     OW23119   2.995   1.584   5.809
 7407SOL    HW123120   3.061   1.623   5.874
 7407SOL    HW223121   3.038   1.578   5.719
 7408SOL     OW23122   0.790   3.561   5.677
 7408SOL    HW123123   0.846   3.606   5.608
 7408SOL    HW223124   0.730   3.628   5.720
 7409SOL     OW23125   2.624   6.799   4.625
 7409SOL    HW123126   2.531   6.763   4.622
 7409SOL    HW223127   2.683   6.747   4.564
 7410SOL     OW23128   4.420   5.910   5.920
 7410SOL    HW123129   4.455   5.910   5.826
 7410SOL    HW223130   4.433   6.001   5.960
 7411SOL     OW23131   5.274   3.848   5.855
 7411SOL    HW123132   5.349   3.816   5.912
 7411SOL    HW223133   5.235   3.931   5.894
 7412SOL     OW23134   2.045   1.404   0.142
 7412SOL    HW123135   2.007   1.476   0.200
 7412SOL    HW223136   1.976   1.377   0.074
 7413SOL     OW23137   6.869   3.437   3.847
 7413SOL    HW123138   6.837   3.433   3.942
 7413SOL    HW223139   6.942   3.506   3.840
 7414SOL     OW23140   0.408   5.091   1.637
 7414SOL    HW123141   0.461   5.100   1.553
 7414SOL    HW223142   0.446   5.152   1.707
 7415SOL     OW23143   3.515   1.687   3.101
 7415SOL    HW123144   3.594   1.630   3.079
 7415SOL    HW223145   3.492   1.744   3.022
 7416SOL     OW23146   6.689   7.001   3.108
 7416SOL    HW123147   6.614   6.955   3.061
 7416SOL    HW223148   6.744   0.029   3.042
 7417SOL     OW23149   0.185   4.891   1.124
 7417SOL    HW123150   0.149   4.892   1.031
 7417SOL    HW223151   0.285   4.893   1.122
 7418SOL     OW23152   1.267   3.485   0.202
 7418SOL    HW123153   1.263   3.397   0.248
 7418SOL    HW223154   1.362   3.516   0.196
 7419SOL     OW23155   6.041   2.398   5.251
 7419SOL    HW123156   6.003   2.359   5.334
 7419SOL    HW223157   5.974   2.392   5.177
 7420SOL     OW23158   6.592   5.611   1.922
 7420SOL    HW123159   6.649   5.671   1.977
 7420SOL    HW223160   6.558   5.661   1.843
 7421SOL     OW23161   3.920   1.791   1.778
 7421SOL    HW123162   3.938   1.882   1.815
 7421SOL    HW223163   3.853   1.744   1.836
 7422SOL     OW23164   0.842   1.518   1.334
 7422SOL    HW123165   0.892   1.548   1.415
 7422SOL    HW223166   0.744   1.529   1.349
 7423SOL     OW23167   2.699   4.367   0.410
 7423SOL    HW123168   2.778   4.307   0.403
 7423SOL    HW223169   2.715   4.435   0.482
 7424SOL     OW23170   4.663   0.613   4.181
 7424SOL    HW123171   4.647   0.516   4.166
 7424SOL    HW223172   4.631   0.665   4.102
 7425SOL     OW23173   3.221   0.148   4.461
 7425SOL    HW123174   3.177   0.080   4.520
 7425SOL    HW223175   3.150   0.200   4.412
 7426SOL     OW23176   0.201   0.785   6.790
 7426SOL    HW123177   0.267   0.838   6.844
 7426SOL    HW223178   0.218   0.688   6.802
 7427SOL     OW23179   5.594   5.153   5.042
 7427SOL    HW123180   5.637   5.093   5.110
 7427SOL    HW223181   5.504   5.116   5.018
 7428SOL     OW23182   4.586   0.871   5.599
 7428SOL    HW123183   4.550   0.777   5.606
 7428SOL    HW223184   4.609   0.904   5.690
 7429SOL     OW23185   6.496   6.338   3.762
 7429SOL    HW123186   6.565   6.286   3.711
 7429SOL    HW223187   6.458   6.410   3.704
 7430SOL     OW23188   0.535   3.890   3.922
 7430SOL    HW123189   0.476   3.917   3.998
 7430SOL    HW223190   0.621   3.853   3.958
 7431SOL     OW23191   0.189   3.898   2.560
 7431SOL    HW123192   0.223   3.903   2.654
 7431SOL    HW223193   0.112   3.835   2.556
 7432SOL     OW23194   1.672   6.483   5.413
 7432SOL    HW123195   1.768   6.494   5.441
 7432SOL    HW223196   1.642   6.390   5.430
 7433SOL     OW23197   0.380   6.764   0.844
 7433SOL    HW123198   0.361   6.767   0.941
 7433SOL    HW223199   0.319   6.825   0.795
 7434SOL     OW23200   4.464   6.401   0.203
 7434SOL    HW123201   4.461   6.326   0.270
 7434SOL    HW223202   4.419   6.482   0.240
 7435SOL     OW23203   1.632   5.413   0.254
 7435SOL    HW123204   1.612   5.367   0.341
 7435SOL    HW223205   1.565   5.385   0.185
 7436SOL     OW23206   4.357   3.831   6.890
 7436SOL    HW123207   4.416   3.867   6.961
 7436SOL    HW223208   4.372   3.881   6.805
 7437SOL     OW23209   0.118   6.407   4.890
 7437SOL    HW123210   0.131   6.327   4.948
 7437SOL    HW223211   0.171   6.396   4.806
 7438SOL     OW23212   5.511   3.848   0.970
 7438SOL    HW123213   5.431   3.897   0.935
 7438SOL    HW223214   5.493   3.750   0.969
 7439SOL     OW23215   1.389   6.701   2.904
 7439SOL    HW123216   1.380   6.619   2.962
 7439SOL    HW223217   1.315   6.703   2.837
 7440SOL     OW23218   0.874   1.280   4.054
 7440SOL    HW123219   0.821   1.354   4.095
 7440SOL    HW223220   0.839   1.261   3.962
 7441SOL     OW23221   6.372   0.103   3.817
 7441SOL    HW123222   6.300   0.047   3.776
 7441SOL    HW223223   6.412   0.055   3.895
 7442SOL     OW23224   1.713   0.929   6.455
 7442SOL    HW123225   1.791   0.873   6.483
 7442SOL    HW223226   1.657   0.879   6.389
 7443SOL     OW23227   0.188   2.416   2.100
 7443SOL    HW123228   0.121   2.393   2.029
 7443SOL    HW223229   0.200   2.515   2.105
 7444SOL     OW23230   0.810   2.680   5.179
 7444SOL    HW123231   0.746   2.709   5.249
 7444SOL    HW223232   0.792   2.585   5.153
 7445SOL     OW23233   6.065   2.772   1.947
 7445SOL    HW123234   6.121   2.767   1.864
 7445SOL    HW223235   6.106   2.716   2.019
 7446SOL     OW23236   5.843   3.488   3.159
 7446SOL    HW123237   5.816   3.476   3.064
 7446SOL    HW223238   5.825   3.583   3.187
 7447SOL     OW23239   0.522   3.737   6.549
 7447SOL    HW123240   0.543   3.652   6.501
 7447SOL    HW223241   0.457   3.717   6.623
 7448SOL     OW23242   0.364   0.260   6.303
 7448SOL    HW123243   0.364   0.343   6.359
 7448SOL    HW223244   0.270   0.238   6.276
 7449SOL     OW23245   4.045   6.937   1.912
 7449SOL    HW123246   3.954   6.973   1.893
 7449SOL    HW223247   4.086   6.988   1.988
 7450SOL     OW23248   3.590   1.383   1.833
 7450SOL    HW123249   3.548   1.339   1.912
 7450SOL    HW223250   3.598   1.316   1.759
 7451SOL     OW23251   1.131   0.600   2.468
 7451SOL    HW123252   1.192   0.541   2.415
 7451SOL    HW223253   1.160   0.601   2.564
 7452SOL     OW23254   1.759   5.676   3.409
 7452SOL    HW123255   1.704   5.744   3.457
 7452SOL    HW223256   1.710   5.589   3.407
 7453SOL     OW23257   6.604   4.850   5.248
 7453SOL    HW123258   6.520   4.815   5.207
 7453SOL    HW223259   6.673   4.864   5.177
 7454SOL     OW23260   1.392   2.982   6.868
 7454SOL    HW123261   1.380   3.070   6.822
 7454SOL    HW223262   1.315   2.967   6.930
 7455SOL     OW23263   4.796   0.546   0.495
 7455SOL    HW123264   4.786   0.446   0.490
 7455SOL    HW223265   4.864   0.569   0.564
 7456SOL     OW23266   0.978   4.065   6.225
 7456SOL    HW123267   0.932   3.977   6.238
 7456SOL    HW223268   1.076   4.054   6.244
 7457SOL     OW23269   6.972   6.353   5.895
 7457SOL    HW123270   6.879   6.333   5.865
 7457SOL    HW223271   6.969   6.402   5.983
 7458SOL     OW23272   2.809   0.498   0.917
 7458SOL    HW123273   2.857   0.461   0.838
 7458SOL    HW223274   2.786   0.593   0.900
 7459SOL     OW23275   3.762   6.180   4.379
 7459SOL    HW123276   3.816   6.177   4.295
 7459SOL    HW223277   3.784   6.264   4.429
 7460SOL     OW23278   0.872   5.357   0.044
 7460SOL    HW123279   0.911   5.365   0.135
 7460SOL    HW223280   0.876   5.261   0.014
 7461SOL     OW23281   4.054   0.695   4.285
 7461SOL    HW123282   4.009   0.610   4.313
 7461SOL    HW223283   3.987   0.755   4.242
 7462SOL     OW23284   2.343   1.741   3.582
 7462SOL    HW123285   2.358   1.661   3.524
 7462SOL    HW223286   2.383   1.822   3.539
 7463SOL     OW23287   3.692   4.105   2.204
 7463SOL    HW123288   3.680   4.155   2.290
 7463SOL    HW223289   3.614   4.123   2.144
 7464SOL     OW23290   4.738   6.025   7.012
 7464SOL    HW123291   4.684   6.108   0.001
 7464SOL    HW223292   4.833   6.049   6.990
 7465SOL     OW23293   4.005   0.689   3.131
 7465SOL    HW123294   4.010   0.636   3.216
 7465SOL    HW223295   4.088   0.675   3.078
 7466SOL     OW23296   6.129   6.942   0.271
 7466SOL    HW123297   6.154   6.946   0.367
 7466SOL    HW223298   6.149   0.006   0.227
 7467SOL     OW23299   4.712   2.479   0.954
 7467SOL    HW123300   4.759   2.489   1.042
 7467SOL    HW223301   4.660   2.393   0.954
 7468SOL     OW23302   5.716   4.279   4.428
 7468SOL    HW123303   5.722   4.220   4.348
 7468SOL    HW223304   5.757   4.368   4.407
 7469SOL     OW23305   5.040   1.225   2.205
 7469SOL    HW123306   5.094   1.216   2.121
 7469SOL    HW223307   5.094   1.272   2.275
 7470SOL     OW23308   7.008   3.189   3.470
 7470SOL    HW123309   0.023   3.280   3.455
 7470SOL    HW223310   0.028   3.124   3.408
 7471SOL     OW23311   6.473   5.089   5.099
 7471SOL    HW123312   6.493   5.121   5.006
 7471SOL    HW223313   6.549   5.113   5.160
 7472SOL     OW23314   3.871   5.174   2.932
 7472SOL    HW123315   3.845   5.092   2.882
 7472SOL    HW223316   3.942   5.224   2.882
 7473SOL     OW23317   1.327   2.956   5.651
 7473SOL    HW123318   1.227   2.960   5.653
 7473SOL    HW223319   1.361   2.947   5.744
 7474SOL     OW23320   2.752   1.610   2.899
 7474SOL    HW123321   2.785   1.663   2.977
 7474SOL    HW223322   2.676   1.552   2.928
 7475SOL     OW23323   4.635   0.578   6.395
 7475SOL    HW123324   4.605   0.639   6.469
 7475SOL    HW223325   4.730   0.551   6.411
 7476SOL     OW23326   2.165   6.869   4.866
 7476SOL    HW123327   2.091   6.802   4.873
 7476SOL    HW223328   2.225   6.861   4.946
 7477SOL     OW23329   4.853   3.962   4.264
 7477SOL    HW123330   4.871   3.905   4.344
 7477SOL    HW223331   4.879   4.056   4.284
 7478SOL     OW23332   0.665   4.456   1.552
 7478SOL    HW123333   0.742   4.514   1.528
 7478SOL    HW223334   0.620   4.491   1.634
 7479SOL     OW23335   3.769   0.342   4.774
 7479SOL    HW123336   3.712   0.404   4.827
 7479SOL    HW223337   3.710   0.282   4.718
 7480SOL     OW23338   5.995   5.367   0.474
 7480SOL    HW123339   6.069   5.428   0.447
 7480SOL    HW223340   5.980   5.374   0.573
 7481SOL     OW23341   6.135   6.203   0.352
 7481SOL    HW123342   6.065   6.258   0.306
 7481SOL    HW223343   6.223   6.250   0.345
 7482SOL     OW23344   4.999   0.258   4.734
 7482SOL    HW123345   4.991   0.347   4.689
 7482SOL    HW223346   5.055   0.197   4.677
 7483SOL     OW23347   3.644   0.620   6.580
 7483SOL    HW123348   3.607   0.662   6.663
 7483SOL    HW223349   3.678   0.529   6.601
 7484SOL     OW23350   3.440   7.005   1.945
 7484SOL    HW123351   3.427   0.080   1.945
 7484SOL    HW223352   3.363   6.961   1.991
 7485SOL     OW23353   1.080   6.341   4.919
 7485SOL    HW123354   1.058   6.431   4.881
 7485SOL    HW223355   1.157   6.351   4.983
 7486SOL     OW23356   0.927   1.855   5.418
 7486SOL    HW123357   1.023   1.837   5.400
 7486SOL    HW223358   0.895   1.929   5.358
 7487SOL     OW23359   3.377   5.161   3.672
 7487SOL    HW123360   3.303   5.191   3.612
 7487SOL    HW223361   3.456   5.222   3.663
 7488SOL     OW23362   4.286   0.812   5.118
 7488SOL    HW123363   4.288   0.712   5.120
 7488SOL    HW223364   4.320   0.848   5.205
 7489SOL     OW23365   6.753   3.159   4.012
 7489SOL    HW123366   6.772   3.163   3.914
 7489SOL    HW223367   6.706   3.243   4.040
 7490SOL     OW23368   5.565   0.026   3.067
 7490SOL    HW123369   5.652   0.059   3.102
 7490SOL    HW223370   5.532   0.087   2.995
 7491SOL     OW23371   0.266   6.932   0.657
 7491SOL    HW123372   0.186   6.875   0.639
 7491SOL    HW223373   0.237   7.020   0.696
 7492SOL     OW23374   2.787   2.056   3.475
 7492SOL    HW123375   2.721   2.055   3.399
 7492SOL    HW223376   2.784   2.146   3.520
 7493SOL     OW23377   5.090   4.859   6.508
 7493SOL    HW123378   5.138   4.937   6.469
 7493SOL    HW223379   5.156   4.791   6.539
 7494SOL     OW23380   4.926   1.943   1.634
 7494SOL    HW123381   4.988   1.886   1.688
 7494SOL    HW223382   4.833   1.933   1.668
 7495SOL     OW23383   0.985   1.936   2.584
 7495SOL    HW123384   1.083   1.931   2.603
 7495SOL    HW223385   0.945   2.011   2.635
 7496SOL     OW23386   0.556   5.744   5.702
 7496SOL    HW123387   0.580   5.673   5.637
 7496SOL    HW223388   0.461   5.732   5.732
 7497SOL     OW23389   1.987   5.075   2.514
 7497SOL    HW123390   1.925   5.062   2.436
 7497SOL    HW223391   2.057   5.003   2.513
 7498SOL     OW23392   5.895   1.991   4.454
 7498SOL    HW123393   5.816   2.048   4.477
 7498SOL    HW223394   5.926   2.011   4.361
 7499SOL     OW23395   3.677   5.088   3.822
 7499SOL    HW123396   3.744   5.092   3.748
 7499SOL    HW223397   3.710   5.026   3.894
 7500SOL     OW23398   4.836   4.022   1.938
 7500SOL    HW123399   4.761   4.029   1.873
 7500SOL    HW223400   4.852   4.111   1.981
 7501SOL     OW23401   0.485   4.575   4.047
 7501SOL    HW123402   0.581   4.546   4.045
 7501SOL    HW223403   0.427   4.498   4.021
 7502SOL     OW23404   1.771   2.283   3.793
 7502SOL    HW123405   1.829   2.296   3.713
 7502SOL    HW223406   1.828   2.266   3.874
 7503SOL     OW23407   2.406   2.846   6.724
 7503SOL    HW123408   2.495   2.823   6.762
 7503SOL    HW223409   2.335   2.789   6.767
 7504SOL     OW23410   4.001   5.335   3.980
 7504SOL    HW123411   3.925   5.399   3.974
 7504SOL    HW223412   4.088   5.385   3.976
 7505SOL     OW23413   1.972   1.146   4.326
 7505SOL    HW123414   1.976   1.245   4.338
 7505SOL    HW223415   2.057   1.105   4.357
 7506SOL     OW23416   4.518   1.022   3.269
 7506SOL    HW123417   4.484   0.966   3.344
 7506SOL    HW223418   4.605   0.985   3.236
 7507SOL     OW23419   2.440   0.367   5.481
 7507SOL    HW123420   2.518   0.349   5.540
 7507SOL    HW223421   2.389   0.283   5.466
 7508SOL     OW23422   5.372   5.369   3.430
 7508SOL    HW123423   5.279   5.359   3.395
 7508SOL    HW223424   5.433   5.306   3.381
 7509SOL     OW23425   4.139   4.182   6.279
 7509SOL    HW123426   4.080   4.243   6.226
 7509SOL    HW223427   4.144   4.093   6.234
 7510SOL     OW23428   3.567   3.527   4.546
 7510SOL    HW123429   3.497   3.457   4.534
 7510SOL    HW223430   3.526   3.617   4.535
 7511SOL     OW23431   1.310   1.682   2.572
 7511SOL    HW123432   1.269   1.651   2.486
 7511SOL    HW223433   1.268   1.768   2.600
 7512SOL     OW23434   1.730   3.264   2.570
 7512SOL    HW123435   1.748   3.305   2.481
 7512SOL    HW223436   1.642   3.298   2.605
 7513SOL     OW23437   1.539   3.359   6.135
 7513SOL    HW123438   1.540   3.268   6.093
 7513SOL    HW223439   1.543   3.351   6.234
 7514SOL     OW23440   3.477   5.518   3.516
 7514SOL    HW123441   3.383   5.500   3.544
 7514SOL    HW223442   3.507   5.605   3.556
 7515SOL     OW23443   0.332   4.748   2.726
 7515SOL    HW123444   0.316   4.681   2.799
 7515SOL    HW223445   0.359   4.835   2.767
 7516SOL     OW23446   1.987   2.567   1.263
 7516SOL    HW123447   2.074   2.561   1.214
 7516SOL    HW223448   1.997   2.528   1.354
 7517SOL     OW23449   0.230   4.911   1.769
 7517SOL    HW123450   0.277   4.825   1.750
 7517SOL    HW223451   0.280   4.986   1.726
 7518SOL     OW23452   5.261   4.090   3.359
 7518SOL    HW123453   5.285   4.094   3.456
 7518SOL    HW223454   5.296   4.171   3.312
 7519SOL     OW23455   1.891   0.000   4.015
 7519SOL    HW123456   1.849   0.008   3.925
 7519SOL    HW223457   1.821   0.015   4.085
 7520SOL     OW23458   2.360   6.696   3.562
 7520SOL    HW123459   2.374   6.643   3.479
 7520SOL    HW223460   2.263   6.702   3.583
 7521SOL     OW23461   4.630   3.369   5.379
 7521SOL    HW123462   4.636   3.418   5.292
 7521SOL    HW223463   4.543   3.391   5.423
 7522SOL     OW23464   1.733   0.208   2.546
 7522SOL    HW123465   1.810   0.243   2.600
 7522SOL    HW223466   1.766   0.177   2.457
 7523SOL     OW23467   6.544   6.637   6.058
 7523SOL    HW123468   6.596   6.688   5.990
 7523SOL    HW223469   6.516   6.549   6.021
 7524SOL     OW23470   6.234   1.086   4.817
 7524SOL    HW123471   6.301   1.160   4.810
 7524SOL    HW223472   6.190   1.073   4.728
 7525SOL     OW23473   0.897   0.181   0.679
 7525SOL    HW123474   0.861   0.273   0.667
 7525SOL    HW223475   0.903   0.159   0.777
 7526SOL     OW23476   3.403   3.546   5.422
 7526SOL    HW123477   3.414   3.541   5.521
 7526SOL    HW223478   3.486   3.581   5.380
 7527SOL     OW23479   3.757   5.974   1.929
 7527SOL    HW123480   3.854   5.996   1.936
 7527SOL    HW223481   3.706   6.055   1.902
 7528SOL     OW23482   5.870   3.147   6.933
 7528SOL    HW123483   5.813   3.124   6.854
 7528SOL    HW223484   5.860   3.077   7.003
 7529SOL     OW23485   2.048   0.196   4.382
 7529SOL    HW123486   2.106   0.123   4.346
 7529SOL    HW223487   2.009   0.248   4.306
 7530SOL     OW23488   6.602   3.038   2.975
 7530SOL    HW123489   6.691   2.993   2.977
 7530SOL    HW223490   6.544   2.999   3.048
 7531SOL     OW23491   2.637   1.552   4.299
 7531SOL    HW123492   2.601   1.532   4.208
 7531SOL    HW223493   2.577   1.617   4.345
 7532SOL     OW23494   4.850   4.880   2.085
 7532SOL    HW123495   4.833   4.881   2.184
 7532SOL    HW223496   4.948   4.886   2.068
 7533SOL     OW23497   3.533   0.932   4.973
 7533SOL    HW123498   3.617   0.971   4.935
 7533SOL    HW223499   3.526   0.836   4.944
 7534SOL     OW23500   5.049   6.945   3.953
 7534SOL    HW123501   5.082   6.926   4.046
 7534SOL    HW223502   5.107   6.898   3.887
 7535SOL     OW23503   2.976   4.855   0.555
 7535SOL    HW123504   2.964   4.941   0.506
 7535SOL    HW223505   2.889   4.805   0.559
 7536SOL     OW23506   4.269   5.624   5.896
 7536SOL    HW123507   4.171   5.646   5.899
 7536SOL    HW223508   4.318   5.698   5.852
 7537SOL     OW23509   1.964   4.801   5.320
 7537SOL    HW123510   1.957   4.795   5.420
 7537SOL    HW223511   1.877   4.834   5.282
 7538SOL     OW23512   3.308   4.031   4.706
 7538SOL    HW123513   3.209   4.017   4.707
 7538SOL    HW223514   3.336   4.066   4.617
 7539SOL     OW23515   0.972   2.250   4.752
 7539SOL    HW123516   0.928   2.170   4.712
 7539SOL    HW223517   1.041   2.221   4.818
 7540SOL     OW23518   2.213   1.194   0.231
 7540SOL    HW123519   2.146   1.250   0.182
 7540SOL    HW223520   2.196   1.200   0.329
 7541SOL     OW23521   0.034   2.738   5.278
 7541SOL    HW123522   0.006   2.658   5.330
 7541SOL    HW223523   6.991   2.811   5.291
 7542SOL     OW23524   1.580   0.284   5.714
 7542SOL    HW123525   1.666   0.327   5.686
 7542SOL    HW223526   1.567   0.297   5.813
 7543SOL     OW23527   2.834   2.644   0.335
 7543SOL    HW123528   2.736   2.626   0.346
 7543SOL    HW223529   2.885   2.588   0.400
 7544SOL     OW23530   1.401   1.963   2.430
 7544SOL    HW123531   1.405   1.863   2.429
 7544SOL    HW223532   1.360   1.996   2.344
 7545SOL     OW23533   4.083   0.392   3.708
 7545SOL    HW123534   4.043   0.304   3.683
 7545SOL    HW223535   4.104   0.393   3.805
 7546SOL     OW23536   5.312   0.401   5.477
 7546SOL    HW123537   5.232   0.345   5.456
 7546SOL    HW223538   5.366   0.415   5.394
 7547SOL     OW23539   3.017   0.484   0.019
 7547SOL    HW123540   3.007   0.491   0.119
 7547SOL    HW223541   2.928   0.500   6.999
 7548SOL     OW23542   1.890   3.103   1.234
 7548SOL    HW123543   1.884   3.009   1.270
 7548SOL    HW223544   1.799   3.145   1.237
 7549SOL     OW23545   5.583   0.560   2.700
 7549SOL    HW123546   5.561   0.648   2.656
 7549SOL    HW223547   5.589   0.489   2.630
 7550SOL     OW23548   1.239   5.713   0.592
 7550SOL    HW123549   1.196   5.647   0.653
 7550SOL    HW223550   1.330   5.736   0.627
 7551SOL     OW23551   5.261   3.729   6.561
 7551SOL    HW123552   5.203   3.798   6.604
 7551SOL    HW223553   5.275   3.752   6.465
 7552SOL     OW23554   3.961   5.615   3.851
 7552SOL    HW123555   3.888   5.555   3.819
 7552SOL    HW223556   4.018   5.642   3.773
 7553SOL     OW23557   4.181   3.964   6.089
 7553SOL    HW123558   4.279   3.971   6.108
 7553SOL    HW223559   4.148   3.876   6.122
 7554SOL     OW23560   0.118   1.386   1.309
 7554SOL    HW123561   0.127   1.449   1.386
 7554SOL    HW223562   0.026   1.347   1.308
 7555SOL     OW23563   1.568   5.836   5.617
 7555SOL    HW123564   1.482   5.884   5.599
 7555SOL    HW223565   1.601   5.859   5.709
 7556SOL     OW23566   6.437   4.078   3.719
 7556SOL    HW123567   6.408   4.140   3.791
 7556SOL    HW223568   6.507   4.016   3.754
 7557SOL     OW23569   4.265   3.896   0.623
 7557SOL    HW123570   4.278   3.816   0.565
 7557SOL    HW223571   4.281   3.871   0.719
 7558SOL     OW23572   1.842   2.722   3.359
 7558SOL    HW123573   1.926   2.668   3.350
 7558SOL    HW223574   1.862   2.818   3.337
 7559SOL     OW23575   0.979   4.943   0.004
 7559SOL    HW123576   0.903   4.879   7.014
 7559SOL    HW223577   1.058   4.912   6.975
 7560SOL     OW23578   4.629   0.397   5.597
 7560SOL    HW123579   4.622   0.495   5.583
 7560SOL    HW223580   4.725   0.371   5.611
 7561SOL     OW23581   0.123   4.168   0.088
 7561SOL    HW123582   0.212   4.183   0.131
 7561SOL    HW223583   0.089   4.078   0.112
 7562SOL     OW23584   4.703   5.862   4.584
 7562SOL    HW123585   4.684   5.837   4.489
 7562SOL    HW223586   4.801   5.852   4.602
 7563SOL     OW23587   2.372   1.139   4.203
 7563SOL    HW123588   2.440   1.213   4.210
 7563SOL    HW223589   2.357   1.116   4.107
 7564SOL     OW23590   5.902   5.682   4.164
 7564SOL    HW123591   5.964   5.604   4.169
 7564SOL    HW223592   5.939   5.751   4.102
 7565SOL     OW23593   4.827   5.670   6.900
 7565SOL    HW123594   4.803   5.579   6.867
 7565SOL    HW223595   4.777   5.689   6.984
 7566SOL     OW23596   1.517   5.357   4.234
 7566SOL    HW123597   1.511   5.311   4.323
 7566SOL    HW223598   1.447   5.321   4.173
 7567SOL     OW23599   2.467   3.282   0.435
 7567SOL    HW123600   2.524   3.204   0.462
 7567SOL    HW223601   2.496   3.314   0.345
 7568SOL     OW23602   3.783   4.939   2.811
 7568SOL    HW123603   3.826   4.849   2.820
 7568SOL    HW223604   3.686   4.927   2.791
 7569SOL     OW23605   3.796   6.991   1.921
 7569SOL    HW123606   3.707   6.981   1.966
 7569SOL    HW223607   3.782   6.999   1.823
 7570SOL     OW23608   5.966   4.958   4.809
 7570SOL    HW123609   5.960   5.052   4.843
 7570SOL    HW223610   6.019   4.957   4.725
 7571SOL     OW23611   5.667   3.797   0.621
 7571SOL    HW123612   5.718   3.769   0.702
 7571SOL    HW223613   5.631   3.889   0.634
 7572SOL     OW23614   6.842   1.180   2.915
 7572SOL    HW123615   6.775   1.107   2.922
 7572SOL    HW223616   6.860   1.219   3.006
 7573SOL     OW23617   3.117   5.317   5.027
 7573SOL    HW123618   3.166   5.366   4.955
 7573SOL    HW223619   3.045   5.261   4.986
 7574SOL     OW23620   4.754   6.418   2.113
 7574SOL    HW123621   4.658   6.442   2.128
 7574SOL    HW223622   4.764   6.374   2.024
 7575SOL     OW23623   4.899   2.637   5.130
 7575SOL    HW123624   4.835   2.698   5.176
 7575SOL    HW223625   4.880   2.542   5.155
 7576SOL     OW23626   6.875   3.524   1.677
 7576SOL    HW123627   6.950   3.552   1.737
 7576SOL    HW223628   6.826   3.448   1.718
 7577SOL     OW23629   4.577   1.455   4.706
 7577SOL    HW123630   4.571   1.442   4.607
 7577SOL    HW223631   4.604   1.369   4.749
 7578SOL     OW23632   2.243   5.377   5.174
 7578SOL    HW123633   2.343   5.384   5.172
 7578SOL    HW223634   2.209   5.364   5.081
 7579SOL     OW23635   4.356   2.416   3.891
 7579SOL    HW123636   4.277   2.419   3.830
 7579SOL    HW223637   4.333   2.363   3.973
 7580SOL     OW23638   2.071   3.428   2.369
 7580SOL    HW123639   2.143   3.420   2.437
 7580SOL    HW223640   2.102   3.486   2.294
 7581SOL     OW23641   5.333   0.567   0.730
 7581SOL    HW123642   5.372   0.533   0.644
 7581SOL    HW223643   5.245   0.611   0.712
 7582SOL     OW23644   3.388   2.409   0.958
 7582SOL    HW123645   3.418   2.334   0.900
 7582SOL    HW223646   3.398   2.383   1.054
 7583SOL     OW23647   6.873   4.342   2.904
 7583SOL    HW123648   6.938   4.281   2.951
 7583SOL    HW223649   6.786   4.340   2.953
 7584SOL     OW23650   2.432   1.344   1.775
 7584SOL    HW123651   2.384   1.376   1.694
 7584SOL    HW223652   2.469   1.423   1.825
 7585SOL     OW23653   1.803   4.518   6.523
 7585SOL    HW123654   1.826   4.588   6.455
 7585SOL    HW223655   1.711   4.484   6.506
 7586SOL     OW23656   1.572   2.001   2.912
 7586SOL    HW123657   1.594   1.950   2.995
 7586SOL    HW223658   1.648   1.993   2.847
 7587SOL     OW23659   2.482   1.328   5.732
 7587SOL    HW123660   2.492   1.317   5.633
 7587SOL    HW223661   2.561   1.378   5.767
 7588SOL     OW23662   0.491   4.233   1.514
 7588SOL    HW123663   0.540   4.316   1.540
 7588SOL    HW223664   0.544   4.184   1.444
 7589SOL     OW23665   5.014   6.406   6.537
 7589SOL    HW123666   5.078   6.462   6.590
 7589SOL    HW223667   5.024   6.310   6.563
 7590SOL     OW23668   1.635   0.699   5.763
 7590SOL    HW123669   1.554   0.728   5.815
 7590SOL    HW223670   1.610   0.684   5.668
 7591SOL     OW23671   6.378   5.795   6.658
 7591SOL    HW123672   6.348   5.785   6.563
 7591SOL    HW223673   6.305   5.762   6.718
 7592SOL     OW23674   4.616   4.871   6.029
 7592SOL    HW123675   4.712   4.867   5.999
 7592SOL    HW223676   4.601   4.956   6.081
 7593SOL     OW23677   5.522   4.058   0.671
 7593SOL    HW123678   5.471   4.031   0.754
 7593SOL    HW223679   5.458   4.094   0.604
 7594SOL     OW23680   0.942   6.923   3.717
 7594SOL    HW123681   0.979   6.831   3.705
 7594SOL    HW223682   1.003   6.977   3.775
 7595SOL     OW23683   6.154   2.654   6.927
 7595SOL    HW123684   6.196   2.564   6.941
 7595SOL    HW223685   6.217   2.725   6.958
 7596SOL     OW23686   4.821   5.344   2.109
 7596SOL    HW123687   4.723   5.363   2.108
 7596SOL    HW223688   4.838   5.251   2.075
 7597SOL     OW23689   2.189   5.586   1.589
 7597SOL    HW123690   2.249   5.541   1.523
 7597SOL    HW223691   2.175   5.681   1.562
 7598SOL     OW23692   6.489   0.927   2.022
 7598SOL    HW123693   6.522   0.836   1.996
 7598SOL    HW223694   6.477   0.931   2.121
 7599SOL     OW23695   5.786   2.841   1.925
 7599SOL    HW123696   5.755   2.862   1.832
 7599SOL    HW223697   5.886   2.837   1.926
 7600SOL     OW23698   2.578   2.482   3.089
 7600SOL    HW123699   2.584   2.390   3.128
 7600SOL    HW223700   2.590   2.477   2.990
 7601SOL     OW23701   2.313   0.769   5.409
 7601SOL    HW123702   2.343   0.851   5.457
 7601SOL    HW223703   2.380   0.744   5.339
 7602SOL     OW23704   2.305   3.503   5.486
 7602SOL    HW123705   2.263   3.445   5.417
 7602SOL    HW223706   2.392   3.539   5.451
 7603SOL     OW23707   6.634   1.271   2.176
 7603SOL    HW123708   6.652   1.214   2.096
 7603SOL    HW223709   6.718   1.280   2.230
 7604SOL     OW23710   4.985   5.455   0.044
 7604SOL    HW123711   5.052   5.474   6.995
 7604SOL    HW223712   4.901   5.420   0.004
 7605SOL     OW23713   5.936   3.683   6.470
 7605SOL    HW123714   5.947   3.761   6.408
 7605SOL    HW223715   5.995   3.608   6.440
 7606SOL     OW23716   5.628   1.883   3.481
 7606SOL    HW123717   5.603   1.827   3.401
 7606SOL    HW223718   5.553   1.944   3.504
 7607SOL     OW23719   4.958   6.891   6.246
 7607SOL    HW123720   4.987   6.902   6.151
 7607SOL    HW223721   4.898   6.967   6.271
 7608SOL     OW23722   3.365   3.316   4.759
 7608SOL    HW123723   3.320   3.229   4.777
 7608SOL    HW223724   3.334   3.352   4.671
 7609SOL     OW23725   1.668   2.755   3.558
 7609SOL    HW123726   1.572   2.732   3.542
 7609SOL    HW223727   1.723   2.724   3.481
 7610SOL     OW23728   5.706   0.428   2.005
 7610SOL    HW123729   5.673   0.491   2.075
 7610SOL    HW223730   5.758   0.354   2.049
 7611SOL     OW23731   2.277   1.680   1.753
 7611SOL    HW123732   2.361   1.659   1.804
 7611SOL    HW223733   2.218   1.600   1.752
 7612SOL     OW23734   4.436   1.779   2.862
 7612SOL    HW123735   4.339   1.772   2.884
 7612SOL    HW223736   4.451   1.860   2.804
 7613SOL     OW23737   5.668   0.598   2.958
 7613SOL    HW123738   5.634   0.587   2.865
 7613SOL    HW223739   5.593   0.624   3.019
 7614SOL     OW23740   4.481   0.974   0.422
 7614SOL    HW123741   4.427   1.030   0.487
 7614SOL    HW223742   4.476   0.878   0.449
 7615SOL     OW23743   4.065   4.676   6.047
 7615SOL    HW123744   4.048   4.667   6.145
 7615SOL    HW223745   3.987   4.637   5.997
 7616SOL     OW23746   0.043   4.912   3.094
 7616SOL    HW123747   0.028   4.817   3.066
 7616SOL    HW223748   6.997   4.938   3.161
 7617SOL     OW23749   3.266   5.801   3.037
 7617SOL    HW123750   3.196   5.729   3.031
 7617SOL    HW223751   3.221   5.889   3.054
 7618SOL     OW23752   2.284   1.882   0.678
 7618SOL    HW123753   2.200   1.829   0.669
 7618SOL    HW223754   2.266   1.977   0.653
 7619SOL     OW23755   5.947   3.493   6.154
 7619SOL    HW123756   5.968   3.565   6.088
 7619SOL    HW223757   6.016   3.493   6.226
 7620SOL     OW23758   3.019   5.986   1.569
 7620SOL    HW123759   3.014   5.887   1.585
 7620SOL    HW223760   3.054   6.002   1.477
 7621SOL     OW23761   1.715   2.563   0.679
 7621SOL    HW123762   1.747   2.647   0.635
 7621SOL    HW223763   1.772   2.486   0.649
 7622SOL     OW23764   4.237   1.931   1.393
 7622SOL    HW123765   4.155   1.955   1.446
 7622SOL    HW223766   4.270   2.012   1.345
 7623SOL     OW23767   6.064   6.356   5.162
 7623SOL    HW123768   6.034   6.292   5.233
 7623SOL    HW223769   6.070   6.309   5.075
 7624SOL     OW23770   6.982   0.634   4.441
 7624SOL    HW123771   6.944   0.718   4.402
 7624SOL    HW223772   6.920   0.597   4.510
 7625SOL     OW23773   3.476   5.780   0.851
 7625SOL    HW123774   3.574   5.795   0.866
 7625SOL    HW223775   3.464   5.722   0.770
 7626SOL     OW23776   2.716   4.288   5.365
 7626SOL    HW123777   2.727   4.385   5.345
 7626SOL    HW223778   2.689   4.276   5.461
 7627SOL     OW23779   0.042   1.260   0.366
 7627SOL    HW123780   0.080   1.168   0.370
 7627SOL    HW223781   0.047   1.302   0.457
 7628SOL     OW23782   4.784   1.843   1.355
 7628SOL    HW123783   4.814   1.937   1.369
 7628SOL    HW223784   4.845   1.781   1.405
 7629SOL     OW23785   6.097   6.178   3.157
 7629SOL    HW123786   6.147   6.263   3.142
 7629SOL    HW223787   6.158   6.100   3.139
 7630SOL     OW23788   6.415   1.430   2.091
 7630SOL    HW123789   6.486   1.374   2.133
 7630SOL    HW223790   6.407   1.516   2.141
 7631SOL     OW23791   1.419   0.959   3.510
 7631SOL    HW123792   1.361   0.977   3.589
 7631SOL    HW223793   1.491   1.029   3.505
 7632SOL     OW23794   4.325   0.591   5.358
 7632SOL    HW123795   4.312   0.543   5.445
 7632SOL    HW223796   4.311   0.689   5.371
 7633SOL     OW23797   5.791   4.002   6.768
 7633SOL    HW123798   5.713   4.057   6.798
 7633SOL    HW223799   5.758   3.924   6.715
 7634SOL     OW23800   1.262   2.463   2.225
 7634SOL    HW123801   1.235   2.395   2.157
 7634SOL    HW223802   1.309   2.417   2.301
 7635SOL     OW23803   2.640   5.156   5.862
 7635SOL    HW123804   2.608   5.067   5.830
 7635SOL    HW223805   2.731   5.146   5.902
 7636SOL     OW23806   1.635   0.302   3.437
 7636SOL    HW123807   1.648   0.315   3.536
 7636SOL    HW223808   1.576   0.374   3.401
 7637SOL     OW23809   2.860   6.296   3.948
 7637SOL    HW123810   2.864   6.387   3.905
 7637SOL    HW223811   2.920   6.233   3.898
 7638SOL     OW23812   4.200   4.524   1.756
 7638SOL    HW123813   4.242   4.444   1.712
 7638SOL    HW223814   4.102   4.526   1.734
 7639SOL     OW23815   0.431   1.904   4.350
 7639SOL    HW123816   0.407   1.810   4.328
 7639SOL    HW223817   0.498   1.938   4.284
 7640SOL     OW23818   2.373   3.408   5.779
 7640SOL    HW123819   2.472   3.397   5.794
 7640SOL    HW223820   2.357   3.446   5.688
 7641SOL     OW23821   6.057   2.965   3.171
 7641SOL    HW123822   6.011   2.893   3.119
 7641SOL    HW223823   6.125   2.924   3.232
 7642SOL     OW23824   1.566   1.754   2.619
 7642SOL    HW123825   1.598   1.849   2.622
 7642SOL    HW223826   1.467   1.752   2.604
 7643SOL     OW23827   5.561   3.439   3.598
 7643SOL    HW123828   5.617   3.463   3.519
 7643SOL    HW223829   5.601   3.479   3.680
 7644SOL     OW23830   6.631   3.462   3.705
 7644SOL    HW123831   6.635   3.405   3.622
 7644SOL    HW223832   6.713   3.446   3.760
 7645SOL     OW23833   3.169   2.753   0.085
 7645SOL    HW123834   3.121   2.705   0.011
 7645SOL    HW223835   3.198   2.686   0.154
 7646SOL     OW23836   1.174   0.473   1.594
 7646SOL    HW123837   1.108   0.523   1.649
 7646SOL    HW223838   1.169   0.505   1.499
 7647SOL     OW23839   2.211   5.142   0.200
 7647SOL    HW123840   2.243   5.167   0.291
 7647SOL    HW223841   2.113   5.119   0.204
 7648SOL     OW23842   3.207   1.390   3.748
 7648SOL    HW123843   3.184   1.405   3.844
 7648SOL    HW223844   3.264   1.308   3.739
 7649SOL     OW23845   3.026   1.539   1.696
 7649SOL    HW123846   2.939   1.588   1.686
 7649SOL    HW223847   3.101   1.600   1.672
 7650SOL     OW23848   5.987   4.637   0.638
 7650SOL    HW123849   6.043   4.561   0.604
 7650SOL    HW223850   6.027   4.724   0.610
 7651SOL     OW23851   5.253   2.108   6.226
 7651SOL    HW123852   5.243   2.172   6.302
 7651SOL    HW223853   5.265   2.158   6.141
 7652SOL     OW23854   1.075   3.520   2.918
 7652SOL    HW123855   0.989   3.558   2.951
 7652SOL    HW223856   1.134   3.594   2.885
 7653SOL     OW23857   4.604   2.321   2.190
 7653SOL    HW123858   4.602   2.393   2.121
 7653SOL    HW223859   4.554   2.351   2.271
 7654SOL     OW23860   5.194   3.703   4.139
 7654SOL    HW123861   5.099   3.678   4.160
 7654SOL    HW223862   5.203   3.720   4.040
 7655SOL     OW23863   5.422   5.073   5.668
 7655SOL    HW123864   5.454   5.165   5.643
 7655SOL    HW223865   5.375   5.077   5.756
 7656SOL     OW23866   1.157   0.346   4.636
 7656SOL    HW123867   1.169   0.252   4.605
 7656SOL    HW223868   1.246   0.387   4.654
 7657SOL     OW23869   3.852   1.500   3.826
 7657SOL    HW123870   3.755   1.515   3.809
 7657SOL    HW223871   3.906   1.546   3.755
 7658SOL     OW23872   3.941   0.389   6.109
 7658SOL    HW123873   4.019   0.338   6.144
 7658SOL    HW223874   3.858   0.357   6.154
 7659SOL     OW23875   5.414   5.927   6.445
 7659SOL    HW123876   5.336   5.869   6.466
 7659SOL    HW223877   5.392   6.022   6.468
 7660SOL     OW23878   5.408   4.795   3.984
 7660SOL    HW123879   5.428   4.893   3.985
 7660SOL    HW223880   5.492   4.744   4.004
 7661SOL     OW23881   6.096   3.519   4.469
 7661SOL    HW123882   6.159   3.575   4.523
 7661SOL    HW223883   6.147   3.473   4.396
 7662SOL     OW23884   6.194   5.591   3.120
 7662SOL    HW123885   6.222   5.536   3.199
 7662SOL    HW223886   6.273   5.608   3.061
 7663SOL     OW23887   0.222   6.259   0.436
 7663SOL    HW123888   0.182   6.181   0.387
 7663SOL    HW223889   0.260   6.227   0.522
 7664SOL     OW23890   2.825   5.688   5.163
 7664SOL    HW123891   2.846   5.673   5.259
 7664SOL    HW223892   2.820   5.786   5.145
 7665SOL     OW23893   2.514   5.768   4.077
 7665SOL    HW123894   2.493   5.859   4.115
 7665SOL    HW223895   2.556   5.711   4.148
 7666SOL     OW23896   2.318   0.676   2.083
 7666SOL    HW123897   2.279   0.672   2.175
 7666SOL    HW223898   2.290   0.596   2.031
 7667SOL     OW23899   5.709   6.483   5.458
 7667SOL    HW123900   5.641   6.547   5.421
 7667SOL    HW223901   5.666   6.393   5.471
 7668SOL     OW23902   2.925   4.007   1.695
 7668SOL    HW123903   2.846   3.980   1.640
 7668SOL    HW223904   2.933   4.106   1.695
 7669SOL     OW23905   4.561   6.240   4.844
 7669SOL    HW123906   4.520   6.231   4.935
 7669SOL    HW223907   4.620   6.162   4.826
 7670SOL     OW23908   1.373   6.033   0.583
 7670SOL    HW123909   1.293   6.093   0.587
 7670SOL    HW223910   1.352   5.953   0.527
 7671SOL     OW23911   5.251   1.889   4.778
 7671SOL    HW123912   5.307   1.936   4.846
 7671SOL    HW223913   5.271   1.924   4.687
 7672SOL     OW23914   5.979   0.452   1.755
 7672SOL    HW123915   5.913   0.447   1.680
 7672SOL    HW223916   5.952   0.389   1.828
 7673SOL     OW23917   0.383   4.007   0.112
 7673SOL    HW123918   0.393   4.045   0.020
 7673SOL    HW223919   0.469   3.964   0.140
 7674SOL     OW23920   6.051   0.355   5.213
 7674SOL    HW123921   6.004   0.269   5.194
 7674SOL    HW223922   6.002   0.406   5.283
 7675SOL     OW23923   4.921   7.002   3.242
 7675SOL    HW123924   4.925   6.984   3.144
 7675SOL    HW223925   4.926   0.077   3.258
 7676SOL     OW23926   1.232   0.692   1.121
 7676SOL    HW123927   1.184   0.759   1.177
 7676SOL    HW223928   1.244   0.728   1.029
 7677SOL     OW23929   1.539   2.249   3.005
 7677SOL    HW123930   1.607   2.285   2.941
 7677SOL    HW223931   1.517   2.154   2.980
 7678SOL     OW23932   5.513   6.831   5.729
 7678SOL    HW123933   5.478   6.859   5.818
 7678SOL    HW223934   5.491   6.902   5.661
 7679SOL     OW23935   1.148   5.286   4.327
 7679SOL    HW123936   1.202   5.270   4.245
 7679SOL    HW223937   1.075   5.350   4.307
 7680SOL     OW23938   5.447   0.871   6.658
 7680SOL    HW123939   5.389   0.789   6.658
 7680SOL    HW223940   5.394   0.949   6.625
 7681SOL     OW23941   2.892   2.261   6.431
 7681SOL    HW123942   2.835   2.332   6.471
 7681SOL    HW223943   2.957   2.301   6.366
 7682SOL     OW23944   2.939   0.052   0.556
 7682SOL    HW123945   2.994   6.996   0.581
 7682SOL    HW223946   3.000   0.125   0.525
 7683SOL     OW23947   6.968   2.494   3.525
 7683SOL    HW123948   0.002   2.413   3.522
 7683SOL    HW223949   6.901   2.490   3.451
 7684SOL     OW23950   3.957   2.371   5.829
 7684SOL    HW123951   3.955   2.335   5.736
 7684SOL    HW223952   3.911   2.306   5.891
 7685SOL     OW23953   3.854   3.875   1.483
 7685SOL    HW123954   3.934   3.824   1.449
 7685SOL    HW223955   3.853   3.872   1.583
 7686SOL     OW23956   3.230   1.025   3.451
 7686SOL    HW123957   3.263   1.097   3.390
 7686SOL    HW223958   3.255   0.936   3.414
 7687SOL     OW23959   4.579   4.554   6.037
 7687SOL    HW123960   4.582   4.654   6.036
 7687SOL    HW223961   4.591   4.520   5.944
 7688SOL     OW23962   6.552   0.688   3.003
 7688SOL    HW123963   6.643   0.678   3.042
 7688SOL    HW223964   6.504   0.762   3.050
 7689SOL     OW23965   3.455   6.133   4.795
 7689SOL    HW123966   3.360   6.158   4.815
 7689SOL    HW223967   3.498   6.206   4.743
 7690SOL     OW23968   0.633   5.571   2.117
 7690SOL    HW123969   0.620   5.622   2.202
 7690SOL    HW223970   0.719   5.599   2.074
 7691SOL     OW23971   6.141   3.727   6.050
 7691SOL    HW123972   6.210   3.792   6.018
 7691SOL    HW223973   6.185   3.638   6.065
 7692SOL     OW23974   1.380   6.416   1.072
 7692SOL    HW123975   1.475   6.442   1.091
 7692SOL    HW223976   1.319   6.466   1.133
 7693SOL     OW23977   5.352   1.758   0.537
 7693SOL    HW123978   5.272   1.784   0.591
 7693SOL    HW223979   5.434   1.801   0.574
 7694SOL     OW23980   5.639   4.950   3.776
 7694SOL    HW123981   5.549   4.985   3.750
 7694SOL    HW223982   5.693   5.025   3.817
 7695SOL     OW23983   4.764   0.339   6.691
 7695SOL    HW123984   4.673   0.358   6.728
 7695SOL    HW223985   4.829   0.406   6.727
 7696SOL     OW23986   1.237   4.308   5.507
 7696SOL    HW123987   1.326   4.299   5.464
 7696SOL    HW223988   1.220   4.230   5.567
 7697SOL     OW23989   4.558   1.371   2.404
 7697SOL    HW123990   4.570   1.459   2.450
 7697SOL    HW223991   4.645   1.324   2.398
 7698SOL     OW23992   6.831   2.856   5.443
 7698SOL    HW123993   6.807   2.912   5.523
 7698SOL    HW223994   6.801   2.762   5.459
 7699SOL     OW23995   3.200   4.306   0.400
 7699SOL    HW123996   3.292   4.325   0.366
 7699SOL    HW223997   3.133   4.335   0.331
 7700SOL     OW23998   5.640   6.686   4.408
 7700SOL    HW123999   5.692   6.742   4.472
 7700SOL    HW224000   5.701   6.647   4.340
 7701SOL     OW24001   6.991   2.192   5.315
 7701SOL    HW124002   7.023   2.153   5.228
 7701SOL    HW224003   0.030   2.166   5.388
 7702SOL     OW24004   1.947   6.532   6.650
 7702SOL    HW124005   1.897   6.499   6.570
 7702SOL    HW224006   2.045   6.538   6.628
 7703SOL     OW24007   0.845   2.499   5.466
 7703SOL    HW124008   0.828   2.461   5.557
 7703SOL    HW224009   0.893   2.431   5.410
 7704SOL     OW24010   2.450   4.252   1.247
 7704SOL    HW124011   2.376   4.318   1.235
 7704SOL    HW224012   2.432   4.172   1.189
 7705SOL     OW24013   3.537   3.871   4.763
 7705SOL    HW124014   3.448   3.915   4.748
 7705SOL    HW224015   3.572   3.898   4.853
 7706SOL     OW24016   6.650   0.803   5.601
 7706SOL    HW124017   6.618   0.713   5.632
 7706SOL    HW224018   6.619   0.819   5.508
 7707SOL     OW24019   6.873   5.701   6.656
 7707SOL    HW124020   6.857   5.654   6.569
 7707SOL    HW224021   6.847   5.797   6.648
 7708SOL     OW24022   4.950   1.323   5.069
 7708SOL    HW124023   5.015   1.375   5.125
 7708SOL    HW224024   4.999   1.264   5.006
 7709SOL     OW24025   3.855   2.262   1.688
 7709SOL    HW124026   3.789   2.291   1.757
 7709SOL    HW224027   3.871   2.338   1.624
 7710SOL     OW24028   2.682   1.980   6.646
 7710SOL    HW124029   2.733   2.044   6.703
 7710SOL    HW224030   2.592   1.964   6.687
 7711SOL     OW24031   4.679   5.519   4.442
 7711SOL    HW124032   4.687   5.617   4.427
 7711SOL    HW224033   4.768   5.482   4.471
 7712SOL     OW24034   5.267   4.667   6.595
 7712SOL    HW124035   5.320   4.632   6.672
 7712SOL    HW224036   5.325   4.670   6.513
 7713SOL     OW24037   0.479   5.739   6.273
 7713SOL    HW124038   0.547   5.737   6.200
 7713SOL    HW224039   0.459   5.835   6.296
 7714SOL     OW24040   5.381   3.840   4.508
 7714SOL    HW124041   5.479   3.820   4.508
 7714SOL    HW224042   5.353   3.868   4.416
 7715SOL     OW24043   4.006   2.055   1.806
 7715SOL    HW124044   4.048   2.101   1.883
 7715SOL    HW224045   3.965   2.122   1.745
 7716SOL     OW24046   4.401   2.460   4.282
 7716SOL    HW124047   4.431   2.556   4.279
 7716SOL    HW224048   4.382   2.434   4.377
 7717SOL     OW24049   3.275   0.189   6.585
 7717SOL    HW124050   3.260   0.129   6.664
 7717SOL    HW224051   3.188   0.229   6.556
 7718SOL     OW24052   2.617   6.251   4.057
 7718SOL    HW124053   2.610   6.324   4.126
 7718SOL    HW224054   2.694   6.271   3.996
 7719SOL     OW24055   5.980   2.794   5.054
 7719SOL    HW124056   5.932   2.771   4.969
 7719SOL    HW224057   5.986   2.712   5.111
 7720SOL     OW24058   5.927   5.912   1.836
 7720SOL    HW124059   5.876   5.868   1.910
 7720SOL    HW224060   5.878   5.994   1.805
 7721SOL     OW24061   1.090   4.919   2.800
 7721SOL    HW124062   1.109   4.897   2.704
 7721SOL    HW224063   1.168   4.969   2.838
 7722SOL     OW24064   0.592   5.977   4.334
 7722SOL    HW124065   0.527   6.038   4.289
 7722SOL    HW224066   0.584   5.885   4.295
 7723SOL     OW24067   6.881   2.046   0.459
 7723SOL    HW124068   6.967   2.010   0.497
 7723SOL    HW224069   6.817   1.971   0.444
 7724SOL     OW24070   2.284   6.598   6.957
 7724SOL    HW124071   2.207   6.581   7.018
 7724SOL    HW224072   2.316   6.511   6.918
 7725SOL     OW24073   4.936   3.464   4.413
 7725SOL    HW124074   5.029   3.427   4.417
 7725SOL    HW224075   4.894   3.457   4.504
 7726SOL     OW24076   5.172   4.254   3.092
 7726SOL    HW124077   5.091   4.282   3.143
 7726SOL    HW224078   5.215   4.334   3.050
 7727SOL     OW24079   5.380   3.217   2.453
 7727SOL    HW124080   5.350   3.162   2.375
 7727SOL    HW224081   5.327   3.302   2.456
 7728SOL     OW24082   2.114   2.828   2.665
 7728SOL    HW124083   2.150   2.834   2.758
 7728SOL    HW224084   2.040   2.761   2.662
 7729SOL     OW24085   5.096   2.146   0.137
 7729SOL    HW124086   5.144   2.098   0.063
 7729SOL    HW224087   5.124   2.242   0.138
 7730SOL     OW24088   4.634   0.333   1.987
 7730SOL    HW124089   4.579   0.415   2.002
 7730SOL    HW224090   4.686   0.312   2.070
 7731SOL     OW24091   0.166   1.512   4.158
 7731SOL    HW124092   0.112   1.595   4.141
 7731SOL    HW224093   0.253   1.537   4.200
 7732SOL     OW24094   4.357   4.993   0.733
 7732SOL    HW124095   4.373   5.091   0.747
 7732SOL    HW224096   4.339   4.977   0.636
 7733SOL     OW24097   2.891   6.315   0.441
 7733SOL    HW124098   2.911   6.405   0.479
 7733SOL    HW224099   2.850   6.324   0.350
 7734SOL     OW24100   1.522   2.948   2.163
 7734SOL    HW124101   1.567   2.972   2.249
 7734SOL    HW224102   1.428   2.983   2.164
 7735SOL     OW24103   4.951   4.100   0.893
 7735SOL    HW124104   4.862   4.135   0.864
 7735SOL    HW224105   4.980   4.148   0.976
 7736SOL     OW24106   5.868   4.271   6.206
 7736SOL    HW124107   5.834   4.357   6.169
 7736SOL    HW224108   5.871   4.275   6.306
 7737SOL     OW24109   4.504   2.784   0.368
 7737SOL    HW124110   4.478   2.691   0.341
 7737SOL    HW224111   4.423   2.842   0.371
 7738SOL     OW24112   2.383   5.303   0.014
 7738SOL    HW124113   2.319   5.237   0.053
 7738SOL    HW224114   2.372   5.306   6.938
 7739SOL     OW24115   5.351   3.674   2.724
 7739SOL    HW124116   5.420   3.715   2.664
 7739SOL    HW224117   5.397   3.617   2.792
 7740SOL     OW24118   0.332   6.248   3.842
 7740SOL    HW124119   0.333   6.336   3.890
 7740SOL    HW224120   0.388   6.255   3.760
 7741SOL     OW24121   3.205   5.566   4.432
 7741SOL    HW124122   3.121   5.549   4.483
 7741SOL    HW224123   3.243   5.480   4.399
 7742SOL     OW24124   6.823   0.859   4.382
 7742SOL    HW124125   6.725   0.859   4.361
 7742SOL    HW224126   6.861   0.949   4.364
 7743SOL     OW24127   4.870   3.053   2.257
 7743SOL    HW124128   4.842   3.020   2.167
 7743SOL    HW224129   4.912   2.978   2.308
 7744SOL     OW24130   0.252   6.327   4.635
 7744SOL    HW124131   0.279   6.235   4.608
 7744SOL    HW224132   0.309   6.395   4.588
 7745SOL     OW24133   4.963   3.291   5.216
 7745SOL    HW124134   4.967   3.350   5.136
 7745SOL    HW224135   5.052   3.292   5.262
 7746SOL     OW24136   2.016   0.554   6.547
 7746SOL    HW124137   1.977   0.577   6.635
 7746SOL    HW224138   1.962   0.482   6.503
 7747SOL     OW24139   4.935   5.250   0.658
 7747SOL    HW124140   4.945   5.179   0.589
 7747SOL    HW224141   4.987   5.225   0.740
 7748SOL     OW24142   2.179   4.365   6.168
 7748SOL    HW124143   2.119   4.325   6.099
 7748SOL    HW224144   2.129   4.375   6.254
 7749SOL     OW24145   5.540   3.192   6.091
 7749SOL    HW124146   5.607   3.118   6.098
 7749SOL    HW224147   5.588   3.280   6.088
 7750SOL     OW24148   4.560   5.438   2.509
 7750SOL    HW124149   4.494   5.371   2.475
 7750SOL    HW224150   4.586   5.415   2.603
 7751SOL     OW24151   0.547   2.836   1.115
 7751SOL    HW124152   0.589   2.849   1.205
 7751SOL    HW224153   0.604   2.776   1.059
 7752SOL     OW24154   4.094   1.253   3.219
 7752SOL    HW124155   4.085   1.185   3.292
 7752SOL    HW224156   4.173   1.232   3.162
 7753SOL     OW24157   4.182   1.225   5.449
 7753SOL    HW124158   4.228   1.294   5.505
 7753SOL    HW224159   4.197   1.134   5.489
 7754SOL     OW24160   5.169   5.515   1.650
 7754SOL    HW124161   5.156   5.490   1.554
 7754SOL    HW224162   5.119   5.598   1.670
 7755SOL     OW24163   0.135   4.568   5.608
 7755SOL    HW124164   0.233   4.574   5.587
 7755SOL    HW224165   0.106   4.473   5.604
 7756SOL     OW24166   2.140   3.916   2.258
 7756SOL    HW124167   2.085   3.950   2.182
 7756SOL    HW224168   2.128   3.975   2.337
 7757SOL     OW24169   0.090   4.085   0.734
 7757SOL    HW124170   0.138   4.118   0.654
 7757SOL    HW224171   0.090   4.156   0.805
 7758SOL     OW24172   0.528   1.397   5.946
 7758SOL    HW124173   0.429   1.402   5.937
 7758SOL    HW224174   0.568   1.487   5.929
 7759SOL     OW24175   3.665   1.296   2.490
 7759SOL    HW124176   3.617   1.251   2.566
 7759SOL    HW224177   3.598   1.334   2.427
 7760SOL     OW24178   4.883   3.068   6.785
 7760SOL    HW124179   4.809   3.121   6.826
 7760SOL    HW224180   4.913   3.111   6.700
 7761SOL     OW24181   5.564   5.149   3.405
 7761SOL    HW124182   5.615   5.087   3.345
 7761SOL    HW224183   5.627   5.196   3.466
 7762SOL     OW24184   5.093   1.825   1.848
 7762SOL    HW124185   5.154   1.855   1.921
 7762SOL    HW224186   5.112   1.729   1.827
 7763SOL     OW24187   2.284   0.562   3.219
 7763SOL    HW124188   2.375   0.539   3.185
 7763SOL    HW224189   2.292   0.631   3.291
 7764SOL     OW24190   3.777   5.236   5.591
 7764SOL    HW124191   3.763   5.210   5.495
 7764SOL    HW224192   3.694   5.217   5.643
 7765SOL     OW24193   5.128   3.837   4.615
 7765SOL    HW124194   5.220   3.858   4.582
 7765SOL    HW224195   5.132   3.808   4.710
 7766SOL     OW24196   6.499   2.287   6.238
 7766SOL    HW124197   6.440   2.262   6.314
 7766SOL    HW224198   6.449   2.346   6.175
 7767SOL     OW24199   4.393   0.115   3.987
 7767SOL    HW124200   4.337   0.045   3.942
 7767SOL    HW224201   4.380   0.110   4.086
 7768SOL     OW24202   3.098   5.871   4.384
 7768SOL    HW124203   3.018   5.909   4.430
 7768SOL    HW224204   3.129   5.790   4.434
 7769SOL     OW24205   3.407   2.630   6.947
 7769SOL    HW124206   3.358   2.705   6.991
 7769SOL    HW224207   3.455   2.664   6.866
 7770SOL     OW24208   1.208   3.664   3.628
 7770SOL    HW124209   1.191   3.637   3.723
 7770SOL    HW224210   1.301   3.636   3.602
 7771SOL     OW24211   0.957   3.694   5.450
 7771SOL    HW124212   1.015   3.754   5.506
 7771SOL    HW224213   0.875   3.745   5.421
 7772SOL     OW24214   5.373   6.044   1.784
 7772SOL    HW124215   5.368   5.946   1.803
 7772SOL    HW224216   5.391   6.059   1.686
 7773SOL     OW24217   3.041   0.442   6.607
 7773SOL    HW124218   3.043   0.436   6.507
 7773SOL    HW224219   2.979   0.516   6.635
 7774SOL     OW24220   5.231   1.036   3.014
 7774SOL    HW124221   5.137   1.068   3.008
 7774SOL    HW224222   5.265   1.049   3.108
 7775SOL     OW24223   3.389   1.614   1.083
 7775SOL    HW124224   3.326   1.568   1.020
 7775SOL    HW224225   3.342   1.631   1.170
 7776SOL     OW24226   3.508   1.066   4.134
 7776SOL    HW124227   3.604   1.083   4.154
 7776SOL    HW224228   3.488   0.969   4.144
 7777SOL     OW24229   5.285   4.987   2.922
 7777SOL    HW124230   5.239   4.900   2.943
 7777SOL    HW224231   5.218   5.060   2.914
 7778SOL     OW24232   1.309   4.283   2.269
 7778SOL    HW124233   1.290   4.297   2.366
 7778SOL    HW224234   1.227   4.248   2.224
 7779SOL     OW24235   2.993   6.210   2.495
 7779SOL    HW124236   3.011   6.249   2.405
 7779SOL    HW224237   2.959   6.117   2.485
 7780SOL     OW24238   6.876   5.680   4.080
 7780SOL    HW124239   6.788   5.708   4.040
 7780SOL    HW224240   6.883   5.717   4.173
 7781SOL     OW24241   2.389   2.608   0.381
 7781SOL    HW124242   2.330   2.527   0.378
 7781SOL    HW224243   2.343   2.685   0.338
 7782SOL     OW24244   5.996   3.956   4.595
 7782SOL    HW124245   5.950   3.867   4.594
 7782SOL    HW224246   5.985   3.998   4.684
 7783SOL     OW24247   1.327   6.526   3.977
 7783SOL    HW124248   1.397   6.558   4.041
 7783SOL    HW224249   1.243   6.580   3.990
 7784SOL     OW24250   1.736   2.408   2.867
 7784SOL    HW124251   1.703   2.496   2.899
 7784SOL    HW224252   1.836   2.406   2.872
 7785SOL     OW24253   6.675   6.435   2.587
 7785SOL    HW124254   6.702   6.436   2.491
 7785SOL    HW224255   6.722   6.361   2.634
 7786SOL     OW24256   5.014   1.156   6.448
 7786SOL    HW124257   4.964   1.216   6.510
 7786SOL    HW224258   5.105   1.194   6.431
 7787SOL     OW24259   1.319   3.011   1.254
 7787SOL    HW124260   1.290   2.918   1.235
 7787SOL    HW224261   1.411   3.011   1.294
 7788SOL     OW24262   0.901   4.095   2.002
 7788SOL    HW124263   0.878   4.085   1.905
 7788SOL    HW224264   0.843   4.166   2.042
 7789SOL     OW24265   3.568   0.865   5.859
 7789SOL    HW124266   3.558   0.797   5.931
 7789SOL    HW224267   3.494   0.933   5.866
 7790SOL     OW24268   3.762   4.885   4.106
 7790SOL    HW124269   3.777   4.958   4.172
 7790SOL    HW224270   3.689   4.825   4.139
 7791SOL     OW24271   2.437   6.260   1.817
 7791SOL    HW124272   2.448   6.160   1.818
 7791SOL    HW224273   2.433   6.294   1.911
 7792SOL     OW24274   1.526   1.395   2.172
 7792SOL    HW124275   1.604   1.391   2.109
 7792SOL    HW224276   1.477   1.308   2.169
 7793SOL     OW24277   4.857   1.760   0.829
 7793SOL    HW124278   4.819   1.810   0.907
 7793SOL    HW224279   4.863   1.663   0.852
 7794SOL     OW24280   1.596   1.002   3.160
 7794SOL    HW124281   1.585   0.970   3.066
 7794SOL    HW224282   1.558   1.094   3.169
 7795SOL     OW24283   3.721   3.633   1.229
 7795SOL    HW124284   3.798   3.695   1.243
 7795SOL    HW224285   3.696   3.591   1.316
 7796SOL     OW24286   4.266   1.428   0.586
 7796SOL    HW124287   4.278   1.469   0.677
 7796SOL    HW224288   4.276   1.329   0.593
 7797SOL     OW24289   1.465   6.361   2.788
 7797SOL    HW124290   1.381   6.309   2.803
 7797SOL    HW224291   1.493   6.406   2.873
 7798SOL     OW24292   2.111   3.611   1.196
 7798SOL    HW124293   2.069   3.541   1.139
 7798SOL    HW224294   2.198   3.641   1.155
 7799SOL     OW24295   2.384   6.494   3.862
 7799SOL    HW124296   2.330   6.424   3.908
 7799SOL    HW224297   2.402   6.467   3.767
 7800SOL     OW24298   1.596   1.484   2.514
 7800SOL    HW124299   1.554   1.570   2.542
 7800SOL    HW224300   1.599   1.478   2.414
 7801SOL     OW24301   1.921   2.074   1.010
 7801SOL    HW124302   1.994   2.083   1.078
 7801SOL    HW224303   1.878   1.985   1.020
 7802SOL     OW24304   6.197   4.908   4.240
 7802SOL    HW124305   6.157   4.961   4.314
 7802SOL    HW224306   6.140   4.916   4.158
 7803SOL     OW24307   3.241   2.527   6.387
 7803SOL    HW124308   3.215   2.540   6.482
 7803SOL    HW224309   3.159   2.510   6.332
 7804SOL     OW24310   2.598   1.848   5.381
 7804SOL    HW124311   2.541   1.788   5.325
 7804SOL    HW224312   2.629   1.926   5.326
 7805SOL     OW24313   5.512   3.082   6.736
 7805SOL    HW124314   5.596   3.038   6.769
 7805SOL    HW224315   5.514   3.179   6.759
 7806SOL     OW24316   6.116   2.042   5.251
 7806SOL    HW124317   6.188   2.034   5.182
 7806SOL    HW224318   6.037   2.090   5.211
 7807SOL     OW24319   1.672   5.415   5.788
 7807SOL    HW124320   1.582   5.452   5.813
 7807SOL    HW224321   1.741   5.487   5.794
 7808SOL     OW24322   0.235   3.034   4.151
 7808SOL    HW124323   0.276   3.121   4.181
 7808SOL    HW224324   0.168   3.052   4.080
 7809SOL     OW24325   4.369   6.831   2.612
 7809SOL    HW124326   4.383   6.888   2.693
 7809SOL    HW224327   4.456   6.820   2.564
 7810SOL     OW24328   1.926   0.024   5.663
 7810SOL    HW124329   1.887   0.084   5.733
 7810SOL    HW224330   1.853   6.997   5.617
 7811SOL     OW24331   1.249   5.746   3.232
 7811SOL    HW124332   1.211   5.656   3.210
 7811SOL    HW224333   1.313   5.774   3.160
 7812SOL     OW24334   2.881   1.156   5.508
 7812SOL    HW124335   2.969   1.127   5.471
 7812SOL    HW224336   2.857   1.246   5.472
 7813SOL     OW24337   5.510   1.481   0.711
 7813SOL    HW124338   5.420   1.500   0.671
 7813SOL    HW224339   5.507   1.495   0.810
 7814SOL     OW24340   6.268   2.753   1.702
 7814SOL    HW124341   6.317   2.667   1.713
 7814SOL    HW224342   6.310   2.823   1.759
 7815SOL     OW24343   4.618   5.325   3.730
 7815SOL    HW124344   4.676   5.264   3.784
 7815SOL    HW224345   4.602   5.284   3.640
 7816SOL     OW24346   1.310   1.223   5.211
 7816SOL    HW124347   1.345   1.162   5.140
 7816SOL    HW224348   1.328   1.318   5.186
 7817SOL     OW24349   4.398   1.564   6.611
 7817SOL    HW124350   4.417   1.516   6.525
 7817SOL    HW224351   4.352   1.650   6.592
 7818SOL     OW24352   5.719   0.900   3.173
 7818SOL    HW124353   5.784   0.939   3.238
 7818SOL    HW224354   5.630   0.887   3.217
 7819SOL     OW24355   2.202   2.622   4.544
 7819SOL    HW124356   2.290   2.622   4.498
 7819SOL    HW224357   2.135   2.573   4.488
 7820SOL     OW24358   1.602   1.149   5.921
 7820SOL    HW124359   1.593   1.242   5.956
 7820SOL    HW224360   1.526   1.128   5.860
 7821SOL     OW24361   3.622   5.680   6.986
 7821SOL    HW124362   3.554   5.741   0.002
 7821SOL    HW224363   3.703   5.678   0.021
 7822SOL     OW24364   0.945   1.207   4.656
 7822SOL    HW124365   1.037   1.241   4.638
 7822SOL    HW224366   0.892   1.276   4.705
 7823SOL     OW24367   2.906   2.896   6.082
 7823SOL    HW124368   2.822   2.901   6.028
 7823SOL    HW224369   2.953   2.985   6.079
 7824SOL     OW24370   6.019   4.279   2.678
 7824SOL    HW124371   5.953   4.327   2.620
 7824SOL    HW224372   6.003   4.181   2.673
 7825SOL     OW24373   3.544   3.034   3.063
 7825SOL    HW124374   3.594   3.073   3.141
 7825SOL    HW224375   3.474   2.971   3.096
 7826SOL     OW24376   6.442   0.101   0.947
 7826SOL    HW124377   6.426   0.037   1.023
 7826SOL    HW224378   6.386   0.074   0.869
 7827SOL     OW24379   4.506   3.413   0.250
 7827SOL    HW124380   4.422   3.427   0.303
 7827SOL    HW224381   4.571   3.486   0.271
 7828SOL     OW24382   1.309   6.432   0.810
 7828SOL    HW124383   1.330   6.395   0.900
 7828SOL    HW224384   1.363   6.515   0.794
 7829SOL     OW24385   3.627   3.832   2.586
 7829SOL    HW124386   3.694   3.872   2.648
 7829SOL    HW224387   3.573   3.905   2.543
 7830SOL     OW24388   6.355   4.117   0.734
 7830SOL    HW124389   6.449   4.140   0.761
 7830SOL    HW224390   6.350   4.114   0.634
 7831SOL     OW24391   2.200   2.125   0.607
 7831SOL    HW124392   2.108   2.100   0.638
 7831SOL    HW224393   2.193   2.181   0.525
 7832SOL     OW24394   3.587   2.778   6.149
 7832SOL    HW124395   3.672   2.775   6.202
 7832SOL    HW224396   3.604   2.742   6.058
 7833SOL     OW24397   6.697   6.789   1.836
 7833SOL    HW124398   6.703   6.689   1.835
 7833SOL    HW224399   6.771   6.827   1.892
 7834SOL     OW24400   5.658   1.281   1.049
 7834SOL    HW124401   5.606   1.360   1.015
 7834SOL    HW224402   5.595   1.208   1.074
 7835SOL     OW24403   2.163   2.069   4.346
 7835SOL    HW124404   2.144   2.097   4.441
 7835SOL    HW224405   2.191   2.148   4.293
 7836SOL     OW24406   2.123   0.490   6.925
 7836SOL    HW124407   2.099   0.396   6.901
 7836SOL    HW224408   2.058   0.554   6.883
 7837SOL     OW24409   5.642   5.631   2.387
 7837SOL    HW124410   5.606   5.564   2.322
 7837SOL    HW224411   5.608   5.722   2.365
 7838SOL     OW24412   3.578   5.907   4.040
 7838SOL    HW124413   3.671   5.878   4.019
 7838SOL    HW224414   3.562   5.998   4.000
 7839SOL     OW24415   6.679   4.695   3.363
 7839SOL    HW124416   6.582   4.702   3.341
 7839SOL    HW224417   6.702   4.760   3.436
 7840SOL     OW24418   4.565   3.399   5.861
 7840SOL    HW124419   4.519   3.388   5.773
 7840SOL    HW224420   4.596   3.310   5.895
 7841SOL     OW24421   1.003   2.652   5.827
 7841SOL    HW124422   1.021   2.621   5.733
 7841SOL    HW224423   0.973   2.748   5.825
 7842SOL     OW24424   2.498   0.880   2.706
 7842SOL    HW124425   2.502   0.792   2.659
 7842SOL    HW224426   2.481   0.866   2.803
 7843SOL     OW24427   0.253   2.696   2.173
 7843SOL    HW124428   0.211   2.748   2.248
 7843SOL    HW224429   0.327   2.639   2.208
 7844SOL     OW24430   4.193   2.312   3.648
 7844SOL    HW124431   4.114   2.251   3.642
 7844SOL    HW224432   4.276   2.258   3.661
 7845SOL     OW24433   0.248   0.972   4.261
 7845SOL    HW124434   0.183   0.971   4.337
 7845SOL    HW224435   0.202   0.999   4.177
 7846SOL     OW24436   4.490   0.377   2.538
 7846SOL    HW124437   4.578   0.352   2.496
 7846SOL    HW224438   4.491   0.474   2.562
 7847SOL     OW24439   0.243   6.914   6.907
 7847SOL    HW124440   0.322   6.959   6.950
 7847SOL    HW224441   0.266   6.891   6.812
 7848SOL     OW24442   3.568   3.965   1.474
 7848SOL    HW124443   3.665   3.947   1.458
 7848SOL    HW224444   3.527   3.885   1.518
 7849SOL     OW24445   5.259   4.285   4.900
 7849SOL    HW124446   5.307   4.367   4.871
 7849SOL    HW224447   5.325   4.218   4.933
 7850SOL     OW24448   0.578   2.865   4.905
 7850SOL    HW124449   0.670   2.885   4.940
 7850SOL    HW224450   0.578   2.773   4.864
 7851SOL     OW24451   3.842   6.743   0.976
 7851SOL    HW124452   3.748   6.718   0.952
 7851SOL    HW224453   3.906   6.683   0.927
 7852SOL     OW24454   2.848   0.179   0.092
 7852SOL    HW124455   2.792   0.196   0.173
 7852SOL    HW224456   2.796   0.202   0.010
 7853SOL     OW24457   2.182   2.247   0.343
 7853SOL    HW124458   2.249   2.183   0.306
 7853SOL    HW224459   2.090   2.221   0.312
 7854SOL     OW24460   3.990   3.865   4.026
 7854SOL    HW124461   4.023   3.929   3.956
 7854SOL    HW224462   3.967   3.778   3.984
 7855SOL     OW24463   2.900   0.352   4.893
 7855SOL    HW124464   2.864   0.331   4.802
 7855SOL    HW224465   2.997   0.328   4.896
 7856SOL     OW24466   2.737   3.350   6.888
 7856SOL    HW124467   2.663   3.414   6.907
 7856SOL    HW224468   2.699   3.263   6.855
 7857SOL     OW24469   0.391   3.038   4.756
 7857SOL    HW124470   0.296   3.019   4.783
 7857SOL    HW224471   0.452   2.975   4.804
 7858SOL     OW24472   5.378   3.259   2.928
 7858SOL    HW124473   5.409   3.352   2.948
 7858SOL    HW224474   5.401   3.236   2.834
 7859SOL     OW24475   0.513   6.855   0.551
 7859SOL    HW124476   0.419   6.890   0.557
 7859SOL    HW224477   0.560   6.873   0.638
 7860SOL     OW24478   4.830   6.250   1.020
 7860SOL    HW124479   4.892   6.280   0.947
 7860SOL    HW224480   4.785   6.330   1.060
 7861SOL     OW24481   5.889   3.519   0.604
 7861SOL    HW124482   5.867   3.597   0.663
 7861SOL    HW224483   5.807   3.463   0.590
 7862SOL     OW24484   3.081   4.624   1.736
 7862SOL    HW124485   3.016   4.576   1.795
 7862SOL    HW224486   3.105   4.712   1.777
 7863SOL     OW24487   4.321   6.018   2.886
 7863SOL    HW124488   4.318   5.921   2.861
 7863SOL    HW224489   4.291   6.074   2.809
 7864SOL     OW24490   1.234   5.682   5.396
 7864SOL    HW124491   1.235   5.590   5.437
 7864SOL    HW224492   1.141   5.718   5.398
 7865SOL     OW24493   4.560   0.345   3.118
 7865SOL    HW124494   4.483   0.382   3.067
 7865SOL    HW224495   4.548   0.363   3.216
 7866SOL     OW24496   2.884   2.381   5.810
 7866SOL    HW124497   2.900   2.477   5.789
 7866SOL    HW224498   2.831   2.339   5.736
 7867SOL     OW24499   6.046   3.259   1.168
 7867SOL    HW124500   6.060   3.168   1.207
 7867SOL    HW224501   5.948   3.278   1.162
 7868SOL     OW24502   4.737   0.246   0.485
 7868SOL    HW124503   4.690   0.158   0.495
 7868SOL    HW224504   4.693   0.298   0.412
 7869SOL     OW24505   6.291   1.639   4.231
 7869SOL    HW124506   6.284   1.733   4.197
 7869SOL    HW224507   6.370   1.595   4.189
 7870SOL     OW24508   6.548   0.548   2.781
 7870SOL    HW124509   6.557   0.603   2.863
 7870SOL    HW224510   6.631   0.556   2.726
 7871SOL     OW24511   5.618   3.205   4.559
 7871SOL    HW124512   5.674   3.179   4.481
 7871SOL    HW224513   5.675   3.247   4.629
 7872SOL     OW24514   0.148   4.198   4.105
 7872SOL    HW124515   0.195   4.111   4.121
 7872SOL    HW224516   0.078   4.185   4.034
 7873SOL     OW24517   6.926   5.520   4.530
 7873SOL    HW124518   6.925   5.564   4.619
 7873SOL    HW224519   7.014   5.475   4.516
 7874SOL     OW24520   5.962   0.300   0.086
 7874SOL    HW124521   6.030   0.348   0.031
 7874SOL    HW224522   5.954   0.206   0.053
 7875SOL     OW24523   4.650   3.144   0.223
 7875SOL    HW124524   4.748   3.162   0.213
 7875SOL    HW224525   4.605   3.227   0.256
 7876SOL     OW24526   0.501   1.782   4.758
 7876SOL    HW124527   0.571   1.710   4.760
 7876SOL    HW224528   0.531   1.856   4.698
 7877SOL     OW24529   6.028   3.601   2.511
 7877SOL    HW124530   6.047   3.504   2.527
 7877SOL    HW224531   6.114   3.653   2.515
 7878SOL     OW24532   3.508   4.086   1.181
 7878SOL    HW124533   3.448   4.101   1.101
 7878SOL    HW224534   3.577   4.018   1.158
 7879SOL     OW24535   6.908   1.101   4.909
 7879SOL    HW124536   6.844   1.139   4.841
 7879SOL    HW224537   6.998   1.142   4.896
 7880SOL     OW24538   1.610   6.126   6.366
 7880SOL    HW124539   1.635   6.190   6.439
 7880SOL    HW224540   1.537   6.066   6.399
 7881SOL     OW24541   0.926   5.567   4.549
 7881SOL    HW124542   0.942   5.493   4.615
 7881SOL    HW224543   0.829   5.592   4.551
 7882SOL     OW24544   1.618   4.806   1.423
 7882SOL    HW124545   1.590   4.820   1.518
 7882SOL    HW224546   1.642   4.893   1.382
 7883SOL     OW24547   3.211   1.807   2.417
 7883SOL    HW124548   3.297   1.766   2.448
 7883SOL    HW224549   3.230   1.884   2.357
 7884SOL     OW24550   1.107   2.939   4.563
 7884SOL    HW124551   1.114   2.999   4.642
 7884SOL    HW224552   1.049   2.861   4.585
 7885SOL     OW24553   6.104   5.377   2.289
 7885SOL    HW124554   6.058   5.421   2.367
 7885SOL    HW224555   6.154   5.296   2.322
 7886SOL     OW24556   4.026   4.775   2.778
 7886SOL    HW124557   4.073   4.818   2.701
 7886SOL    HW224558   4.056   4.680   2.786
 7887SOL     OW24559   0.991   3.233   0.896
 7887SOL    HW124560   1.080   3.188   0.901
 7887SOL    HW224561   0.923   3.169   0.861
 7888SOL     OW24562   6.985   1.538   4.849
 7888SOL    HW124563   6.905   1.547   4.908
 7888SOL    HW224564   0.021   1.466   4.884
 7889SOL     OW24565   5.387   5.108   0.484
 7889SOL    HW124566   5.415   5.171   0.412
 7889SOL    HW224567   5.349   5.159   0.560
 7890SOL     OW24568   2.220   2.920   2.932
 7890SOL    HW124569   2.131   2.908   2.975
 7890SOL    HW224570   2.231   3.016   2.905
 7891SOL     OW24571   6.464   1.300   4.809
 7891SOL    HW124572   6.495   1.246   4.731
 7891SOL    HW224573   6.503   1.392   4.803
 7892SOL     OW24574   1.331   1.768   4.890
 7892SOL    HW124575   1.309   1.838   4.822
 7892SOL    HW224576   1.427   1.778   4.918
 7893SOL     OW24577   5.935   6.482   0.930
 7893SOL    HW124578   5.980   6.568   0.955
 7893SOL    HW224579   6.002   6.408   0.929
 7894SOL     OW24580   3.411   1.033   6.103
 7894SOL    HW124581   3.414   1.082   6.016
 7894SOL    HW224582   3.350   0.954   6.095
 7895SOL     OW24583   6.312   6.649   2.868
 7895SOL    HW124584   6.367   6.703   2.933
 7895SOL    HW224585   6.218   6.646   2.900
 7896SOL     OW24586   2.510   1.695   0.595
 7896SOL    HW124587   2.450   1.739   0.662
 7896SOL    HW224588   2.600   1.680   0.636
 7897SOL     OW24589   4.830   1.363   1.237
 7897SOL    HW124590   4.780   1.285   1.200
 7897SOL    HW224591   4.766   1.423   1.285
 7898SOL     OW24592   4.828   6.482   3.191
 7898SOL    HW124593   4.804   6.471   3.094
 7898SOL    HW224594   4.928   6.490   3.200
 7899SOL     OW24595   6.031   4.445   3.029
 7899SOL    HW124596   6.053   4.474   2.935
 7899SOL    HW224597   5.933   4.460   3.045
 7900SOL     OW24598   0.410   3.567   0.365
 7900SOL    HW124599   0.396   3.470   0.342
 7900SOL    HW224600   0.357   3.624   0.303
 7901SOL     OW24601   0.387   2.092   0.255
 7901SOL    HW124602   0.404   2.190   0.263
 7901SOL    HW224603   0.408   2.062   0.162
 7902SOL     OW24604   1.704   0.064   1.238
 7902SOL    HW124605   1.642   0.131   1.280
 7902SOL    HW224606   1.718   7.011   1.301
 7903SOL     OW24607   3.062   1.997   5.498
 7903SOL    HW124608   3.123   1.999   5.577
 7903SOL    HW224609   3.114   2.018   5.415
 7904SOL     OW24610   4.877   3.015   2.778
 7904SOL    HW124611   4.883   3.082   2.852
 7904SOL    HW224612   4.882   3.063   2.690
 7905SOL     OW24613   6.195   2.278   1.456
 7905SOL    HW124614   6.196   2.184   1.492
 7905SOL    HW224615   6.275   2.328   1.489
 7906SOL     OW24616   0.748   5.563   6.597
 7906SOL    HW124617   0.653   5.587   6.576
 7906SOL    HW224618   0.762   5.563   6.696
 7907SOL     OW24619   6.194   6.430   3.102
 7907SOL    HW124620   6.268   6.493   3.126
 7907SOL    HW224621   6.119   6.480   3.059
 7908SOL     OW24622   2.079   0.555   6.203
 7908SOL    HW124623   2.142   0.480   6.223
 7908SOL    HW224624   2.130   0.640   6.194
 7909SOL     OW24625   6.672   3.192   1.473
 7909SOL    HW124626   6.737   3.267   1.463
 7909SOL    HW224627   6.706   3.111   1.426
 7910SOL     OW24628   1.703   4.938   4.885
 7910SOL    HW124629   1.632   4.881   4.925
 7910SOL    HW224630   1.684   5.034   4.903
 7911SOL     OW24631   5.940   4.752   5.712
 7911SOL    HW124632   5.884   4.717   5.787
 7911SOL    HW224633   6.035   4.724   5.726
 7912SOL     OW24634   5.793   5.791   0.672
 7912SOL    HW124635   5.857   5.768   0.746
 7912SOL    HW224636   5.807   5.886   0.645
 7913SOL     OW24637   1.553   5.015   6.663
 7913SOL    HW124638   1.525   5.029   6.758
 7913SOL    HW224639   1.622   5.083   6.638
 7914SOL     OW24640   0.985   0.011   4.543
 7914SOL    HW124641   0.945   0.037   4.631
 7914SOL    HW224642   0.924   0.040   4.469
 7915SOL     OW24643   2.792   4.985   2.259
 7915SOL    HW124644   2.751   5.052   2.197
 7915SOL    HW224645   2.782   4.894   2.220
 7916SOL     OW24646   0.880   0.135   3.610
 7916SOL    HW124647   0.921   0.164   3.697
 7916SOL    HW224648   0.876   0.035   3.607
 7917SOL     OW24649   4.911   2.095   2.365
 7917SOL    HW124650   4.973   2.154   2.313
 7917SOL    HW224651   4.836   2.150   2.402
 7918SOL     OW24652   1.883   2.992   2.760
 7918SOL    HW124653   1.957   3.003   2.693
 7918SOL    HW224654   1.795   3.000   2.714
 7919SOL     OW24655   0.805   6.429   4.771
 7919SOL    HW124656   0.783   6.392   4.681
 7919SOL    HW224657   0.895   6.472   4.768
 7920SOL     OW24658   5.189   0.235   1.313
 7920SOL    HW124659   5.258   0.275   1.253
 7920SOL    HW224660   5.160   0.147   1.278
 7921SOL     OW24661   5.191   2.694   0.592
 7921SOL    HW124662   5.225   2.681   0.499
 7921SOL    HW224663   5.106   2.748   0.590
 7922SOL     OW24664   2.561   0.039   2.635
 7922SOL    HW124665   2.596   0.028   2.543
 7922SOL    HW224666   2.523   0.131   2.646
 7923SOL     OW24667   4.538   0.621   0.507
 7923SOL    HW124668   4.633   0.590   0.502
 7923SOL    HW224669   4.532   0.699   0.569
 7924SOL     OW24670   5.723   6.174   7.022
 7924SOL    HW124671   5.770   6.085   7.021
 7924SOL    HW224672   5.656   6.176   0.072
 7925SOL     OW24673   1.308   4.783   6.364
 7925SOL    HW124674   1.364   4.779   6.447
 7925SOL    HW224675   1.268   4.693   6.346
 7926SOL     OW24676   5.261   5.944   5.751
 7926SOL    HW124677   5.347   5.994   5.758
 7926SOL    HW224678   5.274   5.850   5.783
 7927SOL     OW24679   4.727   6.917   3.640
 7927SOL    HW124680   4.695   6.836   3.688
 7927SOL    HW224681   4.727   6.900   3.541
 7928SOL     OW24682   5.782   2.095   3.942
 7928SOL    HW124683   5.783   2.156   3.862
 7928SOL    HW224684   5.750   2.145   4.022
 7929SOL     OW24685   4.654   4.208   5.882
 7929SOL    HW124686   4.679   4.290   5.934
 7929SOL    HW224687   4.667   4.128   5.940
 7930SOL     OW24688   4.070   5.705   6.967
 7930SOL    HW124689   4.116   5.627   7.010
 7930SOL    HW224690   4.130   5.785   6.972
 7931SOL     OW24691   4.969   1.179   0.947
 7931SOL    HW124692   4.986   1.096   0.999
 7931SOL    HW224693   5.045   1.196   0.885
 7932SOL     OW24694   1.153   3.798   1.419
 7932SOL    HW124695   1.160   3.746   1.334
 7932SOL    HW224696   1.066   3.848   1.419
 7933SOL     OW24697   1.134   1.823   6.957
 7933SOL    HW124698   1.121   1.798   6.861
 7933SOL    HW224699   1.054   1.872   6.990
 7934SOL     OW24700   6.927   5.258   0.826
 7934SOL    HW124701   6.831   5.285   0.820
 7934SOL    HW224702   6.934   5.158   0.823
 7935SOL     OW24703   6.598   3.287   3.104
 7935SOL    HW124704   6.555   3.265   3.191
 7935SOL    HW224705   6.575   3.216   3.037
 7936SOL     OW24706   2.439   6.246   3.308
 7936SOL    HW124707   2.489   6.250   3.222
 7936SOL    HW224708   2.478   6.175   3.366
 7937SOL     OW24709   4.343   1.196   1.265
 7937SOL    HW124710   4.292   1.191   1.351
 7937SOL    HW224711   4.441   1.203   1.284
 7938SOL     OW24712   2.406   6.935   3.082
 7938SOL    HW124713   2.444   6.880   3.156
 7938SOL    HW224714   2.481   6.974   3.028
 7939SOL     OW24715   1.467   0.944   2.661
 7939SOL    HW124716   1.541   0.877   2.650
 7939SOL    HW224717   1.383   0.898   2.687
 7940SOL     OW24718   6.349   1.656   4.928
 7940SOL    HW124719   6.262   1.633   4.887
 7940SOL    HW224720   6.360   1.606   5.014
 7941SOL     OW24721   3.564   6.981   0.920
 7941SOL    HW124722   3.507   0.004   0.987
 7941SOL    HW224723   3.640   0.017   0.894
 7942SOL     OW24724   1.321   4.226   0.602
 7942SOL    HW124725   1.381   4.251   0.526
 7942SOL    HW224726   1.244   4.289   0.607
 7943SOL     OW24727   1.164   6.345   6.106
 7943SOL    HW124728   1.141   6.251   6.133
 7943SOL    HW224729   1.191   6.397   6.186
 7944SOL     OW24730   1.893   1.699   1.447
 7944SOL    HW124731   1.793   1.690   1.446
 7944SOL    HW224732   1.934   1.619   1.404
 7945SOL     OW24733   6.253   3.431   2.750
 7945SOL    HW124734   6.202   3.396   2.672
 7945SOL    HW224735   6.338   3.379   2.762
 7946SOL     OW24736   4.390   1.505   6.294
 7946SOL    HW124737   4.457   1.485   6.222
 7946SOL    HW224738   4.320   1.567   6.257
 7947SOL     OW24739   0.022   3.624   6.124
 7947SOL    HW124740   0.105   3.667   6.159
 7947SOL    HW224741   0.031   3.609   6.025
 7948SOL     OW24742   1.353   5.961   0.885
 7948SOL    HW124743   1.319   5.958   0.791
 7948SOL    HW224744   1.277   5.951   0.948
 7949SOL     OW24745   2.769   5.914   5.630
 7949SOL    HW124746   2.726   5.828   5.660
 7949SOL    HW224747   2.868   5.902   5.624
 7950SOL     OW24748   6.562   4.131   5.578
 7950SOL    HW124749   6.627   4.056   5.570
 7950SOL    HW224750   6.601   4.213   5.534
 7951SOL     OW24751   4.046   0.110   2.865
 7951SOL    HW124752   3.983   0.145   2.796
 7951SOL    HW224753   4.048   0.010   2.861
 7952SOL     OW24754   6.597   3.389   5.008
 7952SOL    HW124755   6.500   3.409   5.017
 7952SOL    HW224756   6.630   3.345   5.093
 7953SOL     OW24757   1.867   7.007   0.427
 7953SOL    HW124758   1.877   0.083   0.433
 7953SOL    HW224759   1.786   6.979   0.478
 7954SOL     OW24760   3.348   2.954   0.153
 7954SOL    HW124761   3.409   2.903   0.214
 7954SOL    HW224762   3.259   2.908   0.148
 7955SOL     OW24763   0.555   1.534   6.760
 7955SOL    HW124764   0.524   1.543   6.666
 7955SOL    HW224765   0.654   1.541   6.764
 7956SOL     OW24766   0.335   0.100   0.405
 7956SOL    HW124767   0.313   0.175   0.467
 7956SOL    HW224768   0.300   0.014   0.443
 7957SOL     OW24769   5.260   1.270   5.816
 7957SOL    HW124770   5.232   1.305   5.727
 7957SOL    HW224771   5.180   1.234   5.864
 7958SOL     OW24772   4.332   2.320   0.237
 7958SOL    HW124773   4.401   2.249   0.249
 7958SOL    HW224774   4.312   2.332   0.140
 7959SOL     OW24775   4.849   2.832   6.965
 7959SOL    HW124776   4.778   2.851   0.009
 7959SOL    HW224777   4.840   2.895   6.888
 7960SOL     OW24778   1.076   1.462   4.951
 7960SOL    HW124779   1.056   1.534   5.018
 7960SOL    HW224780   0.992   1.439   4.902
 7961SOL     OW24781   6.069   0.132   0.623
 7961SOL    HW124782   6.033   0.219   0.656
 7961SOL    HW224783   6.064   0.131   0.523
 7962SOL     OW24784   6.176   6.550   4.799
 7962SOL    HW124785   6.234   6.564   4.879
 7962SOL    HW224786   6.100   6.614   4.801
 7963SOL     OW24787   5.665   6.247   2.999
 7963SOL    HW124788   5.755   6.289   2.996
 7963SOL    HW224789   5.651   6.191   2.917
 7964SOL     OW24790   6.802   3.389   1.153
 7964SOL    HW124791   6.806   3.370   1.251
 7964SOL    HW224792   6.838   3.480   1.135
 7965SOL     OW24793   4.835   1.835   6.679
 7965SOL    HW124794   4.908   1.895   6.646
 7965SOL    HW224795   4.819   1.763   6.612
 7966SOL     OW24796   5.955   3.235   4.901
 7966SOL    HW124797   5.922   3.161   4.960
 7966SOL    HW224798   5.937   3.212   4.805
 7967SOL     OW24799   1.660   4.618   1.061
 7967SOL    HW124800   1.683   4.520   1.057
 7967SOL    HW224801   1.597   4.635   1.136
 7968SOL     OW24802   2.275   2.533   3.517
 7968SOL    HW124803   2.235   2.490   3.437
 7968SOL    HW224804   2.204   2.580   3.569
 7969SOL     OW24805   3.313   4.408   6.248
 7969SOL    HW124806   3.222   4.376   6.272
 7969SOL    HW224807   3.343   4.476   6.315
 7970SOL     OW24808   6.405   2.931   3.579
 7970SOL    HW124809   6.438   2.985   3.657
 7970SOL    HW224810   6.356   2.851   3.613
 7971SOL     OW24811   3.208   1.002   6.773
 7971SOL    HW124812   3.123   0.981   6.725
 7971SOL    HW224813   3.227   0.931   6.841
 7972SOL     OW24814   3.993   3.960   4.380
 7972SOL    HW124815   3.934   3.960   4.461
 7972SOL    HW224816   4.055   4.039   4.385
 7973SOL     OW24817   6.632   4.853   2.217
 7973SOL    HW124818   6.560   4.820   2.278
 7973SOL    HW224819   6.591   4.884   2.131
 7974SOL     OW24820   0.529   3.669   4.902
 7974SOL    HW124821   0.508   3.708   4.992
 7974SOL    HW224822   0.445   3.661   4.849
 7975SOL     OW24823   4.375   0.104   0.004
 7975SOL    HW124824   4.388   0.165   6.950
 7975SOL    HW224825   4.394   0.010   7.000
 7976SOL     OW24826   0.963   0.457   0.307
 7976SOL    HW124827   0.911   0.487   0.387
 7976SOL    HW224828   0.952   0.358   0.297
 7977SOL     OW24829   5.167   5.207   2.694
 7977SOL    HW124830   5.087   5.170   2.647
 7977SOL    HW224831   5.244   5.213   2.630
 7978SOL     OW24832   0.089   3.750   1.499
 7978SOL    HW124833   0.092   3.675   1.433
 7978SOL    HW224834   0.150   3.824   1.469
 7979SOL     OW24835   2.941   2.651   5.449
 7979SOL    HW124836   2.881   2.731   5.441
 7979SOL    HW224837   2.894   2.580   5.502
 7980SOL     OW24838   3.507   5.308   1.929
 7980SOL    HW124839   3.490   5.211   1.914
 7980SOL    HW224840   3.436   5.362   1.883
 7981SOL     OW24841   1.553   3.716   4.888
 7981SOL    HW124842   1.634   3.683   4.839
 7981SOL    HW224843   1.533   3.654   4.964
 7982SOL     OW24844   6.776   0.950   6.848
 7982SOL    HW124845   6.762   0.905   6.936
 7982SOL    HW224846   6.704   1.017   6.833
 7983SOL     OW24847   3.585   0.957   2.037
 7983SOL    HW124848   3.653   1.025   2.064
 7983SOL    HW224849   3.526   0.996   1.966
 7984SOL     OW24850   6.485   2.832   3.215
 7984SOL    HW124851   6.393   2.792   3.217
 7984SOL    HW224852   6.549   2.767   3.174
 7985SOL     OW24853   3.017   3.037   5.778
 7985SOL    HW124854   3.030   3.135   5.791
 7985SOL    HW224855   3.049   2.988   5.859
 7986SOL     OW24856   3.943   0.958   3.713
 7986SOL    HW124857   4.004   0.947   3.791
 7986SOL    HW224858   3.948   1.052   3.679
 7987SOL     OW24859   1.155   3.173   6.542
 7987SOL    HW124860   1.214   3.129   6.609
 7987SOL    HW224861   1.059   3.156   6.566
 7988SOL     OW24862   6.319   0.871   0.977
 7988SOL    HW124863   6.248   0.889   0.909
 7988SOL    HW224864   6.409   0.879   0.935
 7989SOL     OW24865   0.372   4.744   1.450
 7989SOL    HW124866   0.284   4.697   1.446
 7989SOL    HW224867   0.427   4.706   1.525
 7990SOL     OW24868   4.553   5.127   4.744
 7990SOL    HW124869   4.611   5.065   4.798
 7990SOL    HW224870   4.514   5.197   4.803
 7991SOL     OW24871   5.514   0.720   4.348
 7991SOL    HW124872   5.497   0.628   4.383
 7991SOL    HW224873   5.548   0.715   4.254
 7992SOL     OW24874   1.889   0.559   6.773
 7992SOL    HW124875   1.818   0.488   6.771
 7992SOL    HW224876   1.847   0.647   6.793
 7993SOL     OW24877   6.471   6.282   0.873
 7993SOL    HW124878   6.545   6.284   0.940
 7993SOL    HW224879   6.403   6.352   0.896
 7994SOL     OW24880   0.339   0.798   4.582
 7994SOL    HW124881   0.266   0.807   4.515
 7994SOL    HW224882   0.312   0.842   4.667
 7995SOL     OW24883   0.299   5.808   1.261
 7995SOL    HW124884   0.248   5.722   1.262
 7995SOL    HW224885   0.256   5.874   1.323
 7996SOL     OW24886   2.055   6.463   3.681
 7996SOL    HW124887   2.078   6.400   3.607
 7996SOL    HW224888   2.068   6.417   3.769
 7997SOL     OW24889   2.130   1.489   5.889
 7997SOL    HW124890   2.065   1.556   5.925
 7997SOL    HW224891   2.091   1.397   5.894
 7998SOL     OW24892   2.166   0.493   0.909
 7998SOL    HW124893   2.216   0.406   0.910
 7998SOL    HW224894   2.223   0.565   0.947
 7999SOL     OW24895   0.397   0.687   3.066
 7999SOL    HW124896   0.459   0.693   3.144
 7999SOL    HW224897   0.384   0.778   3.026
 8000SOL     OW24898   4.120   5.942   0.793
 8000SOL    HW124899   4.116   5.854   0.745
 8000SOL    HW224900   4.118   6.016   0.727
 8001SOL     OW24901   4.908   4.335   1.717
 8001SOL    HW124902   4.976   4.343   1.791
 8001SOL    HW224903   4.829   4.392   1.739
 8002SOL     OW24904   1.389   0.519   4.710
 8002SOL    HW124905   1.451   0.488   4.638
 8002SOL    HW224906   1.342   0.602   4.680
 8003SOL     OW24907   2.582   5.418   3.376
 8003SOL    HW124908   2.611   5.339   3.323
 8003SOL    HW224909   2.501   5.459   3.334
 8004SOL     OW24910   2.137   3.313   4.066
 8004SOL    HW124911   2.177   3.316   3.975
 8004SOL    HW224912   2.142   3.404   4.107
 8005SOL     OW24913   2.820   0.188   4.147
 8005SOL    HW124914   2.803   0.137   4.063
 8005SOL    HW224915   2.735   0.229   4.179
 8006SOL     OW24916   5.130   5.292   6.211
 8006SOL    HW124917   5.047   5.278   6.156
 8006SOL    HW224918   5.177   5.204   6.224
 8007SOL     OW24919   6.973   0.678   0.550
 8007SOL    HW124920   6.918   0.626   0.485
 8007SOL    HW224921   6.952   0.775   0.541
 8008SOL     OW24922   4.473   4.667   1.183
 8008SOL    HW124923   4.404   4.662   1.255
 8008SOL    HW224924   4.495   4.574   1.152
 8009SOL     OW24925   6.763   1.327   1.581
 8009SOL    HW124926   6.776   1.242   1.529
 8009SOL    HW224927   6.733   1.304   1.673
 8010SOL     OW24928   3.419   0.469   6.221
 8010SOL    HW124929   3.501   0.526   6.223
 8010SOL    HW224930   3.398   0.438   6.313
 8011SOL     OW24931   3.945   2.121   2.653
 8011SOL    HW124932   3.893   2.121   2.568
 8011SOL    HW224933   4.036   2.159   2.637
 8012SOL     OW24934   6.373   0.763   4.833
 8012SOL    HW124935   6.373   0.693   4.762
 8012SOL    HW224936   6.373   0.854   4.790
 8013SOL     OW24937   3.777   0.017   3.361
 8013SOL    HW124938   3.808   0.104   3.401
 8013SOL    HW224939   3.846   6.971   3.376
 8014SOL     OW24940   2.507   2.627   3.306
 8014SOL    HW124941   2.534   2.591   3.217
 8014SOL    HW224942   2.482   2.724   3.296
 8015SOL     OW24943   3.323   6.539   4.555
 8015SOL    HW124944   3.284   6.463   4.503
 8015SOL    HW224945   3.391   6.586   4.499
 8016SOL     OW24946   3.278   2.654   5.593
 8016SOL    HW124947   3.303   2.571   5.542
 8016SOL    HW224948   3.199   2.697   5.550
 8017SOL     OW24949   6.419   6.156   1.257
 8017SOL    HW124950   6.382   6.224   1.321
 8017SOL    HW224951   6.512   6.131   1.285
 8018SOL     OW24952   2.728   3.807   1.006
 8018SOL    HW124953   2.805   3.825   1.068
 8018SOL    HW224954   2.750   3.729   0.947
 8019SOL     OW24955   2.263   3.501   0.443
 8019SOL    HW124956   2.186   3.446   0.410
 8019SOL    HW224957   2.336   3.441   0.473
 8020SOL     OW24958   0.058   0.160   6.839
 8020SOL    HW124959   0.058   0.145   6.938
 8020SOL    HW224960   0.150   0.144   6.804
 8021SOL     OW24961   1.066   3.396   0.674
 8021SOL    HW124962   1.009   3.467   0.715
 8021SOL    HW224963   1.051   3.309   0.721
 8022SOL     OW24964   4.071   6.610   2.167
 8022SOL    HW124965   4.100   6.689   2.221
 8022SOL    HW224966   4.054   6.532   2.227
 8023SOL     OW24967   4.141   5.084   2.263
 8023SOL    HW124968   4.110   4.992   2.241
 8023SOL    HW224969   4.079   5.124   2.332
 8024SOL     OW24970   2.548   1.232   6.721
 8024SOL    HW124971   2.455   1.269   6.727
 8024SOL    HW224972   2.543   1.134   6.700
 8025SOL     OW24973   0.937   6.521   1.307
 8025SOL    HW124974   0.866   6.514   1.237
 8025SOL    HW224975   0.894   6.524   1.398
 8026SOL     OW24976   0.643   6.694   6.318
 8026SOL    HW124977   0.686   6.607   6.340
 8026SOL    HW224978   0.616   6.741   6.403
 8027SOL     OW24979   4.027   0.033   6.647
 8027SOL    HW124980   4.014   0.048   6.549
 8027SOL    HW224981   4.027   6.959   6.667
 8028SOL     OW24982   3.784   5.929   6.577
 8028SOL    HW124983   3.773   6.017   6.625
 8028SOL    HW224984   3.869   5.930   6.525
 8029SOL     OW24985   0.576   0.030   1.827
 8029SOL    HW124986   0.637   6.974   1.819
 8029SOL    HW224987   0.483   7.022   1.847
 8030SOL     OW24988   0.560   4.209   1.077
 8030SOL    HW124989   0.525   4.294   1.038
 8030SOL    HW224990   0.506   4.132   1.044
 8031SOL     OW24991   6.655   6.901   2.392
 8031SOL    HW124992   6.633   6.803   2.389
 8031SOL    HW224993   6.613   6.947   2.314
 8032SOL     OW24994   0.163   3.012   0.462
 8032SOL    HW124995   0.070   2.982   0.442
 8032SOL    HW224996   0.164   3.111   0.477
 8033SOL     OW24997   3.337   4.352   1.294
 8033SOL    HW124998   3.247   4.340   1.254
 8033SOL    HW224999   3.344   4.443   1.335
 8034SOL     OW25000   0.894   0.273   5.735
 8034SOL    HW125001   0.904   0.340   5.662
 8034SOL    HW225002   0.802   0.234   5.732
 8035SOL     OW25003   5.983   0.046   4.488
 8035SOL    HW125004   5.901   0.080   4.441
 8035SOL    HW225005   5.987   0.084   4.580
 8036SOL     OW25006   4.782   3.979   3.996
 8036SOL    HW125007   4.840   3.922   3.938
 8036SOL    HW225008   4.788   3.948   4.091
 8037SOL     OW25009   2.434   1.728   6.167
 8037SOL    HW125010   2.437   1.687   6.075
 8037SOL    HW225011   2.502   1.685   6.225
 8038SOL     OW25012   6.344   5.594   2.056
 8038SOL    HW125013   6.428   5.597   2.002
 8038SOL    HW225014   6.266   5.573   1.996
 8039SOL     OW25015   1.982   2.442   4.981
 8039SOL    HW125016   2.007   2.520   5.038
 8039SOL    HW225017   1.963   2.363   5.039
 8040SOL     OW25018   0.697   6.431   6.420
 8040SOL    HW125019   0.713   6.377   6.338
 8040SOL    HW225020   0.676   6.371   6.497
 8041SOL     OW25021   3.167   1.374   2.980
 8041SOL    HW125022   3.260   1.374   3.018
 8041SOL    HW225023   3.103   1.407   3.049
 8042SOL     OW25024   3.814   4.001   5.962
 8042SOL    HW125025   3.884   4.066   5.991
 8042SOL    HW225026   3.744   3.993   6.034
 8043SOL     OW25027   4.913   5.012   0.004
 8043SOL    HW125028   4.869   5.081   0.061
 8043SOL    HW225029   4.946   4.937   0.062
 8044SOL     OW25030   1.385   3.329   1.688
 8044SOL    HW125031   1.434   3.290   1.611
 8044SOL    HW225032   1.287   3.312   1.677
 8045SOL     OW25033   6.276   3.438   5.511
 8045SOL    HW125034   6.217   3.452   5.432
 8045SOL    HW225035   6.242   3.491   5.588
 8046SOL     OW25036   0.195   4.126   1.286
 8046SOL    HW125037   0.221   4.222   1.284
 8046SOL    HW225038   0.145   4.103   1.203
 8047SOL     OW25039   3.288   6.446   6.664
 8047SOL    HW125040   3.216   6.490   6.719
 8047SOL    HW225041   3.253   6.429   6.572
 8048SOL     OW25042   3.824   1.806   6.747
 8048SOL    HW125043   3.734   1.765   6.762
 8048SOL    HW225044   3.813   1.896   6.705
 8049SOL     OW25045   1.923   1.311   0.733
 8049SOL    HW125046   1.972   1.270   0.656
 8049SOL    HW225047   1.863   1.243   0.774
 8050SOL     OW25048   0.532   5.472   5.824
 8050SOL    HW125049   0.432   5.466   5.836
 8050SOL    HW225050   0.573   5.514   5.905
 8051SOL     OW25051   4.670   6.442   2.960
 8051SOL    HW125052   4.579   6.401   2.956
 8051SOL    HW225053   4.730   6.397   2.894
 8052SOL     OW25054   3.013   1.719   3.327
 8052SOL    HW125055   2.941   1.723   3.258
 8052SOL    HW225056   3.060   1.631   3.322
 8053SOL     OW25057   1.046   2.589   6.476
 8053SOL    HW125058   1.140   2.622   6.465
 8053SOL    HW225059   0.983   2.657   6.439
 8054SOL     OW25060   5.132   3.651   5.303
 8054SOL    HW125061   5.200   3.595   5.350
 8054SOL    HW225062   5.131   3.742   5.344
 8055SOL     OW25063   6.524   6.961   6.855
 8055SOL    HW125064   6.618   6.983   6.881
 8055SOL    HW225065   6.464   0.015   6.878
 8056SOL     OW25066   2.631   1.745   3.818
 8056SOL    HW125067   2.704   1.766   3.753
 8056SOL    HW225068   2.631   1.647   3.838
 8057SOL     OW25069   3.060   2.094   2.150
 8057SOL    HW125070   3.125   2.114   2.223
 8057SOL    HW225071   3.004   2.175   2.132
 8058SOL     OW25072   3.708   6.290   1.674
 8058SOL    HW125073   3.642   6.353   1.634
 8058SOL    HW225074   3.676   6.263   1.765
 8059SOL     OW25075   3.956   3.481   5.617
 8059SOL    HW125076   3.908   3.567   5.600
 8059SOL    HW225077   3.963   3.465   5.715
 8060SOL     OW25078   0.497   0.755   6.134
 8060SOL    HW125079   0.578   0.787   6.084
 8060SOL    HW225080   0.516   0.757   6.232
 8061SOL     OW25081   6.955   0.988   1.779
 8061SOL    HW125082   6.894   1.014   1.855
 8061SOL    HW225083   6.999   1.071   1.744
 8062SOL     OW25084   4.536   4.786   5.545
 8062SOL    HW125085   4.503   4.779   5.639
 8062SOL    HW225086   4.625   4.832   5.544
 8063SOL     OW25087   2.301   4.597   2.961
 8063SOL    HW125088   2.278   4.508   3.001
 8063SOL    HW225089   2.381   4.587   2.901
 8064SOL     OW25090   6.965   2.425   0.685
 8064SOL    HW125091   6.924   2.395   0.598
 8064SOL    HW225092   0.039   2.405   0.685
 8065SOL     OW25093   4.831   0.094   6.577
 8065SOL    HW125094   4.819   0.187   6.614
 8065SOL    HW225095   4.902   0.047   6.629
 8066SOL     OW25096   0.097   0.469   6.060
 8066SOL    HW125097   0.078   0.391   6.120
 8066SOL    HW225098   0.150   0.538   6.110
 8067SOL     OW25099   5.328   0.428   4.302
 8067SOL    HW125100   5.357   0.519   4.272
 8067SOL    HW225101   5.408   0.376   4.332
 8068SOL     OW25102   6.812   3.790   1.657
 8068SOL    HW125103   6.819   3.693   1.683
 8068SOL    HW225104   6.857   3.804   1.569
 8069SOL     OW25105   1.364   2.652   2.002
 8069SOL    HW125106   1.353   2.655   1.903
 8069SOL    HW225107   1.308   2.578   2.039
 8070SOL     OW25108   5.482   3.791   1.388
 8070SOL    HW125109   5.499   3.883   1.353
 8070SOL    HW225110   5.502   3.724   1.317
 8071SOL     OW25111   3.152   0.582   5.927
 8071SOL    HW125112   3.209   0.549   5.853
 8071SOL    HW225113   3.058   0.593   5.895
 8072SOL     OW25114   2.163   2.377   5.697
 8072SOL    HW125115   2.240   2.407   5.753
 8072SOL    HW225116   2.186   2.388   5.600
 8073SOL     OW25117   5.650   0.464   6.268
 8073SOL    HW125118   5.593   0.382   6.273
 8073SOL    HW225119   5.738   0.445   6.312
 8074SOL     OW25120   6.486   0.833   0.670
 8074SOL    HW125121   6.410   0.770   0.688
 8074SOL    HW225122   6.571   0.794   0.706
 8075SOL     OW25123   0.368   0.328   0.895
 8075SOL    HW125124   0.371   0.406   0.958
 8075SOL    HW225125   0.299   0.346   0.824
 8076SOL     OW25126   6.547   6.323   0.546
 8076SOL    HW125127   6.562   6.374   0.630
 8076SOL    HW225128   6.585   6.231   0.554
 8077SOL     OW25129   6.011   4.136   1.443
 8077SOL    HW125130   6.075   4.187   1.500
 8077SOL    HW225131   5.958   4.200   1.386
 8078SOL     OW25132   6.342   0.993   1.475
 8078SOL    HW125133   6.381   0.961   1.388
 8078SOL    HW225134   6.263   1.050   1.457
 8079SOL     OW25135   0.394   0.943   6.921
 8079SOL    HW125136   0.441   1.016   6.871
 8079SOL    HW225137   0.460   0.895   6.979
 8080SOL     OW25138   1.683   3.912   3.815
 8080SOL    HW125139   1.757   3.967   3.777
 8080SOL    HW225140   1.596   3.958   3.798
 8081SOL     OW25141   6.526   0.222   5.524
 8081SOL    HW125142   6.558   0.286   5.594
 8081SOL    HW225143   6.552   0.129   5.551
 8082SOL     OW25144   4.216   2.168   4.767
 8082SOL    HW125145   4.251   2.112   4.692
 8082SOL    HW225146   4.293   2.214   4.813
 8083SOL     OW25147   6.731   2.730   4.535
 8083SOL    HW125148   6.815   2.756   4.489
 8083SOL    HW225149   6.717   2.787   4.617
 8084SOL     OW25150   5.388   1.499   6.590
 8084SOL    HW125151   5.414   1.535   6.680
 8084SOL    HW225152   5.374   1.575   6.526
 8085SOL     OW25153   1.731   5.924   4.042
 8085SOL    HW125154   1.641   5.925   4.087
 8085SOL    HW225155   1.748   5.834   4.003
 8086SOL     OW25156   6.917   2.193   2.604
 8086SOL    HW125157   6.941   2.224   2.696
 8086SOL    HW225158   6.941   2.096   2.594
 8087SOL     OW25159   7.023   1.325   6.605
 8087SOL    HW125160   0.064   1.359   6.537
 8087SOL    HW225161   0.042   1.328   6.696
 8088SOL     OW25162   0.107   6.988   5.095
 8088SOL    HW125163   0.018   6.955   5.128
 8088SOL    HW225164   0.149   0.021   5.166
 8089SOL     OW25165   6.532   1.653   6.939
 8089SOL    HW125166   6.459   1.584   6.939
 8089SOL    HW225167   6.539   1.693   0.006
 8090SOL     OW25168   4.501   2.616   4.936
 8090SOL    HW125169   4.427   2.679   4.962
 8090SOL    HW225170   4.582   2.669   4.911
 8091SOL     OW25171   0.359   3.884   4.668
 8091SOL    HW125172   0.382   3.911   4.574
 8091SOL    HW225173   0.427   3.921   4.731
 8092SOL     OW25174   4.836   0.197   5.625
 8092SOL    HW125175   4.742   0.182   5.656
 8092SOL    HW225176   4.899   0.166   5.696
 8093SOL     OW25177   3.190   6.338   3.329
 8093SOL    HW125178   3.207   6.332   3.428
 8093SOL    HW225179   3.259   6.285   3.280
 8094SOL     OW25180   1.983   3.865   4.371
 8094SOL    HW125181   1.992   3.964   4.384
 8094SOL    HW225182   2.025   3.839   4.284
 8095SOL     OW25183   1.042   5.331   4.962
 8095SOL    HW125184   1.142   5.342   4.959
 8095SOL    HW225185   1.013   5.312   5.056
 8096SOL     OW25186   0.772   4.812   1.149
 8096SOL    HW125187   0.826   4.812   1.064
 8096SOL    HW225188   0.804   4.738   1.208
 8097SOL     OW25189   4.662   6.405   6.809
 8097SOL    HW125190   4.638   6.345   6.885
 8097SOL    HW225191   4.706   6.352   6.736
 8098SOL     OW25192   2.192   5.907   4.731
 8098SOL    HW125193   2.188   5.811   4.758
 8098SOL    HW225194   2.286   5.929   4.702
 8099SOL     OW25195   2.014   4.259   2.672
 8099SOL    HW125196   1.981   4.354   2.666
 8099SOL    HW225197   2.092   4.256   2.734
 8100SOL     OW25198   6.996   0.360   0.381
 8100SOL    HW125199   0.001   0.400   0.294
 8100SOL    HW225200   6.969   0.265   0.367
 8101SOL     OW25201   1.960   5.978   0.527
 8101SOL    HW125202   1.936   6.017   0.438
 8101SOL    HW225203   2.030   6.034   0.571
 8102SOL     OW25204   0.760   4.467   4.060
 8102SOL    HW125205   0.727   4.388   4.111
 8102SOL    HW225206   0.859   4.474   4.070
 8103SOL     OW25207   4.303   0.849   1.373
 8103SOL    HW125208   4.375   0.780   1.384
 8103SOL    HW225209   4.334   0.936   1.411
 8104SOL     OW25210   1.194   5.698   6.746
 8104SOL    HW125211   1.179   5.793   6.774
 8104SOL    HW225212   1.144   5.637   6.807
 8105SOL     OW25213   6.961   6.751   3.026
 8105SOL    HW125214   6.872   6.791   3.007
 8105SOL    HW225215   6.956   6.652   3.018
 8106SOL     OW25216   2.973   6.891   6.046
 8106SOL    HW125217   2.920   6.913   6.128
 8106SOL    HW225218   2.946   6.952   5.971
 8107SOL     OW25219   1.248   6.801   0.077
 8107SOL    HW125220   1.232   6.806   0.175
 8107SOL    HW225221   1.202   6.721   0.039
 8108SOL     OW25222   1.555   1.564   0.270
 8108SOL    HW125223   1.530   1.508   0.192
 8108SOL    HW225224   1.485   1.556   0.341
 8109SOL     OW25225   6.787   3.401   2.052
 8109SOL    HW125226   6.798   3.484   1.997
 8109SOL    HW225227   6.815   3.419   2.146
 8110SOL     OW25228   4.489   4.442   0.477
 8110SOL    HW125229   4.501   4.489   0.564
 8110SOL    HW225230   4.509   4.505   0.402
 8111SOL     OW25231   6.295   1.572   2.502
 8111SOL    HW125232   6.315   1.475   2.488
 8111SOL    HW225233   6.380   1.625   2.498
 8112SOL     OW25234   1.667   5.307   6.166
 8112SOL    HW125235   1.633   5.292   6.259
 8112SOL    HW225236   1.611   5.376   6.120
 8113SOL     OW25237   4.941   4.919   6.271
 8113SOL    HW125238   4.910   5.003   6.315
 8113SOL    HW225239   4.995   4.865   6.336
 8114SOL     OW25240   1.974   3.668   2.797
 8114SOL    HW125241   1.889   3.720   2.784
 8114SOL    HW225242   2.023   3.664   2.710
 8115SOL     OW25243   1.744   1.978   5.815
 8115SOL    HW125244   1.774   1.893   5.859
 8115SOL    HW225245   1.822   2.022   5.771
 8116SOL     OW25246   3.918   3.348   1.907
 8116SOL    HW125247   3.987   3.282   1.876
 8116SOL    HW225248   3.909   3.343   2.006
 8117SOL     OW25249   1.720   6.633   3.894
 8117SOL    HW125250   1.779   6.692   3.838
 8117SOL    HW225251   1.630   6.675   3.902
 8118SOL     OW25252   6.849   2.770   6.666
 8118SOL    HW125253   6.910   2.848   6.654
 8118SOL    HW225254   6.801   2.778   6.753
 8119SOL     OW25255   5.248   5.701   6.491
 8119SOL    HW125256   5.201   5.621   6.455
 8119SOL    HW225257   5.345   5.680   6.505
 8120SOL     OW25258   2.456   6.215   2.575
 8120SOL    HW125259   2.396   6.258   2.507
 8120SOL    HW225260   2.478   6.122   2.546
 8121SOL     OW25261   1.948   2.533   2.305
 8121SOL    HW125262   1.931   2.463   2.374
 8121SOL    HW225263   1.889   2.612   2.322
 8122SOL     OW25264   0.812   4.563   1.266
 8122SOL    HW125265   0.842   4.469   1.280
 8122SOL    HW225266   0.822   4.614   1.352
 8123SOL     OW25267   6.844   2.199   6.547
 8123SOL    HW125268   6.776   2.134   6.514
 8123SOL    HW225269   6.894   2.237   6.469
 8124SOL     OW25270   6.284   6.313   5.602
 8124SOL    HW125271   6.257   6.359   5.517
 8124SOL    HW225272   6.324   6.224   5.581
 8125SOL     OW25273   0.886   5.455   1.567
 8125SOL    HW125274   0.878   5.415   1.658
 8125SOL    HW225275   0.843   5.394   1.500
 8126SOL     OW25276   3.252   5.827   4.954
 8126SOL    HW125277   3.155   5.846   4.971
 8126SOL    HW225278   3.275   5.849   4.859
 8127SOL     OW25279   3.910   1.748   6.425
 8127SOL    HW125280   3.953   1.822   6.476
 8127SOL    HW225281   3.957   1.662   6.444
 8128SOL     OW25282   3.078   3.517   0.904
 8128SOL    HW125283   3.159   3.575   0.892
 8128SOL    HW225284   3.101   3.441   0.965
 8129SOL     OW25285   0.569   2.332   3.337
 8129SOL    HW125286   0.643   2.279   3.379
 8129SOL    HW225287   0.553   2.415   3.390
 8130SOL     OW25288   6.806   6.288   6.671
 8130SOL    HW125289   6.901   6.311   6.690
 8130SOL    HW225290   6.773   6.344   6.595
 8131SOL     OW25291   1.451   2.443   0.627
 8131SOL    HW125292   1.416   2.420   0.718
 8131SOL    HW225293   1.541   2.486   0.636
 8132SOL     OW25294   6.508   1.581   4.703
 8132SOL    HW125295   6.493   1.633   4.787
 8132SOL    HW225296   6.459   1.624   4.628
 8133SOL     OW25297   3.933   5.462   1.267
 8133SOL    HW125298   3.996   5.489   1.340
 8133SOL    HW225299   3.848   5.429   1.308
 8134SOL     OW25300   5.918   2.340   6.060
 8134SOL    HW125301   6.011   2.303   6.058
 8134SOL    HW225302   5.856   2.276   6.013
 8135SOL     OW25303   2.075   6.678   2.070
 8135SOL    HW125304   2.137   6.702   1.996
 8135SOL    HW225305   2.120   6.614   2.133
 8136SOL     OW25306   4.587   4.725   2.056
 8136SOL    HW125307   4.525   4.653   2.027
 8136SOL    HW225308   4.658   4.687   2.115
 8137SOL     OW25309   4.699   1.711   6.314
 8137SOL    HW125310   4.642   1.792   6.325
 8137SOL    HW225311   4.792   1.738   6.291
 8138SOL     OW25312   5.385   1.149   2.198
 8138SOL    HW125313   5.306   1.092   2.176
 8138SOL    HW225314   5.446   1.100   2.260
 8139SOL     OW25315   0.759   1.404   3.728
 8139SOL    HW125316   0.678   1.436   3.678
 8139SOL    HW225317   0.785   1.472   3.796
 8140SOL     OW25318   5.268   2.699   3.174
 8140SOL    HW125319   5.250   2.618   3.229
 8140SOL    HW225320   5.281   2.778   3.233
 8141SOL     OW25321   6.057   3.385   3.936
 8141SOL    HW125322   5.997   3.376   3.856
 8141SOL    HW225323   6.124   3.457   3.919
 8142SOL     OW25324   0.029   6.440   6.975
 8142SOL    HW125325   6.960   6.433   7.014
 8142SOL    HW225326   0.025   6.489   6.889
 8143SOL     OW25327   6.466   2.975   5.395
 8143SOL    HW125328   6.383   2.941   5.351
 8143SOL    HW225329   6.476   3.073   5.377
 8144SOL     OW25330   4.935   6.332   6.926
 8144SOL    HW125331   4.963   6.376   7.011
 8144SOL    HW225332   4.952   6.234   6.932
 8145SOL     OW25333   4.544   6.375   3.618
 8145SOL    HW125334   4.529   6.470   3.589
 8145SOL    HW225335   4.471   6.317   3.583
 8146SOL     OW25336   3.582   1.829   4.509
 8146SOL    HW125337   3.515   1.831   4.435
 8146SOL    HW225338   3.542   1.868   4.592
 8147SOL     OW25339   5.481   0.958   3.338
 8147SOL    HW125340   5.474   1.048   3.292
 8147SOL    HW225341   5.482   0.971   3.437
 8148SOL     OW25342   0.171   4.215   2.801
 8148SOL    HW125343   0.110   4.176   2.732
 8148SOL    HW225344   0.262   4.175   2.792
 8149SOL     OW25345   3.715   5.453   3.725
 8149SOL    HW125346   3.639   5.438   3.662
 8149SOL    HW225347   3.684   5.434   3.819
 8150SOL     OW25348   0.995   6.207   1.022
 8150SOL    HW125349   1.028   6.237   1.111
 8150SOL    HW225350   0.998   6.284   0.957
 8151SOL     OW25351   0.371   1.447   4.681
 8151SOL    HW125352   0.282   1.402   4.672
 8151SOL    HW225353   0.390   1.465   4.777
 8152SOL     OW25354   1.165   0.687   3.640
 8152SOL    HW125355   1.247   0.629   3.633
 8152SOL    HW225356   1.087   0.631   3.666
 8153SOL     OW25357   2.247   6.821   0.219
 8153SOL    HW125358   2.272   6.729   0.247
 8153SOL    HW225359   2.183   6.860   0.285
 8154SOL     OW25360   2.225   6.720   2.961
 8154SOL    HW125361   2.300   6.676   2.911
 8154SOL    HW225362   2.263   6.782   3.030
 8155SOL     OW25363   2.906   3.485   4.648
 8155SOL    HW125364   2.818   3.438   4.641
 8155SOL    HW225365   2.939   3.509   4.556
 8156SOL     OW25366   7.007   0.367   5.563
 8156SOL    HW125367   6.916   0.353   5.603
 8156SOL    HW225368   0.000   0.299   5.492
 8157SOL     OW25369   5.839   2.024   6.684
 8157SOL    HW125370   5.773   2.002   6.755
 8157SOL    HW225371   5.899   2.098   6.715
 8158SOL     OW25372   1.746   5.340   2.329
 8158SOL    HW125373   1.683   5.297   2.263
 8158SOL    HW225374   1.837   5.346   2.289
 8159SOL     OW25375   0.404   5.628   0.796
 8159SOL    HW125376   0.394   5.690   0.874
 8159SOL    HW225377   0.360   5.541   0.816
 8160SOL     OW25378   4.180   1.692   1.705
 8160SOL    HW125379   4.230   1.687   1.792
 8160SOL    HW225380   4.090   1.732   1.721
 8161SOL     OW25381   4.242   2.900   1.320
 8161SOL    HW125382   4.164   2.906   1.381
 8161SOL    HW225383   4.210   2.906   1.225
 8162SOL     OW25384   5.962   0.923   1.538
 8162SOL    HW125385   5.923   0.835   1.567
 8162SOL    HW225386   5.892   0.994   1.544
 8163SOL     OW25387   2.026   3.432   5.336
 8163SOL    HW125388   2.084   3.457   5.260
 8163SOL    HW225389   1.963   3.507   5.357
 8164SOL     OW25390   4.851   3.497   1.619
 8164SOL    HW125391   4.888   3.589   1.636
 8164SOL    HW225392   4.901   3.455   1.543
 8165SOL     OW25393   2.085   4.840   1.886
 8165SOL    HW125394   2.092   4.925   1.939
 8165SOL    HW225395   2.136   4.849   1.801
 8166SOL     OW25396   3.932   6.720   1.521
 8166SOL    HW125397   3.835   6.706   1.541
 8166SOL    HW225398   3.969   6.639   1.476
 8167SOL     OW25399   5.399   2.741   4.440
 8167SOL    HW125400   5.307   2.708   4.459
 8167SOL    HW225401   5.466   2.677   4.480
 8168SOL     OW25402   2.689   2.069   2.735
 8168SOL    HW125403   2.642   2.127   2.669
 8168SOL    HW225404   2.788   2.073   2.719
 8169SOL     OW25405   5.499   4.083   5.006
 8169SOL    HW125406   5.411   4.047   4.975
 8169SOL    HW225407   5.493   4.104   5.104
 8170SOL     OW25408   1.583   4.934   3.800
 8170SOL    HW125409   1.606   4.964   3.893
 8170SOL    HW225410   1.576   5.014   3.740
 8171SOL     OW25411   1.759   1.113   6.673
 8171SOL    HW125412   1.667   1.138   6.703
 8171SOL    HW225413   1.752   1.041   6.603
 8172SOL     OW25414   0.086   5.830   1.048
 8172SOL    HW125415   0.103   5.796   1.140
 8172SOL    HW225416   0.048   5.755   0.992
 8173SOL     OW25417   5.980   3.199   0.303
 8173SOL    HW125418   5.964   3.143   0.384
 8173SOL    HW225419   5.975   3.296   0.328
 8174SOL     OW25420   5.473   6.570   2.446
 8174SOL    HW125421   5.461   6.470   2.441
 8174SOL    HW225422   5.431   6.611   2.365
 8175SOL     OW25423   1.981   2.348   4.000
 8175SOL    HW125424   1.926   2.314   4.076
 8175SOL    HW225425   1.982   2.448   4.001
 8176SOL     OW25426   3.999   5.834   3.648
 8176SOL    HW125427   3.965   5.809   3.557
 8176SOL    HW225428   4.091   5.872   3.640
 8177SOL     OW25429   1.308   6.437   5.868
 8177SOL    HW125430   1.402   6.451   5.899
 8177SOL    HW225431   1.255   6.394   5.940
 8178SOL     OW25432   2.276   6.789   5.925
 8178SOL    HW125433   2.329   6.705   5.929
 8178SOL    HW225434   2.218   6.789   5.844
 8179SOL     OW25435   3.979   0.446   0.301
 8179SOL    HW125436   4.001   0.541   0.323
 8179SOL    HW225437   4.056   0.404   0.254
 8180SOL     OW25438   4.944   4.390   5.187
 8180SOL    HW125439   4.954   4.429   5.278
 8180SOL    HW225440   4.847   4.374   5.167
 8181SOL     OW25441   2.544   2.449   2.385
 8181SOL    HW125442   2.535   2.455   2.286
 8181SOL    HW225443   2.498   2.528   2.428
 8182SOL     OW25444   5.391   2.976   5.992
 8182SOL    HW125445   5.435   3.036   6.059
 8182SOL    HW225446   5.461   2.938   5.931
 8183SOL     OW25447   2.234   3.059   3.412
 8183SOL    HW125448   2.243   2.985   3.479
 8183SOL    HW225449   2.325   3.092   3.387
 8184SOL     OW25450   6.124   6.121   4.514
 8184SOL    HW125451   6.053   6.108   4.445
 8184SOL    HW225452   6.100   6.071   4.597
 8185SOL     OW25453   1.454   2.044   3.306
 8185SOL    HW125454   1.543   2.076   3.272
 8185SOL    HW225455   1.387   2.118   3.296
 8186SOL     OW25456   4.528   4.180   6.652
 8186SOL    HW125457   4.446   4.150   6.701
 8186SOL    HW225458   4.503   4.213   6.561
 8187SOL     OW25459   2.125   2.148   5.915
 8187SOL    HW125460   2.140   2.247   5.905
 8187SOL    HW225461   2.213   2.102   5.924
 8188SOL     OW25462   4.858   2.641   2.589
 8188SOL    HW125463   4.808   2.599   2.514
 8188SOL    HW225464   4.796   2.655   2.667
 8189SOL     OW25465   6.714   5.059   2.653
 8189SOL    HW125466   6.679   5.097   2.738
 8189SOL    HW225467   6.761   4.972   2.671
 8190SOL     OW25468   6.333   3.454   2.368
 8190SOL    HW125469   6.354   3.495   2.278
 8190SOL    HW225470   6.324   3.527   2.436
 8191SOL     OW25471   5.899   4.941   1.760
 8191SOL    HW125472   5.957   5.005   1.810
 8191SOL    HW225473   5.955   4.864   1.727
 8192SOL     OW25474   1.234   2.691   0.851
 8192SOL    HW125475   1.195   2.636   0.778
 8192SOL    HW225476   1.301   2.755   0.813
 8193SOL     OW25477   3.899   6.758   5.689
 8193SOL    HW125478   3.874   6.836   5.632
 8193SOL    HW225479   3.996   6.739   5.680
 8194SOL     OW25480   1.988   0.883   2.606
 8194SOL    HW125481   1.953   0.972   2.580
 8194SOL    HW225482   2.076   0.894   2.653
 8195SOL     OW25483   5.694   1.516   1.577
 8195SOL    HW125484   5.598   1.498   1.598
 8195SOL    HW225485   5.722   1.602   1.621
 8196SOL     OW25486   1.793   1.009   0.496
 8196SOL    HW125487   1.713   1.068   0.488
 8196SOL    HW225488   1.842   1.007   0.409
 8197SOL     OW25489   0.668   7.005   0.720
 8197SOL    HW125490   0.751   0.005   0.670
 8197SOL    HW225491   0.660   0.042   0.799
 8198SOL     OW25492   3.531   0.778   3.112
 8198SOL    HW125493   3.546   0.680   3.125
 8198SOL    HW225494   3.619   0.825   3.109
 8199SOL     OW25495   5.515   4.587   1.436
 8199SOL    HW125496   5.521   4.592   1.336
 8199SOL    HW225497   5.583   4.523   1.471
 8200SOL     OW25498   4.281   3.514   1.740
 8200SOL    HW125499   4.303   3.496   1.644
 8200SOL    HW225500   4.214   3.588   1.746
 8201SOL     OW25501   0.497   1.009   5.356
 8201SOL    HW125502   0.562   1.073   5.315
 8201SOL    HW225503   0.502   0.921   5.307
 8202SOL     OW25504   1.805   3.696   4.789
 8202SOL    HW125505   1.904   3.691   4.803
 8202SOL    HW225506   1.785   3.696   4.691
 8203SOL     OW25507   6.033   4.418   6.939
 8203SOL    HW125508   6.070   4.326   6.943
 8203SOL    HW225509   6.092   4.477   6.884
 8204SOL     OW25510   3.469   0.384   0.756
 8204SOL    HW125511   3.516   0.359   0.670
 8204SOL    HW225512   3.390   0.323   0.769
 8205SOL     OW25513   4.443   6.632   3.517
 8205SOL    HW125514   4.404   6.652   3.427
 8205SOL    HW225515   4.542   6.618   3.508
 8206SOL     OW25516   3.505   1.820   4.968
 8206SOL    HW125517   3.533   1.740   4.913
 8206SOL    HW225518   3.586   1.860   5.011
 8207SOL     OW25519   3.002   5.938   6.828
 8207SOL    HW125520   3.018   5.842   6.804
 8207SOL    HW225521   2.938   5.979   6.764
 8208SOL     OW25522   1.992   6.095   0.272
 8208SOL    HW125523   2.029   6.055   0.188
 8208SOL    HW225524   2.048   6.174   0.299
 8209SOL     OW25525   0.689   5.283   5.466
 8209SOL    HW125526   0.754   5.221   5.422
 8209SOL    HW225527   0.602   5.280   5.417
 8210SOL     OW25528   2.457   1.231   0.330
 8210SOL    HW125529   2.489   1.299   0.396
 8210SOL    HW225530   2.370   1.261   0.291
 8211SOL     OW25531   3.614   4.139   3.318
 8211SOL    HW125532   3.712   4.156   3.323
 8211SOL    HW225533   3.581   4.107   3.407
 8212SOL     OW25534   4.340   4.813   6.796
 8212SOL    HW125535   4.429   4.841   6.831
 8212SOL    HW225536   4.281   4.893   6.788
 8213SOL     OW25537   4.631   4.423   1.771
 8213SOL    HW125538   4.582   4.365   1.836
 8213SOL    HW225539   4.658   4.508   1.816
 8214SOL     OW25540   3.948   5.387   3.577
 8214SOL    HW125541   3.934   5.289   3.593
 8214SOL    HW225542   3.869   5.438   3.612
 8215SOL     OW25543   2.799   6.374   6.368
 8215SOL    HW125544   2.787   6.336   6.460
 8215SOL    HW225545   2.821   6.301   6.304
 8216SOL     OW25546   5.161   5.451   0.910
 8216SOL    HW125547   5.158   5.354   0.934
 8216SOL    HW225548   5.199   5.504   0.986
 8217SOL     OW25549   3.490   6.529   3.611
 8217SOL    HW125550   3.432   6.448   3.604
 8217SOL    HW225551   3.437   6.610   3.587
 8218SOL     OW25552   1.970   6.645   4.161
 8218SOL    HW125553   1.946   6.689   4.074
 8218SOL    HW225554   1.928   6.554   4.165
 8219SOL     OW25555   3.679   3.187   3.267
 8219SOL    HW125556   3.720   3.129   3.337
 8219SOL    HW225557   3.751   3.225   3.209
 8220SOL     OW25558   4.211   4.199   5.589
 8220SOL    HW125559   4.168   4.265   5.651
 8220SOL    HW225560   4.199   4.231   5.494
 8221SOL     OW25561   6.424   3.657   4.030
 8221SOL    HW125562   6.486   3.594   3.982
 8221SOL    HW225563   6.462   3.750   4.026
 8222SOL     OW25564   5.582   2.109   6.156
 8222SOL    HW125565   5.670   2.095   6.111
 8222SOL    HW225566   5.577   2.052   6.238
 8223SOL     OW25567   1.369   6.726   5.687
 8223SOL    HW125568   1.325   6.636   5.688
 8223SOL    HW225569   1.354   6.771   5.775
 8224SOL     OW25570   5.687   1.235   5.977
 8224SOL    HW125571   5.635   1.208   5.896
 8224SOL    HW225572   5.624   1.260   6.050
 8225SOL     OW25573   5.754   2.659   0.110
 8225SOL    HW125574   5.691   2.685   0.036
 8225SOL    HW225575   5.799   2.573   0.085
 8226SOL     OW25576   3.919   1.089   6.984
 8226SOL    HW125577   4.008   1.050   7.010
 8226SOL    HW225578   3.909   1.084   6.885
 8227SOL     OW25579   4.903   3.425   2.814
 8227SOL    HW125580   4.889   3.411   2.716
 8227SOL    HW225581   4.865   3.348   2.865
 8228SOL     OW25582   3.194   1.316   4.759
 8228SOL    HW125583   3.209   1.218   4.764
 8228SOL    HW225584   3.211   1.357   4.849
 8229SOL     OW25585   4.383   5.030   1.089
 8229SOL    HW125586   4.434   4.981   1.018
 8229SOL    HW225587   4.288   4.998   1.090
 8230SOL     OW25588   6.176   0.798   6.155
 8230SOL    HW125589   6.108   0.827   6.087
 8230SOL    HW225590   6.263   0.845   6.136
 8231SOL     OW25591   3.450   1.451   2.349
 8231SOL    HW125592   3.382   1.474   2.279
 8231SOL    HW225593   3.530   1.510   2.339
 8232SOL     OW25594   4.137   6.608   3.443
 8232SOL    HW125595   4.151   6.537   3.375
 8232SOL    HW225596   4.207   6.601   3.514
 8233SOL     OW25597   2.272   1.404   6.747
 8233SOL    HW125598   2.223   1.479   6.793
 8233SOL    HW225599   2.207   1.330   6.726
 8234SOL     OW25600   1.317   2.696   0.145
 8234SOL    HW125601   1.380   2.729   0.075
 8234SOL    HW225602   1.262   2.772   0.180
 8235SOL     OW25603   0.446   6.935   1.475
 8235SOL    HW125604   0.355   6.916   1.438
 8235SOL    HW225605   0.485   6.851   1.513
 8236SOL     OW25606   1.088   0.182   1.026
 8236SOL    HW125607   1.057   0.092   0.996
 8236SOL    HW225608   1.079   0.189   1.125
 8237SOL     OW25609   4.139   5.188   5.250
 8237SOL    HW125610   4.089   5.255   5.196
 8237SOL    HW225611   4.189   5.234   5.324
 8238SOL     OW25612   6.881   5.187   0.359
 8238SOL    HW125613   6.864   5.199   0.261
 8238SOL    HW225614   6.862   5.272   0.407
 8239SOL     OW25615   4.562   2.119   5.067
 8239SOL    HW125616   4.470   2.156   5.048
 8239SOL    HW225617   4.625   2.195   5.085
 8240SOL     OW25618   3.436   3.583   4.923
 8240SOL    HW125619   3.411   3.495   4.965
 8240SOL    HW225620   3.353   3.636   4.908
 8241SOL     OW25621   1.142   3.128   5.448
 8241SOL    HW125622   1.235   3.121   5.413
 8241SOL    HW225623   1.129   3.062   5.522
 8242SOL     OW25624   0.463   2.803   3.346
 8242SOL    HW125625   0.535   2.847   3.291
 8242SOL    HW225626   0.391   2.770   3.285
 8243SOL     OW25627   1.448   6.591   3.267
 8243SOL    HW125628   1.464   6.510   3.324
 8243SOL    HW225629   1.361   6.633   3.292
 8244SOL     OW25630   5.558   1.114   3.576
 8244SOL    HW125631   5.652   1.088   3.555
 8244SOL    HW225632   5.533   1.078   3.667
 8245SOL     OW25633   5.446   3.258   2.038
 8245SOL    HW125634   5.357   3.228   2.071
 8245SOL    HW225635   5.450   3.358   2.041
 8246SOL     OW25636   2.023   4.340   6.411
 8246SOL    HW125637   1.963   4.272   6.368
 8246SOL    HW225638   1.970   4.420   6.438
 8247SOL     OW25639   2.082   4.815   3.729
 8247SOL    HW125640   2.068   4.901   3.779
 8247SOL    HW225641   2.178   4.806   3.704
 8248SOL     OW25642   6.993   6.085   2.497
 8248SOL    HW125643   0.055   6.115   2.540
 8248SOL    HW225644   6.917   6.097   2.561
 8249SOL     OW25645   3.016   0.857   6.232
 8249SOL    HW125646   2.943   0.919   6.203
 8249SOL    HW225647   2.980   0.764   6.239
 8250SOL     OW25648   1.385   1.747   6.977
 8250SOL    HW125649   1.458   1.814   6.989
 8250SOL    HW225650   1.297   1.791   6.990
 8251SOL     OW25651   1.265   2.272   6.101
 8251SOL    HW125652   1.218   2.296   6.186
 8251SOL    HW225653   1.303   2.354   6.059
 8252SOL     OW25654   0.683   2.163   6.803
 8252SOL    HW125655   0.604   2.218   6.833
 8252SOL    HW225656   0.766   2.219   6.806
 8253SOL     OW25657   6.032   4.624   6.062
 8253SOL    HW125658   6.096   4.605   5.988
 8253SOL    HW225659   6.016   4.722   6.069
 8254SOL     OW25660   5.265   5.038   6.875
 8254SOL    HW125661   5.251   5.063   6.971
 8254SOL    HW225662   5.352   4.991   6.865
 8255SOL     OW25663   1.486   0.192   5.474
 8255SOL    HW125664   1.491   0.214   5.571
 8255SOL    HW225665   1.464   0.274   5.422
 8256SOL     OW25666   1.282   5.563   2.885
 8256SOL    HW125667   1.206   5.569   2.820
 8256SOL    HW225668   1.355   5.624   2.857
 8257SOL     OW25669   4.955   3.838   3.854
 8257SOL    HW125670   5.033   3.883   3.897
 8257SOL    HW225671   4.963   3.846   3.755
 8258SOL     OW25672   0.421   3.587   3.765
 8258SOL    HW125673   0.440   3.497   3.806
 8258SOL    HW225674   0.360   3.575   3.687
 8259SOL     OW25675   5.595   2.791   4.100
 8259SOL    HW125676   5.590   2.827   4.007
 8259SOL    HW225677   5.602   2.867   4.165
 8260SOL     OW25678   4.586   2.068   6.609
 8260SOL    HW125679   4.661   2.010   6.641
 8260SOL    HW225680   4.550   2.121   6.686
 8261SOL     OW25681   5.950   2.139   2.841
 8261SOL    HW125682   5.873   2.150   2.779
 8261SOL    HW225683   5.917   2.130   2.935
 8262SOL     OW25684   4.858   3.893   2.195
 8262SOL    HW125685   4.931   3.829   2.171
 8262SOL    HW225686   4.828   3.940   2.112
 8263SOL     OW25687   6.304   1.474   6.934
 8263SOL    HW125688   6.223   1.533   6.943
 8263SOL    HW225689   6.280   1.394   6.879
 8264SOL     OW25690   3.115   0.701   1.622
 8264SOL    HW125691   3.190   0.689   1.557
 8264SOL    HW225692   3.036   0.739   1.574
 8265SOL     OW25693   4.445   5.697   0.330
 8265SOL    HW125694   4.540   5.666   0.336
 8265SOL    HW225695   4.408   5.674   0.240
 8266SOL     OW25696   4.255   1.876   3.388
 8266SOL    HW125697   4.190   1.941   3.430
 8266SOL    HW225698   4.331   1.927   3.348
 8267SOL     OW25699   1.989   2.975   3.314
 8267SOL    HW125700   1.975   3.068   3.278
 8267SOL    HW225701   2.084   2.965   3.344
 8268SOL     OW25702   2.740   5.376   1.508
 8268SOL    HW125703   2.837   5.362   1.527
 8268SOL    HW225704   2.686   5.313   1.564
 8269SOL     OW25705   6.826   1.382   4.192
 8269SOL    HW125706   6.728   1.377   4.210
 8269SOL    HW225707   6.845   1.345   4.101
 8270SOL     OW25708   3.400   4.619   0.253
 8270SOL    HW125709   3.359   4.703   0.289
 8270SOL    HW225710   3.334   4.574   0.192
 8271SOL     OW25711   3.451   6.861   5.462
 8271SOL    HW125712   3.356   6.830   5.471
 8271SOL    HW225713   3.504   6.827   5.541
 8272SOL     OW25714   1.028   0.328   1.911
 8272SOL    HW125715   0.990   0.407   1.864
 8272SOL    HW225716   1.104   0.358   1.969
 8273SOL     OW25717   4.596   6.691   5.991
 8273SOL    HW125718   4.628   6.667   6.083
 8273SOL    HW225719   4.514   6.639   5.970
 8274SOL     OW25720   5.691   6.616   3.861
 8274SOL    HW125721   5.703   6.521   3.831
 8274SOL    HW225722   5.593   6.633   3.877
 8275SOL     OW25723   5.008   0.704   4.994
 8275SOL    HW125724   4.924   0.651   4.985
 8275SOL    HW225725   5.009   0.751   5.082
 8276SOL     OW25726   5.785   2.910   0.779
 8276SOL    HW125727   5.884   2.919   0.765
 8276SOL    HW225728   5.759   2.956   0.864
 8277SOL     OW25729   1.497   0.267   1.367
 8277SOL    HW125730   1.421   0.248   1.428
 8277SOL    HW225731   1.566   0.322   1.415
 8278SOL     OW25732   1.584   0.843   1.126
 8278SOL    HW125733   1.562   0.746   1.117
 8278SOL    HW225734   1.531   0.896   1.060
 8279SOL     OW25735   5.777   5.191   5.474
 8279SOL    HW125736   5.837   5.252   5.526
 8279SOL    HW225737   5.829   5.149   5.399
 8280SOL     OW25738   5.839   3.981   0.027
 8280SOL    HW125739   5.855   3.989   6.952
 8280SOL    HW225740   5.909   3.924   0.068
 8281SOL     OW25741   3.347   4.863   6.267
 8281SOL    HW125742   3.416   4.861   6.195
 8281SOL    HW225743   3.356   4.781   6.324
 8282SOL     OW25744   4.114   2.918   1.081
 8282SOL    HW125745   4.059   3.001   1.071
 8282SOL    HW225746   4.115   2.868   0.994
 8283SOL     OW25747   0.491   0.392   3.239
 8283SOL    HW125748   0.501   0.491   3.251
 8283SOL    HW225749   0.523   0.345   3.321
 8284SOL     OW25750   5.501   2.061   1.703
 8284SOL    HW125751   5.482   1.969   1.737
 8284SOL    HW225752   5.599   2.080   1.711
 8285SOL     OW25753   0.456   4.398   0.602
 8285SOL    HW125754   0.548   4.429   0.577
 8285SOL    HW225755   0.398   4.399   0.521
 8286SOL     OW25756   6.533   1.851   6.580
 8286SOL    HW125757   6.586   1.902   6.512
 8286SOL    HW225758   6.506   1.763   6.542
 8287SOL     OW25759   0.198   0.418   3.549
 8287SOL    HW125760   0.154   0.359   3.482
 8287SOL    HW225761   0.297   0.417   3.535
 8288SOL     OW25762   2.927   0.394   2.203
 8288SOL    HW125763   2.963   0.488   2.209
 8288SOL    HW225764   2.832   0.396   2.172
 8289SOL     OW25765   5.978   6.789   0.120
 8289SOL    HW125766   5.918   6.720   0.159
 8289SOL    HW225767   6.010   6.850   0.193
 8290SOL     OW25768   5.013   2.676   1.758
 8290SOL    HW125769   5.049   2.606   1.820
 8290SOL    HW225770   4.917   2.655   1.737
 8291SOL     OW25771   5.171   5.705   5.844
 8291SOL    HW125772   5.073   5.713   5.824
 8291SOL    HW225773   5.185   5.708   5.943
 8292SOL     OW25774   6.762   3.938   5.553
 8292SOL    HW125775   6.772   3.857   5.611
 8292SOL    HW225776   6.849   3.988   5.551
 8293SOL     OW25777   2.718   5.693   4.292
 8293SOL    HW125778   2.747   5.634   4.368
 8293SOL    HW225779   2.659   5.765   4.328
 8294SOL     OW25780   0.021   3.331   6.149
 8294SOL    HW125781   0.035   3.302   6.054
 8294SOL    HW225782   0.009   3.430   6.152
 8295SOL     OW25783   4.098   5.249   2.064
 8295SOL    HW125784   4.004   5.271   2.040
 8295SOL    HW225785   4.099   5.190   2.145
 8296SOL     OW25786   4.046   6.910   2.498
 8296SOL    HW125787   4.038   7.007   2.523
 8296SOL    HW225788   3.956   6.866   2.506
 8297SOL     OW25789   5.503   4.297   2.015
 8297SOL    HW125790   5.430   4.231   2.034
 8297SOL    HW225791   5.538   4.333   2.101
 8298SOL     OW25792   6.847   7.015   1.031
 8298SOL    HW125793   6.934   6.982   1.067
 8298SOL    HW225794   6.802   6.942   0.980
 8299SOL     OW25795   1.120   2.947   6.291
 8299SOL    HW125796   1.102   2.873   6.226
 8299SOL    HW225797   1.207   2.929   6.337
 8300SOL     OW25798   5.361   5.609   4.024
 8300SOL    HW125799   5.387   5.660   3.942
 8300SOL    HW225800   5.307   5.529   3.998
 8301SOL     OW25801   6.489   5.610   0.375
 8301SOL    HW125802   6.479   5.510   0.377
 8301SOL    HW225803   6.550   5.639   0.448
 8302SOL     OW25804   3.549   6.647   5.937
 8302SOL    HW125805   3.578   6.737   5.969
 8302SOL    HW225806   3.449   6.640   5.942
 8303SOL     OW25807   1.380   5.204   3.825
 8303SOL    HW125808   1.455   5.171   3.768
 8303SOL    HW225809   1.294   5.191   3.775
 8304SOL     OW25810   5.609   2.872   3.832
 8304SOL    HW125811   5.624   2.969   3.855
 8304SOL    HW225812   5.624   2.858   3.734
 8305SOL     OW25813   4.453   6.859   5.409
 8305SOL    HW125814   4.544   6.819   5.421
 8305SOL    HW225815   4.444   6.940   5.466
 8306SOL     OW25816   4.717   0.985   4.083
 8306SOL    HW125817   4.731   1.061   4.020
 8306SOL    HW225818   4.762   0.903   4.048
 8307SOL     OW25819   0.034   5.001   4.206
 8307SOL    HW125820   0.089   5.052   4.139
 8307SOL    HW225821   7.002   5.065   4.258
 8308SOL     OW25822   1.807   5.621   0.267
 8308SOL    HW125823   1.746   5.546   0.242
 8308SOL    HW225824   1.870   5.591   0.339
 8309SOL     OW25825   6.099   4.501   2.789
 8309SOL    HW125826   6.156   4.548   2.721
 8309SOL    HW225827   6.085   4.406   2.761
 8310SOL     OW25828   2.058   6.493   3.100
 8310SOL    HW125829   2.076   6.590   3.091
 8310SOL    HW225830   2.144   6.442   3.101
 8311SOL     OW25831   4.933   5.938   1.738
 8311SOL    HW125832   4.953   5.843   1.760
 8311SOL    HW225833   4.836   5.947   1.715
 8312SOL     OW25834   6.693   1.648   0.619
 8312SOL    HW125835   6.764   1.631   0.687
 8312SOL    HW225836   6.637   1.566   0.606
 8313SOL     OW25837   4.629   2.612   5.906
 8313SOL    HW125838   4.707   2.565   5.863
 8313SOL    HW225839   4.610   2.569   5.995
 8314SOL     OW25840   4.245   5.480   3.998
 8314SOL    HW125841   4.305   5.506   3.922
 8314SOL    HW225842   4.300   5.461   4.079
 8315SOL     OW25843   2.989   2.615   6.622
 8315SOL    HW125844   2.933   2.553   6.567
 8315SOL    HW225845   3.073   2.568   6.648
 8316SOL     OW25846   1.643   1.194   4.647
 8316SOL    HW125847   1.627   1.274   4.705
 8316SOL    HW225848   1.729   1.150   4.673
 8317SOL     OW25849   0.976   1.882   5.772
 8317SOL    HW125850   0.903   1.820   5.742
 8317SOL    HW225851   1.062   1.855   5.728
 8318SOL     OW25852   4.711   6.453   5.467
 8318SOL    HW125853   4.788   6.408   5.421
 8318SOL    HW225854   4.734   6.469   5.563
 8319SOL     OW25855   2.699   5.961   6.742
 8319SOL    HW125856   2.684   5.863   6.747
 8319SOL    HW225857   2.634   6.008   6.802
 8320SOL     OW25858   3.923   5.016   5.577
 8320SOL    HW125859   3.877   5.105   5.577
 8320SOL    HW225860   3.983   5.010   5.657
 8321SOL     OW25861   0.357   0.669   0.875
 8321SOL    HW125862   0.384   0.650   0.780
 8321SOL    HW225863   0.401   0.603   0.935
 8322SOL     OW25864   1.863   1.022   1.427
 8322SOL    HW125865   1.853   0.926   1.457
 8322SOL    HW225866   1.890   1.024   1.331
 8323SOL     OW25867   5.869   4.899   7.013
 8323SOL    HW125868   5.968   4.892   0.003
 8323SOL    HW225869   5.831   4.961   0.058
 8324SOL     OW25870   5.541   6.580   6.155
 8324SOL    HW125871   5.634   6.577   6.193
 8324SOL    HW225872   5.545   6.567   6.056
 8325SOL     OW25873   1.423   6.346   4.687
 8325SOL    HW125874   1.443   6.370   4.592
 8325SOL    HW225875   1.328   6.317   4.694
 8326SOL     OW25876   2.383   2.070   6.683
 8326SOL    HW125877   2.342   1.984   6.714
 8326SOL    HW225878   2.328   2.108   6.609
 8327SOL     OW25879   0.666   6.123   4.759
 8327SOL    HW125880   0.761   6.134   4.789
 8327SOL    HW225881   0.638   6.202   4.706
 8328SOL     OW25882   1.347   6.922   0.948
 8328SOL    HW125883   1.254   6.904   0.979
 8328SOL    HW225884   1.389   6.991   1.006
 8329SOL     OW25885   1.437   2.493   5.157
 8329SOL    HW125886   1.437   2.523   5.062
 8329SOL    HW225887   1.530   2.466   5.183
 8330SOL     OW25888   3.130   0.214   0.153
 8330SOL    HW125889   3.033   0.215   0.128
 8330SOL    HW225890   3.156   0.122   0.181
 8331SOL     OW25891   2.116   2.638   5.902
 8331SOL    HW125892   2.133   2.725   5.947
 8331SOL    HW225893   2.060   2.652   5.821
 8332SOL     OW25894   5.708   3.621   1.162
 8332SOL    HW125895   5.746   3.689   1.098
 8332SOL    HW225896   5.763   3.620   1.245
 8333SOL     OW25897   3.004   4.373   6.558
 8333SOL    HW125898   2.975   4.283   6.592
 8333SOL    HW225899   3.079   4.407   6.615
 8334SOL     OW25900   3.359   2.433   5.456
 8334SOL    HW125901   3.313   2.415   5.370
 8334SOL    HW225902   3.409   2.351   5.485
 8335SOL     OW25903   5.520   3.950   6.222
 8335SOL    HW125904   5.504   3.863   6.176
 8335SOL    HW225905   5.589   4.002   6.171
 8336SOL     OW25906   1.221   4.240   3.417
 8336SOL    HW125907   1.201   4.338   3.410
 8336SOL    HW225908   1.147   4.187   3.375
 8337SOL     OW25909   6.576   0.921   4.283
 8337SOL    HW125910   6.491   0.888   4.241
 8337SOL    HW225911   6.558   1.007   4.333
 8338SOL     OW25912   2.413   5.809   1.020
 8338SOL    HW125913   2.362   5.782   1.101
 8338SOL    HW225914   2.404   5.908   1.006
 8339SOL     OW25915   6.493   0.566   1.602
 8339SOL    HW125916   6.424   0.619   1.651
 8339SOL    HW225917   6.584   0.601   1.625
 8340SOL     OW25918   5.924   2.538   6.851
 8340SOL    HW125919   5.906   2.443   6.876
 8340SOL    HW225920   6.022   2.555   6.854
 8341SOL     OW25921   3.487   0.338   1.149
 8341SOL    HW125922   3.443   0.426   1.166
 8341SOL    HW225923   3.550   0.346   1.072
 8342SOL     OW25924   4.689   1.186   0.998
 8342SOL    HW125925   4.782   1.203   0.965
 8342SOL    HW225926   4.633   1.153   0.922
 8343SOL     OW25927   5.222   5.782   3.086
 8343SOL    HW125928   5.283   5.721   3.136
 8343SOL    HW225929   5.177   5.844   3.151
 8344SOL     OW25930   2.219   4.651   6.098
 8344SOL    HW125931   2.295   4.660   6.033
 8344SOL    HW225932   2.219   4.558   6.134
 8345SOL     OW25933   6.303   0.349   3.913
 8345SOL    HW125934   6.216   0.359   3.864
 8345SOL    HW225935   6.347   0.264   3.886
 8346SOL     OW25936   5.801   3.912   3.936
 8346SOL    HW125937   5.866   3.902   3.861
 8346SOL    HW225938   5.776   4.008   3.946
 8347SOL     OW25939   1.484   1.910   6.344
 8347SOL    HW125940   1.525   1.819   6.338
 8347SOL    HW225941   1.403   1.914   6.285
 8348SOL     OW25942   3.271   5.861   1.002
 8348SOL    HW125943   3.268   5.955   1.034
 8348SOL    HW225944   3.324   5.855   0.918
 8349SOL     OW25945   4.715   5.494   1.615
 8349SOL    HW125946   4.732   5.401   1.647
 8349SOL    HW225947   4.733   5.559   1.688
 8350SOL     OW25948   1.781   0.316   6.805
 8350SOL    HW125949   1.735   0.323   6.893
 8350SOL    HW225950   1.746   0.236   6.755
 8351SOL     OW25951   6.852   2.955   3.002
 8351SOL    HW125952   6.870   2.931   3.097
 8351SOL    HW225953   6.900   2.890   2.941
 8352SOL     OW25954   3.029   6.508   6.361
 8352SOL    HW125955   2.943   6.459   6.347
 8352SOL    HW225956   3.015   6.580   6.429
 8353SOL     OW25957   0.450   5.661   2.728
 8353SOL    HW125958   0.500   5.589   2.777
 8353SOL    HW225959   0.418   5.625   2.641
 8354SOL     OW25960   4.611   2.259   3.580
 8354SOL    HW125961   4.565   2.347   3.566
 8354SOL    HW225962   4.686   2.250   3.515
 8355SOL     OW25963   3.165   5.321   6.165
 8355SOL    HW125964   3.140   5.274   6.250
 8355SOL    HW225965   3.255   5.290   6.134
 8356SOL     OW25966   2.735   4.114   1.303
 8356SOL    HW125967   2.720   4.066   1.390
 8356SOL    HW225968   2.649   4.155   1.273
 8357SOL     OW25969   2.819   7.009   4.827
 8357SOL    HW125970   2.863   6.919   4.820
 8357SOL    HW225971   2.851   0.032   4.910
 8358SOL     OW25972   0.306   0.142   4.746
 8358SOL    HW125973   0.328   0.228   4.793
 8358SOL    HW225974   0.294   0.069   4.813
 8359SOL     OW25975   4.808   1.734   5.156
 8359SOL    HW125976   4.885   1.788   5.190
 8359SOL    HW225977   4.839   1.677   5.079
 8360SOL     OW25978   3.069   6.743   1.948
 8360SOL    HW125979   3.154   6.779   1.986
 8360SOL    HW225980   3.076   6.644   1.938
 8361SOL     OW25981   5.102   1.063   0.483
 8361SOL    HW125982   5.005   1.071   0.507
 8361SOL    HW225983   5.110   1.023   0.391
 8362SOL     OW25984   0.537   3.908   1.389
 8362SOL    HW125985   0.530   3.853   1.306
 8362SOL    HW225986   0.580   3.995   1.368
 8363SOL     OW25987   1.623   2.163   1.621
 8363SOL    HW125988   1.695   2.135   1.685
 8363SOL    HW225989   1.622   2.100   1.543
 8364SOL     OW25990   0.140   1.972   3.810
 8364SOL    HW125991   0.220   1.992   3.755
 8364SOL    HW225992   0.057   2.001   3.761
 8365SOL     OW25993   1.777   2.462   1.485
 8365SOL    HW125994   1.754   2.450   1.389
 8365SOL    HW225995   1.852   2.400   1.510
 8366SOL     OW25996   5.215   5.803   2.067
 8366SOL    HW125997   5.231   5.753   2.152
 8366SOL    HW225998   5.137   5.865   2.080
 8367SOL     OW25999   1.930   4.193   3.533
 8367SOL    HW126000   1.854   4.192   3.468
 8367SOL    HW226001   2.015   4.171   3.485
 8368SOL     OW26002   6.751   3.939   5.926
 8368SOL    HW126003   6.788   3.859   5.880
 8368SOL    HW226004   6.652   3.942   5.915
 8369SOL     OW26005   1.394   0.146   6.861
 8369SOL    HW126006   1.414   0.135   6.958
 8369SOL    HW226007   1.463   0.098   6.807
 8370SOL     OW26008   3.093   3.425   0.290
 8370SOL    HW126009   3.122   3.346   0.236
 8370SOL    HW226010   3.081   3.397   0.385
 8371SOL     OW26011   2.916   4.061   5.836
 8371SOL    HW126012   2.836   4.089   5.890
 8371SOL    HW226013   2.962   3.985   5.882
 8372SOL     OW26014   1.516   0.276   1.788
 8372SOL    HW126015   1.449   0.202   1.794
 8372SOL    HW226016   1.595   0.245   1.734
 8373SOL     OW26017   5.252   0.974   4.019
 8373SOL    HW126018   5.235   1.070   3.999
 8373SOL    HW226019   5.252   0.960   4.118
 8374SOL     OW26020   1.016   1.691   3.276
 8374SOL    HW126021   1.037   1.783   3.309
 8374SOL    HW226022   0.959   1.644   3.343
 8375SOL     OW26023   1.294   2.248   5.177
 8375SOL    HW126024   1.341   2.336   5.176
 8375SOL    HW226025   1.308   2.204   5.265
 8376SOL     OW26026   0.662   1.999   4.196
 8376SOL    HW126027   0.582   2.013   4.138
 8376SOL    HW226028   0.715   2.084   4.201
 8377SOL     OW26029   3.216   5.251   1.050
 8377SOL    HW126030   3.128   5.248   1.001
 8377SOL    HW226031   3.284   5.198   0.999
 8378SOL     OW26032   4.179   5.297   4.834
 8378SOL    HW126033   4.147   5.285   4.740
 8378SOL    HW226034   4.111   5.259   4.897
 8379SOL     OW26035   6.199   2.515   2.168
 8379SOL    HW126036   6.237   2.608   2.170
 8379SOL    HW226037   6.191   2.480   2.261
 8380SOL     OW26038   1.092   5.995   2.238
 8380SOL    HW126039   1.117   6.087   2.269
 8380SOL    HW226040   1.130   5.927   2.301
 8381SOL     OW26041   1.325   2.331   2.473
 8381SOL    HW126042   1.409   2.292   2.436
 8381SOL    HW226043   1.347   2.411   2.528
 8382SOL     OW26044   0.857   6.446   1.582
 8382SOL    HW126045   0.943   6.400   1.607
 8382SOL    HW226046   0.807   6.470   1.666
 8383SOL     OW26047   2.510   6.919   5.663
 8383SOL    HW126048   2.557   6.988   5.608
 8383SOL    HW226049   2.438   6.963   5.716
 8384SOL     OW26050   0.559   3.204   3.174
 8384SOL    HW126051   0.480   3.243   3.222
 8384SOL    HW226052   0.589   3.266   3.102
 8385SOL     OW26053   4.414   2.107   2.087
 8385SOL    HW126054   4.472   2.177   2.128
 8385SOL    HW226055   4.434   2.100   1.989
 8386SOL     OW26056   0.369   5.415   1.405
 8386SOL    HW126057   0.292   5.480   1.405
 8386SOL    HW226058   0.334   5.322   1.416
 8387SOL     OW26059   0.505   1.893   3.370
 8387SOL    HW126060   0.450   1.947   3.434
 8387SOL    HW226061   0.454   1.812   3.341
 8388SOL     OW26062   3.758   5.194   1.704
 8388SOL    HW126063   3.826   5.123   1.684
 8388SOL    HW226064   3.696   5.204   1.627
 8389SOL     OW26065   1.142   2.753   3.899
 8389SOL    HW126066   1.172   2.702   3.818
 8389SOL    HW226067   1.127   2.689   3.975
 8390SOL     OW26068   2.934   0.618   6.306
 8390SOL    HW126069   2.979   0.545   6.254
 8390SOL    HW226070   2.836   0.600   6.309
 8391SOL     OW26071   4.456   5.910   1.085
 8391SOL    HW126072   4.370   5.951   1.055
 8391SOL    HW226073   4.446   5.877   1.179
 8392SOL     OW26074   4.061   5.317   0.354
 8392SOL    HW126075   4.155   5.328   0.387
 8392SOL    HW226076   4.061   5.319   0.254
 8393SOL     OW26077   0.881   5.979   1.671
 8393SOL    HW126078   0.860   5.959   1.766
 8393SOL    HW226079   0.899   6.077   1.661
 8394SOL     OW26080   1.560   1.278   3.282
 8394SOL    HW126081   1.593   1.264   3.376
 8394SOL    HW226082   1.468   1.317   3.284
 8395SOL     OW26083   1.654   6.227   6.104
 8395SOL    HW126084   1.660   6.186   6.195
 8395SOL    HW226085   1.728   6.193   6.046
 8396SOL     OW26086   4.140   2.544   0.805
 8396SOL    HW126087   4.134   2.644   0.796
 8396SOL    HW226088   4.206   2.520   0.876
 8397SOL     OW26089   1.379   4.293   3.153
 8397SOL    HW126090   1.297   4.259   3.199
 8397SOL    HW226091   1.423   4.363   3.210
 8398SOL     OW26092   5.659   1.682   6.606
 8398SOL    HW126093   5.620   1.591   6.617
 8398SOL    HW226094   5.590   1.752   6.626
 8399SOL     OW26095   5.533   6.055   5.729
 8399SOL    HW126096   5.488   6.141   5.705
 8399SOL    HW226097   5.629   6.071   5.749
 8400SOL     OW26098   6.140   6.624   3.770
 8400SOL    HW126099   6.047   6.625   3.735
 8400SOL    HW226100   6.143   6.575   3.858
 8401SOL     OW26101   2.936   3.640   5.244
 8401SOL    HW126102   3.006   3.663   5.312
 8401SOL    HW226103   2.916   3.720   5.188
 8402SOL     OW26104   5.129   0.452   5.171
 8402SOL    HW126105   5.047   0.502   5.198
 8402SOL    HW226106   5.102   0.370   5.119
 8403SOL     OW26107   0.613   2.663   5.530
 8403SOL    HW126108   0.703   2.643   5.490
 8403SOL    HW226109   0.600   2.762   5.536
 8404SOL     OW26110   4.996   5.501   5.573
 8404SOL    HW126111   5.062   5.429   5.593
 8404SOL    HW226112   5.021   5.546   5.487
 8405SOL     OW26113   1.728   2.582   5.589
 8405SOL    HW126114   1.688   2.674   5.589
 8405SOL    HW226115   1.741   2.551   5.495
 8406SOL     OW26116   5.318   3.634   1.712
 8406SOL    HW126117   5.369   3.710   1.753
 8406SOL    HW226118   5.270   3.584   1.784
 8407SOL     OW26119   4.893   3.652   3.054
 8407SOL    HW126120   4.904   3.622   2.959
 8407SOL    HW226121   4.854   3.744   3.055
 8408SOL     OW26122   4.936   3.655   4.208
 8408SOL    HW126123   4.929   3.585   4.279
 8408SOL    HW226124   4.872   3.729   4.227
 8409SOL     OW26125   1.693   1.583   3.769
 8409SOL    HW126126   1.687   1.621   3.676
 8409SOL    HW226127   1.677   1.656   3.835
 8410SOL     OW26128   2.199   4.879   2.454
 8410SOL    HW126129   2.261   4.802   2.468
 8410SOL    HW226130   2.135   4.859   2.380
 8411SOL     OW26131   1.931   3.359   3.298
 8411SOL    HW126132   1.846   3.376   3.348
 8411SOL    HW226133   1.921   3.277   3.242
 8412SOL     OW26134   6.269   2.889   2.555
 8412SOL    HW126135   6.262   2.917   2.459
 8412SOL    HW226136   6.288   2.791   2.561
 8413SOL     OW26137   2.136   4.956   0.953
 8413SOL    HW126138   2.228   4.985   0.980
 8413SOL    HW226139   2.143   4.876   0.893
 8414SOL     OW26140   5.965   0.845   3.729
 8414SOL    HW126141   5.968   0.763   3.786
 8414SOL    HW226142   6.057   0.866   3.696
 8415SOL     OW26143   6.802   4.689   1.399
 8415SOL    HW126144   6.768   4.628   1.328
 8415SOL    HW226145   6.880   4.740   1.365
 8416SOL     OW26146   4.375   4.908   2.469
 8416SOL    HW126147   4.363   4.926   2.371
 8416SOL    HW226148   4.444   4.836   2.481
 8417SOL     OW26149   1.366   5.592   0.054
 8417SOL    HW126150   1.429   5.518   0.077
 8417SOL    HW226151   1.340   5.641   0.137
 8418SOL     OW26152   5.739   5.719   2.808
 8418SOL    HW126153   5.823   5.766   2.833
 8418SOL    HW226154   5.668   5.787   2.787
 8419SOL     OW26155   4.633   0.690   3.925
 8419SOL    HW126156   4.652   0.737   3.839
 8419SOL    HW226157   4.698   0.614   3.936
 8420SOL     OW26158   4.072   2.287   5.589
 8420SOL    HW126159   4.073   2.332   5.500
 8420SOL    HW226160   4.044   2.191   5.578
 8421SOL     OW26161   0.501   1.492   1.287
 8421SOL    HW126162   0.571   1.425   1.262
 8421SOL    HW226163   0.479   1.483   1.384
 8422SOL     OW26164   3.006   0.346   1.714
 8422SOL    HW126165   3.095   0.342   1.760
 8422SOL    HW226166   2.940   0.290   1.765
 8423SOL     OW26167   2.353   3.692   1.104
 8423SOL    HW126168   2.418   3.747   1.157
 8423SOL    HW226169   2.357   3.719   1.008
 8424SOL     OW26170   2.794   2.428   1.500
 8424SOL    HW126171   2.786   2.431   1.600
 8424SOL    HW226172   2.834   2.514   1.468
 8425SOL     OW26173   0.137   4.588   6.073
 8425SOL    HW126174   0.051   4.639   6.076
 8425SOL    HW226175   0.205   4.633   6.130
 8426SOL     OW26176   3.551   3.073   2.114
 8426SOL    HW126177   3.538   2.978   2.144
 8426SOL    HW226178   3.562   3.075   2.015
 8427SOL     OW26179   1.987   2.291   6.958
 8427SOL    HW126180   1.922   2.300   6.883
 8427SOL    HW226181   2.029   2.380   6.977
 8428SOL     OW26182   6.302   3.698   0.742
 8428SOL    HW126183   6.322   3.669   0.836
 8428SOL    HW226184   6.245   3.629   0.698
 8429SOL     OW26185   1.838   6.746   3.402
 8429SOL    HW126186   1.821   6.795   3.317
 8429SOL    HW226187   1.752   6.714   3.441
 8430SOL     OW26188   4.696   5.070   3.099
 8430SOL    HW126189   4.778   5.045   3.151
 8430SOL    HW226190   4.707   5.161   3.060
 8431SOL     OW26191   3.141   3.330   2.372
 8431SOL    HW126192   3.160   3.427   2.359
 8431SOL    HW226193   3.111   3.290   2.286
 8432SOL     OW26194   4.748   6.021   6.686
 8432SOL    HW126195   4.807   5.942   6.669
 8432SOL    HW226196   4.661   5.990   6.725
 8433SOL     OW26197   0.433   1.171   3.704
 8433SOL    HW126198   0.442   1.149   3.801
 8433SOL    HW226199   0.454   1.268   3.690
 8434SOL     OW26200   5.729   6.836   6.639
 8434SOL    HW126201   5.765   6.831   6.546
 8434SOL    HW226202   5.797   6.875   6.700
 8435SOL     OW26203   4.903   2.332   1.186
 8435SOL    HW126204   4.897   2.266   1.111
 8435SOL    HW226205   4.993   2.376   1.186
 8436SOL     OW26206   2.980   4.273   1.672
 8436SOL    HW126207   2.984   4.341   1.745
 8436SOL    HW226208   2.982   4.320   1.583
 8437SOL     OW26209   0.358   2.037   0.949
 8437SOL    HW126210   0.317   2.087   1.025
 8437SOL    HW226211   0.435   2.089   0.912
 8438SOL     OW26212   2.233   5.546   0.740
 8438SOL    HW126213   2.275   5.570   0.827
 8438SOL    HW226214   2.157   5.608   0.721
 8439SOL     OW26215   5.139   0.694   1.221
 8439SOL    HW126216   5.109   0.613   1.171
 8439SOL    HW226217   5.063   0.760   1.226
 8440SOL     OW26218   1.084   3.298   4.101
 8440SOL    HW126219   1.173   3.287   4.057
 8440SOL    HW226220   1.096   3.308   4.199
 8441SOL     OW26221   4.392   6.066   1.703
 8441SOL    HW126222   4.431   6.139   1.760
 8441SOL    HW226223   4.310   6.030   1.748
 8442SOL     OW26224   2.630   2.780   0.821
 8442SOL    HW126225   2.585   2.801   0.734
 8442SOL    HW226226   2.643   2.865   0.872
 8443SOL     OW26227   6.915   1.767   1.529
 8443SOL    HW126228   6.846   1.710   1.574
 8443SOL    HW226229   6.897   1.770   1.431
 8444SOL     OW26230   4.558   1.486   3.434
 8444SOL    HW126231   4.465   1.518   3.418
 8444SOL    HW226232   4.612   1.559   3.477
 8445SOL     OW26233   5.010   5.561   2.097
 8445SOL    HW126234   4.932   5.503   2.120
 8445SOL    HW226235   4.991   5.655   2.126
 8446SOL     OW26236   6.803   3.459   3.168
 8446SOL    HW126237   6.720   3.407   3.150
 8446SOL    HW226238   6.882   3.398   3.167
 8447SOL     OW26239   4.340   4.167   1.001
 8447SOL    HW126240   4.376   4.166   0.908
 8447SOL    HW226241   4.413   4.141   1.065
 8448SOL     OW26242   1.408   4.528   5.596
 8448SOL    HW126243   1.366   4.458   5.539
 8448SOL    HW226244   1.507   4.526   5.585
 8449SOL     OW26245   1.265   0.746   5.083
 8449SOL    HW126246   1.276   0.811   5.007
 8449SOL    HW226247   1.226   0.793   5.162
 8450SOL     OW26248   1.982   5.663   0.732
 8450SOL    HW126249   1.950   5.758   0.730
 8450SOL    HW226250   1.963   5.624   0.822
 8451SOL     OW26251   3.247   3.618   0.619
 8451SOL    HW126252   3.155   3.580   0.628
 8451SOL    HW226253   3.313   3.558   0.664
 8452SOL     OW26254   0.163   6.004   1.393
 8452SOL    HW126255   0.146   6.079   1.329
 8452SOL    HW226256   0.079   5.983   1.444
 8453SOL     OW26257   6.868   4.903   5.209
 8453SOL    HW126258   6.948   4.877   5.263
 8453SOL    HW226259   6.880   4.874   5.114
 8454SOL     OW26260   2.102   0.114   4.893
 8454SOL    HW126261   2.115   0.019   4.865
 8454SOL    HW226262   2.166   0.172   4.843
 8455SOL     OW26263   6.038   2.454   0.671
 8455SOL    HW126264   6.113   2.462   0.736
 8455SOL    HW226265   5.953   2.483   0.714
 8456SOL     OW26266   5.444   4.828   3.410
 8456SOL    HW126267   5.497   4.794   3.488
 8456SOL    HW226268   5.483   4.914   3.379
 8457SOL     OW26269   6.644   6.428   5.620
 8457SOL    HW126270   6.617   6.365   5.547
 8457SOL    HW226271   6.698   6.503   5.581
 8458SOL     OW26272   1.562   1.963   1.184
 8458SOL    HW126273   1.515   1.974   1.272
 8458SOL    HW226274   1.495   1.949   1.111
 8459SOL     OW26275   2.366   5.082   3.205
 8459SOL    HW126276   2.428   5.039   3.271
 8459SOL    HW226277   2.417   5.149   3.151
 8460SOL     OW26278   3.858   1.294   1.811
 8460SOL    HW126279   3.880   1.244   1.727
 8460SOL    HW226280   3.781   1.355   1.793
 8461SOL     OW26281   5.304   3.815   3.285
 8461SOL    HW126282   5.308   3.820   3.185
 8461SOL    HW226283   5.277   3.904   3.322
 8462SOL     OW26284   1.725   4.208   0.790
 8462SOL    HW126285   1.740   4.294   0.742
 8462SOL    HW226286   1.649   4.159   0.747
 8463SOL     OW26287   0.122   0.007   1.094
 8463SOL    HW126288   0.090   0.101   1.084
 8463SOL    HW226289   0.216   0.000   1.059
 8464SOL     OW26290   6.483   3.023   6.629
 8464SOL    HW126291   6.510   2.936   6.671
 8464SOL    HW226292   6.562   3.084   6.626
 8465SOL     OW26293   4.762   3.765   1.030
 8465SOL    HW126294   4.788   3.679   0.986
 8465SOL    HW226295   4.723   3.827   0.962
 8466SOL     OW26296   0.417   1.238   5.474
 8466SOL    HW126297   0.443   1.220   5.569
 8466SOL    HW226298   0.432   1.157   5.419
 8467SOL     OW26299   3.014   1.109   0.949
 8467SOL    HW126300   2.936   1.056   0.982
 8467SOL    HW226301   3.026   1.093   0.851
 8468SOL     OW26302   5.206   4.003   0.566
 8468SOL    HW126303   5.157   4.074   0.516
 8468SOL    HW226304   5.304   4.010   0.549
 8469SOL     OW26305   4.060   3.256   5.049
 8469SOL    HW126306   3.971   3.297   5.068
 8469SOL    HW226307   4.075   3.178   5.110
 8470SOL     OW26308   1.655   6.124   1.749
 8470SOL    HW126309   1.580   6.083   1.800
 8470SOL    HW226310   1.653   6.090   1.655
 8471SOL     OW26311   4.082   1.362   3.956
 8471SOL    HW126312   4.130   1.288   3.910
 8471SOL    HW226313   3.996   1.381   3.908
 8472SOL     OW26314   5.717   1.476   6.274
 8472SOL    HW126315   5.758   1.563   6.247
 8472SOL    HW226316   5.781   1.402   6.256
 8473SOL     OW26317   5.588   5.461   5.886
 8473SOL    HW126318   5.607   5.559   5.896
 8473SOL    HW226319   5.491   5.448   5.864
 8474SOL     OW26320   3.174   3.920   5.075
 8474SOL    HW126321   3.159   4.018   5.071
 8474SOL    HW226322   3.087   3.873   5.096
 8475SOL     OW26323   6.998   1.733   2.899
 8475SOL    HW126324   6.961   1.771   2.814
 8475SOL    HW226325   7.023   1.808   2.961
 8476SOL     OW26326   6.301   1.103   1.929
 8476SOL    HW126327   6.285   1.124   1.832
 8476SOL    HW226328   6.388   1.054   1.938
 8477SOL     OW26329   5.651   0.889   0.577
 8477SOL    HW126330   5.716   0.823   0.613
 8477SOL    HW226331   5.563   0.878   0.623
 8478SOL     OW26332   0.973   6.569   5.975
 8478SOL    HW126333   0.989   6.653   5.923
 8478SOL    HW226334   1.007   6.581   6.069
 8479SOL     OW26335   0.892   2.735   0.136
 8479SOL    HW126336   0.811   2.723   0.193
 8479SOL    HW226337   0.875   2.806   0.067
 8480SOL     OW26338   2.997   4.307   0.833
 8480SOL    HW126339   3.093   4.278   0.840
 8480SOL    HW226340   2.993   4.406   0.828
 8481SOL     OW26341   4.715   2.742   2.852
 8481SOL    HW126342   4.692   2.742   2.950
 8481SOL    HW226343   4.740   2.835   2.824
 8482SOL     OW26344   4.304   0.119   6.542
 8482SOL    HW126345   4.327   0.120   6.445
 8482SOL    HW226346   4.302   0.024   6.574
 8483SOL     OW26347   4.006   4.769   3.574
 8483SOL    HW126348   3.925   4.785   3.519
 8483SOL    HW226349   4.082   4.739   3.515
 8484SOL     OW26350   6.446   6.293   5.253
 8484SOL    HW126351   6.520   6.287   5.320
 8484SOL    HW226352   6.386   6.369   5.276
 8485SOL     OW26353   4.293   0.769   5.894
 8485SOL    HW126354   4.210   0.716   5.911
 8485SOL    HW226355   4.339   0.789   5.980
 8486SOL     OW26356   5.719   2.299   4.674
 8486SOL    HW126357   5.675   2.212   4.653
 8486SOL    HW226358   5.805   2.283   4.722
 8487SOL     OW26359   6.612   2.113   6.068
 8487SOL    HW126360   6.572   2.164   6.144
 8487SOL    HW226361   6.692   2.062   6.102
 8488SOL     OW26362   4.004   4.784   2.300
 8488SOL    HW126363   3.911   4.793   2.264
 8488SOL    HW226364   4.053   4.714   2.248
 8489SOL     OW26365   6.386   2.315   2.429
 8489SOL    HW126366   6.291   2.331   2.456
 8489SOL    HW226367   6.446   2.337   2.506
 8490SOL     OW26368   3.288   0.042   0.340
 8490SOL    HW126369   3.278   6.966   0.343
 8490SOL    HW226370   3.359   0.071   0.404
 8491SOL     OW26371   3.432   5.203   2.224
 8491SOL    HW126372   3.427   5.255   2.309
 8491SOL    HW226373   3.456   5.265   2.149
 8492SOL     OW26374   6.186   6.474   4.056
 8492SOL    HW126375   6.284   6.492   4.051
 8492SOL    HW226376   6.169   6.376   4.045
 8493SOL     OW26377   5.148   0.469   5.714
 8493SOL    HW126378   5.136   0.373   5.739
 8493SOL    HW226379   5.224   0.478   5.650
 8494SOL     OW26380   0.204   3.387   2.044
 8494SOL    HW126381   0.162   3.307   2.002
 8494SOL    HW226382   0.196   3.381   2.143
 8495SOL     OW26383   5.904   5.542   6.043
 8495SOL    HW126384   5.883   5.576   6.134
 8495SOL    HW226385   5.855   5.456   6.027
 8496SOL     OW26386   4.859   1.772   2.724
 8496SOL    HW126387   4.771   1.814   2.699
 8496SOL    HW226388   4.847   1.720   2.809
 8497SOL     OW26389   6.286   0.720   2.168
 8497SOL    HW126390   6.250   0.628   2.155
 8497SOL    HW226391   6.296   0.739   2.265
 8498SOL     OW26392   4.456   6.184   4.082
 8498SOL    HW126393   4.359   6.161   4.083
 8498SOL    HW226394   4.487   6.195   3.987
 8499SOL     OW26395   6.083   6.948   4.978
 8499SOL    HW126396   6.085   7.005   5.060
 8499SOL    HW226397   6.172   6.950   4.933
 8500SOL     OW26398   1.117   0.705   6.676
 8500SOL    HW126399   1.191   0.771   6.685
 8500SOL    HW226400   1.058   0.730   6.599
 8501SOL     OW26401   3.477   1.125   5.448
 8501SOL    HW126402   3.444   1.042   5.403
 8501SOL    HW226403   3.400   1.183   5.473
 8502SOL     OW26404   6.362   2.982   0.174
 8502SOL    HW126405   6.291   2.951   0.237
 8502SOL    HW226406   6.437   3.022   0.226
 8503SOL     OW26407   4.911   2.479   5.810
 8503SOL    HW126408   4.947   2.397   5.766
 8503SOL    HW226409   4.987   2.534   5.845
 8504SOL     OW26410   1.284   0.043   2.982
 8504SOL    HW126411   1.247   0.050   2.889
 8504SOL    HW226412   1.264   0.129   3.031
 8505SOL     OW26413   5.445   1.732   2.959
 8505SOL    HW126414   5.412   1.653   3.011
 8505SOL    HW226415   5.381   1.751   2.884
 8506SOL     OW26416   1.736   0.498   5.945
 8506SOL    HW126417   1.735   0.577   5.884
 8506SOL    HW226418   1.830   0.481   5.975
 8507SOL     OW26419   4.163   4.928   5.400
 8507SOL    HW126420   4.102   4.942   5.478
 8507SOL    HW226421   4.161   5.008   5.341
 8508SOL     OW26422   3.473   0.874   6.514
 8508SOL    HW126423   3.550   0.811   6.508
 8508SOL    HW226424   3.387   0.823   6.515
 8509SOL     OW26425   5.113   2.282   2.205
 8509SOL    HW126426   5.160   2.285   2.293
 8509SOL    HW226427   5.047   2.357   2.200
 8510SOL     OW26428   0.916   1.873   4.912
 8510SOL    HW126429   0.989   1.902   4.850
 8510SOL    HW226430   0.937   1.904   5.005
 8511SOL     OW26431   5.765   2.280   3.758
 8511SOL    HW126432   5.823   2.356   3.786
 8511SOL    HW226433   5.756   2.280   3.658
 8512SOL     OW26434   2.131   0.201   5.643
 8512SOL    HW126435   2.103   0.290   5.605
 8512SOL    HW226436   2.059   0.134   5.628
 8513SOL     OW26437   4.208   5.504   0.073
 8513SOL    HW126438   4.174   5.410   0.072
 8513SOL    HW226439   4.307   5.504   0.058
 8514SOL     OW26440   3.212   5.835   4.663
 8514SOL    HW126441   3.310   5.846   4.650
 8514SOL    HW226442   3.172   5.794   4.581
 8515SOL     OW26443   5.592   2.380   2.028
 8515SOL    HW126444   5.639   2.468   2.043
 8515SOL    HW226445   5.497   2.388   2.058
 8516SOL     OW26446   6.527   1.644   1.742
 8516SOL    HW126447   6.439   1.689   1.752
 8516SOL    HW226448   6.600   1.709   1.763
 8517SOL     OW26449   1.379   3.474   5.413
 8517SOL    HW126450   1.284   3.444   5.414
 8517SOL    HW226451   1.438   3.400   5.442
 8518SOL     OW26452   2.987   5.692   1.047
 8518SOL    HW126453   2.914   5.754   1.016
 8518SOL    HW226454   3.075   5.724   1.011
 8519SOL     OW26455   2.751   5.457   3.756
 8519SOL    HW126456   2.824   5.494   3.814
 8519SOL    HW226457   2.774   5.472   3.660
 8520SOL     OW26458   3.601   6.210   6.524
 8520SOL    HW126459   3.607   6.308   6.538
 8520SOL    HW226460   3.513   6.176   6.557
 8521SOL     OW26461   1.893   1.131   2.569
 8521SOL    HW126462   1.810   1.173   2.605
 8521SOL    HW226463   1.929   1.187   2.494
 8522SOL     OW26464   2.317   6.830   4.620
 8522SOL    HW126465   2.258   6.837   4.540
 8522SOL    HW226466   2.262   6.839   4.703
 8523SOL     OW26467   1.921   6.663   6.907
 8523SOL    HW126468   1.947   6.633   6.815
 8523SOL    HW226469   1.984   6.622   6.974
 8524SOL     OW26470   2.083   1.824   0.331
 8524SOL    HW126471   2.047   1.896   0.271
 8524SOL    HW226472   2.037   1.827   0.419
 8525SOL     OW26473   5.304   3.456   4.198
 8525SOL    HW126474   5.266   3.407   4.120
 8525SOL    HW226475   5.275   3.552   4.193
 8526SOL     OW26476   1.205   3.660   1.912
 8526SOL    HW126477   1.114   3.696   1.929
 8526SOL    HW226478   1.212   3.567   1.948
 8527SOL     OW26479   4.530   6.995   4.664
 8527SOL    HW126480   4.506   0.065   4.691
 8527SOL    HW226481   4.629   6.983   4.671
 8528SOL     OW26482   5.613   1.052   0.155
 8528SOL    HW126483   5.617   1.152   0.152
 8528SOL    HW226484   5.521   1.021   0.132
 8529SOL     OW26485   0.094   6.751   5.352
 8529SOL    HW126486   0.147   6.678   5.395
 8529SOL    HW226487   0.128   6.767   5.260
 8530SOL     OW26488   1.776   4.837   6.015
 8530SOL    HW126489   1.838   4.761   5.994
 8530SOL    HW226490   1.817   4.923   5.986
 8531SOL     OW26491   4.073   5.268   1.678
 8531SOL    HW126492   4.036   5.314   1.758
 8531SOL    HW226493   4.047   5.172   1.679
 8532SOL     OW26494   1.511   4.212   0.405
 8532SOL    HW126495   1.602   4.230   0.442
 8532SOL    HW226496   1.509   4.236   0.307
 8533SOL     OW26497   3.556   6.281   5.313
 8533SOL    HW126498   3.558   6.282   5.413
 8533SOL    HW226499   3.577   6.373   5.279
 8534SOL     OW26500   1.969   2.370   0.627
 8534SOL    HW126501   2.036   2.329   0.689
 8534SOL    HW226502   1.984   2.469   0.622
 8535SOL     OW26503   0.927   3.206   6.235
 8535SOL    HW126504   0.956   3.145   6.162
 8535SOL    HW226505   0.934   3.159   6.323
 8536SOL     OW26506   5.932   0.381   6.133
 8536SOL    HW126507   5.914   0.285   6.112
 8536SOL    HW226508   5.864   0.438   6.087
 8537SOL     OW26509   4.297   6.248   3.440
 8537SOL    HW126510   4.203   6.250   3.407
 8537SOL    HW226511   4.355   6.301   3.379
 8538SOL     OW26512   5.151   0.077   5.201
 8538SOL    HW126513   5.078   0.127   5.155
 8538SOL    HW226514   5.182   0.001   5.143
 8539SOL     OW26515   1.198   2.988   3.097
 8539SOL    HW126516   1.169   3.080   3.070
 8539SOL    HW226517   1.286   2.993   3.143
 8540SOL     OW26518   4.766   6.715   6.351
 8540SOL    HW126519   4.782   6.655   6.272
 8540SOL    HW226520   4.816   6.801   6.338
 8541SOL     OW26521   2.761   6.534   5.579
 8541SOL    HW126522   2.809   6.553   5.493
 8541SOL    HW226523   2.709   6.449   5.570
 8542SOL     OW26524   1.192   5.122   5.713
 8542SOL    HW126525   1.259   5.048   5.716
 8542SOL    HW226526   1.208   5.184   5.789
 8543SOL     OW26527   3.441   2.171   5.543
 8543SOL    HW126528   3.475   2.079   5.557
 8543SOL    HW226529   3.341   2.170   5.539
 8544SOL     OW26530   5.605   3.682   5.300
 8544SOL    HW126531   5.693   3.684   5.252
 8544SOL    HW226532   5.552   3.603   5.269
 8545SOL     OW26533   2.691   0.569   6.134
 8545SOL    HW126534   2.715   0.644   6.074
 8545SOL    HW226535   2.617   0.597   6.195
 8546SOL     OW26536   3.360   1.170   3.642
 8546SOL    HW126537   3.460   1.167   3.636
 8546SOL    HW226538   3.321   1.137   3.556
 8547SOL     OW26539   5.449   6.322   5.645
 8547SOL    HW126540   5.439   6.396   5.711
 8547SOL    HW226541   5.382   6.333   5.572
 8548SOL     OW26542   1.361   4.470   4.398
 8548SOL    HW126543   1.326   4.390   4.350
 8548SOL    HW226544   1.293   4.502   4.464
 8549SOL     OW26545   2.881   0.339   3.820
 8549SOL    HW126546   2.856   0.244   3.802
 8549SOL    HW226547   2.804   0.386   3.863
 8550SOL     OW26548   0.401   4.275   5.219
 8550SOL    HW126549   0.378   4.192   5.169
 8550SOL    HW226550   0.331   4.345   5.204
 8551SOL     OW26551   3.943   1.504   4.427
 8551SOL    HW126552   3.951   1.455   4.340
 8551SOL    HW226553   4.020   1.480   4.486
 8552SOL     OW26554   3.749   1.808   2.125
 8552SOL    HW126555   3.721   1.902   2.145
 8552SOL    HW226556   3.836   1.788   2.170
 8553SOL     OW26557   4.883   3.672   0.541
 8553SOL    HW126558   4.868   3.582   0.584
 8553SOL    HW226559   4.902   3.739   0.612
 8554SOL     OW26560   1.547   1.150   6.857
 8554SOL    HW126561   1.576   1.115   6.946
 8554SOL    HW226562   1.478   1.221   6.870
 8555SOL     OW26563   3.289   1.846   3.608
 8555SOL    HW126564   3.388   1.852   3.621
 8555SOL    HW226565   3.246   1.932   3.636
 8556SOL     OW26566   0.076   4.849   5.347
 8556SOL    HW126567   0.093   4.767   5.402
 8556SOL    HW226568   0.125   4.927   5.385
 8557SOL     OW26569   6.417   0.983   0.465
 8557SOL    HW126570   6.370   1.065   0.496
 8557SOL    HW226571   6.435   0.923   0.543
 8558SOL     OW26572   2.877   6.635   3.588
 8558SOL    HW126573   2.892   6.651   3.491
 8558SOL    HW226574   2.781   6.611   3.604
 8559SOL     OW26575   1.414   3.105   3.349
 8559SOL    HW126576   1.432   3.203   3.361
 8559SOL    HW226577   1.321   3.085   3.378
 8560SOL     OW26578   3.256   4.056   1.413
 8560SOL    HW126579   3.162   4.074   1.384
 8560SOL    HW226580   3.277   3.959   1.400
 8561SOL     OW26581   3.906   0.574   2.577
 8561SOL    HW126582   3.979   0.520   2.536
 8561SOL    HW226583   3.871   0.528   2.658
 8562SOL     OW26584   5.366   2.527   6.589
 8562SOL    HW126585   5.313   2.589   6.647
 8562SOL    HW226586   5.444   2.491   6.641
 8563SOL     OW26587   1.432   4.856   2.786
 8563SOL    HW126588   1.386   4.945   2.785
 8563SOL    HW226589   1.367   4.785   2.810
 8564SOL     OW26590   3.853   6.596   6.962
 8564SOL    HW126591   3.800   6.582   6.878
 8564SOL    HW226592   3.791   6.599   0.017
 8565SOL     OW26593   0.702   5.411   1.191
 8565SOL    HW126594   0.675   5.333   1.134
 8565SOL    HW226595   0.718   5.490   1.132
 8566SOL     OW26596   3.630   1.167   3.566
 8566SOL    HW126597   3.688   1.086   3.568
 8566SOL    HW226598   3.656   1.225   3.489
 8567SOL     OW26599   1.624   2.705   1.433
 8567SOL    HW126600   1.700   2.641   1.435
 8567SOL    HW226601   1.560   2.678   1.360
 8568SOL     OW26602   5.751   0.118   5.707
 8568SOL    HW126603   5.667   0.167   5.682
 8568SOL    HW226604   5.828   0.155   5.657
 8569SOL     OW26605   5.239   1.313   6.433
 8569SOL    HW126606   5.307   1.370   6.480
 8569SOL    HW226607   5.211   1.357   6.348
 8570SOL     OW26608   1.461   1.890   3.655
 8570SOL    HW126609   1.398   1.825   3.697
 8570SOL    HW226610   1.518   1.842   3.589
 8571SOL     OW26611   1.261   0.750   3.398
 8571SOL    HW126612   1.232   0.719   3.489
 8571SOL    HW226613   1.285   0.847   3.402
 8572SOL     OW26614   3.200   3.829   5.513
 8572SOL    HW126615   3.276   3.842   5.577
 8572SOL    HW226616   3.119   3.876   5.548
 8573SOL     OW26617   1.457   6.076   6.016
 8573SOL    HW126618   1.382   6.057   6.080
 8573SOL    HW226619   1.521   6.142   6.057
 8574SOL     OW26620   5.974   1.319   5.089
 8574SOL    HW126621   6.067   1.297   5.117
 8574SOL    HW226622   5.950   1.267   5.007
 8575SOL     OW26623   2.934   6.191   4.574
 8575SOL    HW126624   2.905   6.108   4.526
 8575SOL    HW226625   2.859   6.257   4.575
 8576SOL     OW26626   1.413   3.683   5.216
 8576SOL    HW126627   1.402   3.610   5.284
 8576SOL    HW226628   1.378   3.652   5.128
 8577SOL     OW26629   1.793   0.796   0.645
 8577SOL    HW126630   1.879   0.766   0.686
 8577SOL    HW226631   1.802   0.890   0.613
 8578SOL     OW26632   1.227   0.346   6.160
 8578SOL    HW126633   1.310   0.381   6.204
 8578SOL    HW226634   1.226   0.247   6.166
 8579SOL     OW26635   3.603   6.531   1.941
 8579SOL    HW126636   3.694   6.552   1.904
 8579SOL    HW226637   3.600   6.559   2.037
 8580SOL     OW26638   2.487   0.412   1.664
 8580SOL    HW126639   2.549   0.391   1.588
 8580SOL    HW226640   2.525   0.376   1.749
 8581SOL     OW26641   3.969   3.978   2.190
 8581SOL    HW126642   4.016   3.969   2.103
 8581SOL    HW226643   3.901   4.051   2.185
 8582SOL     OW26644   4.589   5.523   5.614
 8582SOL    HW126645   4.664   5.476   5.660
 8582SOL    HW226646   4.502   5.486   5.645
 8583SOL     OW26647   3.505   6.830   3.007
 8583SOL    HW126648   3.592   6.791   2.977
 8583SOL    HW226649   3.443   6.756   3.033
 8584SOL     OW26650   6.281   1.937   5.005
 8584SOL    HW126651   6.366   1.937   5.058
 8584SOL    HW226652   6.282   1.859   4.942
 8585SOL     OW26653   4.817   2.121   2.063
 8585SOL    HW126654   4.774   2.199   2.108
 8585SOL    HW226655   4.807   2.040   2.120
 8586SOL     OW26656   6.666   6.239   5.434
 8586SOL    HW126657   6.740   6.195   5.383
 8586SOL    HW226658   6.669   6.207   5.529
 8587SOL     OW26659   6.877   1.334   0.728
 8587SOL    HW126660   6.889   1.294   0.819
 8587SOL    HW226661   6.884   1.433   0.735
 8588SOL     OW26662   1.710   1.040   5.395
 8588SOL    HW126663   1.795   1.092   5.398
 8588SOL    HW226664   1.728   0.946   5.368
 8589SOL     OW26665   5.666   2.589   6.746
 8589SOL    HW126666   5.756   2.600   6.788
 8589SOL    HW226667   5.650   2.663   6.682
 8590SOL     OW26668   1.461   1.366   2.993
 8590SOL    HW126669   1.495   1.420   2.916
 8590SOL    HW226670   1.538   1.330   3.046
 8591SOL     OW26671   1.140   3.804   5.264
 8591SOL    HW126672   1.077   3.740   5.307
 8591SOL    HW226673   1.231   3.763   5.257
 8592SOL     OW26674   0.252   2.166   4.773
 8592SOL    HW126675   0.153   2.172   4.787
 8592SOL    HW226676   0.270   2.116   4.688
 8593SOL     OW26677   6.534   1.389   0.630
 8593SOL    HW126678   6.575   1.310   0.585
 8593SOL    HW226679   6.447   1.363   0.671
 8594SOL     OW26680   5.980   3.916   6.323
 8594SOL    HW126681   6.062   3.930   6.268
 8594SOL    HW226682   5.960   4.000   6.375
 8595SOL     OW26683   5.484   6.291   2.375
 8595SOL    HW126684   5.489   6.216   2.441
 8595SOL    HW226685   5.573   6.336   2.368
 8596SOL     OW26686   0.682   2.105   5.997
 8596SOL    HW126687   0.636   2.144   5.917
 8596SOL    HW226688   0.731   2.022   5.971
 8597SOL     OW26689   6.075   2.244   5.721
 8597SOL    HW126690   6.020   2.173   5.764
 8597SOL    HW226691   6.064   2.330   5.771
 8598SOL     OW26692   6.790   1.067   6.096
 8598SOL    HW126693   6.808   1.092   6.192
 8598SOL    HW226694   6.706   1.112   6.065
 8599SOL     OW26695   5.823   3.669   5.131
 8599SOL    HW126696   5.804   3.735   5.058
 8599SOL    HW226697   5.915   3.685   5.167
 8600SOL     OW26698   4.383   2.674   1.402
 8600SOL    HW126699   4.416   2.683   1.496
 8600SOL    HW226700   4.331   2.755   1.377
 8601SOL     OW26701   4.798   5.607   2.538
 8601SOL    HW126702   4.707   5.576   2.512
 8601SOL    HW226703   4.834   5.669   2.469
 8602SOL     OW26704   1.674   7.005   5.513
 8602SOL    HW126705   1.645   6.910   5.510
 8602SOL    HW226706   1.594   0.042   5.510
 8603SOL     OW26707   0.572   1.106   6.742
 8603SOL    HW126708   0.584   1.125   6.645
 8603SOL    HW226709   0.631   1.166   6.795
 8604SOL     OW26710   1.568   5.199   6.410
 8604SOL    HW126711   1.629   5.223   6.485
 8604SOL    HW226712   1.579   5.102   6.387
 8605SOL     OW26713   6.527   4.334   3.647
 8605SOL    HW126714   6.508   4.236   3.657
 8605SOL    HW226715   6.595   4.347   3.575
 8606SOL     OW26716   1.036   0.366   6.357
 8606SOL    HW126717   1.098   0.399   6.429
 8606SOL    HW226718   1.076   0.385   6.268
 8607SOL     OW26719   2.970   3.213   1.250
 8607SOL    HW126720   2.941   3.308   1.246
 8607SOL    HW226721   2.964   3.180   1.345
 8608SOL     OW26722   1.873   6.384   1.742
 8608SOL    HW126723   1.957   6.332   1.757
 8608SOL    HW226724   1.814   6.377   1.823
 8609SOL     OW26725   5.490   2.412   4.849
 8609SOL    HW126726   5.568   2.375   4.799
 8609SOL    HW226727   5.518   2.436   4.942
 8610SOL     OW26728   6.841   5.075   2.217
 8610SOL    HW126729   6.930   5.032   2.199
 8610SOL    HW226730   6.770   5.004   2.219
 8611SOL     OW26731   1.803   1.680   5.287
 8611SOL    HW126732   1.734   1.620   5.246
 8611SOL    HW226733   1.852   1.630   5.358
 8612SOL     OW26734   3.632   3.314   5.463
 8612SOL    HW126735   3.570   3.242   5.431
 8612SOL    HW226736   3.714   3.272   5.502
 8613SOL     OW26737   3.413   3.132   3.454
 8613SOL    HW126738   3.406   3.221   3.500
 8613SOL    HW226739   3.346   3.069   3.493
 8614SOL     OW26740   0.607   2.650   3.762
 8614SOL    HW126741   0.674   2.674   3.833
 8614SOL    HW226742   0.577   2.733   3.715
 8615SOL     OW26743   3.919   1.219   5.508
 8615SOL    HW126744   4.013   1.222   5.475
 8615SOL    HW226745   3.889   1.311   5.532
 8616SOL     OW26746   5.654   4.227   5.520
 8616SOL    HW126747   5.632   4.323   5.538
 8616SOL    HW226748   5.753   4.218   5.509
 8617SOL     OW26749   1.121   6.836   3.048
 8617SOL    HW126750   1.186   6.909   3.028
 8617SOL    HW226751   1.046   6.871   3.103
 8618SOL     OW26752   5.846   4.315   0.839
 8618SOL    HW126753   5.902   4.232   0.834
 8618SOL    HW226754   5.789   4.322   0.758
 8619SOL     OW26755   5.143   5.365   0.261
 8619SOL    HW126756   5.082   5.386   0.185
 8619SOL    HW226757   5.106   5.288   0.313
 8620SOL     OW26758   1.388   6.319   3.794
 8620SOL    HW126759   1.483   6.309   3.822
 8620SOL    HW226760   1.347   6.396   3.842
 8621SOL     OW26761   6.139   3.474   1.692
 8621SOL    HW126762   6.060   3.436   1.643
 8621SOL    HW226763   6.157   3.418   1.773
 8622SOL     OW26764   1.015   5.890   1.422
 8622SOL    HW126765   0.990   5.905   1.517
 8622SOL    HW226766   0.937   5.913   1.363
 8623SOL     OW26767   2.213   1.884   3.115
 8623SOL    HW126768   2.164   1.884   3.029
 8623SOL    HW226769   2.263   1.970   3.126
 8624SOL     OW26770   3.417   3.940   5.231
 8624SOL    HW126771   3.323   3.957   5.202
 8624SOL    HW226772   3.420   3.856   5.286
 8625SOL     OW26773   4.431   3.477   6.097
 8625SOL    HW126774   4.468   3.438   6.012
 8625SOL    HW226775   4.332   3.467   6.097
 8626SOL     OW26776   4.668   1.954   1.722
 8626SOL    HW126777   4.700   1.944   1.816
 8626SOL    HW226778   4.568   1.944   1.720
 8627SOL     OW26779   0.926   0.209   2.694
 8627SOL    HW126780   0.892   0.296   2.658
 8627SOL    HW226781   0.938   0.144   2.620
 8628SOL     OW26782   1.580   0.097   0.964
 8628SOL    HW126783   1.642   0.085   1.042
 8628SOL    HW226784   1.519   0.174   0.982
 8629SOL     OW26785   0.200   0.314   4.552
 8629SOL    HW126786   0.216   0.221   4.584
 8629SOL    HW226787   0.260   0.334   4.475
 8630SOL     OW26788   4.998   2.502   1.476
 8630SOL    HW126789   4.945   2.432   1.524
 8630SOL    HW226790   5.061   2.457   1.411
 8631SOL     OW26791   1.590   6.420   6.326
 8631SOL    HW126792   1.537   6.337   6.310
 8631SOL    HW226793   1.535   6.484   6.380
 8632SOL     OW26794   6.184   5.929   4.137
 8632SOL    HW126795   6.140   5.917   4.226
 8632SOL    HW226796   6.283   5.921   4.147
 8633SOL     OW26797   6.624   3.280   5.794
 8633SOL    HW126798   6.596   3.370   5.827
 8633SOL    HW226799   6.549   3.215   5.808
 8634SOL     OW26800   5.207   5.040   6.206
 8634SOL    HW126801   5.266   4.997   6.137
 8634SOL    HW226802   5.112   5.010   6.191
 8635SOL     OW26803   4.872   2.311   6.627
 8635SOL    HW126804   4.940   2.271   6.688
 8635SOL    HW226805   4.871   2.261   6.540
 8636SOL     OW26806   3.927   6.287   1.502
 8636SOL    HW126807   3.848   6.297   1.564
 8636SOL    HW226808   3.906   6.218   1.433
 8637SOL     OW26809   2.881   2.469   0.117
 8637SOL    HW126810   2.962   2.424   0.155
 8637SOL    HW226811   2.852   2.541   0.179
 8638SOL     OW26812   5.138   2.679   4.556
 8638SOL    HW126813   5.045   2.649   4.533
 8638SOL    HW226814   5.188   2.603   4.598
 8639SOL     OW26815   3.165   4.704   0.402
 8639SOL    HW126816   3.136   4.683   0.309
 8639SOL    HW226817   3.096   4.763   0.446
 8640SOL     OW26818   4.058   2.482   6.965
 8640SOL    HW126819   3.963   2.495   6.938
 8640SOL    HW226820   4.095   2.569   6.999
 8641SOL     OW26821   3.072   5.020   3.483
 8641SOL    HW126822   3.038   5.100   3.532
 8641SOL    HW226823   3.057   4.938   3.538
 8642SOL     OW26824   2.262   6.004   3.261
 8642SOL    HW126825   2.225   6.097   3.270
 8642SOL    HW226826   2.248   5.955   3.347
 8643SOL     OW26827   4.036   6.480   1.365
 8643SOL    HW126828   4.053   6.467   1.267
 8643SOL    HW226829   3.997   6.397   1.403
 8644SOL     OW26830   6.043   2.448   6.297
 8644SOL    HW126831   6.120   2.469   6.237
 8644SOL    HW226832   5.970   2.405   6.244
 8645SOL     OW26833   4.930   4.926   2.359
 8645SOL    HW126834   5.022   4.966   2.361
 8645SOL    HW226835   4.937   4.827   2.374
 8646SOL     OW26836   0.249   2.066   5.185
 8646SOL    HW126837   0.161   2.091   5.145
 8646SOL    HW226838   0.281   1.980   5.145
 8647SOL     OW26839   1.719   5.099   1.743
 8647SOL    HW126840   1.736   5.106   1.841
 8647SOL    HW226841   1.806   5.105   1.693
 8648SOL     OW26842   5.415   5.288   0.255
 8648SOL    HW126843   5.487   5.357   0.260
 8648SOL    HW226844   5.326   5.334   0.251
 8649SOL     OW26845   5.702   1.922   1.934
 8649SOL    HW126846   5.609   1.910   1.900
 8649SOL    HW226847   5.708   1.890   2.028
 8650SOL     OW26848   2.168   1.093   5.398
 8650SOL    HW126849   2.259   1.068   5.433
 8650SOL    HW226850   2.177   1.166   5.331
 8651SOL     OW26851   4.075   1.870   2.174
 8651SOL    HW126852   4.014   1.946   2.151
 8651SOL    HW226853   4.128   1.893   2.255
 8652SOL     OW26854   6.865   2.171   4.100
 8652SOL    HW126855   6.936   2.101   4.105
 8652SOL    HW226856   6.846   2.192   4.004
 8653SOL     OW26857   5.835   1.160   0.334
 8653SOL    HW126858   5.755   1.102   0.349
 8653SOL    HW226859   5.824   1.209   0.247
 8654SOL     OW26860   0.576   4.976   2.896
 8654SOL    HW126861   0.675   4.985   2.890
 8654SOL    HW226862   0.553   4.895   2.950
 8655SOL     OW26863   1.304   0.029   4.869
 8655SOL    HW126864   1.349   0.089   4.934
 8655SOL    HW226865   1.293   6.962   4.910
 8656SOL     OW26866   4.457   5.652   0.953
 8656SOL    HW126867   4.421   5.702   0.874
 8656SOL    HW226868   4.494   5.717   1.020
 8657SOL     OW26869   3.341   1.622   2.748
 8657SOL    HW126870   3.371   1.701   2.801
 8657SOL    HW226871   3.247   1.637   2.715
 8658SOL     OW26872   6.309   3.710   1.044
 8658SOL    HW126873   6.270   3.798   1.015
 8658SOL    HW226874   6.255   3.673   1.119
 8659SOL     OW26875   3.802   0.675   3.300
 8659SOL    HW126876   3.868   0.677   3.225
 8659SOL    HW226877   3.803   0.584   3.342
 8660SOL     OW26878   0.127   3.753   1.769
 8660SOL    HW126879   0.102   3.839   1.811
 8660SOL    HW226880   0.115   3.760   1.670
 8661SOL     OW26881   6.342   3.703   2.466
 8661SOL    HW126882   6.398   3.723   2.386
 8661SOL    HW226883   6.372   3.759   2.543
 8662SOL     OW26884   1.647   2.235   2.651
 8662SOL    HW126885   1.605   2.237   2.560
 8662SOL    HW226886   1.667   2.328   2.680
 8663SOL     OW26887   3.393   5.023   2.990
 8663SOL    HW126888   3.415   5.003   3.086
 8663SOL    HW226889   3.294   5.036   2.981
 8664SOL     OW26890   3.314   6.271   4.117
 8664SOL    HW126891   3.295   6.368   4.125
 8664SOL    HW226892   3.290   6.225   4.203
 8665SOL     OW26893   6.449   4.064   6.519
 8665SOL    HW126894   6.515   4.006   6.471
 8665SOL    HW226895   6.371   4.009   6.549
 8666SOL     OW26896   4.557   0.666   3.088
 8666SOL    HW126897   4.494   0.646   3.164
 8666SOL    HW226898   4.647   0.691   3.125
 8667SOL     OW26899   5.319   2.171   2.023
 8667SOL    HW126900   5.373   2.210   1.948
 8667SOL    HW226901   5.230   2.215   2.027
 8668SOL     OW26902   4.421   1.947   4.313
 8668SOL    HW126903   4.393   1.854   4.335
 8668SOL    HW226904   4.400   1.966   4.216
 8669SOL     OW26905   0.193   6.246   6.152
 8669SOL    HW126906   0.260   6.304   6.107
 8669SOL    HW226907   0.178   6.278   6.245
 8670SOL     OW26908   6.990   5.497   5.442
 8670SOL    HW126909   0.047   5.557   5.433
 8670SOL    HW226910   7.020   5.402   5.443
 8671SOL     OW26911   7.008   2.990   3.638
 8671SOL    HW126912   6.994   3.064   3.572
 8671SOL    HW226913   6.937   2.995   3.709
 8672SOL     OW26914   6.332   1.329   2.515
 8672SOL    HW126915   6.312   1.293   2.424
 8672SOL    HW226916   6.431   1.324   2.531
 8673SOL     OW26917   0.896   1.285   1.818
 8673SOL    HW126918   0.862   1.199   1.781
 8673SOL    HW226919   0.939   1.338   1.745
 8674SOL     OW26920   0.407   3.598   3.467
 8674SOL    HW126921   0.498   3.568   3.496
 8674SOL    HW226922   0.414   3.643   3.378
 8675SOL     OW26923   4.691   2.849   5.196
 8675SOL    HW126924   4.672   2.834   5.099
 8675SOL    HW226925   4.702   2.947   5.213
 8676SOL     OW26926   4.276   2.111   0.744
 8676SOL    HW126927   4.240   2.171   0.815
 8676SOL    HW226928   4.375   2.100   0.756
 8677SOL     OW26929   2.928   0.692   0.264
 8677SOL    HW126930   2.845   0.744   0.283
 8677SOL    HW226931   2.917   0.598   0.295
 8678SOL     OW26932   3.012   2.023   0.368
 8678SOL    HW126933   3.059   2.062   0.446
 8678SOL    HW226934   3.055   1.936   0.343
 8679SOL     OW26935   1.803   1.800   6.596
 8679SOL    HW126936   1.704   1.809   6.601
 8679SOL    HW226937   1.841   1.873   6.539
 8680SOL     OW26938   6.929   0.551   0.818
 8680SOL    HW126939   6.966   0.591   0.734
 8680SOL    HW226940   6.958   0.606   0.897
 8681SOL     OW26941   5.485   4.873   1.066
 8681SOL    HW126942   5.476   4.852   1.163
 8681SOL    HW226943   5.486   4.789   1.012
 8682SOL     OW26944   2.423   0.884   2.973
 8682SOL    HW126945   2.329   0.908   3.000
 8682SOL    HW226946   2.480   0.882   3.055
 8683SOL     OW26947   2.493   4.558   3.851
 8683SOL    HW126948   2.508   4.542   3.949
 8683SOL    HW226949   2.424   4.630   3.840
 8684SOL     OW26950   2.333   4.293   3.474
 8684SOL    HW126951   2.373   4.359   3.411
 8684SOL    HW226952   2.323   4.335   3.564
 8685SOL     OW26953   5.254   3.513   5.091
 8685SOL    HW126954   5.176   3.470   5.047
 8685SOL    HW226955   5.223   3.576   5.162
 8686SOL     OW26956   1.150   5.063   3.109
 8686SOL    HW126957   1.241   5.034   3.138
 8686SOL    HW226958   1.093   4.982   3.093
 8687SOL     OW26959   5.571   4.460   5.600
 8687SOL    HW126960   5.605   4.553   5.611
 8687SOL    HW226961   5.471   4.460   5.605
 8688SOL     OW26962   0.787   4.141   4.854
 8688SOL    HW126963   0.784   4.212   4.925
 8688SOL    HW226964   0.862   4.078   4.872
 8689SOL     OW26965   4.528   3.596   0.984
 8689SOL    HW126966   4.523   3.516   1.044
 8689SOL    HW226967   4.590   3.664   1.024
 8690SOL     OW26968   1.452   2.202   2.035
 8690SOL    HW126969   1.391   2.265   1.988
 8690SOL    HW226970   1.399   2.126   2.073
 8691SOL     OW26971   3.417   1.503   6.888
 8691SOL    HW126972   3.334   1.559   6.886
 8691SOL    HW226973   3.396   1.411   6.854
 8692SOL     OW26974   5.274   2.478   4.695
 8692SOL    HW126975   5.280   2.474   4.795
 8692SOL    HW226976   5.366   2.472   4.657
 8693SOL     OW26977   0.223   0.535   5.806
 8693SOL    HW126978   0.187   0.580   5.725
 8693SOL    HW226979   0.157   0.541   5.881
 8694SOL     OW26980   4.128   3.917   5.290
 8694SOL    HW126981   4.225   3.912   5.314
 8694SOL    HW226982   4.106   3.843   5.226
 8695SOL     OW26983   3.887   4.753   1.445
 8695SOL    HW126984   3.924   4.705   1.365
 8695SOL    HW226985   3.958   4.809   1.487
 8696SOL     OW26986   3.379   6.173   6.637
 8696SOL    HW126987   3.303   6.111   6.617
 8696SOL    HW226988   3.343   6.265   6.655
 8697SOL     OW26989   1.406   3.323   4.858
 8697SOL    HW126990   1.395   3.306   4.760
 8697SOL    HW226991   1.482   3.269   4.893
 8698SOL     OW26992   5.383   3.823   0.369
 8698SOL    HW126993   5.355   3.729   0.386
 8698SOL    HW226994   5.482   3.826   0.354
 8699SOL     OW26995   2.777   2.293   1.238
 8699SOL    HW126996   2.786   2.370   1.301
 8699SOL    HW226997   2.858   2.288   1.181
 8700SOL     OW26998   0.194   1.984   4.446
 8700SOL    HW126999   0.195   1.905   4.507
 8700SOL    HW227000   0.267   1.975   4.378
 8701SOL     OW27001   1.816   3.582   6.578
 8701SOL    HW127002   1.761   3.639   6.518
 8701SOL    HW227003   1.906   3.567   6.537
 8702SOL     OW27004   5.611   3.952   1.606
 8702SOL    HW127005   5.530   3.903   1.573
 8702SOL    HW227006   5.583   4.019   1.675
 8703SOL     OW27007   2.104   5.678   2.158
 8703SOL    HW127008   2.204   5.670   2.165
 8703SOL    HW227009   2.064   5.674   2.250
 8704SOL     OW27010   6.555   1.209   3.913
 8704SOL    HW127011   6.481   1.148   3.884
 8704SOL    HW227012   6.642   1.162   3.905
 8705SOL     OW27013   3.567   2.209   0.434
 8705SOL    HW127014   3.544   2.146   0.359
 8705SOL    HW227015   3.643   2.171   0.486
 8706SOL     OW27016   4.697   2.866   5.827
 8706SOL    HW127017   4.759   2.886   5.902
 8706SOL    HW227018   4.641   2.786   5.851
 8707SOL     OW27019   0.823   1.135   3.808
 8707SOL    HW127020   0.810   1.216   3.750
 8707SOL    HW227021   0.872   1.065   3.756
 8708SOL     OW27022   5.808   2.316   0.577
 8708SOL    HW127023   5.823   2.243   0.510
 8708SOL    HW227024   5.897   2.352   0.607
 8709SOL     OW27025   6.658   6.149   3.636
 8709SOL    HW127026   6.668   6.121   3.541
 8709SOL    HW227027   6.715   6.092   3.695
 8710SOL     OW27028   2.465   2.519   3.715
 8710SOL    HW127029   2.536   2.453   3.740
 8710SOL    HW227030   2.406   2.480   3.644
 8711SOL     OW27031   1.809   1.301   2.294
 8711SOL    HW127032   1.805   1.368   2.220
 8711SOL    HW227033   1.904   1.279   2.315
 8712SOL     OW27034   1.737   3.754   4.470
 8712SOL    HW127035   1.737   3.660   4.437
 8712SOL    HW227036   1.816   3.803   4.432
 8713SOL     OW27037   6.937   3.857   2.736
 8713SOL    HW127038   6.850   3.817   2.710
 8713SOL    HW227039   6.956   3.839   2.832
 8714SOL     OW27040   6.770   4.037   6.487
 8714SOL    HW127041   6.807   4.115   6.536
 8714SOL    HW227042   6.843   3.993   6.434
 8715SOL     OW27043   2.508   5.266   0.798
 8715SOL    HW127044   2.519   5.301   0.891
 8715SOL    HW227045   2.579   5.306   0.739
 8716SOL     OW27046   5.631   0.550   2.248
 8716SOL    HW127047   5.546   0.533   2.198
 8716SOL    HW227048   5.628   0.504   2.337
 8717SOL     OW27049   3.706   2.025   0.611
 8717SOL    HW127050   3.743   1.934   0.592
 8717SOL    HW227051   3.627   2.016   0.672
 8718SOL     OW27052   2.979   5.535   6.255
 8718SOL    HW127053   2.892   5.500   6.221
 8718SOL    HW227054   3.051   5.468   6.238
 8719SOL     OW27055   3.052   1.800   4.878
 8719SOL    HW127056   3.093   1.886   4.909
 8719SOL    HW227057   3.078   1.784   4.783
 8720SOL     OW27058   0.499   6.105   4.976
 8720SOL    HW127059   0.545   6.144   4.896
 8720SOL    HW227060   0.480   6.177   5.042
 8721SOL     OW27061   1.392   1.024   1.033
 8721SOL    HW127062   1.342   1.045   1.117
 8721SOL    HW227063   1.370   1.092   0.963
 8722SOL     OW27064   4.003   1.342   0.320
 8722SOL    HW127065   4.091   1.304   0.290
 8722SOL    HW227066   3.982   1.309   0.412
 8723SOL     OW27067   3.971   6.023   2.928
 8723SOL    HW127068   3.952   6.109   2.881
 8723SOL    HW227069   3.885   5.977   2.950
 8724SOL     OW27070   3.269   0.854   5.323
 8724SOL    HW127071   3.367   0.861   5.309
 8724SOL    HW227072   3.247   0.767   5.367
 8725SOL     OW27073   6.729   0.805   2.299
 8725SOL    HW127074   6.679   0.889   2.321
 8725SOL    HW227075   6.725   0.789   2.201
 8726SOL     OW27076   6.713   1.201   0.568
 8726SOL    HW127077   6.764   1.117   0.549
 8726SOL    HW227078   6.775   1.272   0.601
 8727SOL     OW27079   4.783   5.561   6.612
 8727SOL    HW127080   4.873   5.519   6.598
 8727SOL    HW227081   4.793   5.660   6.616
 8728SOL     OW27082   6.071   6.616   4.306
 8728SOL    HW127083   6.092   6.537   4.364
 8728SOL    HW227084   6.122   6.609   4.220
 8729SOL     OW27085   5.803   6.095   5.761
 8729SOL    HW127086   5.840   6.016   5.811
 8729SOL    HW227087   5.869   6.124   5.692
 8730SOL     OW27088   3.775   4.720   1.729
 8730SOL    HW127089   3.838   4.655   1.685
 8730SOL    HW227090   3.827   4.782   1.788
 8731SOL     OW27091   0.140   2.294   4.172
 8731SOL    HW127092   0.188   2.376   4.204
 8731SOL    HW227093   0.041   2.308   4.180
 8732SOL     OW27094   5.340   6.217   5.159
 8732SOL    HW127095   5.362   6.314   5.160
 8732SOL    HW227096   5.285   6.194   5.240
 8733SOL     OW27097   6.532   4.327   1.915
 8733SOL    HW127098   6.457   4.372   1.867
 8733SOL    HW227099   6.496   4.280   1.996
 8734SOL     OW27100   0.946   5.199   1.130
 8734SOL    HW127101   0.988   5.289   1.137
 8734SOL    HW227102   0.950   5.167   1.035
 8735SOL     OW27103   1.120   3.089   6.045
 8735SOL    HW127104   1.170   3.059   6.126
 8735SOL    HW227105   1.129   3.188   6.035
 8736SOL     OW27106   1.598   6.015   3.266
 8736SOL    HW127107   1.598   5.985   3.362
 8736SOL    HW227108   1.558   6.107   3.261
 8737SOL     OW27109   0.141   5.661   6.565
 8737SOL    HW127110   0.196   5.585   6.600
 8737SOL    HW227111   0.070   5.684   6.631
 8738SOL     OW27112   2.170   3.059   2.229
 8738SOL    HW127113   2.185   3.005   2.312
 8738SOL    HW227114   2.142   2.998   2.155
 8739SOL     OW27115   4.383   4.581   2.721
 8739SOL    HW127116   4.398   4.483   2.728
 8739SOL    HW227117   4.354   4.617   2.810
 8740SOL     OW27118   2.769   1.582   3.509
 8740SOL    HW127119   2.862   1.598   3.542
 8740SOL    HW227120   2.771   1.560   3.412
 8741SOL     OW27121   1.841   2.175   2.430
 8741SOL    HW127122   1.878   2.097   2.481
 8741SOL    HW227123   1.879   2.175   2.337
 8742SOL     OW27124   1.819   3.221   1.870
 8742SOL    HW127125   1.879   3.300   1.879
 8742SOL    HW227126   1.816   3.171   1.957
 8743SOL     OW27127   1.111   3.318   0.045
 8743SOL    HW127128   1.099   3.225   0.078
 8743SOL    HW227129   1.155   3.373   0.115
 8744SOL     OW27130   3.310   4.006   6.236
 8744SOL    HW127131   3.350   4.095   6.213
 8744SOL    HW227132   3.257   4.014   6.321
 8745SOL     OW27133   5.880   1.679   6.447
 8745SOL    HW127134   5.807   1.698   6.512
 8745SOL    HW227135   5.942   1.758   6.442
 8746SOL     OW27136   4.169   4.803   4.799
 8746SOL    HW127137   4.222   4.744   4.738
 8746SOL    HW227138   4.182   4.773   4.894
 8747SOL     OW27139   0.775   7.017   2.026
 8747SOL    HW127140   0.717   7.014   2.108
 8747SOL    HW227141   0.721   0.023   1.948
 8748SOL     OW27142   5.651   1.711   4.153
 8748SOL    HW127143   5.559   1.712   4.192
 8748SOL    HW227144   5.718   1.698   4.226
 8749SOL     OW27145   2.928   1.804   4.034
 8749SOL    HW127146   3.027   1.805   4.023
 8749SOL    HW227147   2.888   1.880   3.982
 8750SOL     OW27148   4.014   3.611   1.154
 8750SOL    HW127149   4.062   3.529   1.121
 8750SOL    HW227150   4.028   3.686   1.090
 8751SOL     OW27151   2.191   0.121   0.638
 8751SOL    HW127152   2.116   0.181   0.611
 8751SOL    HW227153   2.266   0.175   0.677
 8752SOL     OW27154   0.294   3.301   6.230
 8752SOL    HW127155   0.296   3.324   6.328
 8752SOL    HW227156   0.201   3.312   6.195
 8753SOL     OW27157   2.048   1.732   1.106
 8753SOL    HW127158   2.126   1.750   1.047
 8753SOL    HW227159   1.972   1.793   1.081
 8754SOL     OW27160   1.375   6.151   5.779
 8754SOL    HW127161   1.429   6.121   5.857
 8754SOL    HW227162   1.284   6.179   5.810
 8755SOL     OW27163   0.813   2.318   1.469
 8755SOL    HW127164   0.761   2.236   1.443
 8755SOL    HW227165   0.749   2.394   1.483
 8756SOL     OW27166   1.574   1.654   2.263
 8756SOL    HW127167   1.563   1.559   2.233
 8756SOL    HW227168   1.491   1.706   2.238
 8757SOL     OW27169   5.731   5.822   4.638
 8757SOL    HW127170   5.643   5.793   4.601
 8757SOL    HW227171   5.733   5.922   4.644
 8758SOL     OW27172   3.679   5.319   6.552
 8758SOL    HW127173   3.631   5.389   6.499
 8758SOL    HW227174   3.619   5.285   6.624
 8759SOL     OW27175   6.555   1.407   1.876
 8759SOL    HW127176   6.479   1.392   1.939
 8759SOL    HW227177   6.549   1.498   1.837
 8760SOL     OW27178   1.855   2.141   4.508
 8760SOL    HW127179   1.910   2.153   4.590
 8760SOL    HW227180   1.841   2.043   4.491
 8761SOL     OW27181   4.672   2.744   3.231
 8761SOL    HW127182   4.687   2.773   3.325
 8761SOL    HW227183   4.605   2.670   3.228
 8762SOL     OW27184   4.362   6.048   3.158
 8762SOL    HW127185   4.348   6.023   3.062
 8762SOL    HW227186   4.460   6.058   3.176
 8763SOL     OW27187   6.923   1.380   5.599
 8763SOL    HW127188   6.932   1.376   5.698
 8763SOL    HW227189   6.905   1.289   5.563
 8764SOL     OW27190   3.514   4.938   6.046
 8764SOL    HW127191   3.599   4.933   5.994
 8764SOL    HW227192   3.440   4.898   5.992
 8765SOL     OW27193   4.677   6.695   3.790
 8765SOL    HW127194   4.597   6.635   3.796
 8765SOL    HW227195   4.757   6.642   3.761
 8766SOL     OW27196   5.981   0.132   4.768
 8766SOL    HW127197   5.991   0.062   4.838
 8766SOL    HW227198   6.052   0.202   4.780
 8767SOL     OW27199   1.998   1.213   5.018
 8767SOL    HW127200   1.996   1.114   5.031
 8767SOL    HW227201   2.009   1.259   5.107
 8768SOL     OW27202   6.659   1.467   1.217
 8768SOL    HW127203   6.568   1.509   1.224
 8768SOL    HW227204   6.726   1.537   1.192
 8769SOL     OW27205   6.389   6.877   6.076
 8769SOL    HW127206   6.428   6.792   6.039
 8769SOL    HW227207   6.445   6.955   6.048
 8770SOL     OW27208   4.440   1.413   0.387
 8770SOL    HW127209   4.372   1.431   0.459
 8770SOL    HW227210   4.531   1.407   0.428
 8771SOL     OW27211   0.583   2.402   6.327
 8771SOL    HW127212   0.547   2.448   6.245
 8771SOL    HW227213   0.612   2.309   6.303
 8772SOL     OW27214   0.622   6.553   3.678
 8772SOL    HW127215   0.624   6.638   3.626
 8772SOL    HW227216   0.716   6.520   3.692
 8773SOL     OW27217   0.162   1.044   3.776
 8773SOL    HW127218   0.254   1.046   3.737
 8773SOL    HW227219   0.104   1.109   3.727
 8774SOL     OW27220   1.228   2.082   6.899
 8774SOL    HW127221   1.201   1.991   6.929
 8774SOL    HW227222   1.177   2.107   6.817
 8775SOL     OW27223   5.184   2.016   2.693
 8775SOL    HW127224   5.238   1.986   2.614
 8775SOL    HW227225   5.150   1.936   2.742
 8776SOL     OW27226   5.233   2.724   1.611
 8776SOL    HW127227   5.153   2.705   1.668
 8776SOL    HW227228   5.227   2.671   1.526
 8777SOL     OW27229   6.659   2.128   4.273
 8777SOL    HW127230   6.718   2.164   4.201
 8777SOL    HW227231   6.692   2.161   4.362
 8778SOL     OW27232   2.232   3.775   6.957
 8778SOL    HW127233   2.156   3.761   6.895
 8778SOL    HW227234   2.207   3.744   0.026
 8779SOL     OW27235   4.202   5.772   3.068
 8779SOL    HW127236   4.174   5.849   3.124
 8779SOL    HW227237   4.149   5.770   2.984
 8780SOL     OW27238   1.097   4.253   4.330
 8780SOL    HW127239   1.188   4.211   4.330
 8780SOL    HW227240   1.057   4.245   4.238
 8781SOL     OW27241   3.462   1.834   1.720
 8781SOL    HW127242   3.417   1.923   1.715
 8781SOL    HW227243   3.488   1.815   1.815
 8782SOL     OW27244   6.864   2.675   0.409
 8782SOL    HW127245   6.808   2.694   0.329
 8782SOL    HW227246   6.824   2.599   0.460
 8783SOL     OW27247   3.846   3.819   5.244
 8783SOL    HW127248   3.862   3.864   5.332
 8783SOL    HW227249   3.923   3.760   5.223
 8784SOL     OW27250   4.463   0.989   6.357
 8784SOL    HW127251   4.548   1.036   6.331
 8784SOL    HW227252   4.481   0.929   6.435
 8785SOL     OW27253   0.030   6.088   6.393
 8785SOL    HW127254   0.084   6.097   6.309
 8785SOL    HW227255   0.016   6.179   6.433
 8786SOL     OW27256   5.488   2.258   3.333
 8786SOL    HW127257   5.430   2.296   3.405
 8786SOL    HW227258   5.496   2.323   3.258
 8787SOL     OW27259   3.427   4.883   2.511
 8787SOL    HW127260   3.496   4.897   2.439
 8787SOL    HW227261   3.368   4.807   2.486
 8788SOL     OW27262   0.051   5.979   3.633
 8788SOL    HW127263   6.990   6.026   3.608
 8788SOL    HW227264   0.032   5.882   3.648
 8789SOL     OW27265   1.631   3.345   7.023
 8789SOL    HW127266   1.572   3.265   0.011
 8789SOL    HW227267   1.584   3.427   0.031
 8790SOL     OW27268   4.995   2.959   5.314
 8790SOL    HW127269   5.012   2.994   5.221
 8790SOL    HW227270   5.059   3.001   5.378
 8791SOL     OW27271   4.232   5.991   5.035
 8791SOL    HW127272   4.299   6.027   4.969
 8791SOL    HW227273   4.279   5.936   5.104
 8792SOL     OW27274   5.589   4.976   0.641
 8792SOL    HW127275   5.595   4.889   0.591
 8792SOL    HW227276   5.514   5.031   0.604
 8793SOL     OW27277   6.221   6.980   5.376
 8793SOL    HW127278   6.271   0.034   5.337
 8793SOL    HW227279   6.127   7.007   5.395
 8794SOL     OW27280   0.402   2.227   3.170
 8794SOL    HW127281   0.455   2.278   3.238
 8794SOL    HW227282   0.312   2.269   3.158
 8795SOL     OW27283   1.695   0.053   6.765
 8795SOL    HW127284   1.625   7.005   6.758
 8795SOL    HW227285   1.783   0.011   6.790
 8796SOL     OW27286   5.652   4.636   4.452
 8796SOL    HW127287   5.566   4.685   4.437
 8796SOL    HW227288   5.707   4.684   4.521
 8797SOL     OW27289   5.220   6.123   4.928
 8797SOL    HW127290   5.262   6.173   5.004
 8797SOL    HW227291   5.227   6.025   4.945
 8798SOL     OW27292   1.641   5.908   5.870
 8798SOL    HW127293   1.703   5.855   5.928
 8798SOL    HW227294   1.566   5.944   5.926
 8799SOL     OW27295   1.532   6.422   1.767
 8799SOL    HW127296   1.456   6.409   1.702
 8799SOL    HW227297   1.570   6.333   1.791
 8800SOL     OW27298   6.503   5.828   3.771
 8800SOL    HW127299   6.416   5.869   3.801
 8800SOL    HW227300   6.484   5.751   3.711
 8801SOL     OW27301   4.785   3.276   5.593
 8801SOL    HW127302   4.801   3.347   5.661
 8801SOL    HW227303   4.724   3.311   5.522
 8802SOL     OW27304   1.159   6.617   6.669
 8802SOL    HW127305   1.086   6.613   6.601
 8802SOL    HW227306   1.241   6.656   6.628
 8803SOL     OW27307   5.112   5.345   4.884
 8803SOL    HW127308   5.038   5.376   4.944
 8803SOL    HW227309   5.197   5.392   4.909
 8804SOL     OW27310   1.634   0.023   2.023
 8804SOL    HW127311   1.665   0.118   2.023
 8804SOL    HW227312   1.714   6.986   2.024
 8805SOL     OW27313   5.121   4.797   2.147
 8805SOL    HW127314   5.171   4.817   2.063
 8805SOL    HW227315   5.186   4.782   2.222
 8806SOL     OW27316   1.267   1.081   1.942
 8806SOL    HW127317   1.285   1.179   1.949
 8806SOL    HW227318   1.300   1.035   2.023
 8807SOL     OW27319   6.228   2.389   1.933
 8807SOL    HW127320   6.141   2.360   1.892
 8807SOL    HW227321   6.212   2.428   2.023
 8808SOL     OW27322   1.518   1.827   0.316
 8808SOL    HW127323   1.550   1.737   0.287
 8808SOL    HW227324   1.420   1.823   0.335
 8809SOL     OW27325   0.852   3.659   2.975
 8809SOL    HW127326   0.813   3.645   3.066
 8809SOL    HW227327   0.899   3.747   2.972
 8810SOL     OW27328   6.398   2.440   4.468
 8810SOL    HW127329   6.441   2.354   4.441
 8810SOL    HW227330   6.378   2.495   4.386
 8811SOL     OW27331   3.823   5.165   2.168
 8811SOL    HW127332   3.820   5.114   2.254
 8811SOL    HW227333   3.783   5.109   2.095
 8812SOL     OW27334   5.983   0.462   0.397
 8812SOL    HW127335   5.965   0.458   0.298
 8812SOL    HW227336   5.911   0.514   0.442
 8813SOL     OW27337   1.572   2.958   1.791
 8813SOL    HW127338   1.614   2.900   1.861
 8813SOL    HW227339   1.644   3.002   1.737
 8814SOL     OW27340   5.244   6.952   4.730
 8814SOL    HW127341   5.290   6.989   4.649
 8814SOL    HW227342   5.248   7.019   4.804
 8815SOL     OW27343   5.154   1.035   1.106
 8815SOL    HW127344   5.242   0.988   1.096
 8815SOL    HW227345   5.096   0.984   1.169
 8816SOL     OW27346   6.841   0.455   3.362
 8816SOL    HW127347   6.768   0.456   3.431
 8816SOL    HW227348   6.816   0.392   3.288
 8817SOL     OW27349   1.259   2.320   3.626
 8817SOL    HW127350   1.306   2.263   3.694
 8817SOL    HW227351   1.285   2.289   3.534
 8818SOL     OW27352   1.245   6.466   6.342
 8818SOL    HW127353   1.222   6.380   6.388
 8818SOL    HW227354   1.298   6.524   6.404
 8819SOL     OW27355   5.063   6.110   5.843
 8819SOL    HW127356   4.993   6.075   5.781
 8819SOL    HW227357   5.143   6.050   5.840
 8820SOL     OW27358   3.741   6.557   5.776
 8820SOL    HW127359   3.690   6.590   5.856
 8820SOL    HW227360   3.800   6.630   5.743
 8821SOL     OW27361   0.686   5.559   5.539
 8821SOL    HW127362   0.675   5.616   5.458
 8821SOL    HW227363   0.665   5.464   5.516
 8822SOL     OW27364   6.333   6.950   4.851
 8822SOL    HW127365   6.392   6.873   4.876
 8822SOL    HW227366   6.356   0.006   4.908
 8823SOL     OW27367   4.734   2.121   3.239
 8823SOL    HW127368   4.773   2.149   3.152
 8823SOL    HW227369   4.730   2.022   3.244
 8824SOL     OW27370   1.663   0.123   4.155
 8824SOL    HW127371   1.593   0.143   4.087
 8824SOL    HW227372   1.706   0.208   4.186
 8825SOL     OW27373   1.253   6.893   0.363
 8825SOL    HW127374   1.220   6.982   0.392
 8825SOL    HW227375   1.212   6.822   0.420
 8826SOL     OW27376   0.483   3.948   0.442
 8826SOL    HW127377   0.580   3.926   0.431
 8826SOL    HW227378   0.444   3.892   0.515
 8827SOL     OW27379   4.888   6.158   3.436
 8827SOL    HW127380   4.904   6.098   3.514
 8827SOL    HW227381   4.929   6.247   3.453
 8828SOL     OW27382   5.325   2.668   5.835
 8828SOL    HW127383   5.391   2.611   5.884
 8828SOL    HW227384   5.371   2.749   5.799
 8829SOL     OW27385   6.088   1.086   3.068
 8829SOL    HW127386   6.017   1.101   2.999
 8829SOL    HW227387   6.046   1.046   3.150
 8830SOL     OW27388   3.329   0.770   2.899
 8830SOL    HW127389   3.301   0.865   2.903
 8830SOL    HW227390   3.400   0.753   2.968
 8831SOL     OW27391   0.792   2.701   2.667
 8831SOL    HW127392   0.768   2.660   2.756
 8831SOL    HW227393   0.885   2.735   2.670
 8832SOL     OW27394   5.817   0.357   4.835
 8832SOL    HW127395   5.891   0.299   4.868
 8832SOL    HW227396   5.729   0.313   4.853
 8833SOL     OW27397   4.694   2.825   0.947
 8833SOL    HW127398   4.729   2.862   1.033
 8833SOL    HW227399   4.770   2.794   0.890
 8834SOL     OW27400   5.682   4.569   6.319
 8834SOL    HW127401   5.707   4.503   6.389
 8834SOL    HW227402   5.718   4.659   6.343
 8835SOL     OW27403   6.615   0.955   5.216
 8835SOL    HW127404   6.530   0.989   5.176
 8835SOL    HW227405   6.660   1.029   5.266
 8836SOL     OW27406   4.138   1.283   1.428
 8836SOL    HW127407   4.112   1.269   1.332
 8836SOL    HW227408   4.171   1.377   1.440
 8837SOL     OW27409   4.714   4.908   0.302
 8837SOL    HW127410   4.806   4.882   0.273
 8837SOL    HW227411   4.672   4.832   0.351
 8838SOL     OW27412   1.783   3.911   2.310
 8838SOL    HW127413   1.863   3.927   2.252
 8838SOL    HW227414   1.727   3.839   2.270
 8839SOL     OW27415   4.294   4.633   1.398
 8839SOL    HW127416   4.279   4.706   1.465
 8839SOL    HW227417   4.349   4.560   1.439
 8840SOL     OW27418   0.495   0.579   1.646
 8840SOL    HW127419   0.507   0.526   1.730
 8840SOL    HW227420   0.414   0.637   1.655
 8841SOL     OW27421   3.688   1.180   1.364
 8841SOL    HW127422   3.637   1.254   1.320
 8841SOL    HW227423   3.691   1.102   1.302
 8842SOL     OW27424   3.338   3.364   3.626
 8842SOL    HW127425   3.333   3.463   3.615
 8842SOL    HW227426   3.409   3.341   3.692
 8843SOL     OW27427   2.215   5.967   5.295
 8843SOL    HW127428   2.227   5.987   5.198
 8843SOL    HW227429   2.264   5.882   5.318
 8844SOL     OW27430   3.713   2.854   5.713
 8844SOL    HW127431   3.806   2.833   5.680
 8844SOL    HW227432   3.708   2.951   5.737
 8845SOL     OW27433   0.772   3.469   2.424
 8845SOL    HW127434   0.825   3.396   2.468
 8845SOL    HW227435   0.706   3.429   2.360
 8846SOL     OW27436   5.529   5.387   4.048
 8846SOL    HW127437   5.459   5.416   4.114
 8846SOL    HW227438   5.581   5.311   4.086
 8847SOL     OW27439   0.582   2.208   3.755
 8847SOL    HW127440   0.675   2.175   3.745
 8847SOL    HW227441   0.574   2.260   3.840
 8848SOL     OW27442   6.204   2.202   0.954
 8848SOL    HW127443   6.189   2.176   1.049
 8848SOL    HW227444   6.194   2.122   0.895
 8849SOL     OW27445   2.835   5.453   4.526
 8849SOL    HW127446   2.766   5.411   4.467
 8849SOL    HW227447   2.907   5.385   4.546
 8850SOL     OW27448   3.302   2.629   0.859
 8850SOL    HW127449   3.330   2.552   0.917
 8850SOL    HW227450   3.213   2.608   0.818
 8851SOL     OW27451   6.857   4.826   2.677
 8851SOL    HW127452   6.889   4.846   2.770
 8851SOL    HW227453   6.927   4.776   2.628
 8852SOL     OW27454   5.288   3.585   4.608
 8852SOL    HW127455   5.305   3.676   4.571
 8852SOL    HW227456   5.302   3.517   4.536
 8853SOL     OW27457   4.923   1.660   4.929
 8853SOL    HW127458   5.020   1.649   4.906
 8853SOL    HW227459   4.888   1.742   4.883
 8854SOL     OW27460   2.954   1.134   5.787
 8854SOL    HW127461   2.960   1.227   5.825
 8854SOL    HW227462   2.912   1.138   5.696
 8855SOL     OW27463   6.214   4.922   6.192
 8855SOL    HW127464   6.278   4.853   6.157
 8855SOL    HW227465   6.121   4.897   6.166
 8856SOL     OW27466   5.909   1.315   5.399
 8856SOL    HW127467   5.833   1.379   5.387
 8856SOL    HW227468   5.900   1.240   5.334
 8857SOL     OW27469   2.151   3.309   4.605
 8857SOL    HW127470   2.157   3.388   4.544
 8857SOL    HW227471   2.157   3.339   4.700
 8858SOL     OW27472   0.045   3.652   5.360
 8858SOL    HW127473   6.981   3.659   5.407
 8858SOL    HW227474   0.111   3.714   5.404
 8859SOL     OW27475   2.361   6.326   5.713
 8859SOL    HW127476   2.430   6.291   5.650
 8859SOL    HW227477   2.395   6.409   5.757
 8860SOL     OW27478   2.002   1.524   1.262
 8860SOL    HW127479   2.081   1.464   1.252
 8860SOL    HW227480   2.005   1.596   1.193
 8861SOL     OW27481   1.964   2.615   0.516
 8861SOL    HW127482   1.895   2.687   0.508
 8861SOL    HW227483   1.998   2.591   0.426
 8862SOL     OW27484   6.684   1.878   4.431
 8862SOL    HW127485   6.693   1.975   4.409
 8862SOL    HW227486   6.750   1.854   4.502
 8863SOL     OW27487   1.990   5.503   5.586
 8863SOL    HW127488   1.961   5.591   5.622
 8863SOL    HW227489   1.989   5.506   5.486
 8864SOL     OW27490   1.905   4.273   5.763
 8864SOL    HW127491   1.914   4.200   5.695
 8864SOL    HW227492   1.987   4.276   5.820
 8865SOL     OW27493   3.026   2.095   5.873
 8865SOL    HW127494   2.967   2.015   5.867
 8865SOL    HW227495   3.052   2.125   5.781
 8866SOL     OW27496   4.957   0.415   5.380
 8866SOL    HW127497   5.019   0.345   5.417
 8866SOL    HW227498   4.953   0.492   5.444
 8867SOL     OW27499   6.273   1.144   3.797
 8867SOL    HW127500   6.311   1.054   3.820
 8867SOL    HW227501   6.238   1.187   3.880
 8868SOL     OW27502   5.307   3.401   0.701
 8868SOL    HW127503   5.260   3.486   0.721
 8868SOL    HW227504   5.380   3.418   0.634
 8869SOL     OW27505   3.393   2.113   3.330
 8869SOL    HW127506   3.483   2.076   3.306
 8869SOL    HW227507   3.326   2.038   3.334
 8870SOL     OW27508   4.776   0.912   2.018
 8870SOL    HW127509   4.860   0.889   2.067
 8870SOL    HW227510   4.796   0.981   1.949
 8871SOL     OW27511   1.559   2.198   3.519
 8871SOL    HW127512   1.502   2.128   3.476
 8871SOL    HW227513   1.627   2.230   3.453
 8872SOL     OW27514   1.234   2.359   1.944
 8872SOL    HW127515   1.219   2.431   1.877
 8872SOL    HW227516   1.159   2.293   1.940
 8873SOL     OW27517   6.868   5.804   4.717
 8873SOL    HW127518   6.888   5.888   4.667
 8873SOL    HW227519   6.943   5.785   4.781
 8874SOL     OW27520   1.044   1.530   6.298
 8874SOL    HW127521   1.129   1.581   6.302
 8874SOL    HW227522   0.970   1.585   6.339
 8875SOL     OW27523   1.291   0.747   4.630
 8875SOL    HW127524   1.358   0.789   4.569
 8875SOL    HW227525   1.200   0.756   4.591
 8876SOL     OW27526   2.941   0.857   4.678
 8876SOL    HW127527   3.000   0.783   4.644
 8876SOL    HW227528   2.849   0.821   4.695
 8877SOL     OW27529   3.024   6.875   4.391
 8877SOL    HW127530   3.019   6.820   4.475
 8877SOL    HW227531   3.112   6.861   4.347
 8878SOL     OW27532   5.828   4.848   5.024
 8878SOL    HW127533   5.886   4.891   4.954
 8878SOL    HW227534   5.814   4.752   5.001
 8879SOL     OW27535   4.367   5.475   4.247
 8879SOL    HW127536   4.377   5.567   4.285
 8879SOL    HW227537   4.350   5.410   4.321
 8880SOL     OW27538   0.641   6.566   4.968
 8880SOL    HW127539   0.703   6.610   5.034
 8880SOL    HW227540   0.693   6.502   4.911
 8881SOL     OW27541   6.778   1.498   2.507
 8881SOL    HW127542   6.683   1.525   2.492
 8881SOL    HW227543   6.785   1.448   2.593
 8882SOL     OW27544   4.961   2.650   0.378
 8882SOL    HW127545   4.872   2.692   0.396
 8882SOL    HW227546   4.961   2.556   0.410
 8883SOL     OW27547   6.086   0.971   5.473
 8883SOL    HW127548   6.143   1.048   5.500
 8883SOL    HW227549   6.144   0.894   5.446
 8884SOL     OW27550   0.127   1.669   6.662
 8884SOL    HW127551   0.102   1.619   6.744
 8884SOL    HW227552   0.146   1.605   6.588
 8885SOL     OW27553   5.569   3.603   1.576
 8885SOL    HW127554   5.498   3.585   1.644
 8885SOL    HW227555   5.536   3.670   1.509
 8886SOL     OW27556   3.015   5.801   5.895
 8886SOL    HW127557   3.107   5.763   5.908
 8886SOL    HW227558   2.952   5.727   5.870
 8887SOL     OW27559   1.590   1.583   0.865
 8887SOL    HW127560   1.513   1.552   0.809
 8887SOL    HW227561   1.560   1.590   0.960
 8888SOL     OW27562   2.805   1.760   3.148
 8888SOL    HW127563   2.876   1.830   3.142
 8888SOL    HW227564   2.745   1.780   3.225
 8889SOL     OW27565   3.399   0.829   4.237
 8889SOL    HW127566   3.477   0.782   4.279
 8889SOL    HW227567   3.347   0.764   4.182
 8890SOL     OW27568   0.227   4.340   3.319
 8890SOL    HW127569   0.194   4.286   3.397
 8890SOL    HW227570   0.151   4.392   3.280
 8891SOL     OW27571   2.889   1.372   5.975
 8891SOL    HW127572   2.949   1.439   5.932
 8891SOL    HW227573   2.918   1.358   6.070
 8892SOL     OW27574   1.205   0.105   2.725
 8892SOL    HW127575   1.269   0.175   2.694
 8892SOL    HW227576   1.123   0.149   2.762
 8893SOL     OW27577   0.293   1.063   0.708
 8893SOL    HW127578   0.238   1.145   0.724
 8893SOL    HW227579   0.248   0.985   0.751
 8894SOL     OW27580   4.609   2.655   6.290
 8894SOL    HW127581   4.665   2.728   6.251
 8894SOL    HW227582   4.609   2.576   6.228
 8895SOL     OW27583   1.965   1.133   3.145
 8895SOL    HW127584   2.037   1.108   3.080
 8895SOL    HW227585   2.004   1.186   3.220
 8896SOL     OW27586   2.255   4.242   5.098
 8896SOL    HW127587   2.322   4.273   5.165
 8896SOL    HW227588   2.261   4.143   5.088
 8897SOL     OW27589   1.123   2.633   1.483
 8897SOL    HW127590   1.169   2.721   1.476
 8897SOL    HW227591   1.132   2.584   1.396
 8898SOL     OW27592   0.415   3.204   5.372
 8898SOL    HW127593   0.369   3.217   5.285
 8898SOL    HW227594   0.411   3.107   5.398
 8899SOL     OW27595   3.277   5.388   1.723
 8899SOL    HW127596   3.325   5.304   1.752
 8899SOL    HW227597   3.179   5.378   1.741
 8900SOL     OW27598   6.741   2.021   3.591
 8900SOL    HW127599   6.703   1.951   3.652
 8900SOL    HW227600   6.791   2.089   3.644
 8901SOL     OW27601   1.977   0.046   1.680
 8901SOL    HW127602   1.994   0.002   1.592
 8901SOL    HW227603   1.960   6.999   1.749
 8902SOL     OW27604   3.374   6.336   5.823
 8902SOL    HW127605   3.424   6.350   5.738
 8902SOL    HW227606   3.438   6.331   5.899
 8903SOL     OW27607   6.686   0.154   2.681
 8903SOL    HW127608   6.624   0.215   2.729
 8903SOL    HW227609   6.635   0.077   2.642
 8904SOL     OW27610   1.262   4.650   3.114
 8904SOL    HW127611   1.297   4.608   3.198
 8904SOL    HW227612   1.299   4.602   3.035
 8905SOL     OW27613   2.204   4.019   4.802
 8905SOL    HW127614   2.281   4.009   4.865
 8905SOL    HW227615   2.118   4.014   4.852
 8906SOL     OW27616   2.169   5.047   4.629
 8906SOL    HW127617   2.223   4.976   4.674
 8906SOL    HW227618   2.072   5.023   4.634
 8907SOL     OW27619   3.604   2.325   6.631
 8907SOL    HW127620   3.578   2.238   6.588
 8907SOL    HW227621   3.631   2.390   6.560
 8908SOL     OW27622   0.904   2.647   2.932
 8908SOL    HW127623   0.830   2.703   2.966
 8908SOL    HW227624   0.989   2.701   2.929
 8909SOL     OW27625   3.583   0.126   5.538
 8909SOL    HW127626   3.570   0.030   5.563
 8909SOL    HW227627   3.534   0.145   5.453
 8910SOL     OW27628   3.944   2.945   0.168
 8910SOL    HW127629   3.936   2.991   0.256
 8910SOL    HW227630   3.949   2.846   0.183
 8911SOL     OW27631   5.110   2.277   3.529
 8911SOL    HW127632   5.129   2.193   3.580
 8911SOL    HW227633   5.013   2.300   3.537
 8912SOL     OW27634   4.812   0.917   6.563
 8912SOL    HW127635   4.776   0.983   6.496
 8912SOL    HW227636   4.907   0.940   6.585
 8913SOL     OW27637   4.345   4.207   1.358
 8913SOL    HW127638   4.324   4.279   1.291
 8913SOL    HW227639   4.274   4.137   1.356
 8914SOL     OW27640   4.967   2.307   4.233
 8914SOL    HW127641   5.022   2.381   4.195
 8914SOL    HW227642   4.977   2.226   4.175
 8915SOL     OW27643   0.878   5.251   2.108
 8915SOL    HW127644   0.857   5.170   2.054
 8915SOL    HW227645   0.793   5.292   2.141
 8916SOL     OW27646   5.638   3.511   2.684
 8916SOL    HW127647   5.580   3.555   2.616
 8916SOL    HW227648   5.603   3.419   2.703
 8917SOL     OW27649   5.557   4.815   5.054
 8917SOL    HW127650   5.549   4.776   5.146
 8917SOL    HW227651   5.650   4.850   5.041
 8918SOL     OW27652   4.883   4.055   6.174
 8918SOL    HW127653   4.790   4.022   6.187
 8918SOL    HW227654   4.933   3.991   6.116
 8919SOL     OW27655   2.102   3.346   1.683
 8919SOL    HW127656   2.061   3.337   1.592
 8919SOL    HW227657   2.144   3.259   1.709
 8920SOL     OW27658   6.622   5.469   5.557
 8920SOL    HW127659   6.654   5.532   5.486
 8920SOL    HW227660   6.701   5.430   5.604
 8921SOL     OW27661   0.708   5.302   3.663
 8921SOL    HW127662   0.730   5.256   3.749
 8921SOL    HW227663   0.771   5.379   3.649
 8922SOL     OW27664   7.021   3.931   6.364
 8922SOL    HW127665   0.082   3.984   6.372
 8922SOL    HW227666   6.987   3.937   6.270
 8923SOL     OW27667   2.506   4.551   4.412
 8923SOL    HW127668   2.502   4.570   4.510
 8923SOL    HW227669   2.421   4.507   4.383
 8924SOL     OW27670   2.210   6.477   4.806
 8924SOL    HW127671   2.295   6.528   4.795
 8924SOL    HW227672   2.167   6.465   4.717
 8925SOL     OW27673   4.766   5.442   1.343
 8925SOL    HW127674   4.748   5.455   1.441
 8925SOL    HW227675   4.739   5.349   1.316
 8926SOL     OW27676   5.768   0.394   6.638
 8926SOL    HW127677   5.804   0.330   6.569
 8926SOL    HW227678   5.814   0.482   6.628
 8927SOL     OW27679   2.535   1.592   4.710
 8927SOL    HW127680   2.467   1.664   4.697
 8927SOL    HW227681   2.625   1.627   4.686
 8928SOL     OW27682   0.836   0.127   5.089
 8928SOL    HW127683   0.794   0.172   5.010
 8928SOL    HW227684   0.924   0.170   5.108
 8929SOL     OW27685   5.270   4.151   3.646
 8929SOL    HW127686   5.206   4.220   3.612
 8929SOL    HW227687   5.238   4.115   3.733
 8930SOL     OW27688   0.579   5.682   5.322
 8930SOL    HW127689   0.588   5.648   5.228
 8930SOL    HW227690   0.498   5.741   5.329
 8931SOL     OW27691   4.638   1.297   1.496
 8931SOL    HW127692   4.633   1.386   1.451
 8931SOL    HW227693   4.641   1.225   1.426
 8932SOL     OW27694   5.467   0.989   0.397
 8932SOL    HW127695   5.446   1.076   0.352
 8932SOL    HW227696   5.502   1.007   0.489
 8933SOL     OW27697   1.511   0.407   5.277
 8933SOL    HW127698   1.498   0.503   5.252
 8933SOL    HW227699   1.588   0.370   5.225
 8934SOL     OW27700   3.924   6.865   4.276
 8934SOL    HW127701   3.903   6.871   4.373
 8934SOL    HW227702   3.911   6.771   4.244
 8935SOL     OW27703   5.707   1.784   2.847
 8935SOL    HW127704   5.621   1.772   2.896
 8935SOL    HW227705   5.738   1.696   2.812
 8936SOL     OW27706   1.525   4.165   2.130
 8936SOL    HW127707   1.605   4.209   2.171
 8936SOL    HW227708   1.449   4.170   2.194
 8937SOL     OW27709   3.242   0.022   4.928
 8937SOL    HW127710   3.243   0.121   4.916
 8937SOL    HW227711   3.179   7.023   5.003
 8938SOL     OW27712   5.704   6.315   1.306
 8938SOL    HW127713   5.606   6.294   1.299
 8938SOL    HW227714   5.721   6.407   1.269
 8939SOL     OW27715   6.974   2.975   5.038
 8939SOL    HW127716   6.916   2.903   5.076
 8939SOL    HW227717   6.921   3.028   4.972
 8940SOL     OW27718   6.453   3.208   2.337
 8940SOL    HW127719   6.540   3.211   2.289
 8940SOL    HW227720   6.400   3.290   2.316
 8941SOL     OW27721   5.736   2.144   3.026
 8941SOL    HW127722   5.747   2.058   3.075
 8941SOL    HW227723   5.683   2.128   2.942
 8942SOL     OW27724   4.543   4.830   3.801
 8942SOL    HW127725   4.634   4.794   3.818
 8942SOL    HW227726   4.516   4.889   3.877
 8943SOL     OW27727   3.847   3.388   0.591
 8943SOL    HW127728   3.892   3.391   0.680
 8943SOL    HW227729   3.900   3.331   0.528
 8944SOL     OW27730   4.720   6.587   4.984
 8944SOL    HW127731   4.706   6.601   4.886
 8944SOL    HW227732   4.815   6.561   5.001
 8945SOL     OW27733   6.314   4.892   1.546
 8945SOL    HW127734   6.330   4.950   1.466
 8945SOL    HW227735   6.360   4.804   1.532
 8946SOL     OW27736   3.463   1.585   4.751
 8946SOL    HW127737   3.442   1.507   4.693
 8946SOL    HW227738   3.560   1.609   4.742
 8947SOL     OW27739   2.635   5.251   0.385
 8947SOL    HW127740   2.591   5.162   0.370
 8947SOL    HW227741   2.684   5.249   0.472
 8948SOL     OW27742   5.321   0.370   2.875
 8948SOL    HW127743   5.294   0.403   2.784
 8948SOL    HW227744   5.354   0.446   2.930
 8949SOL     OW27745   3.777   6.344   0.727
 8949SOL    HW127746   3.862   6.389   0.702
 8949SOL    HW227747   3.701   6.386   0.678
 8950SOL     OW27748   3.442   4.140   3.105
 8950SOL    HW127749   3.525   4.106   3.062
 8950SOL    HW227750   3.466   4.197   3.184
 8951SOL     OW27751   0.473   0.590   3.798
 8951SOL    HW127752   0.460   0.550   3.888
 8951SOL    HW227753   0.400   0.655   3.778
 8952SOL     OW27754   1.204   4.004   5.078
 8952SOL    HW127755   1.180   3.946   5.156
 8952SOL    HW227756   1.296   3.980   5.045
 8953SOL     OW27757   0.434   5.244   0.627
 8953SOL    HW127758   0.352   5.244   0.684
 8953SOL    HW227759   0.502   5.182   0.665
 8954SOL     OW27760   2.198   4.513   5.519
 8954SOL    HW127761   2.239   4.539   5.431
 8954SOL    HW227762   2.218   4.417   5.537
 8955SOL     OW27763   6.060   3.070   6.085
 8955SOL    HW127764   6.131   3.002   6.101
 8955SOL    HW227765   6.056   3.133   6.163
 8956SOL     OW27766   0.643   6.258   0.652
 8956SOL    HW127767   0.553   6.256   0.694
 8956SOL    HW227768   0.706   6.311   0.709
 8957SOL     OW27769   1.309   0.021   3.630
 8957SOL    HW127770   1.249   6.967   3.611
 8957SOL    HW227771   1.254   0.104   3.641
 8958SOL     OW27772   6.711   3.657   4.962
 8958SOL    HW127773   6.676   3.564   4.964
 8958SOL    HW227774   6.709   3.696   5.054
 8959SOL     OW27775   4.906   1.555   4.151
 8959SOL    HW127776   4.967   1.482   4.182
 8959SOL    HW227777   4.911   1.632   4.214
 8960SOL     OW27778   5.120   4.821   2.663
 8960SOL    HW127779   5.094   4.797   2.757
 8960SOL    HW227780   5.079   4.909   2.639
 8961SOL     OW27781   2.304   1.767   5.491
 8961SOL    HW127782   2.336   1.823   5.567
 8961SOL    HW227783   2.302   1.822   5.407
 8962SOL     OW27784   6.840   6.224   1.973
 8962SOL    HW127785   6.799   6.230   2.064
 8962SOL    HW227786   6.783   6.165   1.915
 8963SOL     OW27787   2.226   6.184   5.894
 8963SOL    HW127788   2.270   6.246   5.829
 8963SOL    HW227789   2.163   6.124   5.845
 8964SOL     OW27790   1.225   2.617   3.631
 8964SOL    HW127791   1.300   2.673   3.597
 8964SOL    HW227792   1.245   2.520   3.616
 8965SOL     OW27793   3.656   6.144   0.369
 8965SOL    HW127794   3.583   6.100   0.422
 8965SOL    HW227795   3.719   6.074   0.335
 8966SOL     OW27796   5.134   0.192   5.451
 8966SOL    HW127797   5.122   0.112   5.510
 8966SOL    HW227798   5.147   0.163   5.357
 8967SOL     OW27799   3.021   0.567   3.266
 8967SOL    HW127800   2.942   0.616   3.302
 8967SOL    HW227801   3.020   0.472   3.298
 8968SOL     OW27802   2.859   5.061   2.864
 8968SOL    HW127803   2.936   5.030   2.809
 8968SOL    HW227804   2.816   5.140   2.820
 8969SOL     OW27805   6.963   1.030   2.489
 8969SOL    HW127806   6.961   1.012   2.391
 8969SOL    HW227807   6.916   0.956   2.538
 8970SOL     OW27808   2.301   1.771   3.838
 8970SOL    HW127809   2.327   1.786   3.742
 8970SOL    HW227810   2.352   1.694   3.875
 8971SOL     OW27811   3.128   4.752   1.204
 8971SOL    HW127812   3.093   4.845   1.195
 8971SOL    HW227813   3.114   4.720   1.298
 8972SOL     OW27814   6.214   3.968   6.628
 8972SOL    HW127815   6.132   4.024   6.617
 8972SOL    HW227816   6.191   3.885   6.678
 8973SOL     OW27817   2.536   1.760   4.098
 8973SOL    HW127818   2.541   1.800   4.007
 8973SOL    HW227819   2.497   1.827   4.162
 8974SOL     OW27820   2.054   4.446   4.960
 8974SOL    HW127821   1.985   4.464   5.030
 8974SOL    HW227822   2.128   4.392   4.999
 8975SOL     OW27823   0.558   3.299   6.051
 8975SOL    HW127824   0.613   3.216   6.053
 8975SOL    HW227825   0.491   3.295   6.126
 8976SOL     OW27826   5.819   0.159   1.525
 8976SOL    HW127827   5.804   0.256   1.548
 8976SOL    HW227828   5.914   0.135   1.545
 8977SOL     OW27829   7.019   5.163   6.337
 8977SOL    HW127830   0.054   5.087   6.310
 8977SOL    HW227831   6.953   5.132   6.404
 8978SOL     OW27832   6.511   5.520   5.133
 8978SOL    HW127833   6.497   5.429   5.172
 8978SOL    HW227834   6.566   5.575   5.195
 8979SOL     OW27835   1.810   4.558   3.524
 8979SOL    HW127836   1.773   4.591   3.611
 8979SOL    HW227837   1.781   4.618   3.450
 8980SOL     OW27838   4.225   0.569   0.754
 8980SOL    HW127839   4.187   0.525   0.672
 8980SOL    HW227840   4.264   0.499   0.814
 8981SOL     OW27841   4.110   2.180   0.187
 8981SOL    HW127842   4.127   2.184   0.089
 8981SOL    HW227843   4.180   2.233   0.235
 8982SOL     OW27844   0.467   1.043   2.268
 8982SOL    HW127845   0.544   0.978   2.266
 8982SOL    HW227846   0.386   1.000   2.228
 8983SOL     OW27847   0.862   6.526   2.493
 8983SOL    HW127848   0.941   6.582   2.468
 8983SOL    HW227849   0.837   6.545   2.588
 8984SOL     OW27850   6.203   1.196   4.047
 8984SOL    HW127851   6.168   1.130   4.114
 8984SOL    HW227852   6.182   1.288   4.078
 8985SOL     OW27853   4.806   0.253   2.175
 8985SOL    HW127854   4.884   0.315   2.165
 8985SOL    HW227855   4.829   0.180   2.240
 8986SOL     OW27856   0.434   6.392   0.009
 8986SOL    HW127857   0.528   6.381   0.042
 8986SOL    HW227858   0.410   6.489   0.010
 8987SOL     OW27859   2.600   6.340   2.758
 8987SOL    HW127860   2.661   6.265   2.787
 8987SOL    HW227861   2.541   6.308   2.684
 8988SOL     OW27862   2.493   0.290   0.639
 8988SOL    HW127863   2.512   0.381   0.602
 8988SOL    HW227864   2.536   0.221   0.581
 8989SOL     OW27865   5.747   0.938   1.967
 8989SOL    HW127866   5.757   0.904   1.873
 8989SOL    HW227867   5.828   0.916   2.020
 8990SOL     OW27868   3.952   1.222   2.751
 8990SOL    HW127869   3.929   1.314   2.717
 8990SOL    HW227870   3.881   1.191   2.814
 8991SOL     OW27871   1.357   1.928   0.989
 8991SOL    HW127872   1.347   1.976   0.902
 8991SOL    HW227873   1.337   1.831   0.976
 8992SOL     OW27874   0.133   4.977   6.195
 8992SOL    HW127875   0.203   5.047   6.181
 8992SOL    HW227876   0.048   5.005   6.152
 8993SOL     OW27877   5.216   4.000   3.864
 8993SOL    HW127878   5.264   4.054   3.934
 8993SOL    HW227879   5.251   3.907   3.863
 8994SOL     OW27880   1.155   6.250   2.318
 8994SOL    HW127881   1.254   6.234   2.325
 8994SOL    HW227882   1.138   6.323   2.252
 8995SOL     OW27883   2.112   3.611   3.541
 8995SOL    HW127884   2.141   3.516   3.533
 8995SOL    HW227885   2.106   3.653   3.451
 8996SOL     OW27886   2.377   4.013   1.105
 8996SOL    HW127887   2.309   3.968   1.162
 8996SOL    HW227888   2.469   3.979   1.129
 8997SOL     OW27889   4.486   1.206   5.161
 8997SOL    HW127890   4.392   1.241   5.158
 8997SOL    HW227891   4.546   1.269   5.112
 8998SOL     OW27892   1.034   1.480   6.697
 8998SOL    HW127893   1.115   1.489   6.639
 8998SOL    HW227894   1.016   1.383   6.715
 8999SOL     OW27895   5.532   2.860   5.795
 8999SOL    HW127896   5.539   2.945   5.744
 8999SOL    HW227897   5.600   2.795   5.761
 9000SOL     OW27898   4.655   4.487   1.294
 9000SOL    HW127899   4.646   4.387   1.297
 9000SOL    HW227900   4.626   4.525   1.382
 9001SOL     OW27901   0.894   3.694   3.515
 9001SOL    HW127902   0.990   3.670   3.503
 9001SOL    HW227903   0.875   3.780   3.469
 9002SOL     OW27904   5.561   3.129   5.642
 9002SOL    HW127905   5.484   3.175   5.686
 9002SOL    HW227906   5.529   3.074   5.566
 9003SOL     OW27907   6.489   2.772   6.755
 9003SOL    HW127908   6.422   2.783   6.828
 9003SOL    HW227909   6.567   2.719   6.789
 9004SOL     OW27910   4.927   5.608   0.857
 9004SOL    HW127911   5.006   5.548   0.865
 9004SOL    HW227912   4.845   5.560   0.888
 9005SOL     OW27913   4.893   3.218   3.371
 9005SOL    HW127914   4.904   3.302   3.319
 9005SOL    HW227915   4.832   3.156   3.321
 9006SOL     OW27916   2.699   6.674   1.708
 9006SOL    HW127917   2.759   6.753   1.723
 9006SOL    HW227918   2.744   6.611   1.644
 9007SOL     OW27919   1.428   6.542   5.284
 9007SOL    HW127920   1.513   6.517   5.329
 9007SOL    HW227921   1.431   6.639   5.258
 9008SOL     OW27922   0.448   4.119   1.740
 9008SOL    HW127923   0.355   4.082   1.735
 9008SOL    HW227924   0.467   4.172   1.658
 9009SOL     OW27925   4.279   6.202   6.945
 9009SOL    HW127926   4.195   6.248   6.973
 9009SOL    HW227927   4.262   6.150   6.862
 9010SOL     OW27928   6.721   5.956   4.407
 9010SOL    HW127929   6.802   5.899   4.400
 9010SOL    HW227930   6.726   6.029   4.338
 9011SOL     OW27931   4.640   2.535   1.997
 9011SOL    HW127932   4.690   2.464   1.946
 9011SOL    HW227933   4.704   2.601   2.035
 9012SOL     OW27934   4.707   5.094   2.300
 9012SOL    HW127935   4.790   5.055   2.341
 9012SOL    HW227936   4.639   5.109   2.371
 9013SOL     OW27937   4.486   5.944   2.024
 9013SOL    HW127938   4.405   5.951   2.082
 9013SOL    HW227939   4.507   6.035   1.986
 9014SOL     OW27940   2.549   0.705   1.891
 9014SOL    HW127941   2.461   0.708   1.938
 9014SOL    HW227942   2.550   0.774   1.819
 9015SOL     OW27943   6.388   2.166   4.210
 9015SOL    HW127944   6.483   2.195   4.225
 9015SOL    HW227945   6.351   2.127   4.295
 9016SOL     OW27946   0.136   6.170   0.031
 9016SOL    HW127947   0.219   6.179   0.086
 9016SOL    HW227948   0.090   6.259   0.026
 9017SOL     OW27949   6.614   3.515   2.914
 9017SOL    HW127950   6.583   3.448   2.981
 9017SOL    HW227951   6.579   3.606   2.939
 9018SOL     OW27952   4.520   1.915   6.388
 9018SOL    HW127953   4.566   1.981   6.448
 9018SOL    HW227954   4.440   1.879   6.435
 9019SOL     OW27955   2.002   5.822   6.858
 9019SOL    HW127956   2.005   5.752   6.929
 9019SOL    HW227957   1.921   5.879   6.871
 9020SOL     OW27958   0.819   4.750   4.414
 9020SOL    HW127959   0.896   4.688   4.422
 9020SOL    HW227960   0.789   4.778   4.505
 9021SOL     OW27961   6.196   5.271   5.732
 9021SOL    HW127962   6.167   5.267   5.637
 9021SOL    HW227963   6.233   5.183   5.760
 9022SOL     OW27964   2.552   0.175   6.340
 9022SOL    HW127965   2.571   0.200   6.435
 9022SOL    HW227966   2.539   0.076   6.333
 9023SOL     OW27967   3.122   3.845   3.903
 9023SOL    HW127968   3.221   3.856   3.902
 9023SOL    HW227969   3.082   3.907   3.971
 9024SOL     OW27970   1.234   0.076   6.156
 9024SOL    HW127971   1.298   0.047   6.227
 9024SOL    HW227972   1.200   7.018   6.107
 9025SOL     OW27973   0.218   3.303   0.177
 9025SOL    HW127974   0.233   3.395   0.143
 9025SOL    HW227975   0.179   3.307   0.268
 9026SOL     OW27976   2.763   3.318   5.548
 9026SOL    HW127977   2.862   3.320   5.537
 9026SOL    HW227978   2.719   3.365   5.471
 9027SOL     OW27979   1.652   3.031   2.375
 9027SOL    HW127980   1.681   3.118   2.414
 9027SOL    HW227981   1.647   2.962   2.448
 9028SOL     OW27982   2.337   4.458   4.768
 9028SOL    HW127983   2.393   4.518   4.710
 9028SOL    HW227984   2.306   4.379   4.715
 9029SOL     OW27985   5.601   5.239   2.741
 9029SOL    HW127986   5.514   5.265   2.783
 9029SOL    HW227987   5.645   5.320   2.703
 9030SOL     OW27988   4.270   2.291   3.294
 9030SOL    HW127989   4.267   2.379   3.341
 9030SOL    HW227990   4.196   2.233   3.326
 9031SOL     OW27991   2.747   1.296   1.896
 9031SOL    HW127992   2.675   1.228   1.910
 9031SOL    HW227993   2.828   1.271   1.949
 9032SOL     OW27994   0.593   2.735   2.137
 9032SOL    HW127995   0.638   2.780   2.213
 9032SOL    HW227996   0.545   2.654   2.170
 9033SOL     OW27997   1.094   3.814   2.559
 9033SOL    HW127998   1.173   3.756   2.542
 9033SOL    HW227999   1.020   3.791   2.495
 9034SOL     OW28000   1.752   6.813   0.045
 9034SOL    HW128001   1.665   6.810   7.018
 9034SOL    HW228002   1.820   6.759   7.021
 9035SOL     OW28003   6.418   1.158   4.357
 9035SOL    HW128004   6.321   1.175   4.372
 9035SOL    HW228005   6.463   1.142   4.445
 9036SOL     OW28006   0.650   1.080   4.752
 9036SOL    HW128007   0.701   1.010   4.703
 9036SOL    HW228008   0.583   1.122   4.691
 9037SOL     OW28009   2.513   4.358   5.876
 9037SOL    HW128010   2.565   4.352   5.961
 9037SOL    HW228011   2.469   4.447   5.869
 9038SOL     OW28012   5.105   5.196   5.723
 9038SOL    HW128013   5.126   5.146   5.638
 9038SOL    HW228014   5.149   5.150   5.800
 9039SOL     OW28015   2.490   4.867   6.849
 9039SOL    HW128016   2.452   4.926   6.778
 9039SOL    HW228017   2.418   4.807   6.884
 9040SOL     OW28018   3.035   1.594   2.835
 9040SOL    HW128019   2.936   1.586   2.844
 9040SOL    HW228020   3.080   1.529   2.897
 9041SOL     OW28021   1.784   3.206   5.940
 9041SOL    HW128022   1.862   3.150   5.909
 9041SOL    HW228023   1.701   3.150   5.941
 9042SOL     OW28024   1.832   5.458   2.582
 9042SOL    HW128025   1.812   5.394   2.656
 9042SOL    HW228026   1.776   5.435   2.502
 9043SOL     OW28027   0.140   1.987   6.894
 9043SOL    HW128028   0.130   2.082   6.925
 9043SOL    HW228029   0.074   1.969   6.821
 9044SOL     OW28030   0.265   4.134   0.491
 9044SOL    HW128031   0.323   4.055   0.467
 9044SOL    HW228032   0.176   4.125   0.447
 9045SOL     OW28033   2.391   4.817   4.531
 9045SOL    HW128034   2.369   4.914   4.525
 9045SOL    HW228035   2.329   4.765   4.473
 9046SOL     OW28036   3.644   4.196   6.412
 9046SOL    HW128037   3.690   4.167   6.496
 9046SOL    HW228038   3.710   4.243   6.352
 9047SOL     OW28039   0.708   4.246   4.212
 9047SOL    HW128040   0.628   4.206   4.258
 9047SOL    HW228041   0.771   4.174   4.186
 9048SOL     OW28042   1.294   2.444   4.742
 9048SOL    HW128043   1.228   2.481   4.808
 9048SOL    HW228044   1.382   2.491   4.753
 9049SOL     OW28045   5.142   6.632   6.132
 9049SOL    HW128046   5.132   6.534   6.152
 9049SOL    HW228047   5.053   6.670   6.108
 9050SOL     OW28048   6.914   5.013   6.018
 9050SOL    HW128049   6.858   4.930   6.021
 9050SOL    HW228050   6.948   5.027   5.925
 9051SOL     OW28051   5.841   6.744   5.961
 9051SOL    HW128052   5.844   6.697   5.873
 9051SOL    HW228053   5.873   6.682   6.033
 9052SOL     OW28054   2.640   5.152   4.910
 9052SOL    HW128055   2.679   5.243   4.925
 9052SOL    HW228056   2.625   5.138   4.812
 9053SOL     OW28057   2.453   1.176   2.910
 9053SOL    HW128058   2.527   1.233   2.875
 9053SOL    HW228059   2.485   1.081   2.916
 9054SOL     OW28060   1.908   0.232   1.188
 9054SOL    HW128061   1.973   0.197   1.121
 9054SOL    HW228062   1.833   0.167   1.199
 9055SOL     OW28063   1.220   2.533   4.460
 9055SOL    HW128064   1.243   2.471   4.536
 9055SOL    HW228065   1.300   2.543   4.400
 9056SOL     OW28066   4.700   2.371   1.767
 9056SOL    HW128067   4.655   2.288   1.800
 9056SOL    HW228068   4.764   2.348   1.694
 9057SOL     OW28069   3.623   6.537   6.828
 9057SOL    HW128070   3.582   6.490   6.906
 9057SOL    HW228071   3.605   6.486   6.744
 9058SOL     OW28072   2.370   1.914   4.282
 9058SOL    HW128073   2.287   1.959   4.313
 9058SOL    HW228074   2.450   1.968   4.308
 9059SOL     OW28075   6.744   0.747   2.031
 9059SOL    HW128076   6.825   0.737   1.973
 9059SOL    HW228077   6.671   0.688   1.998
 9060SOL     OW28078   6.595   4.971   0.645
 9060SOL    HW128079   6.579   5.038   0.717
 9060SOL    HW228080   6.581   4.879   0.682
 9061SOL     OW28081   4.716   4.349   2.195
 9061SOL    HW128082   4.659   4.336   2.114
 9061SOL    HW228083   4.809   4.317   2.175
 9062SOL     OW28084   0.371   5.445   3.039
 9062SOL    HW128085   0.303   5.514   3.014
 9062SOL    HW228086   0.427   5.479   3.114
 9063SOL     OW28087   4.731   0.562   0.942
 9063SOL    HW128088   4.697   0.524   1.028
 9063SOL    HW228089   4.721   0.494   0.869
 9064SOL     OW28090   0.949   5.532   2.945
 9064SOL    HW128091   0.877   5.601   2.945
 9064SOL    HW228092   0.999   5.536   3.032
 9065SOL     OW28093   3.687   4.330   6.824
 9065SOL    HW128094   3.601   4.280   6.838
 9065SOL    HW228095   3.667   4.427   6.815
 9066SOL     OW28096   4.957   4.794   3.472
 9066SOL    HW128097   4.877   4.852   3.458
 9066SOL    HW228098   4.990   4.805   3.566
 9067SOL     OW28099   2.076   6.933   4.196
 9067SOL    HW128100   2.054   6.837   4.217
 9067SOL    HW228101   2.014   6.967   4.126
 9068SOL     OW28102   4.615   0.325   6.184
 9068SOL    HW128103   4.542   0.380   6.224
 9068SOL    HW228104   4.683   0.303   6.255
 9069SOL     OW28105   4.979   2.162   1.817
 9069SOL    HW128106   4.996   2.073   1.776
 9069SOL    HW228107   4.950   2.150   1.912
 9070SOL     OW28108   1.587   0.747   6.301
 9070SOL    HW128109   1.524   0.797   6.242
 9070SOL    HW228110   1.669   0.723   6.249
 9071SOL     OW28111   4.658   2.477   6.736
 9071SOL    HW128112   4.738   2.434   6.694
 9071SOL    HW228113   4.593   2.407   6.764
 9072SOL     OW28114   6.218   0.487   1.882
 9072SOL    HW128115   6.124   0.482   1.847
 9072SOL    HW228116   6.264   0.567   1.843
 9073SOL     OW28117   4.434   3.036   5.769
 9073SOL    HW128118   4.534   3.036   5.766
 9073SOL    HW228119   4.399   2.952   5.729
 9074SOL     OW28120   2.316   1.138   3.902
 9074SOL    HW128121   2.348   1.130   3.807
 9074SOL    HW228122   2.303   1.235   3.924
 9075SOL     OW28123   5.251   5.497   0.607
 9075SOL    HW128124   5.258   5.411   0.659
 9075SOL    HW228125   5.328   5.503   0.544
 9076SOL     OW28126   1.604   6.006   2.475
 9076SOL    HW128127   1.526   5.944   2.466
 9076SOL    HW228128   1.688   5.958   2.448
 9077SOL     OW28129   6.434   1.650   6.261
 9077SOL    HW128130   6.520   1.625   6.305
 9077SOL    HW228131   6.382   1.567   6.240
 9078SOL     OW28132   4.885   6.722   0.403
 9078SOL    HW128133   4.972   6.714   0.354
 9078SOL    HW228134   4.879   6.812   0.446
 9079SOL     OW28135   1.286   1.095   6.214
 9079SOL    HW128136   1.207   1.092   6.153
 9079SOL    HW228137   1.261   1.060   6.304
 9080SOL     OW28138   6.760   4.207   1.844
 9080SOL    HW128139   6.675   4.258   1.836
 9080SOL    HW228140   6.743   4.111   1.822
 9081SOL     OW28141   4.892   1.385   0.605
 9081SOL    HW128142   4.930   1.339   0.685
 9081SOL    HW228143   4.919   1.481   0.606
 9082SOL     OW28144   3.371   4.599   6.673
 9082SOL    HW128145   3.327   4.522   6.719
 9082SOL    HW228146   3.341   4.685   6.715
 9083SOL     OW28147   3.766   0.572   0.623
 9083SOL    HW128148   3.839   0.614   0.677
 9083SOL    HW228149   3.705   0.643   0.588
 9084SOL     OW28150   6.626   4.337   4.524
 9084SOL    HW128151   6.554   4.292   4.576
 9084SOL    HW228152   6.593   4.357   4.431
 9085SOL     OW28153   2.627   4.649   1.117
 9085SOL    HW128154   2.707   4.653   1.177
 9085SOL    HW228155   2.578   4.563   1.133
 9086SOL     OW28156   6.656   2.501   0.824
 9086SOL    HW128157   6.659   2.505   0.724
 9086SOL    HW228158   6.634   2.408   0.853
 9087SOL     OW28159   4.993   1.286   1.507
 9087SOL    HW128160   4.917   1.223   1.496
 9087SOL    HW228161   5.048   1.287   1.423
 9088SOL     OW28162   5.379   5.899   6.918
 9088SOL    HW128163   5.366   5.967   6.991
 9088SOL    HW228164   5.344   5.936   6.832
 9089SOL     OW28165   5.694   4.956   3.239
 9089SOL    HW128166   5.779   4.904   3.233
 9089SOL    HW228167   5.636   4.935   3.160
 9090SOL     OW28168   6.202   5.759   6.030
 9090SOL    HW128169   6.279   5.760   6.093
 9090SOL    HW228170   6.158   5.670   6.032
 9091SOL     OW28171   2.916   1.955   1.678
 9091SOL    HW128172   2.894   2.018   1.753
 9091SOL    HW228173   2.894   1.999   1.591
 9092SOL     OW28174   2.298   1.898   4.979
 9092SOL    HW128175   2.284   1.803   4.950
 9092SOL    HW228176   2.396   1.917   4.983
 9093SOL     OW28177   2.175   3.709   0.191
 9093SOL    HW128178   2.083   3.702   0.231
 9093SOL    HW228179   2.235   3.759   0.255
 9094SOL     OW28180   6.535   2.822   0.613
 9094SOL    HW128181   6.592   2.740   0.602
 9094SOL    HW228182   6.593   2.900   0.638
 9095SOL     OW28183   2.107   2.562   0.002
 9095SOL    HW128184   2.188   2.519   0.041
 9095SOL    HW228185   2.134   2.628   6.956
 9096SOL     OW28186   6.458   4.302   3.254
 9096SOL    HW128187   6.441   4.311   3.156
 9096SOL    HW228188   6.398   4.232   3.292
 9097SOL     OW28189   6.407   6.071   5.563
 9097SOL    HW128190   6.437   6.009   5.491
 9097SOL    HW228191   6.421   6.029   5.652
 9098SOL     OW28192   3.818   3.712   4.668
 9098SOL    HW128193   3.901   3.695   4.721
 9098SOL    HW228194   3.824   3.801   4.624
 9099SOL     OW28195   1.510   2.435   6.874
 9099SOL    HW128196   1.564   2.386   6.942
 9099SOL    HW228197   1.437   2.486   6.919
 9100SOL     OW28198   1.440   3.068   0.320
 9100SOL    HW128199   1.510   3.133   0.350
 9100SOL    HW228200   1.453   2.981   0.367
 9101SOL     OW28201   1.877   2.042   6.455
 9101SOL    HW128202   1.788   2.017   6.417
 9101SOL    HW228203   1.940   2.063   6.381
 9102SOL     OW28204   5.046   6.618   2.359
 9102SOL    HW128205   4.978   6.591   2.427
 9102SOL    HW228206   5.064   6.542   2.297
 9103SOL     OW28207   0.658   4.716   6.415
 9103SOL    HW128208   0.641   4.656   6.336
 9103SOL    HW228209   0.755   4.715   6.437
 9104SOL     OW28210   5.234   0.139   3.018
 9104SOL    HW128211   5.305   0.119   3.085
 9104SOL    HW228212   5.248   0.231   2.982
 9105SOL     OW28213   2.628   2.051   6.095
 9105SOL    HW128214   2.689   2.125   6.068
 9105SOL    HW228215   2.645   2.026   6.190
 9106SOL     OW28216   6.285   5.256   2.099
 9106SOL    HW128217   6.375   5.278   2.135
 9106SOL    HW228218   6.218   5.323   2.133
 9107SOL     OW28219   5.110   6.575   6.758
 9107SOL    HW128220   5.152   6.621   6.835
 9107SOL    HW228221   5.010   6.583   6.764
 9108SOL     OW28222   3.303   5.712   7.021
 9108SOL    HW128223   3.323   5.733   6.926
 9108SOL    HW228224   3.316   5.614   0.014
 9109SOL     OW28225   2.919   1.312   4.563
 9109SOL    HW128226   2.953   1.219   4.550
 9109SOL    HW228227   2.819   1.313   4.553
 9110SOL     OW28228   1.443   3.386   3.378
 9110SOL    HW128229   1.378   3.428   3.314
 9110SOL    HW228230   1.529   3.437   3.377
 9111SOL     OW28231   4.281   4.059   1.642
 9111SOL    HW128232   4.187   4.088   1.657
 9111SOL    HW228233   4.341   4.107   1.707
 9112SOL     OW28234   0.930   5.590   2.015
 9112SOL    HW128235   0.964   5.532   2.089
 9112SOL    HW228236   0.971   5.561   1.929
 9113SOL     OW28237   2.944   5.507   0.031
 9113SOL    HW128238   3.024   5.461   7.014
 9113SOL    HW228239   2.876   5.523   6.983
 9114SOL     OW28240   2.586   3.651   1.691
 9114SOL    HW128241   2.540   3.740   1.689
 9114SOL    HW228242   2.518   3.579   1.697
 9115SOL     OW28243   1.655   4.086   4.713
 9115SOL    HW128244   1.715   4.090   4.633
 9115SOL    HW228245   1.687   4.014   4.775
 9116SOL     OW28246   2.164   1.806   6.051
 9116SOL    HW128247   2.246   1.795   6.106
 9116SOL    HW228248   2.187   1.853   5.965
 9117SOL     OW28249   0.103   3.581   0.054
 9117SOL    HW128250   0.025   3.642   0.047
 9117SOL    HW228251   0.174   3.623   0.111
 9118SOL     OW28252   0.443   5.816   1.006
 9118SOL    HW128253   0.525   5.806   1.062
 9118SOL    HW228254   0.363   5.820   1.065
 9119SOL     OW28255   6.279   0.405   0.744
 9119SOL    HW128256   6.185   0.389   0.713
 9119SOL    HW228257   6.284   0.392   0.843
 9120SOL     OW28258   6.159   1.003   6.660
 9120SOL    HW128259   6.163   0.959   6.571
 9120SOL    HW228260   6.089   0.959   6.716
 9121SOL     OW28261   1.865   1.570   6.712
 9121SOL    HW128262   1.789   1.508   6.691
 9121SOL    HW228263   1.847   1.659   6.671
 9122SOL     OW28264   1.155   2.421   0.990
 9122SOL    HW128265   1.113   2.481   0.921
 9122SOL    HW228266   1.254   2.418   0.975
 9123SOL     OW28267   2.989   6.414   6.876
 9123SOL    HW128268   2.905   6.364   6.899
 9123SOL    HW228269   2.976   6.511   6.893
 9124SOL     OW28270   6.521   4.682   5.845
 9124SOL    HW128271   6.502   4.707   5.940
 9124SOL    HW228272   6.531   4.765   5.790
 9125SOL     OW28273   4.641   5.647   1.221
 9125SOL    HW128274   4.692   5.665   1.136
 9125SOL    HW228275   4.674   5.562   1.262
 9126SOL     OW28276   5.905   6.748   2.451
 9126SOL    HW128277   5.982   6.797   2.491
 9126SOL    HW228278   5.926   6.650   2.449
 9127SOL     OW28279   5.447   5.887   6.158
 9127SOL    HW128280   5.434   5.889   6.257
 9127SOL    HW228281   5.391   5.958   6.116
 9128SOL     OW28282   5.070   2.687   5.406
 9128SOL    HW128283   5.008   2.757   5.368
 9128SOL    HW228284   5.070   2.693   5.505
 9129SOL     OW28285   2.202   2.110   6.991
 9129SOL    HW128286   2.281   2.145   6.940
 9129SOL    HW228287   2.120   2.160   6.964
 9130SOL     OW28288   6.309   6.089   1.026
 9130SOL    HW128289   6.373   6.070   0.951
 9130SOL    HW228290   6.360   6.117   1.107
 9131SOL     OW28291   1.087   4.527   3.695
 9131SOL    HW128292   0.987   4.519   3.703
 9131SOL    HW228293   1.128   4.524   3.786
 9132SOL     OW28294   1.939   2.919   4.470
 9132SOL    HW128295   1.889   2.911   4.384
 9132SOL    HW228296   2.011   2.988   4.460
 9133SOL     OW28297   1.207   5.263   1.405
 9133SOL    HW128298   1.130   5.309   1.361
 9133SOL    HW228299   1.255   5.328   1.464
 9134SOL     OW28300   2.898   4.964   6.032
 9134SOL    HW128301   2.987   4.921   6.047
 9134SOL    HW228302   2.876   5.024   6.109
 9135SOL     OW28303   1.048   6.216   4.172
 9135SOL    HW128304   1.105   6.163   4.109
 9135SOL    HW228305   1.074   6.195   4.266
 9136SOL     OW28306   3.464   5.444   5.577
 9136SOL    HW128307   3.473   5.481   5.484
 9136SOL    HW228308   3.516   5.500   5.641
 9137SOL     OW28309   4.082   0.363   1.908
 9137SOL    HW128310   4.117   0.304   1.980
 9137SOL    HW228311   4.004   0.320   1.864
 9138SOL     OW28312   3.286   4.208   1.002
 9138SOL    HW128313   3.362   4.267   0.977
 9138SOL    HW228314   3.240   4.245   1.083
 9139SOL     OW28315   3.314   1.313   5.591
 9139SOL    HW128316   3.246   1.379   5.559
 9139SOL    HW228317   3.329   1.326   5.689
 9140SOL     OW28318   6.778   2.289   3.807
 9140SOL    HW128319   6.755   2.375   3.760
 9140SOL    HW228320   6.696   2.234   3.820
 9141SOL     OW28321   5.524   0.513   5.765
 9141SOL    HW128322   5.477   0.595   5.799
 9141SOL    HW228323   5.596   0.540   5.702
 9142SOL     OW28324   1.467   3.913   6.080
 9142SOL    HW128325   1.521   3.978   6.133
 9142SOL    HW228326   1.384   3.959   6.048
 9143SOL     OW28327   5.639   3.983   1.168
 9143SOL    HW128328   5.596   3.952   1.083
 9143SOL    HW228329   5.569   4.014   1.233
 9144SOL     OW28330   1.507   4.981   4.619
 9144SOL    HW128331   1.531   4.885   4.630
 9144SOL    HW228332   1.542   5.033   4.698
 9145SOL     OW28333   0.220   3.601   6.522
 9145SOL    HW128334   0.247   3.639   6.611
 9145SOL    HW228335   0.161   3.522   6.536
 9146SOL     OW28336   0.373   1.952   1.438
 9146SOL    HW128337   0.419   1.943   1.526
 9146SOL    HW228338   0.274   1.956   1.452
 9147SOL     OW28339   4.970   6.374   6.253
 9147SOL    HW128340   4.911   6.293   6.252
 9147SOL    HW228341   5.026   6.373   6.337
 9148SOL     OW28342   3.279   5.366   3.022
 9148SOL    HW128343   3.356   5.326   3.072
 9148SOL    HW228344   3.228   5.294   2.976
 9149SOL     OW28345   6.200   3.068   4.674
 9149SOL    HW128346   6.257   3.119   4.610
 9149SOL    HW228347   6.256   2.999   4.721
 9150SOL     OW28348   4.681   1.431   3.117
 9150SOL    HW128349   4.733   1.376   3.183
 9150SOL    HW228350   4.586   1.436   3.146
 9151SOL     OW28351   1.236   3.400   2.015
 9151SOL    HW128352   1.149   3.350   2.017
 9151SOL    HW228353   1.297   3.364   2.085
 9152SOL     OW28354   1.999   5.331   3.447
 9152SOL    HW128355   2.054   5.271   3.388
 9152SOL    HW228356   2.051   5.355   3.529
 9153SOL     OW28357   1.249   2.903   6.631
 9153SOL    HW128358   1.154   2.879   6.647
 9153SOL    HW228359   1.295   2.921   6.719
 9154SOL     OW28360   1.699   5.771   0.036
 9154SOL    HW128361   1.730   5.738   0.125
 9154SOL    HW228362   1.664   5.694   7.006
 9155SOL     OW28363   1.325   4.007   0.253
 9155SOL    HW128364   1.249   3.943   0.261
 9155SOL    HW228365   1.294   4.099   0.274
 9156SOL     OW28366   5.153   2.390   1.890
 9156SOL    HW128367   5.087   2.316   1.875
 9156SOL    HW228368   5.239   2.367   1.844
 9157SOL     OW28369   5.260   4.123   5.886
 9157SOL    HW128370   5.321   4.135   5.807
 9157SOL    HW228371   5.305   4.158   5.968
 9158SOL     OW28372   0.465   3.703   3.204
 9158SOL    HW128373   0.565   3.692   3.201
 9158SOL    HW228374   0.424   3.663   3.122
 9159SOL     OW28375   6.619   4.681   2.681
 9159SOL    HW128376   6.569   4.696   2.767
 9159SOL    HW228377   6.702   4.737   2.681
 9160SOL     OW28378   6.968   0.107   0.377
 9160SOL    HW128379   6.990   0.025   0.324
 9160SOL    HW228380   6.978   0.087   0.475
 9161SOL     OW28381   5.288   3.849   2.964
 9161SOL    HW128382   5.202   3.898   2.976
 9161SOL    HW228383   5.285   3.795   2.879
 9162SOL     OW28384   5.090   1.887   2.338
 9162SOL    HW128385   5.096   1.824   2.416
 9162SOL    HW228386   5.014   1.951   2.352
 9163SOL     OW28387   3.195   1.047   4.824
 9163SOL    HW128388   3.242   0.992   4.755
 9163SOL    HW228389   3.137   0.988   4.879
 9164SOL     OW28390   2.691   0.252   0.294
 9164SOL    HW128391   2.686   0.229   0.391
 9164SOL    HW228392   2.600   0.243   0.253
 9165SOL     OW28393   4.944   5.897   0.320
 9165SOL    HW128394   4.988   5.835   0.385
 9165SOL    HW228395   4.999   5.903   0.237
 9166SOL     OW28396   2.762   5.629   1.640
 9166SOL    HW128397   2.740   5.535   1.613
 9166SOL    HW228398   2.678   5.677   1.664
 9167SOL     OW28399   0.148   4.061   4.853
 9167SOL    HW128400   0.053   4.081   4.877
 9167SOL    HW228401   0.152   4.016   4.764
 9168SOL     OW28402   2.756   0.531   6.957
 9168SOL    HW128403   2.696   0.603   6.991
 9168SOL    HW228404   2.708   0.443   6.958
 9169SOL     OW28405   0.292   6.984   2.914
 9169SOL    HW128406   0.207   7.009   2.869
 9169SOL    HW228407   0.285   6.891   2.949
 9170SOL     OW28408   6.187   6.160   6.989
 9170SOL    HW128409   6.101   6.212   6.998
 9170SOL    HW228410   6.256   6.218   6.945
 9171SOL     OW28411   2.785   5.654   5.826
 9171SOL    HW128412   2.702   5.691   5.868
 9171SOL    HW228413   2.783   5.554   5.828
 9172SOL     OW28414   2.605   2.470   4.020
 9172SOL    HW128415   2.527   2.531   4.019
 9172SOL    HW228416   2.663   2.492   4.099
 9173SOL     OW28417   0.464   5.125   5.331
 9173SOL    HW128418   0.437   5.219   5.312
 9173SOL    HW228419   0.509   5.085   5.251
 9174SOL     OW28420   0.015   5.507   0.078
 9174SOL    HW128421   0.105   5.550   0.066
 9174SOL    HW228422   0.003   5.481   0.174
 9175SOL     OW28423   1.598   6.739   5.532
 9175SOL    HW128424   1.533   6.723   5.607
 9175SOL    HW228425   1.624   6.651   5.491
 9176SOL     OW28426   1.530   1.676   5.518
 9176SOL    HW128427   1.621   1.717   5.526
 9176SOL    HW228428   1.500   1.680   5.422
 9177SOL     OW28429   1.408   4.525   3.340
 9177SOL    HW128430   1.401   4.539   3.439
 9177SOL    HW228431   1.498   4.555   3.309
 9178SOL     OW28432   2.121   4.431   0.313
 9178SOL    HW128433   2.065   4.390   0.242
 9178SOL    HW228434   2.133   4.529   0.294
 9179SOL     OW28435   2.581   4.614   5.111
 9179SOL    HW128436   2.517   4.543   5.083
 9179SOL    HW228437   2.662   4.612   5.053
 9180SOL     OW28438   5.485   1.861   2.601
 9180SOL    HW128439   5.529   1.901   2.682
 9180SOL    HW228440   5.428   1.930   2.557
 9181SOL     OW28441   3.902   1.513   2.097
 9181SOL    HW128442   3.974   1.460   2.052
 9181SOL    HW228443   3.864   1.579   2.033
 9182SOL     OW28444   1.845   0.194   2.295
 9182SOL    HW128445   1.932   0.191   2.245
 9182SOL    HW228446   1.778   0.245   2.242
 9183SOL     OW28447   5.211   5.710   6.148
 9183SOL    HW128448   5.287   5.650   6.173
 9183SOL    HW228449   5.223   5.799   6.190
 9184SOL     OW28450   4.711   0.001   0.120
 9184SOL    HW128451   4.695   0.036   0.028
 9184SOL    HW228452   4.807   0.015   0.144
 9185SOL     OW28453   4.672   1.003   5.206
 9185SOL    HW128454   4.689   1.019   5.303
 9185SOL    HW228455   4.592   1.056   5.176
 9186SOL     OW28456   5.082   7.016   6.921
 9186SOL    HW128457   5.168   0.024   6.962
 9186SOL    HW228458   5.020   0.071   6.909
 9187SOL     OW28459   2.797   6.754   2.476
 9187SOL    HW128460   2.735   6.694   2.527
 9187SOL    HW228461   2.756   6.777   2.387
 9188SOL     OW28462   2.377   6.083   0.956
 9188SOL    HW128463   2.445   6.120   0.892
 9188SOL    HW228464   2.382   6.134   1.042
 9189SOL     OW28465   5.413   4.857   2.088
 9189SOL    HW128466   5.472   4.778   2.076
 9189SOL    HW228467   5.346   4.861   2.014
 9190SOL     OW28468   1.105   5.548   0.742
 9190SOL    HW128469   1.156   5.492   0.807
 9190SOL    HW228470   1.063   5.489   0.673
 9191SOL     OW28471   6.900   0.756   6.165
 9191SOL    HW128472   6.927   0.798   6.251
 9191SOL    HW228473   6.979   0.750   6.104
 9192SOL     OW28474   0.926   4.090   4.454
 9192SOL    HW128475   0.971   4.166   4.408
 9192SOL    HW228476   0.994   4.032   4.499
 9193SOL     OW28477   2.130   3.334   6.949
 9193SOL    HW128478   2.133   3.235   6.957
 9193SOL    HW228479   2.094   3.359   6.859
 9194SOL     OW28480   3.038   0.433   4.469
 9194SOL    HW128481   3.055   0.531   4.462
 9194SOL    HW228482   3.053   0.391   4.379
 9195SOL     OW28483   1.861   0.743   3.836
 9195SOL    HW128484   1.768   0.744   3.801
 9195SOL    HW228485   1.899   0.836   3.831
 9196SOL     OW28486   4.994   1.851   5.934
 9196SOL    HW128487   5.040   1.917   5.874
 9196SOL    HW228488   4.973   1.895   6.021
 9197SOL     OW28489   2.357   3.802   0.850
 9197SOL    HW128490   2.313   3.885   0.884
 9197SOL    HW228491   2.299   3.759   0.781
 9198SOL     OW28492   0.378   4.761   3.868
 9198SOL    HW128493   0.422   4.708   3.941
 9198SOL    HW228494   0.359   4.701   3.790
 9199SOL     OW28495   5.946   4.245   5.057
 9199SOL    HW128496   6.013   4.187   5.011
 9199SOL    HW228497   5.855   4.228   5.019
 9200SOL     OW28498   3.186   0.699   0.203
 9200SOL    HW128499   3.087   0.691   0.189
 9200SOL    HW228500   3.220   0.780   0.155
 9201SOL     OW28501   2.066   4.438   0.585
 9201SOL    HW128502   2.087   4.419   0.489
 9201SOL    HW228503   1.969   4.458   0.594
 9202SOL     OW28504   2.650   0.835   3.912
 9202SOL    HW128505   2.615   0.915   3.963
 9202SOL    HW228506   2.587   0.759   3.925
 9203SOL     OW28507   6.485   6.694   0.669
 9203SOL    HW128508   6.566   6.644   0.698
 9203SOL    HW228509   6.498   6.726   0.575
 9204SOL     OW28510   5.502   0.226   5.262
 9204SOL    HW128511   5.404   0.220   5.245
 9204SOL    HW228512   5.539   0.135   5.277
 9205SOL     OW28513   6.903   5.038   1.647
 9205SOL    HW128514   6.964   5.115   1.628
 9205SOL    HW228515   6.809   5.072   1.656
 9206SOL     OW28516   3.632   6.808   0.731
 9206SOL    HW128517   3.555   6.745   0.736
 9206SOL    HW228518   3.611   6.891   0.781
 9207SOL     OW28519   5.353   5.419   6.657
 9207SOL    HW128520   5.423   5.481   6.622
 9207SOL    HW228521   5.284   5.405   6.586
 9208SOL     OW28522   1.481   3.715   2.737
 9208SOL    HW128523   1.409   3.691   2.672
 9208SOL    HW228524   1.535   3.790   2.701
 9209SOL     OW28525   3.031   0.257   6.367
 9209SOL    HW128526   3.067   0.279   6.276
 9209SOL    HW228527   2.933   0.273   6.368
 9210SOL     OW28528   6.618   0.469   3.643
 9210SOL    HW128529   6.695   0.514   3.690
 9210SOL    HW228530   6.628   0.370   3.650
 9211SOL     OW28531   0.262   1.733   2.533
 9211SOL    HW128532   0.272   1.726   2.434
 9211SOL    HW228533   0.202   1.660   2.566
 9212SOL     OW28534   3.260   5.231   4.790
 9212SOL    HW128535   3.312   5.276   4.862
 9212SOL    HW228536   3.241   5.137   4.816
 9213SOL     OW28537   6.098   4.417   6.558
 9213SOL    HW128538   6.165   4.350   6.590
 9213SOL    HW228539   6.107   4.501   6.611
 9214SOL     OW28540   0.518   5.004   0.377
 9214SOL    HW128541   0.438   5.006   0.436
 9214SOL    HW228542   0.557   5.096   0.370
 9215SOL     OW28543   1.411   1.456   0.715
 9215SOL    HW128544   1.474   1.380   0.701
 9215SOL    HW228545   1.374   1.485   0.627
 9216SOL     OW28546   1.791   0.135   3.291
 9216SOL    HW128547   1.735   0.200   3.342
 9216SOL    HW228548   1.765   0.042   3.316
 9217SOL     OW28549   0.443   2.782   0.211
 9217SOL    HW128550   0.454   2.738   0.300
 9217SOL    HW228551   0.385   2.863   0.221
 9218SOL     OW28552   2.101   1.215   0.469
 9218SOL    HW128553   2.096   1.162   0.554
 9218SOL    HW228554   2.014   1.263   0.455
 9219SOL     OW28555   0.230   1.494   0.675
 9219SOL    HW128556   0.162   1.558   0.638
 9219SOL    HW228557   0.278   1.449   0.600
 9220SOL     OW28558   3.269   6.089   1.188
 9220SOL    HW128559   3.345   6.051   1.241
 9220SOL    HW228560   3.280   6.188   1.180
 9221SOL     OW28561   2.648   4.817   4.894
 9221SOL    HW128562   2.673   4.898   4.948
 9221SOL    HW228563   2.714   4.744   4.911
 9222SOL     OW28564   2.619   2.476   6.310
 9222SOL    HW128565   2.635   2.420   6.228
 9222SOL    HW228566   2.521   2.487   6.324
 9223SOL     OW28567   2.768   3.135   5.268
 9223SOL    HW128568   2.676   3.102   5.247
 9223SOL    HW228569   2.778   3.229   5.234
 9224SOL     OW28570   2.196   4.839   5.168
 9224SOL    HW128571   2.186   4.910   5.097
 9224SOL    HW228572   2.108   4.824   5.213
 9225SOL     OW28573   2.202   6.828   6.892
 9225SOL    HW128574   2.244   6.738   6.892
 9225SOL    HW228575   2.189   6.859   6.986
 9226SOL     OW28576   4.022   6.597   0.793
 9226SOL    HW128577   3.982   6.617   0.704
 9226SOL    HW228578   4.085   6.520   0.785
 9227SOL     OW28579   1.733   6.906   1.459
 9227SOL    HW128580   1.712   6.910   1.557
 9227SOL    HW228581   1.828   6.877   1.446
 9228SOL     OW28582   0.550   0.309   6.813
 9228SOL    HW128583   0.603   0.367   6.875
 9228SOL    HW228584   0.611   0.270   6.744
 9229SOL     OW28585   0.542   6.065   6.043
 9229SOL    HW128586   0.442   6.063   6.038
 9229SOL    HW228587   0.575   6.155   6.013
 9230SOL     OW28588   4.914   0.795   3.899
 9230SOL    HW128589   4.917   0.720   3.965
 9230SOL    HW228590   4.832   0.787   3.843
 9231SOL     OW28591   2.159   3.317   3.447
 9231SOL    HW128592   2.075   3.346   3.403
 9231SOL    HW228593   2.175   3.220   3.430
 9232SOL     OW28594   4.563   4.938   1.269
 9232SOL    HW128595   4.600   4.857   1.223
 9232SOL    HW228596   4.469   4.954   1.238
 9233SOL     OW28597   4.831   4.564   1.049
 9233SOL    HW128598   4.918   4.527   1.082
 9233SOL    HW228599   4.757   4.531   1.108
 9234SOL     OW28600   1.908   5.758   3.701
 9234SOL    HW128601   1.845   5.735   3.775
 9234SOL    HW228602   1.926   5.677   3.645
 9235SOL     OW28603   0.512   2.467   3.585
 9235SOL    HW128604   0.561   2.547   3.621
 9235SOL    HW228605   0.511   2.395   3.655
 9236SOL     OW28606   4.037   2.852   6.061
 9236SOL    HW128607   4.101   2.856   6.138
 9236SOL    HW228608   4.011   2.756   6.045
 9237SOL     OW28609   1.854   3.653   4.198
 9237SOL    HW128610   1.821   3.747   4.184
 9237SOL    HW228611   1.842   3.627   4.293
 9238SOL     OW28612   4.294   3.437   6.393
 9238SOL    HW128613   4.211   3.491   6.375
 9238SOL    HW228614   4.374   3.496   6.386
 9239SOL     OW28615   1.403   3.664   6.435
 9239SOL    HW128616   1.413   3.649   6.336
 9239SOL    HW228617   1.345   3.593   6.474
 9240SOL     OW28618   5.225   1.074   1.965
 9240SOL    HW128619   5.174   1.119   1.892
 9240SOL    HW228620   5.314   1.044   1.929
 9241SOL     OW28621   0.741   5.525   6.890
 9241SOL    HW128622   0.800   5.467   6.946
 9241SOL    HW228623   0.649   5.487   6.889
 9242SOL     OW28624   6.290   5.740   1.566
 9242SOL    HW128625   6.207   5.757   1.619
 9242SOL    HW228626   6.287   5.794   1.482
 9243SOL     OW28627   5.822   6.244   4.833
 9243SOL    HW128628   5.861   6.222   4.922
 9243SOL    HW228629   5.738   6.298   4.845
 9244SOL     OW28630   3.492   5.546   0.257
 9244SOL    HW128631   3.547   5.497   0.189
 9244SOL    HW228632   3.544   5.554   0.342
 9245SOL     OW28633   0.716   6.665   1.130
 9245SOL    HW128634   0.732   6.689   1.034
 9245SOL    HW228635   0.630   6.615   1.138
 9246SOL     OW28636   6.893   4.783   4.245
 9246SOL    HW128637   6.968   4.849   4.245
 9246SOL    HW228638   6.825   4.809   4.176
 9247SOL     OW28639   1.786   6.873   3.166
 9247SOL    HW128640   1.844   6.911   3.094
 9247SOL    HW228641   1.692   6.866   3.133
 9248SOL     OW28642   3.759   1.874   6.205
 9248SOL    HW128643   3.684   1.936   6.230
 9248SOL    HW228644   3.794   1.829   6.288
 9249SOL     OW28645   4.048   6.311   3.291
 9249SOL    HW128646   4.058   6.357   3.202
 9249SOL    HW228647   3.989   6.366   3.350
 9250SOL     OW28648   5.723   3.528   3.402
 9250SOL    HW128649   5.742   3.482   3.316
 9250SOL    HW228650   5.677   3.615   3.384
 9251SOL     OW28651   4.049   1.915   3.124
 9251SOL    HW128652   4.089   1.869   3.204
 9251SOL    HW228653   3.963   1.959   3.150
 9252SOL     OW28654   1.421   6.546   4.252
 9252SOL    HW128655   1.342   6.594   4.289
 9252SOL    HW228656   1.504   6.598   4.272
 9253SOL     OW28657   1.240   6.958   5.513
 9253SOL    HW128658   1.320   6.907   5.544
 9253SOL    HW228659   1.214   0.002   5.582
 9254SOL     OW28660   5.715   2.870   1.493
 9254SOL    HW128661   5.662   2.792   1.457
 9254SOL    HW228662   5.699   2.878   1.591
 9255SOL     OW28663   0.057   4.807   0.432
 9255SOL    HW128664   0.030   4.711   0.422
 9255SOL    HW228665   7.001   4.866   0.415
 9256SOL     OW28666   3.936   4.992   1.730
 9256SOL    HW128667   4.005   4.937   1.684
 9256SOL    HW228668   3.924   4.959   1.824
 9257SOL     OW28669   0.687   3.519   0.627
 9257SOL    HW128670   0.741   3.538   0.709
 9257SOL    HW228671   0.710   3.428   0.591
 9258SOL     OW28672   3.993   3.198   4.003
 9258SOL    HW128673   3.950   3.261   4.067
 9258SOL    HW228674   4.002   3.108   4.046
 9259SOL     OW28675   1.096   2.445   0.520
 9259SOL    HW128676   1.035   2.460   0.441
 9259SOL    HW228677   1.187   2.419   0.487
 9260SOL     OW28678   6.389   3.793   0.165
 9260SOL    HW128679   6.378   3.806   0.067
 9260SOL    HW228680   6.321   3.728   0.198
 9261SOL     OW28681   3.595   6.810   6.584
 9261SOL    HW128682   3.667   6.878   6.565
 9261SOL    HW228683   3.517   6.828   6.524
 9262SOL     OW28684   4.759   0.610   5.751
 9262SOL    HW128685   4.697   0.684   5.776
 9262SOL    HW228686   4.764   0.543   5.826
 9263SOL     OW28687   6.049   3.691   1.866
 9263SOL    HW128688   6.099   3.610   1.834
 9263SOL    HW228689   5.983   3.718   1.797
 9264SOL     OW28690   6.243   2.182   0.058
 9264SOL    HW128691   6.259   2.084   0.046
 9264SOL    HW228692   6.159   2.196   0.111
 9265SOL     OW28693   1.435   1.710   5.252
 9265SOL    HW128694   1.348   1.749   5.280
 9265SOL    HW228695   1.472   1.762   5.175
 9266SOL     OW28696   2.279   6.224   2.339
 9266SOL    HW128697   2.187   6.255   2.362
 9266SOL    HW228698   2.274   6.134   2.295
 9267SOL     OW28699   2.897   5.100   5.581
 9267SOL    HW128700   2.942   5.187   5.599
 9267SOL    HW228701   2.874   5.055   5.667
 9268SOL     OW28702   0.784   1.068   2.500
 9268SOL    HW128703   0.756   0.974   2.483
 9268SOL    HW228704   0.827   1.106   2.418
 9269SOL     OW28705   4.458   1.866   5.742
 9269SOL    HW128706   4.438   1.940   5.678
 9269SOL    HW228707   4.460   1.902   5.835
 9270SOL     OW28708   1.124   0.120   5.685
 9270SOL    HW128709   1.052   0.176   5.727
 9270SOL    HW228710   1.202   0.115   5.747
 9271SOL     OW28711   0.969   5.143   6.523
 9271SOL    HW128712   0.929   5.200   6.451
 9271SOL    HW228713   0.951   5.184   6.613
 9272SOL     OW28714   2.780   5.064   6.487
 9272SOL    HW128715   2.785   4.969   6.516
 9272SOL    HW228716   2.778   5.068   6.387
 9273SOL     OW28717   4.435   6.410   5.578
 9273SOL    HW128718   4.524   6.402   5.532
 9273SOL    HW228719   4.385   6.487   5.538
 9274SOL     OW28720   5.971   2.433   1.532
 9274SOL    HW128721   5.884   2.395   1.500
 9274SOL    HW228722   6.045   2.369   1.511
 9275SOL     OW28723   0.240   0.967   6.536
 9275SOL    HW128724   0.301   0.887   6.534
 9275SOL    HW228725   0.248   1.013   6.624
 9276SOL     OW28726   5.075   6.285   4.392
 9276SOL    HW128727   5.163   6.296   4.344
 9276SOL    HW228728   5.090   6.294   4.490
 9277SOL     OW28729   3.175   2.582   0.552
 9277SOL    HW128730   3.116   2.574   0.632
 9277SOL    HW228731   3.223   2.495   0.537
 9278SOL     OW28732   1.588   2.983   1.465
 9278SOL    HW128733   1.633   3.023   1.546
 9278SOL    HW228734   1.602   2.884   1.464
 9279SOL     OW28735   2.804   6.839   1.040
 9279SOL    HW128736   2.897   6.827   1.074
 9279SOL    HW228737   2.776   6.934   1.050
 9280SOL     OW28738   2.139   0.899   3.058
 9280SOL    HW128739   2.071   0.832   3.086
 9280SOL    HW228740   2.197   0.923   3.136
 9281SOL     OW28741   1.796   2.833   0.550
 9281SOL    HW128742   1.848   2.909   0.589
 9281SOL    HW228743   1.740   2.866   0.474
 9282SOL     OW28744   4.295   1.852   6.542
 9282SOL    HW128745   4.257   1.938   6.507
 9282SOL    HW228746   4.284   1.849   6.641
 9283SOL     OW28747   5.736   2.487   2.773
 9283SOL    HW128748   5.662   2.508   2.837
 9283SOL    HW228749   5.822   2.480   2.823
 9284SOL     OW28750   3.264   3.450   2.106
 9284SOL    HW128751   3.279   3.358   2.142
 9284SOL    HW228752   3.245   3.513   2.181
 9285SOL     OW28753   6.130   2.578   6.532
 9285SOL    HW128754   6.104   2.524   6.613
 9285SOL    HW228755   6.097   2.531   6.450
 9286SOL     OW28756   5.574   5.633   5.045
 9286SOL    HW128757   5.573   5.719   5.096
 9286SOL    HW228758   5.636   5.568   5.090
 9287SOL     OW28759   2.876   6.572   2.182
 9287SOL    HW128760   2.944   6.601   2.115
 9287SOL    HW228761   2.797   6.532   2.134
 9288SOL     OW28762   4.794   2.069   5.854
 9288SOL    HW128763   4.780   1.993   5.791
 9288SOL    HW228764   4.706   2.103   5.886
 9289SOL     OW28765   5.207   3.446   2.441
 9289SOL    HW128766   5.127   3.404   2.399
 9289SOL    HW228767   5.180   3.495   2.524
 9290SOL     OW28768   4.583   2.206   4.331
 9290SOL    HW128769   4.538   2.121   4.356
 9290SOL    HW228770   4.532   2.283   4.367
 9291SOL     OW28771   0.748   1.672   4.797
 9291SOL    HW128772   0.754   1.687   4.698
 9291SOL    HW228773   0.802   1.740   4.845
 9292SOL     OW28774   6.593   3.478   0.099
 9292SOL    HW128775   6.569   3.459   0.004
 9292SOL    HW228776   6.516   3.453   0.158
 9293SOL     OW28777   6.398   3.718   6.437
 9293SOL    HW128778   6.401   3.674   6.347
 9293SOL    HW228779   6.445   3.806   6.433
 9294SOL     OW28780   5.519   5.643   6.554
 9294SOL    HW128781   5.560   5.733   6.568
 9294SOL    HW228782   5.544   5.608   6.464
 9295SOL     OW28783   4.660   1.998   4.158
 9295SOL    HW128784   4.655   2.084   4.209
 9295SOL    HW228785   4.569   1.975   4.123
 9296SOL     OW28786   6.808   6.578   5.450
 9296SOL    HW128787   6.848   6.666   5.475
 9296SOL    HW228788   6.849   6.545   5.365
 9297SOL     OW28789   0.283   0.777   1.174
 9297SOL    HW128790   0.229   0.722   1.238
 9297SOL    HW228791   0.304   0.721   1.093
 9298SOL     OW28792   0.591   6.313   4.585
 9298SOL    HW128793   0.532   6.371   4.529
 9298SOL    HW228794   0.681   6.304   4.542
 9299SOL     OW28795   1.964   2.613   3.907
 9299SOL    HW128796   2.028   2.672   3.957
 9299SOL    HW228797   1.882   2.665   3.885
 9300SOL     OW28798   5.709   4.154   3.900
 9300SOL    HW128799   5.710   4.254   3.902
 9300SOL    HW228800   5.669   4.122   3.814
 9301SOL     OW28801   5.921   3.921   2.279
 9301SOL    HW128802   5.832   3.922   2.324
 9301SOL    HW228803   5.933   3.836   2.229
 9302SOL     OW28804   2.276   2.541   2.531
 9302SOL    HW128805   2.215   2.598   2.586
 9302SOL    HW228806   2.369   2.548   2.567
 9303SOL     OW28807   4.010   4.402   0.859
 9303SOL    HW128808   3.931   4.437   0.808
 9303SOL    HW228809   4.013   4.302   0.851
 9304SOL     OW28810   4.018   3.413   0.343
 9304SOL    HW128811   4.053   3.448   0.430
 9304SOL    HW228812   3.952   3.477   0.305
 9305SOL     OW28813   5.003   3.284   2.311
 9305SOL    HW128814   4.957   3.207   2.266
 9305SOL    HW228815   4.935   3.345   2.352
 9306SOL     OW28816   6.395   4.786   3.698
 9306SOL    HW128817   6.388   4.789   3.599
 9306SOL    HW228818   6.388   4.692   3.730
 9307SOL     OW28819   2.249   0.774   6.143
 9307SOL    HW128820   2.273   0.732   6.056
 9307SOL    HW228821   2.329   0.772   6.204
 9308SOL     OW28822   6.682   1.939   0.740
 9308SOL    HW128823   6.707   1.969   0.648
 9308SOL    HW228824   6.765   1.918   0.792
 9309SOL     OW28825   4.689   3.171   6.434
 9309SOL    HW128826   4.636   3.157   6.518
 9309SOL    HW228827   4.644   3.239   6.377
 9310SOL     OW28828   4.028   6.193   1.228
 9310SOL    HW128829   4.084   6.112   1.212
 9310SOL    HW228830   4.065   6.269   1.175
 9311SOL     OW28831   6.579   3.270   1.704
 9311SOL    HW128832   6.490   3.232   1.730
 9311SOL    HW228833   6.608   3.230   1.617
 9312SOL     OW28834   1.566   4.568   5.054
 9312SOL    HW128835   1.482   4.515   5.063
 9312SOL    HW228836   1.543   4.661   5.022
 9313SOL     OW28837   6.240   6.617   2.269
 9313SOL    HW128838   6.206   6.709   2.249
 9313SOL    HW228839   6.284   6.617   2.359
 9314SOL     OW28840   5.306   4.780   0.127
 9314SOL    HW128841   5.353   4.792   0.039
 9314SOL    HW228842   5.233   4.848   0.134
 9315SOL     OW28843   0.405   6.662   6.717
 9315SOL    HW128844   0.386   6.564   6.713
 9315SOL    HW228845   0.372   6.699   6.804
 9316SOL     OW28846   3.716   5.919   4.501
 9316SOL    HW128847   3.740   6.012   4.473
 9316SOL    HW228848   3.782   5.887   4.570
 9317SOL     OW28849   5.428   4.484   5.232
 9317SOL    HW128850   5.348   4.493   5.172
 9317SOL    HW228851   5.460   4.575   5.259
 9318SOL     OW28852   6.145   6.850   6.244
 9318SOL    HW128853   6.074   6.905   6.199
 9318SOL    HW228854   6.233   6.864   6.198
 9319SOL     OW28855   6.718   2.817   4.947
 9319SOL    HW128856   6.774   2.734   4.948
 9319SOL    HW228857   6.668   2.823   5.033
 9320SOL     OW28858   3.981   2.807   6.416
 9320SOL    HW128859   3.929   2.752   6.350
 9320SOL    HW228860   4.054   2.857   6.368
 9321SOL     OW28861   6.378   6.131   3.463
 9321SOL    HW128862   6.429   6.178   3.390
 9321SOL    HW228863   6.422   6.149   3.551
 9322SOL     OW28864   0.900   6.517   0.084
 9322SOL    HW128865   0.954   6.561   0.013
 9322SOL    HW228866   0.957   6.499   0.164
 9323SOL     OW28867   0.168   1.468   6.445
 9323SOL    HW128868   0.251   1.416   6.427
 9323SOL    HW228869   0.144   1.522   6.364
 9324SOL     OW28870   1.892   5.475   6.848
 9324SOL    HW128871   1.918   5.538   6.922
 9324SOL    HW228872   1.861   5.528   6.769
 9325SOL     OW28873   0.321   3.061   0.258
 9325SOL    HW128874   0.294   3.152   0.225
 9325SOL    HW228875   0.253   3.029   0.325
 9326SOL     OW28876   2.023   5.609   1.016
 9326SOL    HW128877   2.072   5.696   1.009
 9326SOL    HW228878   2.072   5.548   1.078
 9327SOL     OW28879   3.950   0.732   3.528
 9327SOL    HW128880   3.890   0.704   3.454
 9327SOL    HW228881   3.902   0.799   3.586
 9328SOL     OW28882   3.820   1.119   2.354
 9328SOL    HW128883   3.884   1.154   2.285
 9328SOL    HW228884   3.793   1.193   2.414
 9329SOL     OW28885   1.094   4.295   1.906
 9329SOL    HW128886   1.141   4.214   1.940
 9329SOL    HW228887   0.996   4.286   1.920
 9330SOL     OW28888   5.476   6.662   6.546
 9330SOL    HW128889   5.557   6.719   6.557
 9330SOL    HW228890   5.436   6.679   6.456
 9331SOL     OW28891   0.595   1.555   0.434
 9331SOL    HW128892   0.671   1.572   0.371
 9331SOL    HW228893   0.529   1.630   0.426
 9332SOL     OW28894   3.710   4.178   4.737
 9332SOL    HW128895   3.763   4.256   4.771
 9332SOL    HW228896   3.627   4.168   4.791
 9333SOL     OW28897   5.744   5.593   1.276
 9333SOL    HW128898   5.747   5.619   1.180
 9333SOL    HW228899   5.683   5.514   1.288
 9334SOL     OW28900   2.537   0.066   4.816
 9334SOL    HW128901   2.454   0.010   4.816
 9334SOL    HW228902   2.611   0.014   4.773
 9335SOL     OW28903   0.773   1.042   1.727
 9335SOL    HW128904   0.734   1.022   1.817
 9335SOL    HW228905   0.751   0.967   1.665
 9336SOL     OW28906   3.488   0.094   5.259
 9336SOL    HW128907   3.401   0.130   5.225
 9336SOL    HW228908   3.504   0.004   5.220
 9337SOL     OW28909   4.551   6.735   3.024
 9337SOL    HW128910   4.634   6.789   3.006
 9337SOL    HW228911   4.575   6.638   3.024
 9338SOL     OW28912   3.530   6.858   1.739
 9338SOL    HW128913   3.501   6.888   1.830
 9338SOL    HW228914   3.598   6.923   1.704
 9339SOL     OW28915   4.190   5.645   1.404
 9339SOL    HW128916   4.155   5.624   1.495
 9339SOL    HW228917   4.233   5.564   1.364
 9340SOL     OW28918   6.057   3.162   0.852
 9340SOL    HW128919   5.961   3.192   0.857
 9340SOL    HW228920   6.109   3.227   0.797
 9341SOL     OW28921   6.675   4.904   5.684
 9341SOL    HW128922   6.701   4.838   5.613
 9341SOL    HW228923   6.750   4.915   5.749
 9342SOL     OW28924   1.116   6.884   6.010
 9342SOL    HW128925   1.042   6.908   5.947
 9342SOL    HW228926   1.198   6.860   5.958
 9343SOL     OW28927   6.117   6.213   4.060
 9343SOL    HW128928   6.067   6.205   3.974
 9343SOL    HW228929   6.104   6.129   4.114
 9344SOL     OW28930   4.348   6.317   1.103
 9344SOL    HW128931   4.362   6.313   1.202
 9344SOL    HW228932   4.411   6.254   1.058
 9345SOL     OW28933   0.036   2.676   0.749
 9345SOL    HW128934   0.053   2.579   0.730
 9345SOL    HW228935   6.962   2.689   0.768
 9346SOL     OW28936   5.980   0.356   0.791
 9346SOL    HW128937   5.884   0.364   0.764
 9346SOL    HW228938   5.986   0.307   0.879
 9347SOL     OW28939   1.640   6.664   1.851
 9347SOL    HW128940   1.672   6.677   1.945
 9347SOL    HW228941   1.599   6.573   1.842
 9348SOL     OW28942   2.564   4.852   0.442
 9348SOL    HW128943   2.497   4.822   0.374
 9348SOL    HW228944   2.636   4.905   0.396
 9349SOL     OW28945   1.846   5.867   2.397
 9349SOL    HW128946   1.821   5.810   2.475
 9349SOL    HW228947   1.939   5.902   2.408
 9350SOL     OW28948   0.372   2.931   5.442
 9350SOL    HW128949   0.361   2.891   5.351
 9350SOL    HW228950   0.370   2.858   5.511
 9351SOL     OW28951   2.951   1.405   6.241
 9351SOL    HW128952   2.965   1.348   6.322
 9351SOL    HW228953   2.997   1.493   6.254
 9352SOL     OW28954   2.263   4.887   5.841
 9352SOL    HW128955   2.212   4.802   5.834
 9352SOL    HW228956   2.307   4.908   5.754
 9353SOL     OW28957   5.803   1.164   0.680
 9353SOL    HW128958   5.855   1.194   0.761
 9353SOL    HW228959   5.863   1.167   0.600
 9354SOL     OW28960   1.237   1.729   6.449
 9354SOL    HW128961   1.267   1.636   6.470
 9354SOL    HW228962   1.260   1.752   6.355
 9355SOL     OW28963   0.836   1.402   4.832
 9355SOL    HW128964   0.757   1.344   4.855
 9355SOL    HW228965   0.804   1.482   4.781
 9356SOL     OW28966   5.123   0.374   3.805
 9356SOL    HW128967   5.128   0.376   3.904
 9356SOL    HW228968   5.049   0.312   3.776
 9357SOL     OW28969   0.969   2.020   0.621
 9357SOL    HW128970   0.978   2.095   0.687
 9357SOL    HW228971   0.984   2.055   0.529
 9358SOL     OW28972   1.317   2.854   1.575
 9358SOL    HW128973   1.381   2.910   1.523
 9358SOL    HW228974   1.365   2.777   1.616
 9359SOL     OW28975   1.088   0.251   5.152
 9359SOL    HW128976   1.085   0.282   5.248
 9359SOL    HW228977   1.145   0.314   5.100
 9360SOL     OW28978   0.746   0.515   6.076
 9360SOL    HW128979   0.772   0.509   6.173
 9360SOL    HW228980   0.666   0.458   6.060
 9361SOL     OW28981   1.964   5.920   4.360
 9361SOL    HW128982   1.952   5.976   4.278
 9361SOL    HW228983   2.034   5.851   4.343
 9362SOL     OW28984   2.299   0.789   2.404
 9362SOL    HW128985   2.333   0.882   2.414
 9362SOL    HW228986   2.205   0.791   2.371
 9363SOL     OW28987   1.754   4.380   2.566
 9363SOL    HW128988   1.798   4.320   2.499
 9363SOL    HW228989   1.822   4.442   2.605
 9364SOL     OW28990   0.307   2.469   0.478
 9364SOL    HW128991   0.303   2.404   0.554
 9364SOL    HW228992   0.225   2.526   0.479
 9365SOL     OW28993   2.660   0.919   4.784
 9365SOL    HW128994   2.616   0.945   4.699
 9365SOL    HW228995   2.591   0.904   4.855
 9366SOL     OW28996   4.223   6.084   2.609
 9366SOL    HW128997   4.273   6.001   2.582
 9366SOL    HW228998   4.132   6.083   2.569
 9367SOL     OW28999   6.415   0.936   1.214
 9367SOL    HW129000   6.373   0.930   1.123
 9367SOL    HW229001   6.514   0.934   1.204
 9368SOL     OW29002   2.863   0.498   2.957
 9368SOL    HW129003   2.795   0.434   2.921
 9368SOL    HW229004   2.888   0.472   3.050
 9369SOL     OW29005   3.847   5.293   0.757
 9369SOL    HW129006   3.872   5.389   0.773
 9369SOL    HW229007   3.755   5.289   0.718
 9370SOL     OW29008   4.114   1.667   4.842
 9370SOL    HW129009   4.025   1.709   4.856
 9370SOL    HW229010   4.178   1.735   4.807
 9371SOL     OW29011   3.847   4.786   0.702
 9371SOL    HW129012   3.842   4.811   0.606
 9371SOL    HW229013   3.863   4.867   0.757
 9372SOL     OW29014   4.501   5.729   1.452
 9372SOL    HW129015   4.444   5.805   1.420
 9372SOL    HW229016   4.553   5.692   1.375
 9373SOL     OW29017   6.604   2.815   1.102
 9373SOL    HW129018   6.590   2.866   1.187
 9373SOL    HW229019   6.669   2.864   1.044
 9374SOL     OW29020   0.126   5.410   6.395
 9374SOL    HW129021   0.072   5.327   6.397
 9374SOL    HW229022   0.067   5.489   6.378
 9375SOL     OW29023   1.503   1.017   0.071
 9375SOL    HW129024   1.506   1.085   0.145
 9375SOL    HW229025   1.579   0.953   0.083
 9376SOL     OW29026   2.621   3.562   0.579
 9376SOL    HW129027   2.633   3.660   0.562
 9376SOL    HW229028   2.697   3.529   0.635
 9377SOL     OW29029   2.086   0.597   3.495
 9377SOL    HW129030   2.132   0.636   3.416
 9377SOL    HW229031   2.017   0.661   3.529
 9378SOL     OW29032   3.737   1.098   4.864
 9378SOL    HW129033   3.702   1.191   4.877
 9378SOL    HW229034   3.756   1.082   4.767
 9379SOL     OW29035   4.155   0.339   4.835
 9379SOL    HW129036   4.191   0.328   4.743
 9379SOL    HW229037   4.083   0.408   4.836
 9380SOL     OW29038   4.949   5.536   0.575
 9380SOL    HW129039   4.962   5.583   0.662
 9380SOL    HW229040   4.946   5.437   0.590
 9381SOL     OW29041   5.561   0.887   5.462
 9381SOL    HW129042   5.654   0.923   5.460
 9381SOL    HW229043   5.519   0.907   5.550
 9382SOL     OW29044   3.331   5.379   6.474
 9382SOL    HW129045   3.424   5.411   6.491
 9382SOL    HW229046   3.330   5.319   6.394
 9383SOL     OW29047   5.603   3.706   2.224
 9383SOL    HW129048   5.675   3.664   2.168
 9383SOL    HW229049   5.580   3.795   2.186
 9384SOL     OW29050   3.611   6.926   1.358
 9384SOL    HW129051   3.574   7.003   1.410
 9384SOL    HW229052   3.555   6.912   1.275
 9385SOL     OW29053   3.965   2.151   4.449
 9385SOL    HW129054   3.926   2.059   4.458
 9385SOL    HW229055   3.970   2.194   4.539
 9386SOL     OW29056   5.364   6.987   1.809
 9386SOL    HW129057   5.442   7.021   1.756
 9386SOL    HW229058   5.285   6.979   1.749
 9387SOL     OW29059   2.091   1.836   6.395
 9387SOL    HW129060   2.073   1.917   6.339
 9387SOL    HW229061   2.188   1.833   6.419
 9388SOL     OW29062   2.571   0.321   4.953
 9388SOL    HW129063   2.490   0.361   4.910
 9388SOL    HW229064   2.601   0.242   4.900
 9389SOL     OW29065   2.159   3.851   1.721
 9389SOL    HW129066   2.064   3.876   1.738
 9389SOL    HW229067   2.184   3.875   1.627
 9390SOL     OW29068   5.196   4.949   3.898
 9390SOL    HW129069   5.247   4.989   3.822
 9390SOL    HW229070   5.237   4.861   3.922
 9391SOL     OW29071   1.458   3.839   4.417
 9391SOL    HW129072   1.555   3.827   4.437
 9391SOL    HW229073   1.432   3.783   4.339
 9392SOL     OW29074   5.017   4.585   2.377
 9392SOL    HW129075   5.040   4.569   2.473
 9392SOL    HW229076   5.009   4.498   2.329
 9393SOL     OW29077   1.548   5.635   6.215
 9393SOL    HW129078   1.604   5.684   6.148
 9393SOL    HW229079   1.583   5.652   6.307
 9394SOL     OW29080   4.021   0.351   0.795
 9394SOL    HW129081   3.976   0.292   0.862
 9394SOL    HW229082   3.983   0.335   0.704
 9395SOL     OW29083   1.757   1.150   1.136
 9395SOL    HW129084   1.758   1.249   1.153
 9395SOL    HW229085   1.704   1.104   1.207
 9396SOL     OW29086   0.800   1.119   6.298
 9396SOL    HW129087   0.861   1.182   6.344
 9396SOL    HW229088   0.852   1.063   6.233
 9397SOL     OW29089   3.795   0.984   4.609
 9397SOL    HW129090   3.861   1.045   4.566
 9397SOL    HW229091   3.839   0.937   4.686
 9398SOL     OW29092   0.426   2.221   0.638
 9398SOL    HW129093   0.498   2.189   0.699
 9398SOL    HW229094   0.424   2.164   0.556
 9399SOL     OW29095   1.006   2.340   4.405
 9399SOL    HW129096   1.078   2.404   4.431
 9399SOL    HW229097   1.040   2.246   4.415
 9400SOL     OW29098   5.774   1.864   1.167
 9400SOL    HW129099   5.777   1.854   1.266
 9400SOL    HW229100   5.697   1.811   1.130
 9401SOL     OW29101   0.258   2.555   3.520
 9401SOL    HW129102   0.350   2.519   3.536
 9401SOL    HW229103   0.259   2.654   3.530
 9402SOL     OW29104   2.726   6.422   4.866
 9402SOL    HW129105   2.724   6.407   4.767
 9402SOL    HW229106   2.676   6.349   4.912
 9403SOL     OW29107   5.480   2.153   1.032
 9403SOL    HW129108   5.433   2.066   1.017
 9403SOL    HW229109   5.573   2.147   0.996
 9404SOL     OW29110   2.059   2.537   0.866
 9404SOL    HW129111   2.078   2.443   0.894
 9404SOL    HW229112   1.960   2.552   0.861
 9405SOL     OW29113   6.483   5.970   5.072
 9405SOL    HW129114   6.408   6.032   5.048
 9405SOL    HW229115   6.559   6.021   5.111
 9406SOL     OW29116   1.304   2.200   0.486
 9406SOL    HW129117   1.357   2.258   0.548
 9406SOL    HW229118   1.366   2.148   0.427
 9407SOL     OW29119   1.346   4.489   4.750
 9407SOL    HW129120   1.440   4.455   4.762
 9407SOL    HW229121   1.305   4.445   4.670
 9408SOL     OW29122   5.693   4.409   3.982
 9408SOL    HW129123   5.594   4.404   3.994
 9408SOL    HW229124   5.734   4.450   4.063
 9409SOL     OW29125   6.026   5.254   1.633
 9409SOL    HW129126   6.094   5.317   1.595
 9409SOL    HW229127   5.940   5.302   1.647
 9410SOL     OW29128   4.387   0.449   0.947
 9410SOL    HW129129   4.365   0.479   1.041
 9410SOL    HW229130   4.420   0.355   0.949
 9411SOL     OW29131   3.179   4.117   3.025
 9411SOL    HW129132   3.126   4.083   3.103
 9411SOL    HW229133   3.274   4.130   3.053
 9412SOL     OW29134   4.625   6.937   1.394
 9412SOL    HW129135   4.562   6.974   1.462
 9412SOL    HW229136   4.681   6.864   1.435
 9413SOL     OW29137   4.335   4.658   2.966
 9413SOL    HW129138   4.255   4.651   3.025
 9413SOL    HW229139   4.389   4.738   2.991
 9414SOL     OW29140   2.736   2.061   2.427
 9414SOL    HW129141   2.686   1.981   2.394
 9414SOL    HW229142   2.762   2.118   2.350
 9415SOL     OW29143   5.496   0.337   1.363
 9415SOL    HW129144   5.596   0.324   1.362
 9415SOL    HW229145   5.466   0.370   1.274
 9416SOL     OW29146   6.128   5.277   5.482
 9416SOL    HW129147   6.108   5.190   5.437
 9416SOL    HW229148   6.145   5.347   5.413
 9417SOL     OW29149   3.752   5.458   2.189
 9417SOL    HW129150   3.671   5.454   2.248
 9417SOL    HW229151   3.792   5.367   2.182
 9418SOL     OW29152   3.120   2.034   5.000
 9418SOL    HW129153   3.143   1.987   5.085
 9418SOL    HW229154   3.105   2.131   5.019
 9419SOL     OW29155   2.123   2.445   6.597
 9419SOL    HW129156   2.063   2.370   6.624
 9419SOL    HW229157   2.076   2.532   6.611
 9420SOL     OW29158   5.545   3.563   5.622
 9420SOL    HW129159   5.620   3.519   5.574
 9420SOL    HW229160   5.579   3.609   5.703
 9421SOL     OW29161   4.264   6.083   6.624
 9421SOL    HW129162   4.181   6.102   6.676
 9421SOL    HW229163   4.303   6.169   6.590
 9422SOL     OW29164   2.277   6.480   5.482
 9422SOL    HW129165   2.344   6.545   5.518
 9422SOL    HW229166   2.278   6.397   5.538
 9423SOL     OW29167   4.445   5.356   1.853
 9423SOL    HW129168   4.422   5.266   1.816
 9423SOL    HW229169   4.436   5.425   1.781
 9424SOL     OW29170   6.999   0.218   4.140
 9424SOL    HW129171   6.958   0.179   4.057
 9424SOL    HW229172   6.941   0.293   4.173
 9425SOL     OW29173   6.768   4.468   0.898
 9425SOL    HW129174   6.784   4.463   0.996
 9425SOL    HW229175   6.855   4.462   0.849
 9426SOL     OW29176   4.424   2.811   6.394
 9426SOL    HW129177   4.512   2.772   6.371
 9426SOL    HW229178   4.413   2.815   6.493
 9427SOL     OW29179   3.929   4.830   1.956
 9427SOL    HW129180   4.026   4.812   1.967
 9427SOL    HW229181   3.888   4.853   2.044
 9428SOL     OW29182   0.698   6.396   5.639
 9428SOL    HW129183   0.732   6.335   5.568
 9428SOL    HW229184   0.763   6.398   5.715
 9429SOL     OW29185   3.105   2.127   4.261
 9429SOL    HW129186   3.152   2.160   4.344
 9429SOL    HW229187   3.168   2.070   4.208
 9430SOL     OW29188   1.513   0.864   4.502
 9430SOL    HW129189   1.578   0.839   4.573
 9430SOL    HW229190   1.554   0.849   4.412
 9431SOL     OW29191   1.062   4.466   4.849
 9431SOL    HW129192   1.125   4.505   4.781
 9431SOL    HW229193   1.095   4.376   4.876
 9432SOL     OW29194   0.015   1.489   3.588
 9432SOL    HW129195   6.963   1.502   3.524
 9432SOL    HW229196   0.015   1.563   3.655
 9433SOL     OW29197   4.503   5.687   1.920
 9433SOL    HW129198   4.489   5.783   1.942
 9433SOL    HW229199   4.440   5.631   1.974
 9434SOL     OW29200   4.092   5.726   4.437
 9434SOL    HW129201   4.182   5.756   4.406
 9434SOL    HW229202   4.102   5.662   4.512
 9435SOL     OW29203   5.770   4.193   0.553
 9435SOL    HW129204   5.720   4.139   0.620
 9435SOL    HW229205   5.868   4.177   0.563
 9436SOL     OW29206   3.290   1.207   3.244
 9436SOL    HW129207   3.192   1.225   3.241
 9436SOL    HW229208   3.341   1.292   3.226
 9437SOL     OW29209   5.183   0.920   4.507
 9437SOL    HW129210   5.241   0.951   4.432
 9437SOL    HW229211   5.240   0.892   4.584
 9438SOL     OW29212   4.783   0.382   2.830
 9438SOL    HW129213   4.712   0.450   2.816
 9438SOL    HW229214   4.807   0.378   2.927
 9439SOL     OW29215   2.163   3.924   1.256
 9439SOL    HW129216   2.169   4.004   1.315
 9439SOL    HW229217   2.136   3.844   1.310
 9440SOL     OW29218   1.365   5.959   4.664
 9440SOL    HW129219   1.376   6.027   4.592
 9440SOL    HW229220   1.305   5.994   4.735
 9441SOL     OW29221   0.495   6.202   4.222
 9441SOL    HW129222   0.439   6.283   4.203
 9441SOL    HW229223   0.591   6.229   4.230
 9442SOL     OW29224   5.794   2.958   1.057
 9442SOL    HW129225   5.848   2.937   1.138
 9442SOL    HW229226   5.797   3.056   1.039
 9443SOL     OW29227   2.714   4.241   1.636
 9443SOL    HW129228   2.688   4.159   1.586
 9443SOL    HW229229   2.814   4.251   1.635
 9444SOL     OW29230   1.981   5.683   6.314
 9444SOL    HW129231   1.989   5.583   6.316
 9444SOL    HW229232   2.070   5.724   6.335
 9445SOL     OW29233   0.555   0.887   4.106
 9445SOL    HW129234   0.498   0.805   4.110
 9445SOL    HW229235   0.605   0.897   4.192
 9446SOL     OW29236   6.519   4.628   4.280
 9446SOL    HW129237   6.590   4.572   4.238
 9446SOL    HW229238   6.473   4.682   4.210
 9447SOL     OW29239   5.173   5.071   2.348
 9447SOL    HW129240   5.201   5.082   2.253
 9447SOL    HW229241   5.237   5.121   2.407
 9448SOL     OW29242   5.378   1.932   6.688
 9448SOL    HW129243   5.397   2.028   6.665
 9448SOL    HW229244   5.344   1.885   6.606
 9449SOL     OW29245   4.581   6.759   2.426
 9449SOL    HW129246   4.604   6.665   2.452
 9449SOL    HW229247   4.633   6.785   2.345
 9450SOL     OW29248   1.238   0.280   3.128
 9450SOL    HW129249   1.226   0.377   3.105
 9450SOL    HW229250   1.230   0.269   3.227
 9451SOL     OW29251   3.992   5.141   0.575
 9451SOL    HW129252   3.910   5.186   0.609
 9451SOL    HW229253   4.000   5.154   0.476
 9452SOL     OW29254   6.071   4.096   6.110
 9452SOL    HW129255   6.148   4.140   6.155
 9452SOL    HW229256   5.992   4.159   6.110
 9453SOL     OW29257   6.461   4.723   2.465
 9453SOL    HW129258   6.496   4.665   2.392
 9453SOL    HW229259   6.517   4.713   2.546
 9454SOL     OW29260   5.674   5.356   0.558
 9454SOL    HW129261   5.724   5.308   0.631
 9454SOL    HW229262   5.613   5.423   0.598
 9455SOL     OW29263   4.718   0.449   1.528
 9455SOL    HW129264   4.634   0.396   1.544
 9455SOL    HW229265   4.786   0.390   1.485
 9456SOL     OW29266   6.928   2.152   2.902
 9456SOL    HW129267   6.930   2.080   2.971
 9456SOL    HW229268   7.001   2.218   2.921
 9457SOL     OW29269   6.267   5.978   3.848
 9457SOL    HW129270   6.251   5.943   3.941
 9457SOL    HW229271   6.190   6.034   3.820
 9458SOL     OW29272   5.967   3.781   0.367
 9458SOL    HW129273   5.920   3.799   0.281
 9458SOL    HW229274   6.011   3.691   0.363
 9459SOL     OW29275   5.036   4.864   4.862
 9459SOL    HW129276   5.095   4.793   4.825
 9459SOL    HW229277   5.067   4.953   4.832
 9460SOL     OW29278   1.750   2.721   2.280
 9460SOL    HW129279   1.744   2.797   2.216
 9460SOL    HW229280   1.701   2.642   2.243
 9461SOL     OW29281   2.413   1.900   2.143
 9461SOL    HW129282   2.355   1.823   2.172
 9461SOL    HW229283   2.409   1.908   2.043
 9462SOL     OW29284   6.961   1.483   5.859
 9462SOL    HW129285   7.008   1.570   5.875
 9462SOL    HW229286   6.891   1.469   5.928
 9463SOL     OW29287   6.272   4.952   0.411
 9463SOL    HW129288   6.190   4.907   0.445
 9463SOL    HW229289   6.296   5.028   0.471
 9464SOL     OW29290   1.121   0.130   1.698
 9464SOL    HW129291   1.192   0.084   1.750
 9464SOL    HW229292   1.072   0.194   1.758
 9465SOL     OW29293   6.352   5.827   0.299
 9465SOL    HW129294   6.388   5.739   0.329
 9465SOL    HW229295   6.418   5.899   0.321
 9466SOL     OW29296   4.387   3.925   5.368
 9466SOL    HW129297   4.393   3.830   5.337
 9466SOL    HW229298   4.360   3.926   5.465
 9467SOL     OW29299   1.132   4.014   0.536
 9467SOL    HW129300   1.221   4.026   0.579
 9467SOL    HW229301   1.086   3.934   0.574
 9468SOL     OW29302   6.074   1.074   1.072
 9468SOL    HW129303   6.172   1.094   1.076
 9468SOL    HW229304   6.051   1.007   1.142
 9469SOL     OW29305   6.912   6.984   1.429
 9469SOL    HW129306   6.899   0.042   1.373
 9469SOL    HW229307   6.838   6.978   1.496
 9470SOL     OW29308   3.368   3.154   0.795
 9470SOL    HW129309   3.415   3.117   0.715
 9470SOL    HW229310   3.311   3.084   0.836
 9471SOL     OW29311   6.531   3.205   4.809
 9471SOL    HW129312   6.547   3.282   4.871
 9471SOL    HW229313   6.507   3.239   4.718
 9472SOL     OW29314   2.043   3.408   5.768
 9472SOL    HW129315   2.133   3.396   5.811
 9472SOL    HW229316   1.978   3.442   5.836
 9473SOL     OW29317   3.012   3.782   1.186
 9473SOL    HW129318   3.086   3.814   1.127
 9473SOL    HW229319   3.036   3.691   1.222
 9474SOL     OW29320   5.576   4.552   1.146
 9474SOL    HW129321   5.544   4.598   1.063
 9474SOL    HW229322   5.622   4.466   1.121
 9475SOL     OW29323   5.276   3.324   6.780
 9475SOL    HW129324   5.281   3.326   6.680
 9475SOL    HW229325   5.305   3.413   6.816
 9476SOL     OW29326   4.018   4.076   1.423
 9476SOL    HW129327   3.931   4.030   1.405
 9476SOL    HW229328   4.033   4.082   1.522
 9477SOL     OW29329   1.446   4.901   1.063
 9477SOL    HW129330   1.491   4.813   1.082
 9477SOL    HW229331   1.459   4.962   1.141
 9478SOL     OW29332   6.503   4.255   6.074
 9478SOL    HW129333   6.472   4.302   5.992
 9478SOL    HW229334   6.424   4.223   6.127
 9479SOL     OW29335   4.466   0.905   2.033
 9479SOL    HW129336   4.429   0.830   2.088
 9479SOL    HW229337   4.566   0.899   2.033
 9480SOL     OW29338   5.753   0.546   0.539
 9480SOL    HW129339   5.680   0.589   0.484
 9480SOL    HW229340   5.803   0.617   0.589
 9481SOL     OW29341   4.719   6.889   3.385
 9481SOL    HW129342   4.800   6.909   3.331
 9481SOL    HW229343   4.659   6.968   3.386
 9482SOL     OW29344   6.234   4.996   4.927
 9482SOL    HW129345   6.188   4.907   4.936
 9482SOL    HW229346   6.288   5.013   5.009
 9483SOL     OW29347   6.125   5.123   6.544
 9483SOL    HW129348   6.123   5.044   6.606
 9483SOL    HW229349   6.163   5.202   6.592
 9484SOL     OW29350   2.124   6.437   4.547
 9484SOL    HW129351   2.098   6.500   4.473
 9484SOL    HW229352   2.059   6.361   4.550
 9485SOL     OW29353   0.618   1.268   4.942
 9485SOL    HW129354   0.621   1.192   4.877
 9485SOL    HW229355   0.633   1.234   5.035
 9486SOL     OW29356   6.854   5.760   6.311
 9486SOL    HW129357   6.823   5.846   6.350
 9486SOL    HW229358   6.813   5.684   6.360
 9487SOL     OW29359   2.938   3.751   3.155
 9487SOL    HW129360   2.921   3.848   3.138
 9487SOL    HW229361   2.931   3.732   3.253
 9488SOL     OW29362   2.098   0.788   1.559
 9488SOL    HW129363   2.180   0.806   1.505
 9488SOL    HW229364   2.104   0.836   1.647
 9489SOL     OW29365   6.321   4.376   0.303
 9489SOL    HW129366   6.348   4.440   0.375
 9489SOL    HW229367   6.229   4.343   0.321
 9490SOL     OW29368   5.554   3.400   4.838
 9490SOL    HW129369   5.653   3.385   4.842
 9490SOL    HW229370   5.535   3.498   4.834
 9491SOL     OW29371   5.553   0.223   2.870
 9491SOL    HW129372   5.566   0.198   2.774
 9491SOL    HW229373   5.487   0.298   2.877
 9492SOL     OW29374   4.642   2.540   4.158
 9492SOL    HW129375   4.571   2.496   4.213
 9492SOL    HW229376   4.732   2.503   4.185
 9493SOL     OW29377   2.974   6.475   2.562
 9493SOL    HW129378   2.975   6.379   2.533
 9493SOL    HW229379   2.924   6.529   2.494
 9494SOL     OW29380   4.921   2.479   2.235
 9494SOL    HW129381   4.931   2.571   2.197
 9494SOL    HW229382   4.834   2.471   2.282
 9495SOL     OW29383   5.033   2.733   1.270
 9495SOL    HW129384   4.993   2.774   1.351
 9495SOL    HW229385   5.099   2.796   1.229
 9496SOL     OW29386   5.975   2.850   1.336
 9496SOL    HW129387   6.014   2.767   1.375
 9496SOL    HW229388   5.879   2.858   1.364
 9497SOL     OW29389   5.306   5.097   5.111
 9497SOL    HW129390   5.371   5.085   5.185
 9497SOL    HW229391   5.262   5.186   5.120
 9498SOL     OW29392   0.964   5.531   5.989
 9498SOL    HW129393   0.946   5.539   5.891
 9498SOL    HW229394   0.939   5.439   6.020
 9499SOL     OW29395   5.508   6.023   4.379
 9499SOL    HW129396   5.499   5.929   4.413
 9499SOL    HW229397   5.576   6.071   4.434
 9500SOL     OW29398   3.194   1.508   0.897
 9500SOL    HW129399   3.109   1.548   0.929
 9500SOL    HW229400   3.200   1.413   0.927
 9501SOL     OW29401   1.871   3.966   5.286
 9501SOL    HW129402   1.927   3.919   5.354
 9501SOL    HW229403   1.789   3.913   5.267
 9502SOL     OW29404   5.675   4.162   3.483
 9502SOL    HW129405   5.766   4.127   3.507
 9502SOL    HW229406   5.668   4.172   3.384
 9503SOL     OW29407   5.608   1.430   0.377
 9503SOL    HW129408   5.638   1.512   0.425
 9503SOL    HW229409   5.598   1.355   0.443
 9504SOL     OW29410   6.572   5.851   2.217
 9504SOL    HW129411   6.502   5.893   2.159
 9504SOL    HW229412   6.651   5.827   2.161
 9505SOL     OW29413   4.363   3.793   6.528
 9505SOL    HW129414   4.300   3.772   6.454
 9505SOL    HW229415   4.381   3.710   6.581
 9506SOL     OW29416   3.418   1.061   1.858
 9506SOL    HW129417   3.398   1.137   1.920
 9506SOL    HW229418   3.341   1.046   1.797
 9507SOL     OW29419   6.239   6.301   1.821
 9507SOL    HW129420   6.144   6.286   1.794
 9507SOL    HW229421   6.294   6.222   1.792
 9508SOL     OW29422   5.476   0.990   1.886
 9508SOL    HW129423   5.554   0.982   1.825
 9508SOL    HW229424   5.494   0.941   1.972
 9509SOL     OW29425   5.625   1.621   3.719
 9509SOL    HW129426   5.579   1.664   3.641
 9509SOL    HW229427   5.677   1.691   3.769
 9510SOL     OW29428   1.469   2.877   2.640
 9510SOL    HW129429   1.449   2.921   2.728
 9510SOL    HW229430   1.386   2.873   2.585
 9511SOL     OW29431   0.928   1.689   1.072
 9511SOL    HW129432   0.962   1.646   1.156
 9511SOL    HW229433   0.834   1.719   1.086
 9512SOL     OW29434   6.626   2.330   2.151
 9512SOL    HW129435   6.530   2.346   2.173
 9512SOL    HW229436   6.678   2.314   2.235
 9513SOL     OW29437   4.949   3.983   5.248
 9513SOL    HW129438   4.856   4.019   5.260
 9513SOL    HW229439   5.007   4.053   5.207
 9514SOL     OW29440   3.732   3.093   1.003
 9514SOL    HW129441   3.652   3.066   1.057
 9514SOL    HW229442   3.701   3.128   0.914
 9515SOL     OW29443   0.165   5.647   2.992
 9515SOL    HW129444   0.192   5.741   2.971
 9515SOL    HW229445   0.071   5.646   3.027
 9516SOL     OW29446   0.609   4.417   6.482
 9516SOL    HW129447   0.554   4.499   6.498
 9516SOL    HW229448   0.591   4.381   6.391
 9517SOL     OW29449   0.261   6.698   1.943
 9517SOL    HW129450   0.292   6.620   1.890
 9517SOL    HW229451   0.194   6.667   2.011
 9518SOL     OW29452   0.964   1.053   1.055
 9518SOL    HW129453   0.960   1.146   1.091
 9518SOL    HW229454   0.880   1.004   1.081
 9519SOL     OW29455   1.779   2.476   5.327
 9519SOL    HW129456   1.799   2.483   5.229
 9519SOL    HW229457   1.699   2.418   5.341
 9520SOL     OW29458   4.397   6.444   1.511
 9520SOL    HW129459   4.320   6.393   1.551
 9520SOL    HW229460   4.461   6.379   1.470
 9521SOL     OW29461   5.438   4.310   3.332
 9521SOL    HW129462   5.468   4.397   3.292
 9521SOL    HW229463   5.517   4.252   3.351
 9522SOL     OW29464   3.123   4.806   6.067
 9522SOL    HW129465   3.192   4.797   6.139
 9522SOL    HW229466   3.169   4.818   5.979
 9523SOL     OW29467   2.343   0.449   5.242
 9523SOL    HW129468   2.371   0.442   5.338
 9523SOL    HW229469   2.285   0.371   5.219
 9524SOL     OW29470   5.233   3.241   0.469
 9524SOL    HW129471   5.196   3.251   0.377
 9524SOL    HW229472   5.237   3.331   0.513
 9525SOL     OW29473   3.818   6.898   4.571
 9525SOL    HW129474   3.833   6.801   4.591
 9525SOL    HW229475   3.896   6.951   4.604
 9526SOL     OW29476   4.688   5.484   0.901
 9526SOL    HW129477   4.665   5.392   0.933
 9526SOL    HW229478   4.607   5.543   0.909
 9527SOL     OW29479   0.165   2.288   0.702
 9527SOL    HW129480   0.102   2.254   0.772
 9527SOL    HW229481   0.250   2.236   0.706
 9528SOL     OW29482   6.493   0.926   1.671
 9528SOL    HW129483   6.554   0.993   1.715
 9528SOL    HW229484   6.433   0.973   1.606
 9529SOL     OW29485   1.710   2.957   5.098
 9529SOL    HW129486   1.693   2.987   5.193
 9529SOL    HW229487   1.803   2.983   5.071
 9530SOL     OW29488   2.672   1.356   4.036
 9530SOL    HW129489   2.668   1.321   3.942
 9530SOL    HW229490   2.698   1.282   4.098
 9531SOL     OW29491   2.913   6.893   3.930
 9531SOL    HW129492   2.915   6.903   3.831
 9531SOL    HW229493   2.818   6.900   3.962
 9532SOL     OW29494   3.307   1.562   2.143
 9532SOL    HW129495   3.378   1.615   2.098
 9532SOL    HW229496   3.233   1.542   2.078
 9533SOL     OW29497   0.817   1.666   4.539
 9533SOL    HW129498   0.787   1.580   4.497
 9533SOL    HW229499   0.834   1.734   4.468
 9534SOL     OW29500   5.923   1.843   4.725
 9534SOL    HW129501   5.841   1.844   4.782
 9534SOL    HW229502   5.903   1.888   4.638
 9535SOL     OW29503   3.273   1.799   4.681
 9535SOL    HW129504   3.274   1.780   4.582
 9535SOL    HW229505   3.313   1.722   4.730
 9536SOL     OW29506   2.261   0.074   6.274
 9536SOL    HW129507   2.313   0.004   6.324
 9536SOL    HW229508   2.163   0.059   6.289
 9537SOL     OW29509   2.040   0.352   0.612
 9537SOL    HW129510   2.111   0.422   0.600
 9537SOL    HW229511   1.991   0.340   0.525
 9538SOL     OW29512   5.935   3.783   2.759
 9538SOL    HW129513   5.984   3.697   2.748
 9538SOL    HW229514   5.951   3.821   2.850
 9539SOL     OW29515   6.948   3.729   6.514
 9539SOL    HW129516   6.991   3.789   6.446
 9539SOL    HW229517   7.019   3.692   6.574
 9540SOL     OW29518   5.619   3.574   5.933
 9540SOL    HW129519   5.704   3.609   5.974
 9540SOL    HW229520   5.639   3.489   5.884
 9541SOL     OW29521   6.540   2.440   3.693
 9541SOL    HW129522   6.450   2.406   3.720
 9541SOL    HW229523   6.540   2.463   3.596
 9542SOL     OW29524   4.723   4.194   4.800
 9542SOL    HW129525   4.677   4.283   4.805
 9542SOL    HW229526   4.681   4.139   4.729
 9543SOL     OW29527   3.749   2.771   0.575
 9543SOL    HW129528   3.704   2.682   0.578
 9543SOL    HW229529   3.759   2.807   0.668
 9544SOL     OW29530   4.622   0.205   0.929
 9544SOL    HW129531   4.639   0.233   1.023
 9544SOL    HW229532   4.548   0.137   0.927
 9545SOL     OW29533   1.204   6.787   4.311
 9545SOL    HW129534   1.294   6.830   4.317
 9545SOL    HW229535   1.137   6.855   4.280
 9546SOL     OW29536   2.567   4.638   1.970
 9546SOL    HW129537   2.541   4.720   1.918
 9546SOL    HW229538   2.665   4.640   1.989
 9547SOL     OW29539   5.384   5.973   3.739
 9547SOL    HW129540   5.390   5.987   3.640
 9547SOL    HW229541   5.390   6.061   3.786
 9548SOL     OW29542   5.685   6.895   2.509
 9548SOL    HW129543   5.766   6.840   2.487
 9548SOL    HW229544   5.619   6.889   2.434
 9549SOL     OW29545   2.291   6.131   6.864
 9549SOL    HW129546   2.203   6.142   6.911
 9549SOL    HW229547   2.276   6.083   6.777
 9550SOL     OW29548   1.777   0.928   0.103
 9550SOL    HW129549   1.869   0.894   0.085
 9550SOL    HW229550   1.783   1.010   0.161
 9551SOL     OW29551   1.631   5.602   5.089
 9551SOL    HW129552   1.725   5.618   5.119
 9551SOL    HW229553   1.570   5.667   5.132
 9552SOL     OW29554   0.349   5.333   2.616
 9552SOL    HW129555   0.289   5.357   2.693
 9552SOL    HW229556   0.362   5.413   2.558
 9553SOL     OW29557   5.549   4.913   6.425
 9553SOL    HW129558   5.488   4.834   6.421
 9553SOL    HW229559   5.582   4.924   6.518
 9554SOL     OW29560   2.610   1.834   2.342
 9554SOL    HW129561   2.592   1.821   2.439
 9554SOL    HW229562   2.524   1.857   2.295
 9555SOL     OW29563   6.666   2.455   6.385
 9555SOL    HW129564   6.654   2.552   6.407
 9555SOL    HW229565   6.593   2.425   6.323
 9556SOL     OW29566   6.745   0.910   0.889
 9556SOL    HW129567   6.685   0.989   0.876
 9556SOL    HW229568   6.836   0.931   0.852
 9557SOL     OW29569   4.905   1.633   1.499
 9557SOL    HW129570   4.958   1.550   1.513
 9557SOL    HW229571   4.832   1.637   1.568
 9558SOL     OW29572   6.913   3.629   1.139
 9558SOL    HW129573   6.963   3.651   1.055
 9558SOL    HW229574   6.976   3.591   1.206
 9559SOL     OW29575   0.747   4.305   2.625
 9559SOL    HW129576   0.801   4.278   2.705
 9559SOL    HW229577   0.677   4.371   2.654
 9560SOL     OW29578   3.614   2.311   5.862
 9560SOL    HW129579   3.623   2.364   5.778
 9560SOL    HW229580   3.676   2.232   5.858
 9561SOL     OW29581   3.458   5.469   6.959
 9561SOL    HW129582   3.509   5.418   0.004
 9561SOL    HW229583   3.518   5.535   6.914
 9562SOL     OW29584   6.347   5.328   4.241
 9562SOL    HW129585   6.386   5.237   4.244
 9562SOL    HW229586   6.349   5.369   4.333
 9563SOL     OW29587   0.558   6.840   6.583
 9563SOL    HW129588   0.649   6.854   6.623
 9563SOL    HW229589   0.509   6.770   6.635
 9564SOL     OW29590   1.025   0.987   6.129
 9564SOL    HW129591   1.005   0.892   6.151
 9564SOL    HW229592   1.062   0.993   6.036
 9565SOL     OW29593   2.816   6.182   5.577
 9565SOL    HW129594   2.896   6.216   5.528
 9565SOL    HW229595   2.830   6.087   5.602
 9566SOL     OW29596   2.836   4.999   5.329
 9566SOL    HW129597   2.767   5.036   5.266
 9566SOL    HW229598   2.847   5.061   5.406
 9567SOL     OW29599   5.980   4.586   4.527
 9567SOL    HW129600   5.949   4.620   4.438
 9567SOL    HW229601   6.040   4.507   4.513
 9568SOL     OW29602   5.714   3.306   5.796
 9568SOL    HW129603   5.781   3.270   5.860
 9568SOL    HW229604   5.676   3.231   5.741
 9569SOL     OW29605   5.848   0.221   1.215
 9569SOL    HW129606   5.883   0.178   1.298
 9569SOL    HW229607   5.918   0.217   1.144
 9570SOL     OW29608   0.920   2.301   6.778
 9570SOL    HW129609   0.940   2.379   6.837
 9570SOL    HW229610   0.900   2.334   6.685
 9571SOL     OW29611   3.446   1.985   0.786
 9571SOL    HW129612   3.404   1.931   0.713
 9571SOL    HW229613   3.494   1.924   0.849
 9572SOL     OW29614   0.539   4.122   0.663
 9572SOL    HW129615   0.511   4.211   0.627
 9572SOL    HW229616   0.608   4.081   0.603
 9573SOL     OW29617   4.880   1.674   2.406
 9573SOL    HW129618   4.948   1.677   2.478
 9573SOL    HW229619   4.906   1.606   2.337
 9574SOL     OW29620   3.158   2.068   3.665
 9574SOL    HW129621   3.159   2.111   3.755
 9574SOL    HW229622   3.092   2.114   3.607
 9575SOL     OW29623   3.944   1.679   3.023
 9575SOL    HW129624   3.988   1.762   3.057
 9575SOL    HW229625   3.986   1.652   2.937
 9576SOL     OW29626   3.376   3.065   5.694
 9576SOL    HW129627   3.371   2.977   5.646
 9576SOL    HW229628   3.472   3.089   5.709
 9577SOL     OW29629   0.465   5.248   4.022
 9577SOL    HW129630   0.507   5.161   3.994
 9577SOL    HW229631   0.477   5.316   3.950
 9578SOL     OW29632   0.278   3.937   1.450
 9578SOL    HW129633   0.370   3.922   1.414
 9578SOL    HW229634   0.230   4.005   1.394
 9579SOL     OW29635   1.425   4.972   3.192
 9579SOL    HW129636   1.437   4.917   3.274
 9579SOL    HW229637   1.484   4.937   3.119
 9580SOL     OW29638   4.060   3.749   5.059
 9580SOL    HW129639   3.985   3.740   4.994
 9580SOL    HW229640   4.130   3.680   5.040
 9581SOL     OW29641   0.980   5.892   5.911
 9581SOL    HW129642   0.881   5.890   5.901
 9581SOL    HW229643   1.005   5.859   6.002
 9582SOL     OW29644   3.757   5.818   3.025
 9582SOL    HW129645   3.808   5.736   3.051
 9582SOL    HW229646   3.719   5.860   3.107
 9583SOL     OW29647   1.397   5.048   1.740
 9583SOL    HW129648   1.306   5.041   1.700
 9583SOL    HW229649   1.441   5.132   1.708
 9584SOL     OW29650   5.342   4.152   6.994
 9584SOL    HW129651   5.346   4.069   0.027
 9584SOL    HW229652   5.434   4.176   6.964
 9585SOL     OW29653   6.325   1.244   3.194
 9585SOL    HW129654   6.258   1.179   3.157
 9585SOL    HW229655   6.284   1.293   3.271
 9586SOL     OW29656   4.892   3.980   2.472
 9586SOL    HW129657   4.869   3.956   2.377
 9586SOL    HW229658   4.910   3.896   2.523
 9587SOL     OW29659   4.662   5.977   1.683
 9587SOL    HW129660   4.575   6.006   1.723
 9587SOL    HW229661   4.684   6.034   1.605
 9588SOL     OW29662   6.219   1.374   3.421
 9588SOL    HW129663   6.280   1.380   3.500
 9588SOL    HW229664   6.134   1.425   3.441
 9589SOL     OW29665   4.083   1.967   5.478
 9589SOL    HW129666   4.176   1.941   5.450
 9589SOL    HW229667   4.045   2.030   5.410
 9590SOL     OW29668   0.172   4.931   4.533
 9590SOL    HW129669   0.260   4.956   4.493
 9590SOL    HW229670   0.137   4.849   4.487
 9591SOL     OW29671   0.427   4.470   2.118
 9591SOL    HW129672   0.465   4.396   2.173
 9591SOL    HW229673   0.333   4.447   2.092
 9592SOL     OW29674   4.011   5.835   0.482
 9592SOL    HW129675   3.948   5.864   0.553
 9592SOL    HW229676   3.998   5.891   0.400
 9593SOL     OW29677   2.110   1.900   3.380
 9593SOL    HW129678   2.121   1.985   3.430
 9593SOL    HW229679   2.158   1.907   3.292
 9594SOL     OW29680   5.630   0.099   1.136
 9594SOL    HW129681   5.701   0.153   1.180
 9594SOL    HW229682   5.557   0.160   1.103
 9595SOL     OW29683   2.299   5.443   5.556
 9595SOL    HW129684   2.209   5.398   5.557
 9595SOL    HW229685   2.351   5.414   5.636
 9596SOL     OW29686   5.284   5.463   2.391
 9596SOL    HW129687   5.204   5.487   2.447
 9596SOL    HW229688   5.327   5.547   2.358
 9597SOL     OW29689   2.341   5.207   1.346
 9597SOL    HW129690   2.245   5.193   1.322
 9597SOL    HW229691   2.400   5.174   1.272
 9598SOL     OW29692   0.499   6.165   6.407
 9598SOL    HW129693   0.451   6.079   6.392
 9598SOL    HW229694   0.435   6.241   6.402
 9599SOL     OW29695   3.989   2.126   5.299
 9599SOL    HW129696   4.026   2.214   5.330
 9599SOL    HW229697   3.891   2.136   5.280
 9600SOL     OW29698   1.451   6.516   6.550
 9600SOL    HW129699   1.454   6.458   6.632
 9600SOL    HW229700   1.520   6.588   6.558
 9601SOL     OW29701   1.060   6.563   4.773
 9601SOL    HW129702   1.059   6.570   4.673
 9601SOL    HW229703   1.057   6.654   4.814
 9602SOL     OW29704   1.219   5.595   5.962
 9602SOL    HW129705   1.214   5.650   5.879
 9602SOL    HW229706   1.126   5.568   5.990
 9603SOL     OW29707   1.024   5.638   1.389
 9603SOL    HW129708   1.026   5.734   1.417
 9603SOL    HW229709   0.957   5.589   1.445
 9604SOL     OW29710   0.013   0.902   6.384
 9604SOL    HW129711   6.994   0.991   6.372
 9604SOL    HW229712   0.100   0.913   6.432
 9605SOL     OW29713   3.340   4.595   1.426
 9605SOL    HW129714   3.327   4.694   1.436
 9605SOL    HW229715   3.335   4.551   1.516
 9606SOL     OW29716   0.213   0.889   5.452
 9606SOL    HW129717   0.171   0.808   5.491
 9606SOL    HW229718   0.310   0.892   5.479
 9607SOL     OW29719   0.221   2.804   3.715
 9607SOL    HW129720   0.170   2.889   3.702
 9607SOL    HW229721   0.176   2.749   3.785
 9608SOL     OW29722   6.021   0.883   1.258
 9608SOL    HW129723   5.971   0.906   1.341
 9608SOL    HW229724   6.074   0.800   1.273
 9609SOL     OW29725   1.513   1.961   3.979
 9609SOL    HW129726   1.564   1.923   3.902
 9609SOL    HW229727   1.575   1.984   4.053
 9610SOL     OW29728   4.732   1.057   5.461
 9610SOL    HW129729   4.732   0.969   5.510
 9610SOL    HW229730   4.821   1.101   5.473
 9611SOL     OW29731   4.399   5.250   0.841
 9611SOL    HW129732   4.458   5.223   0.917
 9611SOL    HW229733   4.306   5.269   0.875
 9612SOL     OW29734   5.673   3.582   3.816
 9612SOL    HW129735   5.620   3.656   3.858
 9612SOL    HW229736   5.759   3.619   3.781
 9613SOL     OW29737   5.551   0.448   4.621
 9613SOL    HW129738   5.556   0.529   4.680
 9613SOL    HW229739   5.571   0.366   4.676
 9614SOL     OW29740   2.622   2.996   0.381
 9614SOL    HW129741   2.575   3.029   0.299
 9614SOL    HW229742   2.690   2.928   0.356
 9615SOL     OW29743   6.993   5.234   3.905
 9615SOL    HW129744   0.012   5.147   3.880
 9615SOL    HW229745   7.010   5.253   4.001
 9616SOL     OW29746   1.052   2.202   1.105
 9616SOL    HW129747   1.087   2.289   1.071
 9616SOL    HW229748   1.128   2.138   1.118
 9617SOL     OW29749   0.593   3.096   3.579
 9617SOL    HW129750   0.680   3.096   3.530
 9617SOL    HW229751   0.566   3.001   3.598
 9618SOL     OW29752   5.039   3.639   2.093
 9618SOL    HW129753   5.065   3.711   2.028
 9618SOL    HW229754   4.996   3.564   2.044
 9619SOL     OW29755   1.107   0.038   0.532
 9619SOL    HW129756   1.021   0.046   0.582
 9619SOL    HW229757   1.167   0.113   0.558
 9620SOL     OW29758   4.023   0.896   6.358
 9620SOL    HW129759   4.036   0.814   6.413
 9620SOL    HW229760   3.947   0.950   6.394
 9621SOL     OW29761   0.111   1.040   1.533
 9621SOL    HW129762   0.022   0.997   1.546
 9621SOL    HW229763   0.176   0.974   1.497
 9622SOL     OW29764   6.493   6.766   4.913
 9622SOL    HW129765   6.514   6.680   4.865
 9622SOL    HW229766   6.578   6.811   4.940
 9623SOL     OW29767   2.383   6.537   5.941
 9623SOL    HW129768   2.475   6.514   5.908
 9623SOL    HW229769   2.348   6.462   5.997
 9624SOL     OW29770   4.702   5.351   6.461
 9624SOL    HW129771   4.661   5.287   6.526
 9624SOL    HW229772   4.732   5.433   6.510
 9625SOL     OW29773   5.377   4.875   6.070
 9625SOL    HW129774   5.456   4.871   6.132
 9625SOL    HW229775   5.321   4.793   6.084
 9626SOL     OW29776   2.297   3.203   6.609
 9626SOL    HW129777   2.365   3.210   6.535
 9626SOL    HW229778   2.223   3.143   6.580
 9627SOL     OW29779   6.827   6.132   0.594
 9627SOL    HW129780   6.823   6.207   0.528
 9627SOL    HW229781   6.796   6.048   0.550
 9628SOL     OW29782   5.816   1.025   5.507
 9628SOL    HW129783   5.815   1.105   5.567
 9628SOL    HW229784   5.909   0.990   5.498
 9629SOL     OW29785   0.337   5.360   3.730
 9629SOL    HW129786   0.403   5.369   3.655
 9629SOL    HW229787   0.305   5.451   3.757
 9630SOL     OW29788   5.871   7.020   6.783
 9630SOL    HW129789   5.923   0.038   6.708
 9630SOL    HW229790   5.927   6.948   6.826
 9631SOL     OW29791   4.649   5.890   0.848
 9631SOL    HW129792   4.627   5.848   0.760
 9631SOL    HW229793   4.573   5.876   0.911
 9632SOL     OW29794   2.640   5.017   3.046
 9632SOL    HW129795   2.560   5.013   2.986
 9632SOL    HW229796   2.723   5.023   2.990
 9633SOL     OW29797   3.260   2.913   5.211
 9633SOL    HW129798   3.176   2.966   5.205
 9633SOL    HW229799   3.238   2.817   5.228
 9634SOL     OW29800   5.529   4.417   2.752
 9634SOL    HW129801   5.561   4.467   2.672
 9634SOL    HW229802   5.430   4.410   2.750
 9635SOL     OW29803   0.559   5.385   4.799
 9635SOL    HW129804   0.581   5.319   4.871
 9635SOL    HW229805   0.490   5.345   4.738
 9636SOL     OW29806   5.164   3.410   3.945
 9636SOL    HW129807   5.088   3.475   3.950
 9636SOL    HW229808   5.229   3.439   3.876
 9637SOL     OW29809   1.950   2.975   6.866
 9637SOL    HW129810   1.851   2.987   6.875
 9637SOL    HW229811   1.978   3.003   6.774
 9638SOL     OW29812   0.089   4.404   5.296
 9638SOL    HW129813   0.134   4.450   5.220
 9638SOL    HW229814   0.104   4.306   5.289
 9639SOL     OW29815   4.739   2.697   1.567
 9639SOL    HW129816   4.830   2.737   1.555
 9639SOL    HW229817   4.706   2.715   1.659
 9640SOL     OW29818   3.580   0.043   3.115
 9640SOL    HW129819   3.641   0.039   3.194
 9640SOL    HW229820   3.565   6.974   3.080
 9641SOL     OW29821   0.330   3.518   4.564
 9641SOL    HW129822   0.294   3.562   4.647
 9641SOL    HW229823   0.259   3.461   4.523
 9642SOL     OW29824   0.591   3.397   4.627
 9642SOL    HW129825   0.611   3.308   4.586
 9642SOL    HW229826   0.495   3.420   4.610
 9643SOL     OW29827   5.501   5.103   4.061
 9643SOL    HW129828   5.416   5.118   4.111
 9643SOL    HW229829   5.496   5.149   3.972
 9644SOL     OW29830   1.184   4.879   3.431
 9644SOL    HW129831   1.148   4.825   3.507
 9644SOL    HW229832   1.125   4.867   3.351
 9645SOL     OW29833   1.393   4.619   6.841
 9645SOL    HW129834   1.372   4.545   6.905
 9645SOL    HW229835   1.467   4.675   6.878
 9646SOL     OW29836   2.872   5.133   1.338
 9646SOL    HW129837   2.838   5.190   1.264
 9646SOL    HW229838   2.951   5.178   1.380
 9647SOL     OW29839   5.919   6.915   3.031
 9647SOL    HW129840   5.861   6.903   2.951
 9647SOL    HW229841   5.875   6.975   3.097
 9648SOL     OW29842   3.507   1.896   1.213
 9648SOL    HW129843   3.574   1.827   1.240
 9648SOL    HW229844   3.437   1.904   1.284
 9649SOL     OW29845   6.950   6.495   1.338
 9649SOL    HW129846   7.022   6.559   1.310
 9649SOL    HW229847   6.913   6.523   1.427
 9650SOL     OW29848   0.752   5.188   4.840
 9650SOL    HW129849   0.850   5.200   4.830
 9650SOL    HW229850   0.708   5.191   4.750
 9651SOL     OW29851   4.002   1.627   6.863
 9651SOL    HW129852   3.948   1.706   6.833
 9651SOL    HW229853   4.021   1.568   6.784
 9652SOL     OW29854   0.068   3.672   0.620
 9652SOL    HW129855   0.160   3.678   0.659
 9652SOL    HW229856   0.009   3.618   0.680
 9653SOL     OW29857   5.269   4.393   5.433
 9653SOL    HW129858   5.317   4.420   5.349
 9653SOL    HW229859   5.268   4.293   5.440
 9654SOL     OW29860   3.968   3.646   3.855
 9654SOL    HW129861   4.007   3.562   3.818
 9654SOL    HW229862   3.926   3.698   3.781
 9655SOL     OW29863   4.961   0.595   0.716
 9655SOL    HW129864   4.901   0.543   0.776
 9655SOL    HW229865   4.969   0.689   0.750
 9656SOL     OW29866   5.234   4.656   6.121
 9656SOL    HW129867   5.285   4.571   6.134
 9656SOL    HW229868   5.140   4.635   6.095
 9657SOL     OW29869   4.832   4.932   2.832
 9657SOL    HW129870   4.846   4.835   2.808
 9657SOL    HW229871   4.735   4.949   2.847
 9658SOL     OW29872   5.487   0.874   2.121
 9658SOL    HW129873   5.426   0.879   2.200
 9658SOL    HW229874   5.581   0.889   2.151
 9659SOL     OW29875   2.862   2.812   7.016
 9659SOL    HW129876   2.939   2.748   7.016
 9659SOL    HW229877   2.894   2.902   6.988
 9660SOL     OW29878   2.402   0.001   1.536
 9660SOL    HW129879   2.413   0.099   1.519
 9660SOL    HW229880   2.465   6.974   1.477
 9661SOL     OW29881   4.098   3.680   1.996
 9661SOL    HW129882   4.140   3.590   1.982
 9661SOL    HW229883   4.153   3.749   1.948
 9662SOL     OW29884   4.632   0.095   5.769
 9662SOL    HW129885   4.537   0.108   5.741
 9662SOL    HW229886   4.635   0.033   5.848
 9663SOL     OW29887   1.165   5.837   2.602
 9663SOL    HW129888   1.151   5.751   2.650
 9663SOL    HW229889   1.077   5.874   2.573
 9664SOL     OW29890   2.028   4.895   3.223
 9664SOL    HW129891   2.102   4.877   3.158
 9664SOL    HW229892   2.030   4.991   3.249
 9665SOL     OW29893   6.576   4.513   6.490
 9665SOL    HW129894   6.614   4.427   6.525
 9665SOL    HW229895   6.647   4.583   6.491
 9666SOL     OW29896   5.150   3.485   1.057
 9666SOL    HW129897   5.163   3.573   1.011
 9666SOL    HW229898   5.210   3.479   1.136
 9667SOL     OW29899   5.892   6.034   6.570
 9667SOL    HW129900   5.946   6.118   6.574
 9667SOL    HW229901   5.911   5.978   6.651
 9668SOL     OW29902   2.018   0.677   0.294
 9668SOL    HW129903   2.021   0.585   0.256
 9668SOL    HW229904   2.073   0.680   0.378
 9669SOL     OW29905   3.748   0.383   6.958
 9669SOL    HW129906   3.752   0.298   7.010
 9669SOL    HW229907   3.839   0.421   6.949
 9670SOL     OW29908   0.950   1.197   1.503
 9670SOL    HW129909   1.044   1.222   1.529
 9670SOL    HW229910   0.941   1.204   1.403
 9671SOL     OW29911   0.896   5.934   6.678
 9671SOL    HW129912   0.832   5.959   6.606
 9671SOL    HW229913   0.850   5.877   6.746
 9672SOL     OW29914   0.715   3.648   4.705
 9672SOL    HW129915   0.673   3.560   4.686
 9672SOL    HW229916   0.682   3.683   4.792
 9673SOL     OW29917   2.498   3.235   6.406
 9673SOL    HW129918   2.541   3.174   6.340
 9673SOL    HW229919   2.515   3.330   6.381
 9674SOL     OW29920   2.294   0.016   4.304
 9674SOL    HW129921   2.232   6.972   4.264
 9674SOL    HW229922   2.379   6.994   4.331
 9675SOL     OW29923   6.184   4.010   5.852
 9675SOL    HW129924   6.188   4.100   5.808
 9675SOL    HW229925   6.147   4.021   5.944
 9676SOL     OW29926   0.979   3.466   5.899
 9676SOL    HW129927   0.887   3.460   5.861
 9676SOL    HW229928   1.046   3.456   5.826
 9677SOL     OW29929   0.400   4.810   2.465
 9677SOL    HW129930   0.386   4.763   2.552
 9677SOL    HW229931   0.333   4.778   2.399
 9678SOL     OW29932   4.177   2.983   5.673
 9678SOL    HW129933   4.258   3.029   5.710
 9678SOL    HW229934   4.205   2.902   5.622
 9679SOL     OW29935   1.214   1.058   3.659
 9679SOL    HW129936   1.140   1.054   3.726
 9679SOL    HW229937   1.242   1.153   3.646
 9680SOL     OW29938   4.929   0.506   2.337
 9680SOL    HW129939   4.978   0.482   2.253
 9680SOL    HW229940   4.840   0.546   2.314
 9681SOL     OW29941   0.888   3.677   1.056
 9681SOL    HW129942   0.924   3.770   1.062
 9681SOL    HW229943   0.868   3.643   1.148
 9682SOL     OW29944   4.295   6.645   5.461
 9682SOL    HW129945   4.224   6.623   5.394
 9682SOL    HW229946   4.343   6.728   5.434
 9683SOL     OW29947   3.254   6.116   4.342
 9683SOL    HW129948   3.345   6.083   4.319
 9683SOL    HW229949   3.194   6.039   4.360
 9684SOL     OW29950   0.281   2.998   6.236
 9684SOL    HW129951   0.285   2.938   6.316
 9684SOL    HW229952   0.293   3.093   6.265
 9685SOL     OW29953   3.727   4.323   1.722
 9685SOL    HW129954   3.640   4.373   1.722
 9685SOL    HW229955   3.712   4.230   1.753
 9686SOL     OW29956   0.303   1.925   5.710
 9686SOL    HW129957   0.265   1.979   5.785
 9686SOL    HW229958   0.277   1.829   5.722
 9687SOL     OW29959   5.428   1.965   3.942
 9687SOL    HW129960   5.404   1.876   3.903
 9687SOL    HW229961   5.471   2.022   3.871
 9688SOL     OW29962   0.092   5.188   1.538
 9688SOL    HW129963   0.118   5.092   1.541
 9688SOL    HW229964   0.070   5.214   1.444
 9689SOL     OW29965   1.649   5.341   1.376
 9689SOL    HW129966   1.742   5.356   1.341
 9689SOL    HW229967   1.610   5.428   1.405
 9690SOL     OW29968   6.019   4.502   4.877
 9690SOL    HW129969   6.078   4.426   4.903
 9690SOL    HW229970   5.954   4.472   4.807
 9691SOL     OW29971   3.787   3.282   2.166
 9691SOL    HW129972   3.736   3.207   2.123
 9691SOL    HW229973   3.841   3.246   2.241
 9692SOL     OW29974   5.101   4.288   0.757
 9692SOL    HW129975   5.133   4.245   0.672
 9692SOL    HW229976   5.031   4.230   0.799
 9693SOL     OW29977   4.488   2.809   6.657
 9693SOL    HW129978   4.578   2.800   6.615
 9693SOL    HW229979   4.482   2.896   6.706
 9694SOL     OW29980   2.143   6.537   1.180
 9694SOL    HW129981   2.079   6.614   1.183
 9694SOL    HW229982   2.173   6.515   1.272
 9695SOL     OW29983   1.968   2.345   3.571
 9695SOL    HW129984   1.975   2.418   3.503
 9695SOL    HW229985   2.022   2.369   3.652
 9696SOL     OW29986   5.030   2.699   3.470
 9696SOL    HW129987   5.118   2.652   3.470
 9696SOL    HW229988   5.024   2.760   3.392
 9697SOL     OW29989   0.192   6.935   1.347
 9697SOL    HW129990   0.163   6.972   1.259
 9697SOL    HW229991   0.163   6.997   1.420
 9698SOL     OW29992   6.831   3.250   1.831
 9698SOL    HW129993   6.820   3.289   1.923
 9698SOL    HW229994   6.754   3.276   1.774
 9699SOL     OW29995   1.052   6.694   1.947
 9699SOL    HW129996   1.141   6.658   1.976
 9699SOL    HW229997   1.039   6.786   1.984
 9700SOL     OW29998   6.397   0.477   6.411
 9700SOL    HW129999   6.342   0.473   6.327
 9700SOL    HW230000   6.413   0.572   6.435
 9701SOL     OW30001   5.258   3.738   7.007
 9701SOL    HW130002   5.270   3.809   0.053
 9701SOL    HW230003   5.237   3.651   0.028
 9702SOL     OW30004   3.239   3.976   1.745
 9702SOL    HW130005   3.178   4.002   1.820
 9702SOL    HW230006   3.186   3.936   1.671
 9703SOL     OW30007   6.453   5.373   2.898
 9703SOL    HW130008   6.432   5.464   2.863
 9703SOL    HW230009   6.368   5.325   2.918
 9704SOL     OW30010   0.789   4.650   1.904
 9704SOL    HW130011   0.882   4.672   1.874
 9704SOL    HW230012   0.727   4.723   1.875
 9705SOL     OW30013   0.299   3.668   6.271
 9705SOL    HW130014   0.288   3.631   6.364
 9705SOL    HW230015   0.333   3.762   6.276
 9706SOL     OW30016   1.442   7.018   2.314
 9706SOL    HW130017   1.525   6.985   2.271
 9706SOL    HW230018   1.397   0.061   2.254
 9707SOL     OW30019   1.276   5.294   2.067
 9707SOL    HW130020   1.359   5.250   2.033
 9707SOL    HW230021   1.203   5.286   1.999
 9708SOL     OW30022   3.030   1.256   2.055
 9708SOL    HW130023   2.990   1.301   2.135
 9708SOL    HW230024   3.018   1.157   2.064
 9709SOL     OW30025   4.515   1.458   1.861
 9709SOL    HW130026   4.504   1.463   1.961
 9709SOL    HW230027   4.456   1.386   1.825
 9710SOL     OW30028   4.800   4.920   4.154
 9710SOL    HW130029   4.750   4.863   4.219
 9710SOL    HW230030   4.783   5.016   4.174
 9711SOL     OW30031   3.015   1.285   6.503
 9711SOL    HW130032   3.049   1.199   6.465
 9711SOL    HW230033   3.091   1.349   6.512
 9712SOL     OW30034   5.415   6.722   5.049
 9712SOL    HW130035   5.365   6.703   4.965
 9712SOL    HW230036   5.398   6.817   5.077
 9713SOL     OW30037   1.877   0.898   2.883
 9713SOL    HW130038   1.804   0.964   2.865
 9713SOL    HW230039   1.927   0.879   2.799
 9714SOL     OW30040   2.413   2.636   3.962
 9714SOL    HW130041   2.422   2.622   3.864
 9714SOL    HW230042   2.375   2.727   3.980
 9715SOL     OW30043   6.989   2.207   6.002
 9715SOL    HW130044   0.043   2.270   6.005
 9715SOL    HW230045   6.907   2.258   5.974
 9716SOL     OW30046   2.005   6.773   1.128
 9716SOL    HW130047   2.084   6.758   1.067
 9716SOL    HW230048   1.921   6.748   1.080
 9717SOL     OW30049   3.645   2.672   5.920
 9717SOL    HW130050   3.583   2.599   5.890
 9717SOL    HW230051   3.680   2.721   5.840
 9718SOL     OW30052   3.236   2.424   0.009
 9718SOL    HW130053   3.314   2.476   6.999
 9718SOL    HW230054   3.260   2.327   0.015
 9719SOL     OW30055   4.348   0.116   5.730
 9719SOL    HW130056   4.316   0.032   5.772
 9719SOL    HW230057   4.311   0.195   5.779
 9720SOL     OW30058   1.913   2.643   2.713
 9720SOL    HW130059   1.912   2.579   2.636
 9720SOL    HW230060   1.848   2.716   2.697
 9721SOL     OW30061   1.408   2.054   1.445
 9721SOL    HW130062   1.372   2.005   1.524
 9721SOL    HW230063   1.366   2.145   1.441
 9722SOL     OW30064   4.093   2.789   5.285
 9722SOL    HW130065   4.106   2.695   5.254
 9722SOL    HW230066   3.997   2.804   5.309
 9723SOL     OW30067   5.913   0.545   4.440
 9723SOL    HW130068   5.873   0.624   4.487
 9723SOL    HW230069   5.858   0.523   4.359
 9724SOL     OW30070   2.061   5.132   1.268
 9724SOL    HW130071   1.998   5.058   1.247
 9724SOL    HW230072   2.095   5.172   1.182
 9725SOL     OW30073   5.295   5.685   3.769
 9725SOL    HW130074   5.262   5.779   3.779
 9725SOL    HW230075   5.363   5.681   3.696
 9726SOL     OW30076   6.790   0.045   3.353
 9726SOL    HW130077   6.760   0.007   3.440
 9726SOL    HW230078   6.746   7.019   3.278
 9727SOL     OW30079   6.134   2.652   1.484
 9727SOL    HW130080   6.066   2.579   1.491
 9727SOL    HW230081   6.157   2.685   1.575
 9728SOL     OW30082   5.699   1.847   4.894
 9728SOL    HW130083   5.630   1.774   4.897
 9728SOL    HW230084   5.722   1.875   4.988
 9729SOL     OW30085   0.386   3.516   2.492
 9729SOL    HW130086   0.453   3.577   2.534
 9729SOL    HW230087   0.328   3.568   2.429
 9730SOL     OW30088   0.936   5.316   3.313
 9730SOL    HW130089   0.972   5.240   3.367
 9730SOL    HW230090   0.910   5.391   3.375
 9731SOL     OW30091   0.033   2.568   1.672
 9731SOL    HW130092   0.061   2.657   1.707
 9731SOL    HW230093   6.957   2.559   1.675
 9732SOL     OW30094   1.479   2.914   3.149
 9732SOL    HW130095   1.411   2.840   3.157
 9732SOL    HW230096   1.480   2.967   3.233
 9733SOL     OW30097   6.114   5.182   1.197
 9733SOL    HW130098   6.074   5.138   1.278
 9733SOL    HW230099   6.056   5.260   1.170
 9734SOL     OW30100   4.369   4.450   6.897
 9734SOL    HW130101   4.318   4.524   6.942
 9734SOL    HW230102   4.314   4.367   6.895
 9735SOL     OW30103   1.057   1.602   0.129
 9735SOL    HW130104   1.115   1.522   0.111
 9735SOL    HW230105   1.097   1.682   0.085
 9736SOL     OW30106   5.042   1.878   5.225
 9736SOL    HW130107   5.011   1.955   5.170
 9736SOL    HW230108   5.139   1.890   5.247
 9737SOL     OW30109   5.368   2.984   5.198
 9737SOL    HW130110   5.386   2.888   5.177
 9737SOL    HW230111   5.293   3.018   5.142
 9738SOL     OW30112   2.297   6.783   1.886
 9738SOL    HW130113   2.234   6.795   1.809
 9738SOL    HW230114   2.384   6.748   1.852
 9739SOL     OW30115   5.620   6.802   0.157
 9739SOL    HW130116   5.652   6.858   0.233
 9739SOL    HW230117   5.654   6.708   0.167
 9740SOL     OW30118   6.676   0.914   1.242
 9740SOL    HW130119   6.746   0.983   1.223
 9740SOL    HW230120   6.712   0.823   1.219
 9741SOL     OW30121   2.582   2.394   3.430
 9741SOL    HW130122   2.672   2.397   3.473
 9741SOL    HW230123   2.555   2.486   3.403
 9742SOL     OW30124   4.219   1.417   6.755
 9742SOL    HW130125   4.272   1.499   6.732
 9742SOL    HW230126   4.207   1.412   6.854
 9743SOL     OW30127   6.959   3.270   4.667
 9743SOL    HW130128   6.920   3.257   4.758
 9743SOL    HW230129   0.002   3.197   4.648
 9744SOL     OW30130   1.852   2.438   2.545
 9744SOL    HW130131   1.857   2.340   2.528
 9744SOL    HW230132   1.757   2.465   2.562
 9745SOL     OW30133   1.062   6.660   6.215
 9745SOL    HW130134   1.022   6.744   6.179
 9745SOL    HW230135   1.154   6.679   6.251
 9746SOL     OW30136   3.068   6.288   5.977
 9746SOL    HW130137   3.130   6.219   5.940
 9746SOL    HW230138   3.109   6.332   6.056
 9747SOL     OW30139   4.025   1.495   3.316
 9747SOL    HW130140   4.083   1.417   3.291
 9747SOL    HW230141   3.953   1.507   3.248
 9748SOL     OW30142   0.791   2.092   3.007
 9748SOL    HW130143   0.796   2.191   3.021
 9748SOL    HW230144   0.699   2.059   3.030
 9749SOL     OW30145   6.632   0.058   1.193
 9749SOL    HW130146   6.566   7.007   1.180
 9749SOL    HW230147   6.704   0.050   1.124
 9750SOL     OW30148   5.392   2.375   5.280
 9750SOL    HW130149   5.337   2.454   5.249
 9750SOL    HW230150   5.331   2.306   5.319
 9751SOL     OW30151   3.183   6.164   0.808
 9751SOL    HW130152   3.282   6.178   0.812
 9751SOL    HW230153   3.160   6.109   0.728
 9752SOL     OW30154   3.628   3.772   0.617
 9752SOL    HW130155   3.605   3.680   0.586
 9752SOL    HW230156   3.670   3.767   0.707
 9753SOL     OW30157   6.591   5.806   3.372
 9753SOL    HW130158   6.635   5.892   3.347
 9753SOL    HW230159   6.494   5.821   3.387
 9754SOL     OW30160   3.524   1.057   2.638
 9754SOL    HW130161   3.463   0.982   2.665
 9754SOL    HW230162   3.585   1.026   2.566
 9755SOL     OW30163   3.167   3.956   0.994
 9755SOL    HW130164   3.221   4.038   1.008
 9755SOL    HW230165   3.076   3.981   0.960
 9756SOL     OW30166   5.377   0.111   6.702
 9756SOL    HW130167   5.277   0.119   6.705
 9756SOL    HW230168   5.409   0.132   6.610
 9757SOL     OW30169   5.614   3.636   4.524
 9757SOL    HW130170   5.635   3.702   4.451
 9757SOL    HW230171   5.563   3.560   4.485
 9758SOL     OW30172   2.929   0.953   2.508
 9758SOL    HW130173   2.908   0.929   2.413
 9758SOL    HW230174   3.015   1.003   2.512
 9759SOL     OW30175   6.948   2.059   1.332
 9759SOL    HW130176   6.882   2.133   1.322
 9759SOL    HW230177   6.918   1.979   1.281
 9760SOL     OW30178   4.815   0.265   6.347
 9760SOL    HW130179   4.818   0.187   6.409
 9760SOL    HW230180   4.877   0.336   6.379
 9761SOL     OW30181   1.023   1.852   1.388
 9761SOL    HW130182   1.017   1.949   1.412
 9761SOL    HW230183   1.107   1.836   1.336
 9762SOL     OW30184   3.790   1.022   6.394
 9762SOL    HW130185   3.781   1.115   6.430
 9762SOL    HW230186   3.736   1.013   6.310
 9763SOL     OW30187   6.431   2.177   1.215
 9763SOL    HW130188   6.337   2.211   1.213
 9763SOL    HW230189   6.443   2.115   1.293
 9764SOL     OW30190   0.388   2.710   2.758
 9764SOL    HW130191   0.295   2.723   2.723
 9764SOL    HW230192   0.451   2.700   2.681
 9765SOL     OW30193   0.055   2.350   1.489
 9765SOL    HW130194   7.020   2.363   1.409
 9765SOL    HW230195   0.046   2.429   1.550
 9766SOL     OW30196   0.229   3.038   3.024
 9766SOL    HW130197   0.216   3.122   2.970
 9766SOL    HW230198   0.306   2.986   2.987
 9767SOL     OW30199   3.527   1.542   5.143
 9767SOL    HW130200   3.594   1.599   5.095
 9767SOL    HW230201   3.576   1.474   5.198
 9768SOL     OW30202   4.665   2.180   6.988
 9768SOL    HW130203   4.701   2.259   0.013
 9768SOL    HW230204   4.740   2.122   6.956
 9769SOL     OW30205   3.664   1.330   5.284
 9769SOL    HW130206   3.641   1.396   5.355
 9769SOL    HW230207   3.603   1.251   5.290
 9770SOL     OW30208   1.749   3.548   5.229
 9770SOL    HW130209   1.698   3.621   5.183
 9770SOL    HW230210   1.797   3.585   5.309
 9771SOL     OW30211   3.231   0.827   2.292
 9771SOL    HW130212   3.218   0.902   2.358
 9771SOL    HW230213   3.299   0.763   2.328
 9772SOL     OW30214   0.505   0.645   1.995
 9772SOL    HW130215   0.491   0.560   1.944
 9772SOL    HW230216   0.434   0.711   1.972
 9773SOL     OW30217   5.722   6.236   2.055
 9773SOL    HW130218   5.714   6.335   2.049
 9773SOL    HW230219   5.637   6.198   2.092
 9774SOL     OW30220   2.013   5.410   4.492
 9774SOL    HW130221   2.076   5.335   4.472
 9774SOL    HW230222   1.948   5.381   4.563
 9775SOL     OW30223   1.228   1.455   2.730
 9775SOL    HW130224   1.137   1.459   2.772
 9775SOL    HW230225   1.246   1.540   2.681
 9776SOL     OW30226   1.899   5.481   1.320
 9776SOL    HW130227   1.881   5.514   1.228
 9776SOL    HW230228   1.867   5.549   1.387
 9777SOL     OW30229   4.409   1.930   5.375
 9777SOL    HW130230   4.382   1.838   5.348
 9777SOL    HW230231   4.506   1.944   5.352
 9778SOL     OW30232   1.702   3.438   3.094
 9778SOL    HW130233   1.676   3.517   3.038
 9778SOL    HW230234   1.766   3.381   3.043
 9779SOL     OW30235   3.126   0.375   3.547
 9779SOL    HW130236   3.109   0.281   3.574
 9779SOL    HW230237   3.090   0.437   3.618
 9780SOL     OW30238   0.821   1.210   0.649
 9780SOL    HW130239   0.819   1.224   0.550
 9780SOL    HW230240   0.731   1.227   0.687
 9781SOL     OW30241   1.481   1.511   1.803
 9781SOL    HW130242   1.573   1.504   1.842
 9781SOL    HW230243   1.481   1.467   1.712
 9782SOL     OW30244   0.136   2.680   0.484
 9782SOL    HW130245   0.042   2.646   0.476
 9782SOL    HW230246   0.143   2.740   0.564
 9783SOL     OW30247   5.089   1.719   2.615
 9783SOL    HW130248   5.144   1.666   2.680
 9783SOL    HW230249   5.009   1.755   2.662
 9784SOL     OW30250   1.862   1.566   0.250
 9784SOL    HW130251   1.774   1.549   0.207
 9784SOL    HW230252   1.849   1.621   0.333
 9785SOL     OW30253   1.359   3.545   5.003
 9785SOL    HW130254   1.274   3.577   4.961
 9785SOL    HW230255   1.392   3.464   4.954
 9786SOL     OW30256   2.452   4.897   6.555
 9786SOL    HW130257   2.444   4.815   6.498
 9786SOL    HW230258   2.548   4.925   6.559
 9787SOL     OW30259   2.850   3.479   1.339
 9787SOL    HW130260   2.934   3.501   1.288
 9787SOL    HW230261   2.822   3.558   1.393
 9788SOL     OW30262   2.851   7.003   3.021
 9788SOL    HW130263   2.843   0.015   3.114
 9788SOL    HW230264   2.886   6.909   3.024
 9789SOL     OW30265   4.541   1.407   1.065
 9789SOL    HW130266   4.585   1.319   1.049
 9789SOL    HW230267   4.443   1.393   1.079
 9790SOL     OW30268   4.567   5.651   5.104
 9790SOL    HW130269   4.592   5.555   5.096
 9790SOL    HW230270   4.638   5.707   5.063
 9791SOL     OW30271   0.224   0.608   1.385
 9791SOL    HW130272   0.255   0.513   1.392
 9791SOL    HW230273   0.266   0.662   1.458
 9792SOL     OW30274   3.794   4.477   0.718
 9792SOL    HW130275   3.807   4.574   0.699
 9792SOL    HW230276   3.699   4.452   0.701
 9793SOL     OW30277   5.960   0.885   2.214
 9793SOL    HW130278   5.951   0.984   2.200
 9793SOL    HW230279   6.030   0.867   2.283
 9794SOL     OW30280   3.534   5.578   4.693
 9794SOL    HW130281   3.528   5.483   4.662
 9794SOL    HW230282   3.521   5.639   4.615
 9795SOL     OW30283   1.684   3.504   3.395
 9795SOL    HW130284   1.714   3.510   3.300
 9795SOL    HW230285   1.724   3.579   3.448
 9796SOL     OW30286   3.031   3.906   4.159
 9796SOL    HW130287   2.969   3.833   4.133
 9796SOL    HW230288   3.031   3.918   4.258
 9797SOL     OW30289   3.091   5.777   0.164
 9797SOL    HW130290   3.032   5.699   0.187
 9797SOL    HW230291   3.147   5.755   0.085
 9798SOL     OW30292   6.875   4.214   6.670
 9798SOL    HW130293   6.912   4.305   6.650
 9798SOL    HW230294   6.946   4.157   6.711
 9799SOL     OW30295   4.142   6.448   6.668
 9799SOL    HW130296   4.095   6.411   6.748
 9799SOL    HW230297   4.093   6.529   6.635
 9800SOL     OW30298   6.140   4.691   5.013
 9800SOL    HW130299   6.118   4.622   4.944
 9800SOL    HW230300   6.068   4.694   5.082
 9801SOL     OW30301   4.387   6.616   0.997
 9801SOL    HW130302   4.335   6.700   1.007
 9801SOL    HW230303   4.421   6.586   1.086
 9802SOL     OW30304   3.805   3.567   0.218
 9802SOL    HW130305   3.734   3.500   0.194
 9802SOL    HW230306   3.886   3.551   0.162
 9803SOL     OW30307   1.659   3.756   6.436
 9803SOL    HW130308   1.567   3.718   6.420
 9803SOL    HW230309   1.653   3.831   6.502
 9804SOL     OW30310   1.252   4.642   2.784
 9804SOL    HW130311   1.158   4.608   2.791
 9804SOL    HW230312   1.316   4.568   2.806
 9805SOL     OW30313   0.208   5.637   4.678
 9805SOL    HW130314   0.177   5.545   4.657
 9805SOL    HW230315   0.152   5.674   4.753
 9806SOL     OW30316   3.637   1.460   0.052
 9806SOL    HW130317   3.726   1.453   0.007
 9806SOL    HW230318   3.574   1.511   7.018
 9807SOL     OW30319   4.049   3.229   3.550
 9807SOL    HW130320   4.100   3.298   3.601
 9807SOL    HW230321   4.041   3.146   3.606
 9808SOL     OW30322   3.169   5.411   2.232
 9808SOL    HW130323   3.199   5.332   2.286
 9808SOL    HW230324   3.073   5.430   2.252
 9809SOL     OW30325   5.845   2.590   0.799
 9809SOL    HW130326   5.804   2.584   0.890
 9809SOL    HW230327   5.850   2.686   0.771
 9810SOL     OW30328   2.343   3.268   1.288
 9810SOL    HW130329   2.260   3.298   1.335
 9810SOL    HW230330   2.328   3.272   1.189
 9811SOL     OW30331   5.484   3.428   4.418
 9811SOL    HW130332   5.458   3.407   4.324
 9811SOL    HW230333   5.524   3.347   4.461
 9812SOL     OW30334   3.571   5.558   6.476
 9812SOL    HW130335   3.637   5.607   6.532
 9812SOL    HW230336   3.573   5.594   6.382
 9813SOL     OW30337   3.861   0.688   2.205
 9813SOL    HW130338   3.860   0.781   2.243
 9813SOL    HW230339   3.938   0.638   2.244
 9814SOL     OW30340   6.755   1.637   6.155
 9814SOL    HW130341   6.718   1.593   6.236
 9814SOL    HW230342   6.679   1.667   6.096
 9815SOL     OW30343   4.563   2.531   4.666
 9815SOL    HW130344   4.526   2.549   4.758
 9815SOL    HW230345   4.610   2.612   4.633
 9816SOL     OW30346   3.045   1.079   0.081
 9816SOL    HW130347   3.055   1.168   0.035
 9816SOL    HW230348   3.011   1.094   0.174
 9817SOL     OW30349   6.768   0.641   1.175
 9817SOL    HW130350   6.836   0.601   1.236
 9817SOL    HW230351   6.760   0.585   1.093
 9818SOL     OW30352   3.794   2.859   5.392
 9818SOL    HW130353   3.759   2.950   5.369
 9818SOL    HW230354   3.857   2.865   5.469
 9819SOL     OW30355   3.056   0.643   1.887
 9819SOL    HW130356   3.061   0.673   1.791
 9819SOL    HW230357   2.990   0.569   1.895
 9820SOL     OW30358   3.519   2.603   0.273
 9820SOL    HW130359   3.606   2.559   0.295
 9820SOL    HW230360   3.535   2.699   0.253
 9821SOL     OW30361   6.852   5.278   0.114
 9821SOL    HW130362   6.918   5.342   0.076
 9821SOL    HW230363   6.793   5.244   0.041
 9822SOL     OW30364   0.191   0.539   2.731
 9822SOL    HW130365   0.162   0.621   2.780
 9822SOL    HW230366   0.153   0.540   2.639
 9823SOL     OW30367   3.115   6.260   2.023
 9823SOL    HW130368   3.170   6.189   2.067
 9823SOL    HW230369   3.065   6.220   1.946
 9824SOL     OW30370   1.330   4.386   5.844
 9824SOL    HW130371   1.317   4.466   5.785
 9824SOL    HW230372   1.243   4.363   5.888
 9825SOL     OW30373   4.586   5.100   5.159
 9825SOL    HW130374   4.498   5.068   5.121
 9825SOL    HW230375   4.584   5.091   5.258
 9826SOL     OW30376   5.409   6.455   5.062
 9826SOL    HW130377   5.400   6.549   5.031
 9826SOL    HW230378   5.500   6.441   5.101
 9827SOL     OW30379   0.740   4.744   4.702
 9827SOL    HW130380   0.823   4.773   4.749
 9827SOL    HW230381   0.727   4.646   4.713
 9828SOL     OW30382   2.351   2.452   6.745
 9828SOL    HW130383   2.269   2.445   6.688
 9828SOL    HW230384   2.377   2.361   6.778
 9829SOL     OW30385   2.609   4.455   1.352
 9829SOL    HW130386   2.550   4.385   1.312
 9829SOL    HW230387   2.667   4.414   1.422
 9830SOL     OW30388   6.933   1.601   0.771
 9830SOL    HW130389   6.965   1.671   0.834
 9830SOL    HW230390   6.963   1.622   0.678
 9831SOL     OW30391   6.008   6.683   1.277
 9831SOL    HW130392   6.032   6.718   1.367
 9831SOL    HW230393   5.975   6.758   1.219
 9832SOL     OW30394   3.976   4.632   1.206
 9832SOL    HW130395   4.064   4.647   1.160
 9832SOL    HW230396   3.956   4.534   1.209
 9833SOL     OW30397   4.256   4.435   6.090
 9833SOL    HW130398   4.329   4.367   6.102
 9833SOL    HW230399   4.255   4.496   6.169
 9834SOL     OW30400   2.142   2.368   3.787
 9834SOL    HW130401   2.188   2.456   3.781
 9834SOL    HW230402   2.085   2.365   3.870
 9835SOL     OW30403   5.657   1.302   5.044
 9835SOL    HW130404   5.675   1.379   5.105
 9835SOL    HW230405   5.685   1.326   4.951
 9836SOL     OW30406   4.831   5.077   1.842
 9836SOL    HW130407   4.909   5.080   1.905
 9836SOL    HW230408   4.750   5.043   1.890
 9837SOL     OW30409   1.916   6.326   5.595
 9837SOL    HW130410   1.832   6.297   5.641
 9837SOL    HW230411   1.954   6.249   5.543
 9838SOL     OW30412   6.764   5.949   4.993
 9838SOL    HW130413   6.679   5.908   4.959
 9838SOL    HW230414   6.825   5.877   5.025
 9839SOL     OW30415   6.285   2.999   2.938
 9839SOL    HW130416   6.275   3.098   2.950
 9839SOL    HW230417   6.199   2.960   2.908
 9840SOL     OW30418   6.099   0.208   0.351
 9840SOL    HW130419   6.133   0.199   0.257
 9840SOL    HW230420   6.053   0.297   0.361
 9841SOL     OW30421   2.207   3.063   4.155
 9841SOL    HW130422   2.182   3.157   4.135
 9841SOL    HW230423   2.206   3.048   4.254
 9842SOL     OW30424   3.026   3.281   3.647
 9842SOL    HW130425   3.028   3.200   3.705
 9842SOL    HW230426   3.119   3.310   3.626
 9843SOL     OW30427   6.119   4.179   3.374
 9843SOL    HW130428   6.136   4.271   3.408
 9843SOL    HW230429   6.042   4.139   3.425
 9844SOL     OW30430   5.222   0.440   2.614
 9844SOL    HW130431   5.123   0.459   2.609
 9844SOL    HW230432   5.272   0.516   2.573
 9845SOL     OW30433   1.560   1.593   3.140
 9845SOL    HW130434   1.477   1.640   3.169
 9845SOL    HW230435   1.540   1.536   3.061
 9846SOL     OW30436   3.158   3.060   3.328
 9846SOL    HW130437   3.079   3.111   3.361
 9846SOL    HW230438   3.239   3.118   3.332
 9847SOL     OW30439   2.008   4.505   4.699
 9847SOL    HW130440   1.937   4.576   4.700
 9847SOL    HW230441   2.030   4.479   4.792
 9848SOL     OW30442   5.690   3.351   0.473
 9848SOL    HW130443   5.614   3.291   0.499
 9848SOL    HW230444   5.687   3.368   0.375
 9849SOL     OW30445   0.203   6.504   5.442
 9849SOL    HW130446   0.137   6.479   5.512
 9849SOL    HW230447   0.294   6.475   5.470
 9850SOL     OW30448   4.438   7.009   2.837
 9850SOL    HW130449   4.456   0.057   2.769
 9850SOL    HW230450   4.506   7.016   2.910
 9851SOL     OW30451   5.654   3.280   5.300
 9851SOL    HW130452   5.701   3.343   5.362
 9851SOL    HW230453   5.588   3.330   5.245
 9852SOL     OW30454   5.370   2.110   4.203
 9852SOL    HW130455   5.374   2.049   4.283
 9852SOL    HW230456   5.380   2.056   4.120
 9853SOL     OW30457   0.509   4.410   0.879
 9853SOL    HW130458   0.559   4.496   0.884
 9853SOL    HW230459   0.480   4.395   0.784
 9854SOL     OW30460   4.142   5.901   3.941
 9854SOL    HW130461   4.049   5.864   3.937
 9854SOL    HW230462   4.177   5.914   3.848
 9855SOL     OW30463   1.909   3.863   0.746
 9855SOL    HW130464   1.990   3.893   0.795
 9855SOL    HW230465   1.934   3.793   0.679
 9856SOL     OW30466   3.517   2.598   0.640
 9856SOL    HW130467   3.522   2.498   0.638
 9856SOL    HW230468   3.424   2.627   0.664
 9857SOL     OW30469   5.936   4.162   2.964
 9857SOL    HW130470   5.911   4.135   2.871
 9857SOL    HW230471   5.923   4.260   2.975
 9858SOL     OW30472   3.862   1.326   1.531
 9858SOL    HW130473   3.784   1.324   1.467
 9858SOL    HW230474   3.941   1.282   1.487
 9859SOL     OW30475   7.019   0.273   1.130
 9859SOL    HW130476   6.949   0.275   1.059
 9859SOL    HW230477   6.977   0.258   1.219
 9860SOL     OW30478   0.654   0.848   2.196
 9860SOL    HW130479   0.650   0.932   2.141
 9860SOL    HW230480   0.658   0.769   2.136
 9861SOL     OW30481   3.018   6.720   4.874
 9861SOL    HW130482   2.919   6.716   4.882
 9861SOL    HW230483   3.059   6.719   4.965
 9862SOL     OW30484   0.397   2.339   0.987
 9862SOL    HW130485   0.468   2.355   1.056
 9862SOL    HW230486   0.311   2.377   1.020
 9863SOL     OW30487   3.088   0.278   0.483
 9863SOL    HW130488   3.127   0.295   0.574
 9863SOL    HW230489   3.143   0.210   0.435
 9864SOL     OW30490   4.795   6.033   2.924
 9864SOL    HW130491   4.788   6.132   2.913
 9864SOL    HW230492   4.736   5.987   2.857
 9865SOL     OW30493   1.841   2.283   4.260
 9865SOL    HW130494   1.856   2.213   4.330
 9865SOL    HW230495   1.871   2.372   4.295
 9866SOL     OW30496   3.500   4.913   3.529
 9866SOL    HW130497   3.531   4.873   3.615
 9866SOL    HW230498   3.431   4.983   3.548
 9867SOL     OW30499   3.886   0.433   6.606
 9867SOL    HW130500   3.960   0.400   6.548
 9867SOL    HW230501   3.908   0.525   6.639
 9868SOL     OW30502   0.328   5.188   6.171
 9868SOL    HW130503   0.343   5.284   6.196
 9868SOL    HW230504   0.355   5.173   6.076
 9869SOL     OW30505   1.789   3.890   3.240
 9869SOL    HW130506   1.799   3.966   3.175
 9869SOL    HW230507   1.835   3.912   3.326
 9870SOL     OW30508   4.753   4.616   2.236
 9870SOL    HW130509   4.796   4.643   2.322
 9870SOL    HW230510   4.723   4.521   2.243
 9871SOL     OW30511   1.211   1.816   5.621
 9871SOL    HW130512   1.288   1.879   5.633
 9871SOL    HW230513   1.243   1.722   5.637
 9872SOL     OW30514   1.467   4.165   3.540
 9872SOL    HW130515   1.389   4.180   3.478
 9872SOL    HW230516   1.549   4.207   3.502
 9873SOL     OW30517   1.318   2.178   0.115
 9873SOL    HW130518   1.350   2.101   0.171
 9873SOL    HW230519   1.306   2.148   0.021
 9874SOL     OW30520   1.065   3.676   4.170
 9874SOL    HW130521   1.161   3.656   4.192
 9874SOL    HW230522   1.016   3.700   4.254
 9875SOL     OW30523   1.046   0.992   2.779
 9875SOL    HW130524   1.055   0.991   2.679
 9875SOL    HW230525   1.112   1.057   2.817
 9876SOL     OW30526   6.844   5.294   2.017
 9876SOL    HW130527   6.824   5.210   2.068
 9876SOL    HW230528   6.922   5.341   2.059
 9877SOL     OW30529   3.674   6.685   1.572
 9877SOL    HW130530   3.632   6.677   1.482
 9877SOL    HW230531   3.615   6.740   1.632
 9878SOL     OW30532   0.639   0.420   5.338
 9878SOL    HW130533   0.604   0.399   5.247
 9878SOL    HW230534   0.727   0.468   5.330
 9879SOL     OW30535   5.539   5.801   5.670
 9879SOL    HW130536   5.575   5.751   5.749
 9879SOL    HW230537   5.525   5.897   5.695
 9880SOL     OW30538   1.929   1.471   4.168
 9880SOL    HW130539   2.008   1.471   4.229
 9880SOL    HW230540   1.932   1.390   4.110
 9881SOL     OW30541   0.017   1.665   6.165
 9881SOL    HW130542   6.942   1.665   6.149
 9881SOL    HW230543   0.064   1.659   6.077
 9882SOL     OW30544   1.737   1.975   2.696
 9882SOL    HW130545   1.707   2.068   2.674
 9882SOL    HW230546   1.818   1.952   2.641
 9883SOL     OW30547   2.672   1.196   2.360
 9883SOL    HW130548   2.684   1.134   2.438
 9883SOL    HW230549   2.754   1.253   2.350
 9884SOL     OW30550   3.396   0.656   3.862
 9884SOL    HW130551   3.484   0.609   3.851
 9884SOL    HW230552   3.404   0.749   3.826
 9885SOL     OW30553   6.404   4.523   3.767
 9885SOL    HW130554   6.331   4.489   3.826
 9885SOL    HW230555   6.451   4.447   3.724
 9886SOL     OW30556   1.063   3.554   1.547
 9886SOL    HW130557   1.150   3.601   1.536
 9886SOL    HW230558   0.999   3.613   1.595
 9887SOL     OW30559   4.093   6.721   6.323
 9887SOL    HW130560   4.138   6.632   6.327
 9887SOL    HW230561   4.002   6.711   6.282
 9888SOL     OW30562   6.368   5.201   0.235
 9888SOL    HW130563   6.310   5.121   0.221
 9888SOL    HW230564   6.397   5.205   0.330
 9889SOL     OW30565   0.602   5.279   0.424
 9889SOL    HW130566   0.537   5.321   0.488
 9889SOL    HW230567   0.617   5.341   0.347
 9890SOL     OW30568   0.971   3.253   0.450
 9890SOL    HW130569   0.975   3.276   0.547
 9890SOL    HW230570   0.992   3.334   0.395
 9891SOL     OW30571   4.812   1.777   1.870
 9891SOL    HW130572   4.813   1.678   1.879
 9891SOL    HW230573   4.903   1.814   1.893
 9892SOL     OW30574   0.715   6.316   0.050
 9892SOL    HW130575   0.785   6.387   0.036
 9892SOL    HW230576   0.730   6.272   0.139
 9893SOL     OW30577   2.677   1.667   1.064
 9893SOL    HW130578   2.608   1.594   1.055
 9893SOL    HW230579   2.631   1.755   1.077
 9894SOL     OW30580   2.084   1.124   1.589
 9894SOL    HW130581   2.088   1.054   1.660
 9894SOL    HW230582   2.008   1.104   1.528
 9895SOL     OW30583   4.430   3.372   5.571
 9895SOL    HW130584   4.362   3.301   5.556
 9895SOL    HW230585   4.387   3.462   5.562
 9896SOL     OW30586   6.751   6.598   6.216
 9896SOL    HW130587   6.678   6.624   6.153
 9896SOL    HW230588   6.715   6.534   6.284
 9897SOL     OW30589   5.824   4.911   4.305
 9897SOL    HW130590   5.766   4.921   4.386
 9897SOL    HW230591   5.785   4.962   4.229
 9898SOL     OW30592   2.922   6.686   5.784
 9898SOL    HW130593   2.850   6.752   5.804
 9898SOL    HW230594   2.899   6.636   5.700
 9899SOL     OW30595   0.198   5.241   7.010
 9899SOL    HW130596   0.126   5.195   6.958
 9899SOL    HW230597   0.199   5.205   0.080
 9900SOL     OW30598   2.120   3.898   3.526
 9900SOL    HW130599   2.130   3.799   3.528
 9900SOL    HW230600   2.142   3.935   3.616
 9901SOL     OW30601   2.378   2.777   5.501
 9901SOL    HW130602   2.422   2.777   5.411
 9901SOL    HW230603   2.358   2.871   5.528
 9902SOL     OW30604   2.510   4.265   0.056
 9902SOL    HW130605   2.467   4.180   0.089
 9902SOL    HW230606   2.460   4.297   6.999
 9903SOL     OW30607   5.603   0.673   4.085
 9903SOL    HW130608   5.639   0.742   4.023
 9903SOL    HW230609   5.525   0.626   4.042
 9904SOL     OW30610   6.409   2.408   0.623
 9904SOL    HW130611   6.411   2.308   0.629
 9904SOL    HW230612   6.341   2.444   0.688
 9905SOL     OW30613   5.264   0.624   0.208
 9905SOL    HW130614   5.166   0.625   0.227
 9905SOL    HW230615   5.310   0.564   0.274
 9906SOL     OW30616   3.425   2.881   4.950
 9906SOL    HW130617   3.488   2.805   4.935
 9906SOL    HW230618   3.409   2.892   5.048
 9907SOL     OW30619   1.088   0.002   1.991
 9907SOL    HW130620   1.005   0.054   1.969
 9907SOL    HW230621   1.131   0.042   2.072
 9908SOL     OW30622   4.956   3.749   2.584
 9908SOL    HW130623   5.003   3.668   2.619
 9908SOL    HW230624   4.919   3.802   2.661
 9909SOL     OW30625   2.376   0.472   4.836
 9909SOL    HW130626   2.380   0.514   4.745
 9909SOL    HW230627   2.325   0.532   4.897
 9910SOL     OW30628   0.137   4.916   3.571
 9910SOL    HW130629   0.168   4.920   3.476
 9910SOL    HW230630   0.087   4.999   3.594
 9911SOL     OW30631   2.548   5.516   2.565
 9911SOL    HW130632   2.604   5.559   2.635
 9911SOL    HW230633   2.513   5.428   2.599
 9912SOL     OW30634   5.138   0.664   6.307
 9912SOL    HW130635   5.165   0.572   6.334
 9912SOL    HW230636   5.200   0.731   6.347
 9913SOL     OW30637   4.317   3.061   6.773
 9913SOL    HW130638   4.342   3.041   6.868
 9913SOL    HW230639   4.245   2.998   6.743
 9914SOL     OW30640   6.835   3.992   4.522
 9914SOL    HW130641   6.839   3.973   4.620
 9914SOL    HW230642   6.909   4.053   4.496
 9915SOL     OW30643   5.374   1.341   3.562
 9915SOL    HW130644   5.412   1.267   3.507
 9915SOL    HW230645   5.422   1.345   3.650
 9916SOL     OW30646   1.906   2.849   2.067
 9916SOL    HW130647   1.856   2.804   1.993
 9916SOL    HW230648   2.002   2.859   2.041
 9917SOL     OW30649   6.274   4.302   4.685
 9917SOL    HW130650   6.299   4.221   4.632
 9917SOL    HW230651   6.289   4.283   4.782
 9918SOL     OW30652   4.682   2.600   2.386
 9918SOL    HW130653   4.607   2.545   2.423
 9918SOL    HW230654   4.647   2.688   2.354
 9919SOL     OW30655   6.223   6.364   0.681
 9919SOL    HW130656   6.264   6.402   0.764
 9919SOL    HW230657   6.293   6.352   0.611
 9920SOL     OW30658   4.979   1.387   3.070
 9920SOL    HW130659   5.031   1.432   2.998
 9920SOL    HW230660   5.009   1.419   3.160
 9921SOL     OW30661   3.710   4.814   6.444
 9921SOL    HW130662   3.726   4.856   6.355
 9921SOL    HW230663   3.709   4.714   6.434
 9922SOL     OW30664   0.180   5.355   0.527
 9922SOL    HW130665   0.191   5.256   0.522
 9922SOL    HW230666   0.165   5.382   0.622
 9923SOL     OW30667   5.421   4.873   1.351
 9923SOL    HW130668   5.387   4.783   1.378
 9923SOL    HW230669   5.435   4.929   1.433
 9924SOL     OW30670   0.968   3.940   4.912
 9924SOL    HW130671   0.915   3.886   4.978
 9924SOL    HW230672   1.052   3.973   4.955
 9925SOL     OW30673   5.361   2.083   3.193
 9925SOL    HW130674   5.436   2.017   3.192
 9925SOL    HW230675   5.386   2.161   3.250
 9926SOL     OW30676   2.898   5.177   0.131
 9926SOL    HW130677   2.938   5.266   0.113
 9926SOL    HW230678   2.803   5.176   0.099
 9927SOL     OW30679   5.877   0.265   3.675
 9927SOL    HW130680   5.809   0.197   3.702
 9927SOL    HW230681   5.860   0.293   3.580
 9928SOL     OW30682   4.626   5.030   2.021
 9928SOL    HW130683   4.693   4.956   2.020
 9928SOL    HW230684   4.627   5.076   2.109
 9929SOL     OW30685   1.332   4.871   2.317
 9929SOL    HW130686   1.250   4.849   2.264
 9929SOL    HW230687   1.347   4.800   2.386
 9930SOL     OW30688   6.403   0.766   3.448
 9930SOL    HW130689   6.374   0.792   3.356
 9930SOL    HW230690   6.413   0.666   3.453
 9931SOL     OW30691   0.555   4.823   6.025
 9931SOL    HW130692   0.552   4.872   6.112
 9931SOL    HW230693   0.551   4.725   6.042
 9932SOL     OW30694   0.558   6.660   5.255
 9932SOL    HW130695   0.625   6.710   5.200
 9932SOL    HW230696   0.505   6.598   5.196
 9933SOL     OW30697   0.350   6.130   1.878
 9933SOL    HW130698   0.275   6.130   1.812
 9933SOL    HW230699   0.316   6.160   1.968
 9934SOL     OW30700   6.823   1.823   5.809
 9934SOL    HW130701   6.753   1.882   5.770
 9934SOL    HW230702   6.897   1.879   5.846
 9935SOL     OW30703   3.379   0.425   6.486
 9935SOL    HW130704   3.334   0.353   6.539
 9935SOL    HW230705   3.403   0.501   6.546
 9936SOL     OW30706   0.835   3.984   4.148
 9936SOL    HW130707   0.843   3.914   4.077
 9936SOL    HW230708   0.889   3.956   4.228
 9937SOL     OW30709   6.555   2.598   6.012
 9937SOL    HW130710   6.534   2.602   5.915
 9937SOL    HW230711   6.586   2.688   6.044
 9938SOL     OW30712   6.860   6.074   2.257
 9938SOL    HW130713   6.915   6.057   2.339
 9938SOL    HW230714   6.839   5.987   2.213
 9939SOL     OW30715   3.494   3.119   2.578
 9939SOL    HW130716   3.535   3.206   2.549
 9939SOL    HW230717   3.397   3.118   2.552
 9940SOL     OW30718   6.905   0.992   0.527
 9940SOL    HW130719   6.994   1.020   0.491
 9940SOL    HW230720   6.907   0.995   0.627
 9941SOL     OW30721   3.149   5.527   5.214
 9941SOL    HW130722   3.153   5.460   5.139
 9941SOL    HW230723   3.098   5.488   5.290
 9942SOL     OW30724   2.748   5.855   3.915
 9942SOL    HW130725   2.664   5.809   3.943
 9942SOL    HW230726   2.789   5.900   3.994
 9943SOL     OW30727   1.234   0.097   4.615
 9943SOL    HW130728   1.266   0.081   4.709
 9943SOL    HW230729   1.144   0.055   4.603
 9944SOL     OW30730   1.461   4.351   0.153
 9944SOL    HW130731   1.529   4.345   0.079
 9944SOL    HW230732   1.370   4.365   0.113
 9945SOL     OW30733   6.568   5.861   6.857
 9945SOL    HW130734   6.512   5.865   6.775
 9945SOL    HW230735   6.538   5.787   6.916
 9946SOL     OW30736   5.511   1.619   4.836
 9946SOL    HW130737   5.482   1.682   4.908
 9946SOL    HW230738   5.431   1.575   4.796
 9947SOL     OW30739   6.096   4.446   3.509
 9947SOL    HW130740   6.016   4.501   3.486
 9947SOL    HW230741   6.096   4.427   3.607
 9948SOL     OW30742   5.391   3.857   4.216
 9948SOL    HW130743   5.416   3.932   4.155
 9948SOL    HW230744   5.319   3.802   4.173
 9949SOL     OW30745   5.755   4.823   2.251
 9949SOL    HW130746   5.768   4.849   2.155
 9949SOL    HW230747   5.693   4.745   2.257
 9950SOL     OW30748   3.268   5.915   6.572
 9950SOL    HW130749   3.250   5.918   6.474
 9950SOL    HW230750   3.204   5.851   6.616
 9951SOL     OW30751   6.201   2.594   3.039
 9951SOL    HW130752   6.275   2.609   2.974
 9951SOL    HW230753   6.238   2.555   3.123
 9952SOL     OW30754   0.131   4.984   6.604
 9952SOL    HW130755   0.193   5.006   6.680
 9952SOL    HW230756   0.045   5.032   6.617
 9953SOL     OW30757   5.932   2.699   4.109
 9953SOL    HW130758   5.935   2.784   4.057
 9953SOL    HW230759   5.852   2.646   4.081
 9954SOL     OW30760   3.874   0.472   5.174
 9954SOL    HW130761   3.895   0.375   5.159
 9954SOL    HW230762   3.939   0.511   5.239
 9955SOL     OW30763   0.415   4.737   4.276
 9955SOL    HW130764   0.346   4.677   4.318
 9955SOL    HW230765   0.458   4.689   4.199
 9956SOL     OW30766   0.949   6.151   0.344
 9956SOL    HW130767   0.857   6.169   0.309
 9956SOL    HW230768   0.955   6.180   0.439
 9957SOL     OW30769   5.632   5.420   2.167
 9957SOL    HW130770   5.624   5.450   2.072
 9957SOL    HW230771   5.605   5.324   2.175
 9958SOL     OW30772   2.532   4.556   0.785
 9958SOL    HW130773   2.490   4.523   0.869
 9958SOL    HW230774   2.548   4.479   0.723
 9959SOL     OW30775   3.300   3.776   1.426
 9959SOL    HW130776   3.356   3.725   1.490
 9959SOL    HW230777   3.203   3.752   1.440
 9960SOL     OW30778   0.607   1.316   2.324
 9960SOL    HW130779   0.601   1.216   2.330
 9960SOL    HW230780   0.531   1.351   2.269
 9961SOL     OW30781   2.177   3.816   4.600
 9961SOL    HW130782   2.198   3.895   4.658
 9961SOL    HW230783   2.091   3.832   4.553
 9962SOL     OW30784   5.028   6.648   4.256
 9962SOL    HW130785   4.955   6.683   4.314
 9962SOL    HW230786   4.989   6.608   4.173
 9963SOL     OW30787   3.447   0.872   0.991
 9963SOL    HW130788   3.445   0.946   1.059
 9963SOL    HW230789   3.502   0.900   0.912
 9964SOL     OW30790   5.030   6.259   4.704
 9964SOL    HW130791   4.950   6.252   4.644
 9964SOL    HW230792   5.030   6.181   4.768
 9965SOL     OW30793   4.500   6.740   0.562
 9965SOL    HW130794   4.541   6.830   0.579
 9965SOL    HW230795   4.524   6.709   0.470
 9966SOL     OW30796   6.719   0.933   3.402
 9966SOL    HW130797   6.779   0.852   3.403
 9966SOL    HW230798   6.639   0.915   3.460
 9967SOL     OW30799   1.429   5.120   0.708
 9967SOL    HW130800   1.376   5.040   0.738
 9967SOL    HW230801   1.375   5.172   0.641
 9968SOL     OW30802   2.959   3.477   3.031
 9968SOL    HW130803   2.991   3.494   2.937
 9968SOL    HW230804   2.964   3.562   3.083
 9969SOL     OW30805   1.502   3.664   1.147
 9969SOL    HW130806   1.524   3.753   1.108
 9969SOL    HW230807   1.580   3.602   1.135
 9970SOL     OW30808   5.925   4.363   1.654
 9970SOL    HW130809   5.883   4.450   1.678
 9970SOL    HW230810   6.020   4.378   1.625
 9971SOL     OW30811   2.579   6.613   6.846
 9971SOL    HW130812   2.512   6.540   6.837
 9971SOL    HW230813   2.566   6.660   6.933
 9972SOL     OW30814   6.419   5.034   1.299
 9972SOL    HW130815   6.362   5.025   1.217
 9972SOL    HW230816   6.456   4.945   1.323
 9973SOL     OW30817   6.129   0.265   3.538
 9973SOL    HW130818   6.064   0.267   3.614
 9973SOL    HW230819   6.106   0.338   3.473
 9974SOL     OW30820   2.357   0.228   4.485
 9974SOL    HW130821   2.262   0.249   4.463
 9974SOL    HW230822   2.388   0.151   4.430
 9975SOL     OW30823   6.498   4.439   0.816
 9975SOL    HW130824   6.431   4.419   0.887
 9975SOL    HW230825   6.584   4.392   0.837
 9976SOL     OW30826   2.372   6.746   5.054
 9976SOL    HW130827   2.449   6.770   5.113
 9976SOL    HW230828   2.325   6.666   5.091
 9977SOL     OW30829   6.855   4.609   3.861
 9977SOL    HW130830   6.780   4.639   3.802
 9977SOL    HW230831   6.837   4.638   3.955
 9978SOL     OW30832   0.426   2.478   5.005
 9978SOL    HW130833   0.421   2.379   5.007
 9978SOL    HW230834   0.417   2.514   5.098
 9979SOL     OW30835   0.566   3.964   4.894
 9979SOL    HW130836   0.618   3.889   4.935
 9979SOL    HW230837   0.623   4.046   4.888
 9980SOL     OW30838   3.011   6.399   4.972
 9980SOL    HW130839   2.967   6.383   5.061
 9980SOL    HW230840   2.942   6.419   4.903
 9981SOL     OW30841   4.265   2.297   4.105
 9981SOL    HW130842   4.307   2.337   4.187
 9981SOL    HW230843   4.171   2.271   4.125
 9982SOL     OW30844   6.731   6.217   2.756
 9982SOL    HW130845   6.798   6.147   2.730
 9982SOL    HW230846   6.741   6.239   2.853
 9983SOL     OW30847   6.317   1.152   0.831
 9983SOL    HW130848   6.289   1.179   0.923
 9983SOL    HW230849   6.267   1.069   0.804
 9984SOL     OW30850   2.428   1.533   6.553
 9984SOL    HW130851   2.466   1.460   6.495
 9984SOL    HW230852   2.353   1.496   6.607
 9985SOL     OW30853   2.234   1.403   1.556
 9985SOL    HW130854   2.193   1.314   1.538
 9985SOL    HW230855   2.174   1.456   1.616
 9986SOL     OW30856   4.983   4.067   4.835
 9986SOL    HW130857   5.017   4.079   4.928
 9986SOL    HW230858   4.901   4.122   4.822
 9987SOL     OW30859   0.572   4.199   5.875
 9987SOL    HW130860   0.608   4.255   5.800
 9987SOL    HW230861   0.473   4.210   5.881
 9988SOL     OW30862   6.672   0.259   4.385
 9988SOL    HW130863   6.675   0.328   4.313
 9988SOL    HW230864   6.617   0.292   4.461
 9989SOL     OW30865   1.273   3.062   4.359
 9989SOL    HW130866   1.208   3.013   4.417
 9989SOL    HW230867   1.287   3.154   4.396
 9990SOL     OW30868   1.322   5.432   1.582
 9990SOL    HW130869   1.286   5.477   1.664
 9990SOL    HW230870   1.403   5.379   1.607
 9991SOL     OW30871   4.558   1.934   3.090
 9991SOL    HW130872   4.491   1.876   3.045
 9991SOL    HW230873   4.514   1.986   3.164
 9992SOL     OW30874   6.973   5.477   5.869
 9992SOL    HW130875   6.943   5.554   5.925
 9992SOL    HW230876   0.012   5.419   5.922
 9993SOL     OW30877   1.537   0.721   2.033
 9993SOL    HW130878   1.572   0.790   1.970
 9993SOL    HW230879   1.446   0.747   2.064
 9994SOL     OW30880   6.405   5.059   3.236
 9994SOL    HW130881   6.457   5.138   3.269
 9994SOL    HW230882   6.307   5.082   3.234
 9995SOL     OW30883   5.122   1.189   4.873
 9995SOL    HW130884   5.083   1.099   4.854
 9995SOL    HW230885   5.221   1.185   4.858
 9996SOL     OW30886   2.257   3.081   6.872
 9996SOL    HW130887   2.272   3.158   6.810
 9996SOL    HW230888   2.326   3.011   6.855
 9997SOL     OW30889   1.781   0.336   4.252
 9997SOL    HW130890   1.868   0.370   4.215
 9997SOL    HW230891   1.722   0.414   4.276
 9998SOL     OW30892   5.733   6.409   5.171
 9998SOL    HW130893   5.823   6.408   5.129
 9998SOL    HW230894   5.737   6.458   5.258
 9999SOL     OW30895   0.053   1.209   4.683
 9999SOL    HW130896   0.063   1.305   4.656
 9999SOL    HW230897   0.131   1.156   4.648
10000SOL     OW30898   6.669   4.710   0.036
10000SOL    HW130899   6.677   4.807   0.059
10000SOL    HW230900   6.585   4.674   0.075
10001SOL     OW30901   3.712   6.865   3.676
10001SOL    HW130902   3.745   6.783   3.722
10001SOL    HW230903   3.651   6.840   3.601
10002SOL     OW30904   1.897   1.800   1.711
10002SOL    HW130905   1.917   1.898   1.712
10002SOL    HW230906   1.936   1.759   1.629
10003SOL     OW30907   4.938   3.412   3.185
10003SOL    HW130908   4.917   3.499   3.141
10003SOL    HW230909   5.011   3.366   3.135
10004SOL     OW30910   0.009   2.779   3.442
10004SOL    HW130911   0.012   2.848   3.515
10004SOL    HW230912   0.077   2.709   3.460
10005SOL     OW30913   4.895   0.441   4.557
10005SOL    HW130914   4.843   0.357   4.546
10005SOL    HW230915   4.836   0.513   4.596
10006SOL     OW30916   4.631   1.771   4.717
10006SOL    HW130917   4.598   1.719   4.796
10006SOL    HW230918   4.649   1.866   4.745
10007SOL     OW30919   5.866   3.883   4.192
10007SOL    HW130920   5.787   3.847   4.242
10007SOL    HW230921   5.861   3.852   4.097
10008SOL     OW30922   3.357   0.140   3.685
10008SOL    HW130923   3.306   0.054   3.679
10008SOL    HW230924   3.452   0.124   3.661
10009SOL     OW30925   2.247   4.428   1.247
10009SOL    HW130926   2.180   4.492   1.209
10009SOL    HW230927   2.275   4.458   1.338
10010SOL     OW30928   5.697   1.051   6.190
10010SOL    HW130929   5.727   1.109   6.115
10010SOL    HW230930   5.723   0.956   6.172
10011SOL     OW30931   0.056   6.507   3.795
10011SOL    HW130932   0.052   6.436   3.865
10011SOL    HW230933   6.989   6.547   3.782
10012SOL     OW30934   5.780   0.475   4.185
10012SOL    HW130935   5.744   0.563   4.155
10012SOL    HW230936   5.708   0.425   4.233
10013SOL     OW30937   1.634   0.913   1.865
10013SOL    HW130938   1.719   0.938   1.909
10013SOL    HW230939   1.586   0.995   1.834
10014SOL     OW30940   1.375   4.947   5.191
10014SOL    HW130941   1.321   5.028   5.213
10014SOL    HW230942   1.471   4.974   5.181
10015SOL     OW30943   2.540   6.096   6.492
10015SOL    HW130944   2.506   6.145   6.412
10015SOL    HW230945   2.589   6.013   6.462
10016SOL     OW30946   2.400   1.306   5.045
10016SOL    HW130947   2.464   1.256   4.988
10016SOL    HW230948   2.403   1.404   5.022
10017SOL     OW30949   0.078   2.010   4.096
10017SOL    HW130950   0.128   2.086   4.137
10017SOL    HW230951   0.113   1.994   4.003
10018SOL     OW30952   4.926   6.619   5.925
10018SOL    HW130953   4.991   6.545   5.908
10018SOL    HW230954   4.834   6.588   5.902
10019SOL     OW30955   1.649   1.242   2.618
10019SOL    HW130956   1.559   1.203   2.599
10019SOL    HW230957   1.650   1.338   2.590
10020SOL     OW30958   6.935   3.021   0.182
10020SOL    HW130959   6.977   3.081   0.114
10020SOL    HW230960   6.847   2.988   0.148
10021SOL     OW30961   4.841   3.006   1.400
10021SOL    HW130962   4.864   3.097   1.436
10021SOL    HW230963   4.765   2.968   1.451
10022SOL     OW30964   2.015   0.925   6.198
10022SOL    HW130965   1.969   0.909   6.285
10022SOL    HW230966   2.105   0.882   6.199
10023SOL     OW30967   0.370   3.112   0.822
10023SOL    HW130968   0.427   3.099   0.904
10023SOL    HW230969   0.291   3.168   0.845
10024SOL     OW30970   1.211   3.899   3.069
10024SOL    HW130971   1.283   3.968   3.077
10024SOL    HW230972   1.205   3.867   2.975
10025SOL     OW30973   0.683   1.006   0.863
10025SOL    HW130974   0.690   0.930   0.798
10025SOL    HW230975   0.693   1.093   0.815
10026SOL     OW30976   6.593   0.588   4.466
10026SOL    HW130977   6.593   0.534   4.382
10026SOL    HW230978   6.562   0.530   4.542
10027SOL     OW30979   6.134   2.618   5.903
10027SOL    HW130980   6.041   2.645   5.880
10027SOL    HW230981   6.156   2.531   5.858
10028SOL     OW30982   2.022   0.619   1.869
10028SOL    HW130983   2.112   0.584   1.893
10028SOL    HW230984   1.988   0.570   1.788
10029SOL     OW30985   3.998   0.954   4.100
10029SOL    HW130986   4.068   1.020   4.074
10029SOL    HW230987   4.005   0.874   4.041
10030SOL     OW30988   1.368   1.218   2.642
10030SOL    HW130989   1.409   1.147   2.699
10030SOL    HW230990   1.319   1.283   2.700
10031SOL     OW30991   6.383   5.077   3.780
10031SOL    HW130992   6.367   4.989   3.735
10031SOL    HW230993   6.295   5.119   3.802
10032SOL     OW30994   3.964   1.595   5.245
10032SOL    HW130995   3.922   1.515   5.202
10032SOL    HW230996   4.027   1.638   5.181
10033SOL     OW30997   5.136   3.109   3.946
10033SOL    HW130998   5.135   3.208   3.934
10033SOL    HW230999   5.050   3.079   3.985
10034SOL     OW31000   4.145   6.704   6.001
10034SOL    HW131001   4.142   6.646   5.919
10034SOL    HW231002   4.054   6.709   6.041
10035SOL     OW31003   0.465   0.016   3.466
10035SOL    HW131004   0.420   0.027   3.377
10035SOL    HW231005   0.396   0.009   3.538
10036SOL     OW31006   6.455   0.761   0.117
10036SOL    HW131007   6.468   0.666   0.147
10036SOL    HW231008   6.511   0.822   0.173
10037SOL     OW31009   6.827   6.774   1.250
10037SOL    HW131010   6.757   6.719   1.295
10037SOL    HW231011   6.867   6.838   1.316
10038SOL     OW31012   6.282   0.316   1.028
10038SOL    HW131013   6.364   0.259   1.039
10038SOL    HW231014   6.304   0.411   1.049
10039SOL     OW31015   4.223   0.050   3.447
10039SOL    HW131016   4.245   0.097   3.362
10039SOL    HW231017   4.303   0.051   3.507
10040SOL     OW31018   0.514   2.587   0.815
10040SOL    HW131019   0.504   2.488   0.829
10040SOL    HW231020   0.427   2.624   0.783
10041SOL     OW31021   1.412   6.680   0.610
10041SOL    HW131022   1.318   6.661   0.580
10041SOL    HW231023   1.431   6.778   0.600
10042SOL     OW31024   5.959   2.107   3.423
10042SOL    HW131025   5.985   2.058   3.340
10042SOL    HW231026   5.914   2.043   3.487
10043SOL     OW31027   1.274   2.802   5.182
10043SOL    HW131028   1.201   2.739   5.209
10043SOL    HW231029   1.323   2.834   5.263
10044SOL     OW31030   4.818   1.232   6.639
10044SOL    HW131031   4.721   1.255   6.640
10044SOL    HW231032   4.836   1.157   6.702
10045SOL     OW31033   2.507   1.198   0.887
10045SOL    HW131034   2.500   1.297   0.891
10045SOL    HW231035   2.602   1.172   0.870
10046SOL     OW31036   0.312   5.322   1.055
10046SOL    HW131037   0.409   5.299   1.062
10046SOL    HW231038   0.268   5.305   1.143
10047SOL     OW31039   1.736   3.484   0.606
10047SOL    HW131040   1.722   3.579   0.633
10047SOL    HW231041   1.808   3.444   0.662
10048SOL     OW31042   5.805   4.243   1.895
10048SOL    HW131043   5.707   4.262   1.895
10048SOL    HW231044   5.850   4.296   1.823
10049SOL     OW31045   6.403   1.441   5.106
10049SOL    HW131046   6.347   1.391   5.172
10049SOL    HW231047   6.414   1.385   5.023
10050SOL     OW31048   6.827   2.811   5.923
10050SOL    HW131049   6.897   2.750   5.886
10050SOL    HW231050   6.837   2.816   6.022
10051SOL     OW31051   2.231   1.418   3.958
10051SOL    HW131052   2.182   1.424   4.045
10051SOL    HW231053   2.307   1.483   3.958
10052SOL     OW31054   0.932   0.572   3.741
10052SOL    HW131055   0.960   0.497   3.800
10052SOL    HW231056   0.906   0.651   3.797
10053SOL     OW31057   5.950   5.308   2.835
10053SOL    HW131058   5.893   5.304   2.918
10053SOL    HW231059   5.945   5.221   2.787
10054SOL     OW31060   6.141   3.887   4.222
10054SOL    HW131061   6.046   3.915   4.235
10054SOL    HW231062   6.151   3.791   4.244
10055SOL     OW31063   1.871   1.901   6.961
10055SOL    HW131064   1.874   1.846   6.878
10055SOL    HW231065   1.934   1.864   0.005
10056SOL     OW31066   5.412   2.353   4.339
10056SOL    HW131067   5.385   2.264   4.303
10056SOL    HW231068   5.495   2.384   4.294
10057SOL     OW31069   6.062   4.381   5.253
10057SOL    HW131070   6.159   4.354   5.252
10057SOL    HW231071   6.013   4.329   5.183
10058SOL     OW31072   6.472   4.217   3.969
10058SOL    HW131073   6.423   4.286   4.022
10058SOL    HW231074   6.540   4.262   3.911
10059SOL     OW31075   5.222   6.038   6.733
10059SOL    HW131076   5.176   5.959   6.774
10059SOL    HW231077   5.157   6.089   6.676
10060SOL     OW31078   2.947   1.850   2.226
10060SOL    HW131079   3.008   1.928   2.213
10060SOL    HW231080   2.878   1.872   2.294
10061SOL     OW31081   3.709   6.400   2.871
10061SOL    HW131082   3.761   6.315   2.877
10061SOL    HW231083   3.677   6.413   2.777
10062SOL     OW31084   6.718   6.975   4.697
10062SOL    HW131085   6.769   7.016   4.773
10062SOL    HW231086   6.782   6.950   4.624
10063SOL     OW31087   3.262   2.066   4.761
10063SOL    HW131088   3.235   2.084   4.855
10063SOL    HW231089   3.248   1.969   4.740
10064SOL     OW31090   3.148   6.903   2.339
10064SOL    HW131091   3.055   6.870   2.322
10064SOL    HW231092   3.144   6.984   2.398
10065SOL     OW31093   0.222   1.678   1.967
10065SOL    HW131094   0.131   1.651   1.936
10065SOL    HW231095   0.231   1.778   1.958
10066SOL     OW31096   6.163   3.810   3.589
10066SOL    HW131097   6.254   3.769   3.584
10066SOL    HW231098   6.143   3.859   3.504
10067SOL     OW31099   6.216   3.618   5.726
10067SOL    HW131100   6.118   3.615   5.742
10067SOL    HW231101   6.239   3.698   5.670
10068SOL     OW31102   1.797   3.339   2.309
10068SOL    HW131103   1.889   3.369   2.333
10068SOL    HW231104   1.803   3.252   2.259
10069SOL     OW31105   3.100   5.088   1.718
10069SOL    HW131106   3.020   5.028   1.716
10069SOL    HW231107   3.086   5.159   1.787
10070SOL     OW31108   4.882   6.967   0.532
10070SOL    HW131109   4.902   0.038   0.506
10070SOL    HW231110   4.796   6.963   0.583
10071SOL     OW31111   5.666   0.593   5.518
10071SOL    HW131112   5.664   0.526   5.443
10071SOL    HW231113   5.623   0.678   5.487
10072SOL     OW31114   5.708   2.491   2.372
10072SOL    HW131115   5.700   2.395   2.397
10072SOL    HW231116   5.676   2.504   2.278
10073SOL     OW31117   5.586   6.110   5.097
10073SOL    HW131118   5.495   6.138   5.127
10073SOL    HW231119   5.653   6.180   5.121
10074SOL     OW31120   1.903   4.740   0.999
10074SOL    HW131121   1.883   4.833   1.031
10074SOL    HW231122   1.828   4.679   1.024
10075SOL     OW31123   1.430   3.303   2.182
10075SOL    HW131124   1.481   3.332   2.263
10075SOL    HW231125   1.490   3.304   2.103
10076SOL     OW31126   5.542   3.846   3.881
10076SOL    HW131127   5.631   3.856   3.924
10076SOL    HW231128   5.537   3.903   3.799
10077SOL     OW31129   4.132   3.669   6.383
10077SOL    HW131130   4.059   3.691   6.318
10077SOL    HW231131   4.096   3.673   6.476
10078SOL     OW31132   5.837   5.320   4.171
10078SOL    HW131133   5.895   5.347   4.248
10078SOL    HW231134   5.879   5.349   4.085
10079SOL     OW31135   5.084   4.763   2.932
10079SOL    HW131136   5.086   4.688   2.998
10079SOL    HW231137   5.007   4.824   2.953
10080SOL     OW31138   5.325   2.338   5.721
10080SOL    HW131139   5.232   2.308   5.699
10080SOL    HW231140   5.389   2.301   5.654
10081SOL     OW31141   1.865   5.004   6.985
10081SOL    HW131142   1.876   5.000   0.061
10081SOL    HW231143   1.919   4.931   6.943
10082SOL     OW31144   1.146   4.942   1.170
10082SOL    HW131145   1.222   4.988   1.215
10082SOL    HW231146   1.094   4.888   1.237
10083SOL     OW31147   2.725   6.086   2.861
10083SOL    HW131148   2.679   6.025   2.797
10083SOL    HW231149   2.824   6.082   2.847
10084SOL     OW31150   1.345   2.960   5.001
10084SOL    HW131151   1.440   2.947   4.976
10084SOL    HW231152   1.321   2.899   5.076
10085SOL     OW31153   4.395   6.683   1.690
10085SOL    HW131154   4.306   6.726   1.708
10085SOL    HW231155   4.384   6.611   1.622
10086SOL     OW31156   3.486   0.187   2.734
10086SOL    HW131157   3.417   0.119   2.709
10086SOL    HW231158   3.463   0.275   2.693
10087SOL     OW31159   1.978   5.252   5.720
10087SOL    HW131160   1.966   5.338   5.670
10087SOL    HW231161   1.904   5.189   5.695
10088SOL     OW31162   6.720   2.220   1.271
10088SOL    HW131163   6.742   2.250   1.363
10088SOL    HW231164   6.623   2.235   1.252
10089SOL     OW31165   4.224   6.563   1.949
10089SOL    HW131166   4.152   6.598   2.008
10089SOL    HW231167   4.276   6.639   1.910
10090SOL     OW31168   2.049   5.577   2.443
10090SOL    HW131169   1.967   5.536   2.484
10090SOL    HW231170   2.124   5.575   2.508
10091SOL     OW31171   5.201   4.967   3.476
10091SOL    HW131172   5.266   4.893   3.457
10091SOL    HW231173   5.109   4.939   3.447
10092SOL     OW31174   0.366   1.181   2.474
10092SOL    HW131175   0.403   1.123   2.401
10092SOL    HW231176   0.442   1.222   2.525
10093SOL     OW31177   4.692   3.951   6.350
10093SOL    HW131178   4.700   4.051   6.346
10093SOL    HW231179   4.693   3.921   6.445
10094SOL     OW31180   3.348   2.336   0.472
10094SOL    HW131181   3.435   2.287   0.470
10094SOL    HW231182   3.347   2.406   0.400
10095SOL     OW31183   4.750   2.511   5.550
10095SOL    HW131184   4.716   2.603   5.531
10095SOL    HW231185   4.808   2.513   5.632
10096SOL     OW31186   6.594   4.243   2.292
10096SOL    HW131187   6.583   4.169   2.359
10096SOL    HW231188   6.684   4.234   2.248
10097SOL     OW31189   1.206   1.449   1.192
10097SOL    HW131190   1.241   1.409   1.276
10097SOL    HW231191   1.227   1.390   1.114
10098SOL     OW31192   3.904   5.329   6.747
10098SOL    HW131193   3.989   5.382   6.751
10098SOL    HW231194   3.842   5.370   6.679
10099SOL     OW31195   0.213   5.989   3.407
10099SOL    HW131196   0.151   5.934   3.351
10099SOL    HW231197   0.176   5.997   3.500
10100SOL     OW31198   4.797   5.168   3.866
10100SOL    HW131199   4.734   5.116   3.924
10100SOL    HW231200   4.878   5.193   3.919
10101SOL     OW31201   0.191   2.356   0.152
10101SOL    HW131202   0.202   2.289   0.225
10101SOL    HW231203   0.112   2.415   0.173
10102SOL     OW31204   0.112   4.831   2.568
10102SOL    HW131205   0.086   4.743   2.529
10102SOL    HW231206   0.178   4.817   2.642
10103SOL     OW31207   0.003   0.117   6.560
10103SOL    HW131208   7.023   0.103   6.659
10103SOL    HW231209   0.027   0.212   6.541
10104SOL     OW31210   2.885   1.304   4.846
10104SOL    HW131211   2.848   1.397   4.846
10104SOL    HW231212   2.951   1.295   4.771
10105SOL     OW31213   3.264   1.491   4.319
10105SOL    HW131214   3.183   1.434   4.305
10105SOL    HW231215   3.297   1.478   4.413
10106SOL     OW31216   5.857   3.878   1.022
10106SOL    HW131217   5.800   3.896   1.102
10106SOL    HW231218   5.950   3.909   1.039
10107SOL     OW31219   5.667   5.886   6.544
10107SOL    HW131220   5.581   5.937   6.552
10107SOL    HW231221   5.742   5.951   6.531
10108SOL     OW31222   2.387   2.331   5.072
10108SOL    HW131223   2.440   2.416   5.078
10108SOL    HW231224   2.409   2.273   5.150
10109SOL     OW31225   1.215   3.443   1.096
10109SOL    HW131226   1.120   3.410   1.092
10109SOL    HW231227   1.240   3.485   1.009
10110SOL     OW31228   6.230   6.259   2.272
10110SOL    HW131229   6.151   6.277   2.213
10110SOL    HW231230   6.242   6.161   2.282
10111SOL     OW31231   6.766   2.779   1.721
10111SOL    HW131232   6.761   2.752   1.625
10111SOL    HW231233   6.730   2.705   1.778
10112SOL     OW31234   0.149   2.773   4.150
10112SOL    HW131235   0.177   2.868   4.161
10112SOL    HW231236   0.168   2.743   4.057
10113SOL     OW31237   7.009   5.840   5.942
10113SOL    HW131238   7.018   5.862   5.845
10113SOL    HW231239   0.031   5.753   5.960
10114SOL     OW31240   5.270   3.976   1.740
10114SOL    HW131241   5.344   4.043   1.738
10114SOL    HW231242   5.255   3.939   1.649
10115SOL     OW31243   3.487   2.081   6.498
10115SOL    HW131244   3.450   2.004   6.550
10115SOL    HW231245   3.412   2.140   6.469
10116SOL     OW31246   0.310   6.969   6.656
10116SOL    HW131247   0.403   6.935   6.640
10116SOL    HW231248   0.256   6.956   6.573
10117SOL     OW31249   0.020   4.489   1.253
10117SOL    HW131250   0.072   4.423   1.197
10117SOL    HW231251   6.949   4.490   1.222
10118SOL     OW31252   4.363   4.948   3.561
10118SOL    HW131253   4.313   5.032   3.584
10118SOL    HW231254   4.398   4.907   3.645
10119SOL     OW31255   6.258   6.057   6.615
10119SOL    HW131256   6.294   6.128   6.675
10119SOL    HW231257   6.317   5.976   6.619
10120SOL     OW31258   2.605   2.219   3.171
10120SOL    HW131259   2.569   2.203   3.263
10120SOL    HW231260   2.596   2.136   3.116
10121SOL     OW31261   6.166   5.591   1.854
10121SOL    HW131262   6.069   5.568   1.866
10121SOL    HW231263   6.209   5.527   1.791
10122SOL     OW31264   1.960   0.411   3.340
10122SOL    HW131265   2.001   0.466   3.413
10122SOL    HW231266   1.885   0.356   3.377
10123SOL     OW31267   6.391   6.139   6.330
10123SOL    HW131268   6.358   6.103   6.417
10123SOL    HW231269   6.369   6.237   6.324
10124SOL     OW31270   1.803   4.503   2.959
10124SOL    HW131271   1.884   4.552   2.926
10124SOL    HW231272   1.829   4.442   3.033
10125SOL     OW31273   1.983   1.689   4.534
10125SOL    HW131274   1.963   1.758   4.465
10125SOL    HW231275   1.900   1.669   4.586
10126SOL     OW31276   6.587   6.238   4.370
10126SOL    HW131277   6.523   6.198   4.305
10126SOL    HW231278   6.681   6.217   4.341
10127SOL     OW31279   2.403   0.909   4.903
10127SOL    HW131280   2.372   1.003   4.915
10127SOL    HW231281   2.327   0.852   4.873
10128SOL     OW31282   3.030   1.798   0.601
10128SOL    HW131283   3.023   1.759   0.509
10128SOL    HW231284   2.955   1.861   0.616
10129SOL     OW31285   6.566   1.991   5.068
10129SOL    HW131286   6.526   2.065   5.123
10129SOL    HW231287   6.604   2.029   4.983
10130SOL     OW31288   1.678   2.195   3.239
10130SOL    HW131289   1.650   2.259   3.168
10130SOL    HW231290   1.764   2.151   3.213
10131SOL     OW31291   2.070   0.683   5.274
10131SOL    HW131292   2.159   0.712   5.310
10131SOL    HW231293   2.006   0.669   5.349
10132SOL     OW31294   6.113   0.671   2.601
10132SOL    HW131295   6.191   0.657   2.662
10132SOL    HW231296   6.029   0.648   2.648
10133SOL     OW31297   4.632   5.235   1.018
10133SOL    HW131298   4.658   5.142   1.044
10133SOL    HW231299   4.558   5.267   1.077
10134SOL     OW31300   6.970   6.603   3.405
10134SOL    HW131301   6.946   6.538   3.332
10134SOL    HW231302   6.891   6.618   3.463
10135SOL     OW31303   6.254   6.901   3.528
10135SOL    HW131304   6.206   6.964   3.468
10135SOL    HW231305   6.206   6.895   3.616
10136SOL     OW31306   4.749   0.930   3.178
10136SOL    HW131307   4.835   0.885   3.155
10136SOL    HW231308   4.715   0.981   3.099
10137SOL     OW31309   6.627   5.765   3.097
10137SOL    HW131310   6.612   5.755   3.195
10137SOL    HW231311   6.611   5.860   3.071
10138SOL     OW31312   0.302   1.807   2.246
10138SOL    HW131313   0.251   1.888   2.216
10138SOL    HW231314   0.269   1.727   2.196
10139SOL     OW31315   3.228   2.832   0.396
10139SOL    HW131316   3.204   2.741   0.429
10139SOL    HW231317   3.290   2.876   0.462
10140SOL     OW31318   6.134   6.391   4.476
10140SOL    HW131319   6.223   6.432   4.455
10140SOL    HW231320   6.140   6.291   4.465
10141SOL     OW31321   0.876   2.036   4.570
10141SOL    HW131322   0.972   2.061   4.561
10141SOL    HW231323   0.849   1.977   4.493
10142SOL     OW31324   4.142   5.944   1.734
10142SOL    HW131325   4.124   5.847   1.753
10142SOL    HW231326   4.120   5.963   1.638
10143SOL     OW31327   6.253   3.464   6.666
10143SOL    HW131328   6.167   3.427   6.701
10143SOL    HW231329   6.321   3.391   6.660
10144SOL     OW31330   4.138   0.785   1.154
10144SOL    HW131331   4.201   0.807   1.229
10144SOL    HW231332   4.119   0.687   1.155
10145SOL     OW31333   6.569   0.319   5.050
10145SOL    HW131334   6.618   0.246   5.097
10145SOL    HW231335   6.608   0.332   4.959
10146SOL     OW31336   1.583   2.276   5.369
10146SOL    HW131337   1.599   2.189   5.324
10146SOL    HW231338   1.561   2.261   5.465
10147SOL     OW31339   3.585   5.100   0.566
10147SOL    HW131340   3.574   5.154   0.650
10147SOL    HW231341   3.657   5.141   0.511
10148SOL     OW31342   0.733   5.288   6.477
10148SOL    HW131343   0.789   5.346   6.537
10148SOL    HW231344   0.711   5.338   6.394
10149SOL     OW31345   3.243   2.954   3.599
10149SOL    HW131346   3.174   3.000   3.655
10149SOL    HW231347   3.199   2.883   3.544
10150SOL     OW31348   5.318   4.045   0.884
10150SOL    HW131349   5.236   4.079   0.839
10150SOL    HW231350   5.334   4.097   0.968
10151SOL     OW31351   0.235   1.016   0.184
10151SOL    HW131352   0.269   0.961   0.107
10151SOL    HW231353   0.155   1.068   0.155
10152SOL     OW31354   3.565   6.159   3.670
10152SOL    HW131355   3.601   6.066   3.669
10152SOL    HW231356   3.533   6.184   3.579
10153SOL     OW31357   4.991   3.751   1.653
10153SOL    HW131358   4.978   3.849   1.670
10153SOL    HW231359   5.039   3.739   1.566
10154SOL     OW31360   4.518   5.148   5.401
10154SOL    HW131361   4.466   5.233   5.390
10154SOL    HW231362   4.491   5.104   5.487
10155SOL     OW31363   4.403   2.356   4.534
10155SOL    HW131364   4.341   2.303   4.592
10155SOL    HW231365   4.463   2.411   4.591
10156SOL     OW31366   3.387   1.877   6.597
10156SOL    HW131367   3.346   1.847   6.684
10156SOL    HW231368   3.314   1.898   6.532
10157SOL     OW31369   0.986   4.869   0.936
10157SOL    HW131370   1.059   4.831   0.879
10157SOL    HW231371   1.026   4.924   1.010
10158SOL     OW31372   5.847   4.885   6.721
10158SOL    HW131373   5.828   4.877   6.818
10158SOL    HW231374   5.933   4.839   6.700
10159SOL     OW31375   3.792   2.688   1.342
10159SOL    HW131376   3.702   2.680   1.300
10159SOL    HW231377   3.803   2.617   1.412
10160SOL     OW31378   6.894   3.888   2.338
10160SOL    HW131379   6.912   3.791   2.355
10160SOL    HW231380   6.979   3.940   2.342
10161SOL     OW31381   5.991   2.490   0.105
10161SOL    HW131382   6.011   2.571   0.050
10161SOL    HW231383   6.032   2.500   0.196
10162SOL     OW31384   2.256   2.846   2.428
10162SOL    HW131385   2.355   2.843   2.441
10162SOL    HW231386   2.212   2.857   2.517
10163SOL     OW31387   3.437   5.206   5.378
10163SOL    HW131388   3.384   5.185   5.296
10163SOL    HW231389   3.401   5.288   5.422
10164SOL     OW31390   6.890   0.450   4.215
10164SOL    HW131391   6.918   0.516   4.285
10164SOL    HW231392   6.792   0.460   4.198
10165SOL     OW31393   2.102   3.211   3.715
10165SOL    HW131394   2.133   3.278   3.648
10165SOL    HW231395   2.018   3.244   3.758
10166SOL     OW31396   3.107   6.312   2.978
10166SOL    HW131397   3.040   6.309   3.052
10166SOL    HW231398   3.096   6.397   2.926
10167SOL     OW31399   3.617   1.657   6.799
10167SOL    HW131400   3.540   1.601   6.831
10167SOL    HW231401   3.678   1.601   6.744
10168SOL     OW31402   1.032   1.276   6.408
10168SOL    HW131403   1.040   1.365   6.363
10168SOL    HW231404   1.118   1.252   6.452
10169SOL     OW31405   4.531   5.135   2.513
10169SOL    HW131406   4.472   5.056   2.496
10169SOL    HW231407   4.479   5.203   2.566
10170SOL     OW31408   4.878   6.161   0.394
10170SOL    HW131409   4.898   6.070   0.357
10170SOL    HW231410   4.838   6.218   0.322
10171SOL     OW31411   1.545   3.845   3.389
10171SOL    HW131412   1.625   3.824   3.333
10171SOL    HW231413   1.551   3.939   3.421
10172SOL     OW31414   1.065   1.133   3.088
10172SOL    HW131415   1.040   1.061   3.023
10172SOL    HW231416   1.074   1.094   3.180
10173SOL     OW31417   4.447   3.037   5.357
10173SOL    HW131418   4.423   3.034   5.454
10173SOL    HW231419   4.545   3.054   5.347
10174SOL     OW31420   4.997   4.867   1.499
10174SOL    HW131421   4.998   4.825   1.408
10174SOL    HW231422   4.904   4.867   1.535
10175SOL     OW31423   6.696   6.975   3.598
10175SOL    HW131424   6.769   6.922   3.641
10175SOL    HW231425   6.609   6.953   3.643
10176SOL     OW31426   0.155   1.134   5.100
10176SOL    HW131427   0.244   1.096   5.076
10176SOL    HW231428   0.092   1.059   5.123
10177SOL     OW31429   3.360   1.079   4.589
10177SOL    HW131430   3.389   1.126   4.505
10177SOL    HW231431   3.416   0.998   4.603
10178SOL     OW31432   6.449   1.661   2.237
10178SOL    HW131433   6.482   1.737   2.182
10178SOL    HW231434   6.485   1.669   2.330
10179SOL     OW31435   0.317   6.113   0.649
10179SOL    HW131436   0.315   6.187   0.717
10179SOL    HW231437   0.329   6.026   0.696
10180SOL     OW31438   2.774   0.311   6.128
10180SOL    HW131439   2.743   0.406   6.126
10180SOL    HW231440   2.854   0.300   6.070
10181SOL     OW31441   6.616   3.953   2.376
10181SOL    HW131442   6.610   3.997   2.466
10181SOL    HW231443   6.712   3.942   2.352
10182SOL     OW31444   3.421   6.817   6.921
10182SOL    HW131445   3.474   6.783   6.844
10182SOL    HW231446   3.482   6.861   6.987
10183SOL     OW31447   3.907   6.359   6.094
10183SOL    HW131448   3.884   6.342   5.998
10183SOL    HW231449   3.937   6.273   6.136
10184SOL     OW31450   5.143   2.553   4.934
10184SOL    HW131451   5.175   2.563   5.029
10184SOL    HW231452   5.194   2.615   4.875
10185SOL     OW31453   3.034   4.760   2.137
10185SOL    HW131454   2.965   4.717   2.078
10185SOL    HW231455   3.115   4.701   2.141
10186SOL     OW31456   3.468   3.040   1.112
10186SOL    HW131457   3.384   3.029   1.059
10186SOL    HW231458   3.488   2.955   1.162
10187SOL     OW31459   1.932   4.070   5.588
10187SOL    HW131460   1.860   4.121   5.542
10187SOL    HW231461   1.993   4.029   5.521
10188SOL     OW31462   2.302   0.299   6.643
10188SOL    HW131463   2.203   0.297   6.658
10188SOL    HW231464   2.334   0.205   6.627
10189SOL     OW31465   2.107   2.067   5.416
10189SOL    HW131466   2.131   2.055   5.512
10189SOL    HW231467   2.089   2.164   5.397
10190SOL     OW31468   3.723   3.958   0.425
10190SOL    HW131469   3.669   3.922   0.501
10190SOL    HW231470   3.705   3.903   0.343
10191SOL     OW31471   5.946   0.666   0.183
10191SOL    HW131472   5.909   0.737   0.243
10191SOL    HW231473   6.040   0.687   0.159
10192SOL     OW31474   2.583   0.307   4.213
10192SOL    HW131475   2.607   0.303   4.310
10192SOL    HW231476   2.484   0.304   4.203
10193SOL     OW31477   3.788   3.709   3.659
10193SOL    HW131478   3.742   3.722   3.571
10193SOL    HW231479   3.742   3.636   3.711
10194SOL     OW31480   2.948   5.893   3.757
10194SOL    HW131481   2.868   5.862   3.808
10194SOL    HW231482   2.928   5.981   3.713
10195SOL     OW31483   5.052   0.552   3.043
10195SOL    HW131484   5.134   0.521   3.092
10195SOL    HW231485   4.976   0.493   3.066
10196SOL     OW31486   4.654   4.383   3.932
10196SOL    HW131487   4.688   4.299   3.975
10196SOL    HW231488   4.608   4.439   4.002
10197SOL     OW31489   4.891   2.183   3.008
10197SOL    HW131490   4.975   2.129   3.016
10197SOL    HW231491   4.872   2.202   2.912
10198SOL     OW31492   2.953   1.703   1.992
10198SOL    HW131493   2.923   1.762   2.066
10198SOL    HW231494   2.930   1.608   2.012
10199SOL     OW31495   0.946   1.967   0.111
10199SOL    HW131496   0.902   2.045   0.067
10199SOL    HW231497   0.884   1.927   0.178
10200SOL     OW31498   6.071   0.024   3.405
10200SOL    HW131499   6.111   0.115   3.415
10200SOL    HW231500   5.976   0.025   3.434
10201SOL     OW31501   1.566   4.864   2.131
10201SOL    HW131502   1.656   4.905   2.116
10201SOL    HW231503   1.539   4.878   2.226
10202SOL     OW31504   1.268   2.303   3.352
10202SOL    HW131505   1.196   2.327   3.287
10202SOL    HW231506   1.338   2.374   3.352
10203SOL     OW31507   0.164   2.111   1.213
10203SOL    HW131508   0.142   2.190   1.155
10203SOL    HW231509   0.084   2.089   1.270
10204SOL     OW31510   2.267   6.059   3.949
10204SOL    HW131511   2.362   6.053   3.917
10204SOL    HW231512   2.212   5.990   3.902
10205SOL     OW31513   3.424   0.045   1.124
10205SOL    HW131514   3.400   0.140   1.146
10205SOL    HW231515   3.345   7.023   1.083
10206SOL     OW31516   5.789   6.442   6.970
10206SOL    HW131517   5.701   6.490   6.966
10206SOL    HW231518   5.773   6.343   6.971
10207SOL     OW31519   3.655   1.323   2.146
10207SOL    HW131520   3.555   1.325   2.143
10207SOL    HW231521   3.689   1.415   2.165
10208SOL     OW31522   6.839   2.778   6.242
10208SOL    HW131523   6.841   2.877   6.224
10208SOL    HW231524   6.770   2.759   6.311
10209SOL     OW31525   3.484   6.291   6.989
10209SOL    HW131526   3.516   6.223   6.924
10209SOL    HW231527   3.555   6.309   0.034
10210SOL     OW31528   4.970   5.545   6.193
10210SOL    HW131529   5.041   5.610   6.164
10210SOL    HW231530   5.003   5.494   6.273
10211SOL     OW31531   3.200   5.044   5.684
10211SOL    HW131532   3.248   5.055   5.598
10211SOL    HW231533   3.144   5.126   5.702
10212SOL     OW31534   6.393   6.548   5.676
10212SOL    HW131535   6.492   6.554   5.689
10212SOL    HW231536   6.367   6.452   5.662
10213SOL     OW31537   3.896   6.668   4.679
10213SOL    HW131538   3.985   6.625   4.663
10213SOL    HW231539   3.862   6.642   4.769
10214SOL     OW31540   0.373   0.705   0.092
10214SOL    HW131541   0.464   0.743   0.072
10214SOL    HW231542   0.372   0.608   0.070
10215SOL     OW31543   4.298   2.550   0.370
10215SOL    HW131544   4.236   2.500   0.431
10215SOL    HW231545   4.338   2.486   0.305
10216SOL     OW31546   4.959   0.442   2.626
10216SOL    HW131547   4.904   0.391   2.692
10216SOL    HW231548   4.908   0.450   2.540
10217SOL     OW31549   3.611   2.468   5.626
10217SOL    HW131550   3.668   2.515   5.558
10217SOL    HW231551   3.521   2.450   5.588
10218SOL     OW31552   4.011   0.671   6.703
10218SOL    HW131553   4.003   0.771   6.705
10218SOL    HW231554   4.015   0.636   6.797
10219SOL     OW31555   0.817   5.131   0.505
10219SOL    HW131556   0.830   5.060   0.436
10219SOL    HW231557   0.741   5.190   0.478
10220SOL     OW31558   4.172   2.254   6.923
10220SOL    HW131559   4.121   2.339   6.937
10220SOL    HW231560   4.109   2.177   6.922
10221SOL     OW31561   2.022   0.601   4.092
10221SOL    HW131562   2.060   0.646   4.011
10221SOL    HW231563   1.945   0.654   4.127
10222SOL     OW31564   2.252   4.546   5.243
10222SOL    HW131565   2.231   4.638   5.211
10222SOL    HW231566   2.309   4.499   5.175
10223SOL     OW31567   0.934   4.900   6.217
10223SOL    HW131568   0.887   4.979   6.178
10223SOL    HW231569   1.023   4.929   6.253
10224SOL     OW31570   2.540   6.157   5.298
10224SOL    HW131571   2.583   6.075   5.260
10224SOL    HW231572   2.443   6.157   5.275
10225SOL     OW31573   5.052   6.875   4.508
10225SOL    HW131574   5.106   6.795   4.481
10225SOL    HW231575   5.064   6.891   4.606
10226SOL     OW31576   6.895   2.527   6.109
10226SOL    HW131577   6.869   2.613   6.152
10226SOL    HW231578   6.916   2.459   6.179
10227SOL     OW31579   4.919   4.493   5.457
10227SOL    HW131580   4.853   4.428   5.495
10227SOL    HW231581   4.930   4.570   5.519
10228SOL     OW31582   0.576   3.232   1.911
10228SOL    HW131583   0.654   3.196   1.860
10228SOL    HW231584   0.534   3.158   1.964
10229SOL     OW31585   2.764   0.567   1.864
10229SOL    HW131586   2.793   0.567   1.768
10229SOL    HW231587   2.680   0.620   1.874
10230SOL     OW31588   5.690   6.394   3.655
10230SOL    HW131589   5.591   6.407   3.647
10230SOL    HW231590   5.734   6.429   3.572
10231SOL     OW31591   4.612   6.195   4.312
10231SOL    HW131592   4.552   6.193   4.232
10231SOL    HW231593   4.660   6.283   4.314
10232SOL     OW31594   4.061   2.122   3.388
10232SOL    HW131595   4.041   2.119   3.486
10232SOL    HW231596   3.976   2.118   3.336
10233SOL     OW31597   4.853   6.072   5.680
10233SOL    HW131598   4.832   5.987   5.729
10233SOL    HW231599   4.880   6.050   5.586
10234SOL     OW31600   4.144   5.031   1.344
10234SOL    HW131601   4.134   4.978   1.260
10234SOL    HW231602   4.129   5.128   1.325
10235SOL     OW31603   5.223   0.365   7.018
10235SOL    HW131604   5.246   0.461   7.004
10235SOL    HW231605   5.301   0.317   0.033
10236SOL     OW31606   1.681   5.757   1.173
10236SOL    HW131607   1.757   5.819   1.149
10236SOL    HW231608   1.677   5.682   1.107
10237SOL     OW31609   5.905   2.528   2.566
10237SOL    HW131610   5.845   2.519   2.645
10237SOL    HW231611   5.850   2.549   2.485
10238SOL     OW31612   4.914   5.290   6.056
10238SOL    HW131613   4.909   5.390   6.062
10238SOL    HW231614   4.876   5.261   5.968
10239SOL     OW31615   5.515   3.077   4.818
10239SOL    HW131616   5.522   3.150   4.750
10239SOL    HW231617   5.535   3.113   4.909
10240SOL     OW31618   4.984   3.948   3.369
10240SOL    HW131619   4.958   3.953   3.272
10240SOL    HW231620   5.075   3.989   3.381
10241SOL     OW31621   1.281   2.712   2.407
10241SOL    HW131622   1.253   2.807   2.392
10241SOL    HW231623   1.261   2.658   2.325
10242SOL     OW31624   1.396   5.402   6.488
10242SOL    HW131625   1.460   5.333   6.452
10242SOL    HW231626   1.303   5.379   6.461
10243SOL     OW31627   0.589   5.815   3.354
10243SOL    HW131628   0.567   5.746   3.423
10243SOL    HW231629   0.652   5.777   3.287
10244SOL     OW31630   2.311   6.007   6.612
10244SOL    HW131631   2.236   6.053   6.565
10244SOL    HW231632   2.397   6.033   6.570
10245SOL     OW31633   2.651   3.065   0.847
10245SOL    HW131634   2.557   3.096   0.832
10245SOL    HW231635   2.710   3.099   0.774
10246SOL     OW31636   3.058   3.989   4.413
10246SOL    HW131637   3.147   4.029   4.436
10246SOL    HW231638   3.008   3.968   4.497
10247SOL     OW31639   1.295   6.027   6.216
10247SOL    HW131640   1.232   6.056   6.288
10247SOL    HW231641   1.308   5.928   6.221
10248SOL     OW31642   6.163   1.110   3.454
10248SOL    HW131643   6.163   1.203   3.416
10248SOL    HW231644   6.233   1.103   3.524
10249SOL     OW31645   4.665   0.785   6.164
10249SOL    HW131646   4.671   0.706   6.102
10249SOL    HW231647   4.652   0.752   6.257
10250SOL     OW31648   4.468   5.433   0.647
10250SOL    HW131649   4.548   5.490   0.668
10250SOL    HW231650   4.455   5.365   0.720
10251SOL     OW31651   3.931   4.489   1.646
10251SOL    HW131652   3.956   4.461   1.553
10251SOL    HW231653   3.857   4.431   1.679
10252SOL     OW31654   0.111   3.690   0.965
10252SOL    HW131655   0.173   3.612   0.977
10252SOL    HW231656   0.157   3.761   0.911
10253SOL     OW31657   4.105   4.644   0.600
10253SOL    HW131658   4.089   4.553   0.560
10253SOL    HW231659   4.017   4.690   0.614
10254SOL     OW31660   2.492   1.888   4.672
10254SOL    HW131661   2.488   1.919   4.767
10254SOL    HW231662   2.574   1.925   4.629
10255SOL     OW31663   3.110   5.130   3.918
10255SOL    HW131664   3.126   5.079   3.833
10255SOL    HW231665   3.198   5.155   3.958
10256SOL     OW31666   4.924   6.309   0.777
10256SOL    HW131667   4.893   6.365   0.700
10256SOL    HW231668   4.902   6.213   0.759
10257SOL     OW31669   1.556   5.049   5.748
10257SOL    HW131670   1.515   4.963   5.780
10257SOL    HW231671   1.616   5.085   5.819
10258SOL     OW31672   4.407   0.967   2.728
10258SOL    HW131673   4.468   0.968   2.807
10258SOL    HW231674   4.339   0.894   2.738
10259SOL     OW31675   6.956   3.362   4.230
10259SOL    HW131676   6.946   3.460   4.249
10259SOL    HW231677   6.867   3.324   4.204
10260SOL     OW31678   0.173   5.591   2.037
10260SOL    HW131679   0.171   5.668   2.101
10260SOL    HW231680   0.134   5.510   2.082
10261SOL     OW31681   2.252   0.452   1.849
10261SOL    HW131682   2.184   0.380   1.835
10261SOL    HW231683   2.322   0.445   1.779
10262SOL     OW31684   0.773   6.231   3.822
10262SOL    HW131685   0.678   6.231   3.789
10262SOL    HW231686   0.823   6.307   3.781
10263SOL     OW31687   6.820   3.188   4.901
10263SOL    HW131688   6.725   3.216   4.892
10263SOL    HW231689   6.873   3.263   4.939
10264SOL     OW31690   0.594   0.151   0.461
10264SOL    HW131691   0.654   0.071   0.467
10264SOL    HW231692   0.504   0.123   0.426
10265SOL     OW31693   5.060   2.527   4.115
10265SOL    HW131694   5.147   2.571   4.137
10265SOL    HW231695   5.040   2.540   4.017
10266SOL     OW31696   3.517   3.455   6.819
10266SOL    HW131697   3.431   3.503   6.805
10266SOL    HW231698   3.499   3.361   6.846
10267SOL     OW31699   6.508   1.040   6.516
10267SOL    HW131700   6.522   1.015   6.612
10267SOL    HW231701   6.467   0.963   6.467
10268SOL     OW31702   6.794   3.779   0.496
10268SOL    HW131703   6.869   3.742   0.441
10268SOL    HW231704   6.711   3.783   0.440
10269SOL     OW31705   4.173   1.390   6.375
10269SOL    HW131706   4.175   1.295   6.406
10269SOL    HW231707   4.267   1.421   6.356
10270SOL     OW31708   3.526   5.432   2.388
10270SOL    HW131709   3.438   5.477   2.373
10270SOL    HW231710   3.570   5.472   2.469
10271SOL     OW31711   2.074   4.615   1.586
10271SOL    HW131712   2.117   4.705   1.591
10271SOL    HW231713   2.105   4.568   1.503
10272SOL     OW31714   1.745   2.078   4.078
10272SOL    HW131715   1.829   2.029   4.102
10272SOL    HW231716   1.739   2.162   4.131
10273SOL     OW31717   4.216   6.229   3.706
10273SOL    HW131718   4.119   6.235   3.683
10273SOL    HW231719   4.269   6.216   3.622
10274SOL     OW31720   2.517   4.545   6.397
10274SOL    HW131721   2.469   4.492   6.467
10274SOL    HW231722   2.610   4.508   6.387
10275SOL     OW31723   0.722   6.088   1.903
10275SOL    HW131724   0.738   5.996   1.939
10275SOL    HW231725   0.647   6.085   1.837
10276SOL     OW31726   1.161   6.662   0.498
10276SOL    HW131727   1.089   6.637   0.563
10276SOL    HW231728   1.165   6.594   0.424
10277SOL     OW31729   0.129   6.063   2.264
10277SOL    HW131730   0.066   6.067   2.341
10277SOL    HW231731   0.100   6.128   2.194
10278SOL     OW31732   6.473   0.999   5.707
10278SOL    HW131733   6.414   0.966   5.780
10278SOL    HW231734   6.547   0.933   5.691
10279SOL     OW31735   3.526   6.358   4.645
10279SOL    HW131736   3.450   6.423   4.646
10279SOL    HW231737   3.603   6.398   4.595
10280SOL     OW31738   2.394   2.632   6.997
10280SOL    HW131739   2.433   2.545   0.005
10280SOL    HW231740   2.362   2.622   6.903
10281SOL     OW31741   4.546   0.755   4.600
10281SOL    HW131742   4.571   0.845   4.565
10281SOL    HW231743   4.519   0.696   4.524
10282SOL     OW31744   1.365   2.989   4.070
10282SOL    HW131745   1.350   2.890   4.068
10282SOL    HW231746   1.322   3.027   4.152
10283SOL     OW31747   1.393   5.150   6.166
10283SOL    HW131748   1.431   5.079   6.106
10283SOL    HW231749   1.430   5.238   6.139
10284SOL     OW31750   5.278   2.966   6.884
10284SOL    HW131751   5.366   2.982   6.839
10284SOL    HW231752   5.221   3.048   6.876
10285SOL     OW31753   5.184   1.701   1.367
10285SOL    HW131754   5.133   1.776   1.407
10285SOL    HW231755   5.136   1.669   1.285
10286SOL     OW31756   3.987   0.433   4.330
10286SOL    HW131757   3.970   0.381   4.246
10286SOL    HW231758   3.920   0.406   4.400
10287SOL     OW31759   1.982   4.475   1.793
10287SOL    HW131760   2.012   4.532   1.717
10287SOL    HW231761   1.898   4.513   1.832
10288SOL     OW31762   3.875   5.782   4.279
10288SOL    HW131763   3.823   5.839   4.342
10288SOL    HW231764   3.955   5.744   4.326
10289SOL     OW31765   3.218   1.806   1.908
10289SOL    HW131766   3.196   1.849   1.820
10289SOL    HW231767   3.133   1.775   1.952
10290SOL     OW31768   3.322   2.905   3.165
10290SOL    HW131769   3.354   2.815   3.194
10290SOL    HW231770   3.270   2.948   3.239
10291SOL     OW31771   3.677   0.346   4.401
10291SOL    HW131772   3.667   0.436   4.443
10291SOL    HW231773   3.615   0.282   4.446
10292SOL     OW31774   6.765   2.521   4.103
10292SOL    HW131775   6.685   2.580   4.115
10292SOL    HW231776   6.740   2.443   4.046
10293SOL     OW31777   2.234   4.866   3.044
10293SOL    HW131778   2.257   4.777   3.005
10293SOL    HW231779   2.317   4.919   3.061
10294SOL     OW31780   5.975   0.970   3.295
10294SOL    HW131781   6.030   1.015   3.365
10294SOL    HW231782   5.918   0.900   3.339
10295SOL     OW31783   1.706   4.174   4.203
10295SOL    HW131784   1.735   4.153   4.297
10295SOL    HW231785   1.767   4.243   4.163
10296SOL     OW31786   6.252   3.117   2.065
10296SOL    HW131787   6.287   3.187   2.003
10296SOL    HW231788   6.159   3.141   2.092
10297SOL     OW31789   3.579   4.844   5.374
10297SOL    HW131790   3.500   4.789   5.348
10297SOL    HW231791   3.639   4.855   5.294
10298SOL     OW31792   6.132   3.229   2.945
10298SOL    HW131793   6.128   3.328   2.957
10298SOL    HW231794   6.144   3.185   3.034
10299SOL     OW31795   4.451   4.551   2.243
10299SOL    HW131796   4.479   4.479   2.180
10299SOL    HW231797   4.380   4.607   2.201
10300SOL     OW31798   0.813   5.844   1.917
10300SOL    HW131799   0.871   5.784   1.972
10300SOL    HW231800   0.750   5.789   1.863
10301SOL     OW31801   4.401   0.145   1.971
10301SOL    HW131802   4.487   0.194   1.955
10301SOL    HW231803   4.409   0.051   1.938
10302SOL     OW31804   1.435   4.025   3.768
10302SOL    HW131805   1.446   4.053   3.672
10302SOL    HW231806   1.339   4.006   3.786
10303SOL     OW31807   4.570   3.170   1.298
10303SOL    HW131808   4.575   3.103   1.372
10303SOL    HW231809   4.559   3.123   1.210
10304SOL     OW31810   5.689   6.043   3.393
10304SOL    HW131811   5.729   5.992   3.317
10304SOL    HW231812   5.727   6.010   3.479
10305SOL     OW31813   2.148   5.467   1.196
10305SOL    HW131814   2.152   5.391   1.132
10305SOL    HW231815   2.075   5.451   1.263
10306SOL     OW31816   4.360   4.419   0.189
10306SOL    HW131817   4.268   4.412   0.150
10306SOL    HW231818   4.354   4.415   0.288
10307SOL     OW31819   2.343   1.992   5.892
10307SOL    HW131820   2.395   1.918   5.935
10307SOL    HW231821   2.399   2.037   5.823
10308SOL     OW31822   2.661   5.074   4.385
10308SOL    HW131823   2.692   5.044   4.475
10308SOL    HW231824   2.654   4.996   4.323
10309SOL     OW31825   0.056   6.826   3.502
10309SOL    HW131826   0.026   6.745   3.453
10309SOL    HW231827   0.084   6.896   3.437
10310SOL     OW31828   3.323   4.154   4.460
10310SOL    HW131829   3.290   4.142   4.366
10310SOL    HW231830   3.301   4.246   4.491
10311SOL     OW31831   0.842   0.349   1.025
10311SOL    HW131832   0.826   0.283   1.099
10311SOL    HW231833   0.940   0.364   1.014
10312SOL     OW31834   2.578   5.014   0.790
10312SOL    HW131835   2.540   5.105   0.774
10312SOL    HW231836   2.513   4.944   0.761
10313SOL     OW31837   6.637   5.744   3.982
10313SOL    HW131838   6.589   5.769   3.899
10313SOL    HW231839   6.606   5.655   4.014
10314SOL     OW31840   0.130   5.926   5.324
10314SOL    HW131841   0.079   5.889   5.402
10314SOL    HW231842   0.106   6.022   5.311
10315SOL     OW31843   4.676   6.403   5.906
10315SOL    HW131844   4.712   6.434   5.818
10315SOL    HW231845   4.577   6.388   5.899
10316SOL     OW31846   0.860   4.153   3.589
10316SOL    HW131847   0.809   4.234   3.557
10316SOL    HW231848   0.824   4.124   3.678
10317SOL     OW31849   5.115   3.962   6.684
10317SOL    HW131850   5.029   4.013   6.678
10317SOL    HW231851   5.114   3.903   6.764
10318SOL     OW31852   5.544   4.894   2.999
10318SOL    HW131853   5.447   4.913   2.981
10318SOL    HW231854   5.574   4.816   2.944
10319SOL     OW31855   5.101   6.546   3.672
10319SOL    HW131856   5.126   6.633   3.715
10319SOL    HW231857   5.002   6.533   3.678
10320SOL     OW31858   4.193   6.310   1.887
10320SOL    HW131859   4.194   6.406   1.917
10320SOL    HW231860   4.187   6.307   1.787
10321SOL     OW31861   4.806   6.174   4.551
10321SOL    HW131862   4.818   6.075   4.564
10321SOL    HW231863   4.737   6.190   4.480
10322SOL     OW31864   0.118   1.643   0.268
10322SOL    HW131865   0.193   1.593   0.225
10322SOL    HW231866   0.094   1.722   0.212
10323SOL     OW31867   0.828   2.006   5.203
10323SOL    HW131868   0.844   2.104   5.193
10323SOL    HW231869   0.757   1.977   5.140
10324SOL     OW31870   3.437   2.881   4.216
10324SOL    HW131871   3.372   2.951   4.248
10324SOL    HW231872   3.421   2.862   4.119
10325SOL     OW31873   0.921   3.361   3.885
10325SOL    HW131874   0.922   3.269   3.846
10325SOL    HW231875   1.000   3.373   3.945
10326SOL     OW31876   5.906   2.074   1.449
10326SOL    HW131877   5.843   2.025   1.509
10326SOL    HW231878   5.978   2.012   1.418
10327SOL     OW31879   6.001   1.876   3.299
10327SOL    HW131880   5.959   1.875   3.390
10327SOL    HW231881   5.984   1.788   3.254
10328SOL     OW31882   6.423   3.829   2.683
10328SOL    HW131883   6.478   3.752   2.716
10328SOL    HW231884   6.483   3.907   2.668
10329SOL     OW31885   3.298   5.557   3.284
10329SOL    HW131886   3.303   5.632   3.217
10329SOL    HW231887   3.390   5.532   3.312
10330SOL     OW31888   2.879   4.109   0.951
10330SOL    HW131889   2.908   4.191   0.902
10330SOL    HW231890   2.848   4.134   1.042
10331SOL     OW31891   5.050   1.319   4.259
10331SOL    HW131892   5.046   1.256   4.181
10331SOL    HW231893   4.977   1.297   4.324
10332SOL     OW31894   1.295   2.289   6.612
10332SOL    HW131895   1.344   2.254   6.693
10332SOL    HW231896   1.252   2.212   6.564
10333SOL     OW31897   6.722   4.735   5.483
10333SOL    HW131898   6.788   4.682   5.429
10333SOL    HW231899   6.671   4.796   5.422
10334SOL     OW31900   0.369   5.388   5.439
10334SOL    HW131901   0.332   5.418   5.352
10334SOL    HW231902   0.298   5.389   5.509
10335SOL     OW31903   3.278   5.202   3.406
10335SOL    HW131904   3.188   5.162   3.423
10335SOL    HW231905   3.292   5.212   3.308
10336SOL     OW31906   4.784   6.933   2.835
10336SOL    HW131907   4.810   7.014   2.783
10336SOL    HW231908   4.690   6.907   2.811
10337SOL     OW31909   1.224   3.971   6.309
10337SOL    HW131910   1.297   4.014   6.363
10337SOL    HW231911   1.265   3.921   6.232
10338SOL     OW31912   2.650   4.632   2.630
10338SOL    HW131913   2.709   4.650   2.551
10338SOL    HW231914   2.705   4.638   2.714
10339SOL     OW31915   2.944   6.076   0.053
10339SOL    HW131916   3.042   6.081   0.073
10339SOL    HW231917   2.929   6.012   7.001
10340SOL     OW31918   1.727   6.187   0.868
10340SOL    HW131919   1.656   6.168   0.935
10340SOL    HW231920   1.689   6.176   0.776
10341SOL     OW31921   0.771   2.817   1.938
10341SOL    HW131922   0.791   2.905   1.980
10341SOL    HW231923   0.715   2.762   2.000
10342SOL     OW31924   2.986   5.614   4.206
10342SOL    HW131925   3.067   5.606   4.264
10342SOL    HW231926   2.909   5.648   4.261
10343SOL     OW31927   2.471   2.636   4.710
10343SOL    HW131928   2.469   2.709   4.779
10343SOL    HW231929   2.452   2.548   4.755
10344SOL     OW31930   4.378   3.646   1.468
10344SOL    HW131931   4.421   3.736   1.477
10344SOL    HW231932   4.441   3.576   1.502
10345SOL     OW31933   3.675   1.485   6.559
10345SOL    HW131934   3.629   1.569   6.532
10345SOL    HW231935   3.763   1.478   6.513
10346SOL     OW31936   6.253   5.600   0.597
10346SOL    HW131937   6.255   5.693   0.632
10346SOL    HW231938   6.240   5.601   0.498
10347SOL     OW31939   4.308   6.871   2.153
10347SOL    HW131940   4.303   6.915   2.242
10347SOL    HW231941   4.334   6.939   2.084
10348SOL     OW31942   6.694   4.290   5.783
10348SOL    HW131943   6.793   4.273   5.787
10348SOL    HW231944   6.651   4.226   5.720
10349SOL     OW31945   6.260   1.906   0.052
10349SOL    HW131946   6.268   1.881   0.149
10349SOL    HW231947   6.190   1.849   0.009
10350SOL     OW31948   1.984   4.889   4.122
10350SOL    HW131949   1.935   4.856   4.042
10350SOL    HW231950   1.979   4.989   4.125
10351SOL     OW31951   3.647   5.184   4.867
10351SOL    HW131952   3.682   5.121   4.798
10351SOL    HW231953   3.575   5.138   4.919
10352SOL     OW31954   0.145   1.041   1.127
10352SOL    HW131955   0.217   1.109   1.140
10352SOL    HW231956   0.169   0.957   1.175
10353SOL     OW31957   5.894   3.125   3.788
10353SOL    HW131958   5.798   3.123   3.757
10353SOL    HW231959   5.897   3.142   3.886
10354SOL     OW31960   6.841   3.036   1.339
10354SOL    HW131961   6.898   2.953   1.339
10354SOL    HW231962   6.858   3.088   1.255
10355SOL     OW31963   0.594   2.124   0.809
10355SOL    HW131964   0.677   2.152   0.857
10355SOL    HW231965   0.605   2.031   0.775
10356SOL     OW31966   5.896   2.258   6.844
10356SOL    HW131967   5.988   2.218   6.849
10356SOL    HW231968   5.829   2.191   6.877
10357SOL     OW31969   0.741   0.465   6.369
10357SOL    HW131970   0.701   0.401   6.303
10357SOL    HW231971   0.738   0.424   6.460
10358SOL     OW31972   0.825   2.768   3.906
10358SOL    HW131973   0.848   2.806   3.996
10358SOL    HW231974   0.895   2.794   3.840
10359SOL     OW31975   0.521   2.701   2.517
10359SOL    HW131976   0.615   2.704   2.551
10359SOL    HW231977   0.513   2.629   2.448
10360SOL     OW31978   5.675   4.284   1.074
10360SOL    HW131979   5.682   4.192   1.112
10360SOL    HW231980   5.745   4.296   1.003
10361SOL     OW31981   5.709   1.784   2.467
10361SOL    HW131982   5.630   1.807   2.525
10361SOL    HW231983   5.756   1.704   2.504
10362SOL     OW31984   0.579   6.315   1.469
10362SOL    HW131985   0.625   6.404   1.473
10362SOL    HW231986   0.644   6.244   1.442
10363SOL     OW31987   5.717   4.907   5.949
10363SOL    HW131988   5.727   4.814   5.914
10363SOL    HW231989   5.697   4.969   5.873
10364SOL     OW31990   5.732   4.895   1.996
10364SOL    HW131991   5.694   4.803   2.001
10364SOL    HW231992   5.765   4.913   1.903
10365SOL     OW31993   6.214   5.703   6.879
10365SOL    HW131994   6.181   5.611   6.898
10365SOL    HW231995   6.246   5.746   6.963
10366SOL     OW31996   3.078   0.119   3.543
10366SOL    HW131997   3.110   0.031   3.510
10366SOL    HW231998   3.065   0.115   3.642
10367SOL     OW31999   5.737   6.093   1.760
10367SOL    HW132000   5.699   6.134   1.678
10367SOL    HW232001   5.689   6.128   1.840
10368SOL     OW32002   0.996   6.206   1.843
10368SOL    HW132003   0.907   6.181   1.880
10368SOL    HW232004   1.065   6.143   1.876
10369SOL     OW32005   2.392   1.016   5.520
10369SOL    HW132006   2.351   0.987   5.607
10369SOL    HW232007   2.489   0.993   5.520
10370SOL     OW32008   1.378   2.115   5.922
10370SOL    HW132009   1.464   2.164   5.916
10370SOL    HW232010   1.326   2.148   6.001
10371SOL     OW32011   3.718   5.474   3.365
10371SOL    HW132012   3.715   5.374   3.366
10371SOL    HW232013   3.640   5.511   3.415
10372SOL     OW32014   2.130   6.332   0.405
10372SOL    HW132015   2.150   6.297   0.497
10372SOL    HW232016   2.051   6.393   0.409
10373SOL     OW32017   6.514   0.649   6.797
10373SOL    HW132018   6.592   0.704   6.768
10373SOL    HW232019   6.466   0.696   6.872
10374SOL     OW32020   2.808   4.791   3.424
10374SOL    HW132021   2.786   4.887   3.444
10374SOL    HW232022   2.767   4.732   3.494
10375SOL     OW32023   2.593   5.697   6.741
10375SOL    HW132024   2.575   5.635   6.817
10375SOL    HW232025   2.514   5.699   6.679
10376SOL     OW32026   2.445   4.940   4.016
10376SOL    HW132027   2.373   4.873   4.033
10376SOL    HW232028   2.417   5.029   4.052
10377SOL     OW32029   2.483   0.744   3.608
10377SOL    HW132030   2.504   0.648   3.625
10377SOL    HW232031   2.500   0.798   3.691
10378SOL     OW32032   0.556   6.760   5.509
10378SOL    HW132033   0.566   6.728   5.415
10378SOL    HW232034   0.532   6.857   5.509
10379SOL     OW32035   1.207   6.078   3.687
10379SOL    HW132036   1.261   6.159   3.710
10379SOL    HW232037   1.269   6.002   3.665
10380SOL     OW32038   2.990   1.111   3.898
10380SOL    HW132039   2.928   1.189   3.895
10380SOL    HW232040   3.002   1.074   3.806
10381SOL     OW32041   3.810   0.182   2.760
10381SOL    HW132042   3.728   0.145   2.717
10381SOL    HW232043   3.784   0.247   2.831
10382SOL     OW32044   3.997   5.633   2.007
10382SOL    HW132045   3.952   5.557   1.960
10382SOL    HW232046   3.939   5.665   2.082
10383SOL     OW32047   0.403   6.677   7.022
10383SOL    HW132048   0.493   6.670   0.042
10383SOL    HW232049   0.366   6.769   0.015
10384SOL     OW32050   5.091   5.191   0.971
10384SOL    HW132051   5.156   5.118   0.995
10384SOL    HW232052   5.034   5.212   1.050
10385SOL     OW32053   4.109   4.442   0.097
10385SOL    HW132054   4.148   4.529   0.066
10385SOL    HW232055   4.035   4.415   0.034
10386SOL     OW32056   0.169   0.397   1.978
10386SOL    HW132057   0.108   0.419   1.902
10386SOL    HW232058   0.263   0.415   1.951
10387SOL     OW32059   5.414   2.306   1.807
10387SOL    HW132060   5.467   2.380   1.765
10387SOL    HW232061   5.447   2.218   1.774
10388SOL     OW32062   1.612   0.542   4.879
10388SOL    HW132063   1.684   0.487   4.835
10388SOL    HW232064   1.539   0.560   4.813
10389SOL     OW32065   0.263   3.781   0.223
10389SOL    HW132066   0.301   3.866   0.186
10389SOL    HW232067   0.220   3.798   0.311
10390SOL     OW32068   2.250   1.974   1.850
10390SOL    HW132069   2.211   1.894   1.804
10390SOL    HW232070   2.349   1.972   1.841
10391SOL     OW32071   6.091   6.812   3.226
10391SOL    HW132072   5.994   6.796   3.209
10391SOL    HW232073   6.102   6.897   3.278
10392SOL     OW32074   6.726   3.482   4.094
10392SOL    HW132075   6.652   3.450   4.152
10392SOL    HW232076   6.785   3.544   4.146
10393SOL     OW32077   2.156   2.713   2.224
10393SOL    HW132078   2.099   2.638   2.258
10393SOL    HW232079   2.204   2.756   2.300
10394SOL     OW32080   3.189   6.123   3.718
10394SOL    HW132081   3.152   6.125   3.811
10394SOL    HW232082   3.256   6.049   3.710
10395SOL     OW32083   0.880   0.731   1.232
10395SOL    HW132084   0.969   0.774   1.249
10395SOL    HW232085   0.826   0.791   1.173
10396SOL     OW32086   3.222   2.137   5.277
10396SOL    HW132087   3.237   2.214   5.215
10396SOL    HW232088   3.283   2.062   5.252
10397SOL     OW32089   5.104   1.349   3.852
10397SOL    HW132090   5.119   1.293   3.933
10397SOL    HW232091   5.050   1.298   3.785
10398SOL     OW32092   5.459   2.186   2.258
10398SOL    HW132093   5.441   2.280   2.285
10398SOL    HW232094   5.398   2.161   2.182
10399SOL     OW32095   0.547   3.785   2.252
10399SOL    HW132096   0.536   3.849   2.328
10399SOL    HW232097   0.515   3.826   2.167
10400SOL     OW32098   1.989   6.322   0.846
10400SOL    HW132099   1.985   6.416   0.812
10400SOL    HW232100   1.896   6.286   0.857
10401SOL     OW32101   0.065   0.265   5.820
10401SOL    HW132102   0.053   0.315   5.734
10401SOL    HW232103   0.071   0.329   5.896
10402SOL     OW32104   6.689   4.378   4.819
10402SOL    HW132105   6.663   4.420   4.732
10402SOL    HW232106   6.653   4.433   4.894
10403SOL     OW32107   3.154   0.010   1.073
10403SOL    HW132108   3.170   0.052   1.162
10403SOL    HW232109   3.096   0.069   1.018
10404SOL     OW32110   0.314   6.194   5.586
10404SOL    HW132111   0.255   6.173   5.664
10404SOL    HW232112   0.398   6.140   5.592
10405SOL     OW32113   0.213   2.373   6.685
10405SOL    HW132114   0.166   2.330   6.762
10405SOL    HW232115   0.223   2.471   6.703
10406SOL     OW32116   1.705   5.567   1.004
10406SOL    HW132117   1.636   5.496   1.019
10406SOL    HW232118   1.790   5.525   0.975
10407SOL     OW32119   2.015   6.476   6.110
10407SOL    HW132120   1.934   6.434   6.070
10407SOL    HW232121   2.030   6.565   6.069
10408SOL     OW32122   4.950   0.680   0.051
10408SOL    HW132123   4.926   0.627   6.993
10408SOL    HW232124   4.945   0.621   0.132
10409SOL     OW32125   5.924   4.055   0.802
10409SOL    HW132126   5.868   3.997   0.861
10409SOL    HW232127   5.995   4.000   0.759
10410SOL     OW32128   4.616   0.028   0.597
10410SOL    HW132129   4.632   7.022   0.691
10410SOL    HW232130   4.523   0.065   0.589
10411SOL     OW32131   1.891   5.084   4.384
10411SOL    HW132132   1.839   5.100   4.468
10411SOL    HW232133   1.925   4.990   4.384
10412SOL     OW32134   5.176   6.859   1.494
10412SOL    HW132135   5.174   6.761   1.512
10412SOL    HW232136   5.084   6.892   1.475
10413SOL     OW32137   5.978   3.303   2.662
10413SOL    HW132138   5.895   3.249   2.652
10413SOL    HW232139   6.048   3.248   2.708
10414SOL     OW32140   5.161   2.945   4.539
10414SOL    HW132141   5.173   2.846   4.538
10414SOL    HW232142   5.094   2.971   4.470
10415SOL     OW32143   0.687   0.866   6.639
10415SOL    HW132144   0.714   0.802   6.710
10415SOL    HW232145   0.633   0.940   6.680
10416SOL     OW32146   5.360   3.148   3.785
10416SOL    HW132147   5.315   3.143   3.696
10416SOL    HW232148   5.297   3.116   3.855
10417SOL     OW32149   1.790   4.084   3.023
10417SOL    HW132150   1.867   4.113   3.080
10417SOL    HW232151   1.760   4.161   2.966
10418SOL     OW32152   1.450   5.550   5.813
10418SOL    HW132153   1.448   5.629   5.751
10418SOL    HW232154   1.377   5.559   5.880
10419SOL     OW32155   1.050   1.032   0.232
10419SOL    HW132156   1.106   0.949   0.239
10419SOL    HW232157   1.006   1.049   0.320
10420SOL     OW32158   0.122   2.665   2.656
10420SOL    HW132159   0.117   2.687   2.559
10420SOL    HW232160   0.131   2.566   2.667
10421SOL     OW32161   0.250   1.806   2.964
10421SOL    HW132162   0.182   1.748   2.919
10421SOL    HW232163   0.327   1.823   2.902
10422SOL     OW32164   5.280   3.562   6.228
10422SOL    HW132165   5.282   3.493   6.156
10422SOL    HW232166   5.372   3.572   6.267
10423SOL     OW32167   4.818   4.635   2.819
10423SOL    HW132168   4.742   4.577   2.789
10423SOL    HW232169   4.868   4.590   2.893
10424SOL     OW32170   4.933   1.622   6.484
10424SOL    HW132171   4.956   1.671   6.399
10424SOL    HW232172   4.878   1.542   6.463
10425SOL     OW32173   1.950   6.829   1.831
10425SOL    HW132174   1.935   6.770   1.910
10425SOL    HW232175   1.898   6.794   1.753
10426SOL     OW32176   6.035   4.028   0.465
10426SOL    HW132177   6.065   3.992   0.554
10426SOL    HW232178   6.010   3.952   0.405
10427SOL     OW32179   4.791   0.812   1.016
10427SOL    HW132180   4.700   0.841   1.044
10427SOL    HW232181   4.787   0.718   0.982
10428SOL     OW32182   4.246   0.896   3.651
10428SOL    HW132183   4.177   0.834   3.688
10428SOL    HW232184   4.310   0.920   3.723
10429SOL     OW32185   5.922   5.493   1.878
10429SOL    HW132186   5.938   5.510   1.975
10429SOL    HW232187   5.824   5.490   1.860
10430SOL     OW32188   4.066   6.034   3.184
10430SOL    HW132189   4.163   6.052   3.199
10430SOL    HW232190   4.045   6.043   3.087
10431SOL     OW32191   2.514   1.606   5.010
10431SOL    HW132192   2.462   1.645   4.934
10431SOL    HW232193   2.493   1.655   5.094
10432SOL     OW32194   4.594   0.781   5.048
10432SOL    HW132195   4.494   0.767   5.048
10432SOL    HW232196   4.617   0.852   5.114
10433SOL     OW32197   3.114   6.884   0.638
10433SOL    HW132198   3.196   6.931   0.672
10433SOL    HW232199   3.104   6.796   0.684
10434SOL     OW32200   2.764   1.925   4.821
10434SOL    HW132201   2.785   1.865   4.743
10434SOL    HW232202   2.849   1.952   4.865
10435SOL     OW32203   5.529   5.201   6.715
10435SOL    HW132204   5.530   5.217   6.814
10435SOL    HW232205   5.485   5.279   6.670
10436SOL     OW32206   0.940   0.409   2.245
10436SOL    HW132207   0.870   0.374   2.184
10436SOL    HW232208   0.976   0.496   2.210
10437SOL     OW32209   0.147   4.141   5.931
10437SOL    HW132210   0.211   4.201   5.883
10437SOL    HW232211   0.070   4.194   5.965
10438SOL     OW32212   3.595   6.797   5.683
10438SOL    HW132213   3.684   6.754   5.674
10438SOL    HW232214   3.542   6.751   5.754
10439SOL     OW32215   3.847   1.049   5.298
10439SOL    HW132216   3.852   1.098   5.385
10439SOL    HW232217   3.813   0.956   5.315
10440SOL     OW32218   1.512   5.738   0.640
10440SOL    HW132219   1.542   5.774   0.728
10440SOL    HW232220   1.579   5.760   0.570
10441SOL     OW32221   4.218   6.902   0.601
10441SOL    HW132222   4.271   6.984   0.577
10441SOL    HW232223   4.278   6.822   0.599
10442SOL     OW32224   4.458   5.912   5.200
10442SOL    HW132225   4.536   5.956   5.155
10442SOL    HW232226   4.450   5.818   5.167
10443SOL     OW32227   6.182   2.655   4.589
10443SOL    HW132228   6.261   2.606   4.554
10443SOL    HW232229   6.103   2.594   4.591
10444SOL     OW32230   3.208   4.958   4.844
10444SOL    HW132231   3.134   4.893   4.858
10444SOL    HW232232   3.266   4.961   4.926
10445SOL     OW32233   6.346   5.910   2.601
10445SOL    HW132234   6.275   5.946   2.661
10445SOL    HW232235   6.385   5.827   2.641
10446SOL     OW32236   0.858   6.230   6.664
10446SOL    HW132237   0.869   6.141   6.620
10446SOL    HW232238   0.783   6.225   6.730
10447SOL     OW32239   5.686   1.639   0.541
10447SOL    HW132240   5.634   1.581   0.603
10447SOL    HW232241   5.631   1.719   0.515
10448SOL     OW32242   3.439   3.688   2.238
10448SOL    HW132243   3.535   3.659   2.236
10448SOL    HW232244   3.435   3.788   2.234
10449SOL     OW32245   1.572   5.574   4.817
10449SOL    HW132246   1.576   5.663   4.771
10449SOL    HW232247   1.586   5.587   4.915
10450SOL     OW32248   6.911   3.206   0.947
10450SOL    HW132249   6.864   3.247   1.025
10450SOL    HW232250   6.924   3.108   0.964
10451SOL     OW32251   2.265   4.232   2.224
10451SOL    HW132252   2.298   4.317   2.182
10451SOL    HW232253   2.319   4.155   2.191
10452SOL     OW32254   1.412   2.890   5.403
10452SOL    HW132255   1.383   2.906   5.498
10452SOL    HW232256   1.501   2.933   5.388
10453SOL     OW32257   4.922   0.702   1.504
10453SOL    HW132258   4.874   0.666   1.584
10453SOL    HW232259   4.910   0.638   1.427
10454SOL     OW32260   5.211   3.399   1.892
10454SOL    HW132261   5.247   3.404   1.985
10454SOL    HW232262   5.112   3.387   1.895
10455SOL     OW32263   0.831   4.611   2.648
10455SOL    HW132264   0.907   4.628   2.712
10455SOL    HW232265   0.764   4.551   2.692
10456SOL     OW32266   3.393   6.071   1.546
10456SOL    HW132267   3.353   5.981   1.528
10456SOL    HW232268   3.482   6.078   1.501
10457SOL     OW32269   3.756   3.303   3.672
10457SOL    HW132270   3.809   3.221   3.647
10457SOL    HW232271   3.706   3.335   3.591
10458SOL     OW32272   6.949   6.378   1.750
10458SOL    HW132273   7.007   6.310   1.703
10458SOL    HW232274   6.952   6.362   1.848
10459SOL     OW32275   0.004   4.867   2.108
10459SOL    HW132276   6.972   4.812   2.172
10459SOL    HW232277   6.989   4.860   2.016
10460SOL     OW32278   1.674   4.530   1.788
10460SOL    HW132279   1.582   4.568   1.784
10460SOL    HW232280   1.669   4.430   1.793
10461SOL     OW32281   3.164   1.071   6.383
10461SOL    HW132282   3.131   0.977   6.397
10461SOL    HW232283   3.264   1.069   6.371
10462SOL     OW32284   5.369   6.513   1.218
10462SOL    HW132285   5.324   6.585   1.271
10462SOL    HW232286   5.428   6.554   1.149
10463SOL     OW32287   3.116   3.505   1.253
10463SOL    HW132288   3.154   3.507   1.345
10463SOL    HW232289   3.153   3.427   1.203
10464SOL     OW32290   5.479   6.431   1.582
10464SOL    HW132291   5.510   6.526   1.575
10464SOL    HW232292   5.393   6.421   1.533
10465SOL     OW32293   6.962   5.118   4.898
10465SOL    HW132294   6.879   5.169   4.877
10465SOL    HW232295   6.938   5.029   4.937
10466SOL     OW32296   5.295   6.377   5.427
10466SOL    HW132297   5.273   6.280   5.418
10466SOL    HW232298   5.227   6.432   5.378
10467SOL     OW32299   4.803   1.167   3.904
10467SOL    HW132300   4.851   1.140   3.821
10467SOL    HW232301   4.785   1.265   3.901
10468SOL     OW32302   2.978   5.230   3.620
10468SOL    HW132303   2.937   5.286   3.548
10468SOL    HW232304   2.974   5.279   3.707
10469SOL     OW32305   1.197   5.209   6.795
10469SOL    HW132306   1.112   5.254   6.770
10469SOL    HW232307   1.202   5.120   6.749
10470SOL     OW32308   2.767   1.720   4.628
10470SOL    HW132309   2.794   1.765   4.544
10470SOL    HW232310   2.846   1.674   4.668
10471SOL     OW32311   4.282   4.078   0.185
10471SOL    HW132312   4.240   4.075   0.276
10471SOL    HW232313   4.382   4.073   0.195
10472SOL     OW32314   4.273   1.292   3.573
10472SOL    HW132315   4.208   1.368   3.580
10472SOL    HW232316   4.233   1.219   3.518
10473SOL     OW32317   4.540   5.275   6.999
10473SOL    HW132318   4.519   5.181   0.005
10473SOL    HW232319   4.523   5.338   0.051
10474SOL     OW32320   5.204   1.129   3.299
10474SOL    HW132321   5.148   1.047   3.314
10474SOL    HW232322   5.188   1.194   3.374
10475SOL     OW32323   4.743   6.372   1.827
10475SOL    HW132324   4.696   6.460   1.841
10475SOL    HW232325   4.820   6.385   1.766
10476SOL     OW32326   0.478   4.948   6.833
10476SOL    HW132327   0.462   4.853   6.806
10476SOL    HW232328   0.529   4.949   6.920
10477SOL     OW32329   4.734   4.590   5.059
10477SOL    HW132330   4.710   4.682   5.028
10477SOL    HW232331   4.805   4.596   5.129
10478SOL     OW32332   0.301   6.306   2.859
10478SOL    HW132333   0.249   6.377   2.812
10478SOL    HW232334   0.390   6.342   2.887
10479SOL     OW32335   0.806   4.359   1.924
10479SOL    HW132336   0.716   4.315   1.929
10479SOL    HW232337   0.795   4.457   1.908
10480SOL     OW32338   5.314   0.827   1.039
10480SOL    HW132339   5.409   0.798   1.034
10480SOL    HW232340   5.266   0.774   1.109
10481SOL     OW32341   2.698   1.125   4.437
10481SOL    HW132342   2.790   1.097   4.466
10481SOL    HW232343   2.670   1.207   4.487
10482SOL     OW32344   0.746   6.016   6.468
10482SOL    HW132345   0.780   6.001   6.375
10482SOL    HW232346   0.661   6.068   6.465
10483SOL     OW32347   6.696   5.650   0.861
10483SOL    HW132348   6.674   5.719   0.930
10483SOL    HW232349   6.626   5.579   0.862
10484SOL     OW32350   6.641   1.911   1.757
10484SOL    HW132351   6.582   1.982   1.795
10484SOL    HW232352   6.735   1.927   1.789
10485SOL     OW32353   3.317   4.089   4.153
10485SOL    HW132354   3.310   3.989   4.163
10485SOL    HW232355   3.229   4.126   4.122
10486SOL     OW32356   6.404   5.290   5.925
10486SOL    HW132357   6.365   5.201   5.899
10486SOL    HW232358   6.398   5.352   5.847
10487SOL     OW32359   5.469   2.997   2.940
10487SOL    HW132360   5.564   2.985   2.969
10487SOL    HW232361   5.450   3.095   2.930
10488SOL     OW32362   0.419   2.197   5.001
10488SOL    HW132363   0.375   2.139   5.070
10488SOL    HW232364   0.373   2.183   4.913
10489SOL     OW32365   5.804   4.594   3.416
10489SOL    HW132366   5.782   4.613   3.512
10489SOL    HW232367   5.761   4.508   3.389
10490SOL     OW32368   5.414   6.314   6.272
10490SOL    HW132369   5.368   6.267   6.347
10490SOL    HW232370   5.513   6.316   6.289
10491SOL     OW32371   1.960   2.687   5.689
10491SOL    HW132372   1.874   2.639   5.676
10491SOL    HW232373   1.947   2.785   5.675
10492SOL     OW32374   2.757   6.161   0.667
10492SOL    HW132375   2.686   6.232   0.669
10492SOL    HW232376   2.816   6.177   0.588
10493SOL     OW32377   3.890   5.652   0.751
10493SOL    HW132378   3.979   5.611   0.731
10493SOL    HW232379   3.869   5.641   0.848
10494SOL     OW32380   0.205   4.567   4.334
10494SOL    HW132381   0.128   4.631   4.341
10494SOL    HW232382   0.210   4.532   4.241
10495SOL     OW32383   6.872   0.096   0.702
10495SOL    HW132384   6.806   0.162   0.667
10495SOL    HW232385   6.825   0.011   0.726
10496SOL     OW32386   0.537   4.914   6.281
10496SOL    HW132387   0.481   4.973   6.339
10496SOL    HW232388   0.572   4.838   6.335
10497SOL     OW32389   3.375   6.333   1.138
10497SOL    HW132390   3.342   6.374   1.053
10497SOL    HW232391   3.341   6.386   1.216
10498SOL     OW32392   3.857   3.362   6.860
10498SOL    HW132393   3.795   3.431   6.824
10498SOL    HW232394   3.923   3.406   6.922
10499SOL     OW32395   4.524   4.684   2.485
10499SOL    HW132396   4.489   4.657   2.395
10499SOL    HW232397   4.466   4.644   2.556
10500SOL     OW32398   1.679   3.073   4.706
10500SOL    HW132399   1.760   3.015   4.706
10500SOL    HW232400   1.687   3.143   4.635
10501SOL     OW32401   3.785   4.862   3.420
10501SOL    HW132402   3.782   4.855   3.320
10501SOL    HW232403   3.692   4.860   3.457
10502SOL     OW32404   2.905   3.477   2.754
10502SOL    HW132405   2.930   3.399   2.696
10502SOL    HW232406   2.843   3.447   2.825
10503SOL     OW32407   6.665   0.916   0.333
10503SOL    HW132408   6.747   0.904   0.389
10503SOL    HW232409   6.585   0.922   0.393
10504SOL     OW32410   1.450   3.618   5.652
10504SOL    HW132411   1.419   3.573   5.568
10504SOL    HW232412   1.545   3.646   5.641
10505SOL     OW32413   6.335   6.557   0.862
10505SOL    HW132414   6.309   6.595   0.951
10505SOL    HW232415   6.378   6.629   0.807
10506SOL     OW32416   1.147   4.807   5.488
10506SOL    HW132417   1.169   4.750   5.409
10506SOL    HW232418   1.230   4.830   5.538
10507SOL     OW32419   1.403   6.311   5.554
10507SOL    HW132420   1.348   6.395   5.559
10507SOL    HW232421   1.403   6.266   5.643
10508SOL     OW32422   1.864   5.919   0.765
10508SOL    HW132423   1.868   5.930   0.666
10508SOL    HW232424   1.774   5.885   0.793
10509SOL     OW32425   4.865   3.195   2.970
10509SOL    HW132426   4.962   3.208   2.994
10509SOL    HW232427   4.812   3.179   3.053
10510SOL     OW32428   5.550   5.740   3.165
10510SOL    HW132429   5.600   5.666   3.120
10510SOL    HW232430   5.487   5.702   3.232
10511SOL     OW32431   3.953   1.562   1.214
10511SOL    HW132432   3.942   1.578   1.312
10511SOL    HW232433   4.018   1.629   1.177
10512SOL     OW32434   4.195   1.437   5.625
10512SOL    HW132435   4.190   1.430   5.724
10512SOL    HW232436   4.273   1.493   5.598
10513SOL     OW32437   3.366   3.875   0.613
10513SOL    HW132438   3.454   3.842   0.647
10513SOL    HW232439   3.300   3.801   0.613
10514SOL     OW32440   1.307   5.650   1.413
10514SOL    HW132441   1.298   5.567   1.469
10514SOL    HW232442   1.238   5.649   1.341
10515SOL     OW32443   2.061   3.665   4.834
10515SOL    HW132444   2.105   3.575   4.837
10515SOL    HW232445   2.101   3.719   4.760
10516SOL     OW32446   5.536   1.569   2.138
10516SOL    HW132447   5.438   1.554   2.133
10516SOL    HW232448   5.579   1.493   2.187
10517SOL     OW32449   0.872   1.861   1.788
10517SOL    HW132450   0.843   1.957   1.796
10517SOL    HW232451   0.938   1.841   1.860
10518SOL     OW32452   0.654   6.283   2.211
10518SOL    HW132453   0.658   6.339   2.128
10518SOL    HW232454   0.743   6.284   2.257
10519SOL     OW32455   2.902   6.637   0.835
10519SOL    HW132456   2.937   6.558   0.886
10519SOL    HW232457   2.891   6.714   0.898
10520SOL     OW32458   1.804   2.659   6.291
10520SOL    HW132459   1.712   2.652   6.328
10520SOL    HW232460   1.870   2.648   6.365
10521SOL     OW32461   6.448   2.149   3.088
10521SOL    HW132462   6.413   2.187   3.003
10521SOL    HW232463   6.435   2.215   3.162
10522SOL     OW32464   5.323   1.736   3.868
10522SOL    HW132465   5.233   1.700   3.895
10522SOL    HW232466   5.344   1.706   3.775
10523SOL     OW32467   0.732   4.052   1.766
10523SOL    HW132468   0.688   4.125   1.817
10523SOL    HW232469   0.664   3.985   1.736
10524SOL     OW32470   6.275   6.143   5.095
10524SOL    HW132471   6.314   6.199   5.167
10524SOL    HW232472   6.210   6.197   5.042
10525SOL     OW32473   4.427   0.937   3.829
10525SOL    HW132474   4.501   0.992   3.790
10525SOL    HW232475   4.436   0.934   3.929
10526SOL     OW32476   1.094   6.110   5.760
10526SOL    HW132477   1.103   6.083   5.664
10526SOL    HW232478   1.072   6.029   5.815
10527SOL     OW32479   7.001   6.395   5.608
10527SOL    HW132480   7.012   6.387   5.707
10527SOL    HW232481   6.907   6.422   5.587
10528SOL     OW32482   1.982   5.076   5.411
10528SOL    HW132483   1.987   4.982   5.445
10528SOL    HW232484   2.068   5.123   5.430
10529SOL     OW32485   0.191   5.048   0.514
10529SOL    HW132486   0.119   4.979   0.505
10529SOL    HW232487   0.250   5.025   0.592
10530SOL     OW32488   6.689   0.494   0.944
10530SOL    HW132489   6.761   0.523   0.882
10530SOL    HW232490   6.679   0.395   0.940
10531SOL     OW32491   3.310   2.270   6.377
10531SOL    HW132492   3.229   2.241   6.325
10531SOL    HW232493   3.306   2.369   6.394
10532SOL     OW32494   4.531   5.854   5.676
10532SOL    HW132495   4.547   5.923   5.606
10532SOL    HW232496   4.522   5.764   5.633
10533SOL     OW32497   3.820   6.551   3.476
10533SOL    HW132498   3.898   6.585   3.528
10533SOL    HW232499   3.787   6.466   3.517
10534SOL     OW32500   1.066   6.670   3.740
10534SOL    HW132501   1.089   6.691   3.835
10534SOL    HW232502   1.146   6.685   3.681
10535SOL     OW32503   4.213   1.851   2.580
10535SOL    HW132504   4.124   1.808   2.569
10535SOL    HW232505   4.219   1.894   2.670
10536SOL     OW32506   6.268   3.686   4.610
10536SOL    HW132507   6.262   3.697   4.511
10536SOL    HW232508   6.257   3.775   4.655
10537SOL     OW32509   3.998   0.936   3.293
10537SOL    HW132510   3.957   1.009   3.237
10537SOL    HW232511   4.018   0.857   3.234
10538SOL     OW32512   6.257   2.741   3.688
10538SOL    HW132513   6.262   2.655   3.637
10538SOL    HW232514   6.163   2.754   3.720
10539SOL     OW32515   6.778   6.462   2.923
10539SOL    HW132516   6.783   6.510   2.836
10539SOL    HW232517   6.870   6.444   2.957
10540SOL     OW32518   1.638   3.666   6.808
10540SOL    HW132519   1.655   3.609   6.727
10540SOL    HW232520   1.559   3.629   6.858
10541SOL     OW32521   3.325   2.289   5.908
10541SOL    HW132522   3.419   2.265   5.883
10541SOL    HW232523   3.262   2.252   5.839
10542SOL     OW32524   4.537   6.273   2.346
10542SOL    HW132525   4.521   6.303   2.252
10542SOL    HW232526   4.454   6.288   2.400
10543SOL     OW32527   2.037   2.538   4.327
10543SOL    HW132528   1.970   2.576   4.262
10543SOL    HW232529   2.129   2.549   4.289
10544SOL     OW32530   2.963   1.832   2.515
10544SOL    HW132531   2.893   1.764   2.492
10544SOL    HW232532   3.053   1.799   2.485
10545SOL     OW32533   1.562   3.335   1.930
10545SOL    HW132534   1.643   3.284   1.899
10545SOL    HW232535   1.506   3.359   1.850
10546SOL     OW32536   2.628   0.120   5.535
10546SOL    HW132537   2.604   0.174   5.616
10546SOL    HW232538   2.582   0.159   5.455
10547SOL     OW32539   3.607   6.311   6.010
10547SOL    HW132540   3.594   6.395   5.958
10547SOL    HW232541   3.585   6.327   6.106
10548SOL     OW32542   0.785   5.725   3.183
10548SOL    HW132543   0.870   5.730   3.236
10548SOL    HW232544   0.797   5.771   3.095
10549SOL     OW32545   6.524   0.865   2.630
10549SOL    HW132546   6.532   0.961   2.656
10549SOL    HW232547   6.447   0.823   2.677
10550SOL     OW32548   5.454   6.009   3.112
10550SOL    HW132549   5.479   5.913   3.120
10550SOL    HW232550   5.537   6.065   3.110
10551SOL     OW32551   4.394   0.500   4.711
10551SOL    HW132552   4.321   0.563   4.737
10551SOL    HW232553   4.470   0.552   4.671
10552SOL     OW32554   2.455   6.353   3.630
10552SOL    HW132555   2.421   6.262   3.606
10552SOL    HW232556   2.549   6.346   3.662
10553SOL     OW32557   5.543   5.522   1.506
10553SOL    HW132558   5.479   5.581   1.555
10553SOL    HW232559   5.502   5.492   1.420
10554SOL     OW32560   6.186   5.852   1.930
10554SOL    HW132561   6.202   5.762   1.890
10554SOL    HW232562   6.093   5.882   1.911
10555SOL     OW32563   3.577   3.138   1.632
10555SOL    HW132564   3.498   3.141   1.572
10555SOL    HW232565   3.554   3.179   1.721
10556SOL     OW32566   2.861   2.083   1.912
10556SOL    HW132567   2.891   2.013   1.977
10556SOL    HW232568   2.901   2.171   1.937
10557SOL     OW32569   0.932   3.916   2.972
10557SOL    HW132570   1.008   3.932   3.034
10557SOL    HW232571   0.956   3.949   2.880
10558SOL     OW32572   4.416   4.758   4.451
10558SOL    HW132573   4.327   4.755   4.405
10558SOL    HW232574   4.406   4.728   4.546
10559SOL     OW32575   3.512   5.887   1.270
10559SOL    HW132576   3.600   5.852   1.302
10559SOL    HW232577   3.438   5.840   1.318
10560SOL     OW32578   5.797   6.997   3.495
10560SOL    HW132579   5.721   6.979   3.432
10560SOL    HW232580   5.760   7.023   3.584
10561SOL     OW32581   0.940   5.347   6.272
10561SOL    HW132582   1.036   5.326   6.293
10561SOL    HW232583   0.918   5.315   6.180
10562SOL     OW32584   3.743   6.192   2.348
10562SOL    HW132585   3.774   6.223   2.258
10562SOL    HW232586   3.646   6.168   2.344
10563SOL     OW32587   1.682   6.120   2.161
10563SOL    HW132588   1.739   6.038   2.163
10563SOL    HW232589   1.703   6.177   2.241
10564SOL     OW32590   5.329   4.471   3.522
10564SOL    HW132591   5.354   4.385   3.478
10564SOL    HW232592   5.299   4.537   3.452
10565SOL     OW32593   0.425   1.493   4.953
10565SOL    HW132594   0.396   1.505   5.048
10565SOL    HW232595   0.495   1.421   4.948
10566SOL     OW32596   3.967   1.924   1.169
10566SOL    HW132597   3.904   1.904   1.244
10566SOL    HW232598   3.916   1.930   1.084
10567SOL     OW32599   2.246   2.927   6.503
10567SOL    HW132600   2.267   2.895   6.411
10567SOL    HW232601   2.311   2.887   6.568
10568SOL     OW32602   5.269   2.244   6.001
10568SOL    HW132603   5.244   2.321   6.059
10568SOL    HW232604   5.313   2.278   5.918
10569SOL     OW32605   5.418   0.366   1.091
10569SOL    HW132606   5.392   0.278   1.051
10569SOL    HW232607   5.461   0.423   1.021
10570SOL     OW32608   1.426   3.689   3.177
10570SOL    HW132609   1.345   3.630   3.178
10570SOL    HW232610   1.437   3.732   3.267
10571SOL     OW32611   0.142   3.677   5.788
10571SOL    HW132612   0.223   3.622   5.765
10571SOL    HW232613   0.168   3.748   5.854
10572SOL     OW32614   6.082   4.454   0.891
10572SOL    HW132615   5.983   4.455   0.878
10572SOL    HW232616   6.127   4.439   0.802
10573SOL     OW32617   6.883   2.358   3.220
10573SOL    HW132618   6.811   2.371   3.153
10573SOL    HW232619   6.865   2.275   3.273
10574SOL     OW32620   5.700   2.190   2.717
10574SOL    HW132621   5.703   2.284   2.753
10574SOL    HW232622   5.663   2.191   2.624
10575SOL     OW32623   5.562   6.617   2.854
10575SOL    HW132624   5.491   6.667   2.806
10575SOL    HW232625   5.536   6.520   2.861
10576SOL     OW32626   1.626   3.194   4.946
10576SOL    HW132627   1.638   3.138   5.028
10576SOL    HW232628   1.651   3.142   4.865
10577SOL     OW32629   3.612   4.479   0.043
10577SOL    HW132630   3.661   4.393   0.052
10577SOL    HW232631   3.521   4.470   0.083
10578SOL     OW32632   1.313   3.613   2.553
10578SOL    HW132633   1.259   3.542   2.598
10578SOL    HW232634   1.317   3.595   2.455
10579SOL     OW32635   7.023   3.095   6.942
10579SOL    HW132636   0.051   3.180   6.929
10579SOL    HW232637   7.011   3.049   6.854
10580SOL     OW32638   5.487   6.198   6.860
10580SOL    HW132639   5.451   6.260   6.791
10580SOL    HW232640   5.577   6.230   6.890
10581SOL     OW32641   4.339   0.900   3.018
10581SOL    HW132642   4.433   0.924   3.042
10581SOL    HW232643   4.291   0.981   2.984
10582SOL     OW32644   6.753   3.050   6.850
10582SOL    HW132645   6.814   3.097   6.915
10582SOL    HW232646   6.756   3.098   6.762
10583SOL     OW32647   4.599   2.284   5.589
10583SOL    HW132648   4.661   2.212   5.561
10583SOL    HW232649   4.648   2.372   5.591
10584SOL     OW32650   0.181   0.724   3.740
10584SOL    HW132651   0.084   0.740   3.720
10584SOL    HW232652   0.235   0.743   3.659
10585SOL     OW32653   1.522   1.274   5.396
10585SOL    HW132654   1.448   1.239   5.338
10585SOL    HW232655   1.589   1.202   5.412
10586SOL     OW32656   4.609   4.041   5.684
10586SOL    HW132657   4.701   4.004   5.673
10586SOL    HW232658   4.608   4.104   5.761
10587SOL     OW32659   2.102   5.124   5.104
10587SOL    HW132660   2.063   5.159   5.189
10587SOL    HW232661   2.199   5.147   5.099
10588SOL     OW32662   1.491   3.821   4.046
10588SOL    HW132663   1.413   3.858   3.996
10588SOL    HW232664   1.540   3.756   3.988
10589SOL     OW32665   6.409   0.214   3.520
10589SOL    HW132666   6.312   0.200   3.536
10589SOL    HW232667   6.462   0.146   3.572
10590SOL     OW32668   0.843   5.812   2.211
10590SOL    HW132669   0.870   5.904   2.183
10590SOL    HW232670   0.889   5.789   2.297
10591SOL     OW32671   6.628   4.057   2.643
10591SOL    HW132672   6.562   4.126   2.672
10591SOL    HW232673   6.720   4.089   2.662
10592SOL     OW32674   6.956   2.883   4.445
10592SOL    HW132675   7.015   2.807   4.475
10592SOL    HW232676   6.995   2.969   4.476
10593SOL     OW32677   3.505   5.758   3.643
10593SOL    HW132678   3.447   5.745   3.724
10593SOL    HW232679   3.584   5.814   3.668
10594SOL     OW32680   3.390   5.738   3.901
10594SOL    HW132681   3.293   5.752   3.916
10594SOL    HW232682   3.442   5.790   3.969
10595SOL     OW32683   4.839   6.601   1.029
10595SOL    HW132684   4.799   6.559   0.948
10595SOL    HW232685   4.927   6.557   1.049
10596SOL     OW32686   5.365   3.448   0.301
10596SOL    HW132687   5.325   3.373   0.249
10596SOL    HW232688   5.292   3.498   0.349
10597SOL     OW32689   1.756   6.879   5.095
10597SOL    HW132690   1.850   6.848   5.080
10597SOL    HW232691   1.702   6.860   5.014
10598SOL     OW32692   3.544   0.967   0.743
10598SOL    HW132693   3.588   0.953   0.654
10598SOL    HW232694   3.542   1.065   0.764
10599SOL     OW32695   0.761   2.632   0.688
10599SOL    HW132696   0.769   2.559   0.620
10599SOL    HW232697   0.664   2.650   0.706
10600SOL     OW32698   4.266   1.029   1.859
10600SOL    HW132699   4.190   1.047   1.923
10600SOL    HW232700   4.340   0.983   1.908
10601SOL     OW32701   1.846   1.617   4.788
10601SOL    HW132702   1.912   1.632   4.862
10601SOL    HW232703   1.800   1.530   4.802
10602SOL     OW32704   6.492   6.569   1.677
10602SOL    HW132705   6.555   6.515   1.731
10602SOL    HW232706   6.410   6.590   1.731
10603SOL     OW32707   5.893   0.719   3.032
10603SOL    HW132708   5.808   0.676   3.002
10603SOL    HW232709   5.872   0.790   3.099
10604SOL     OW32710   5.311   1.899   5.310
10604SOL    HW132711   5.367   1.844   5.372
10604SOL    HW232712   5.357   1.987   5.294
10605SOL     OW32713   4.014   1.984   1.546
10605SOL    HW132714   3.975   2.073   1.524
10605SOL    HW232715   4.009   1.969   1.645
10606SOL     OW32716   6.373   1.600   0.557
10606SOL    HW132717   6.450   1.538   0.571
10606SOL    HW232718   6.299   1.576   0.620
10607SOL     OW32719   2.711   4.889   1.022
10607SOL    HW132720   2.659   4.922   0.944
10607SOL    HW232721   2.674   4.801   1.053
10608SOL     OW32722   5.514   3.999   2.920
10608SOL    HW132723   5.425   3.958   2.940
10608SOL    HW232724   5.578   3.976   2.994
10609SOL     OW32725   5.890   6.821   6.414
10609SOL    HW132726   5.964   6.756   6.397
10609SOL    HW232727   5.927   6.912   6.429
10610SOL     OW32728   0.654   1.399   2.943
10610SOL    HW132729   0.668   1.442   2.854
10610SOL    HW232730   0.724   1.431   3.007
10611SOL     OW32731   4.314   5.033   5.105
10611SOL    HW132732   4.246   5.085   5.156
10611SOL    HW232733   4.278   4.941   5.085
10612SOL     OW32734   5.985   2.866   3.714
10612SOL    HW132735   5.971   2.960   3.746
10612SOL    HW232736   5.965   2.860   3.617
10613SOL     OW32737   4.970   5.645   5.002
10613SOL    HW132738   4.889   5.673   4.950
10613SOL    HW232739   4.948   5.564   5.057
10614SOL     OW32740   4.057   2.417   6.647
10614SOL    HW132741   4.069   2.508   6.688
10614SOL    HW232742   4.146   2.375   6.631
10615SOL     OW32743   2.678   2.422   4.951
10615SOL    HW132744   2.628   2.488   5.007
10615SOL    HW232745   2.647   2.429   4.856
10616SOL     OW32746   1.370   5.967   0.233
10616SOL    HW132747   1.321   5.898   0.286
10616SOL    HW232748   1.465   5.971   0.265
10617SOL     OW32749   1.367   2.912   0.717
10617SOL    HW132750   1.435   2.983   0.699
10617SOL    HW232751   1.350   2.860   0.633
10618SOL     OW32752   0.402   5.014   4.414
10618SOL    HW132753   0.401   4.943   4.344
10618SOL    HW232754   0.452   5.093   4.381
10619SOL     OW32755   1.239   3.140   0.886
10619SOL    HW132756   1.261   3.076   0.812
10619SOL    HW232757   1.323   3.169   0.931
10620SOL     OW32758   3.533   0.805   5.582
10620SOL    HW132759   3.593   0.871   5.537
10620SOL    HW232760   3.537   0.818   5.681
10621SOL     OW32761   0.631   3.659   4.086
10621SOL    HW132762   0.679   3.613   4.161
10621SOL    HW232763   0.624   3.596   4.009
10622SOL     OW32764   4.126   2.278   6.087
10622SOL    HW132765   4.174   2.202   6.043
10622SOL    HW232766   4.027   2.264   6.079
10623SOL     OW32767   5.527   5.291   5.534
10623SOL    HW132768   5.497   5.387   5.535
10623SOL    HW232769   5.623   5.287   5.509
10624SOL     OW32770   0.210   1.938   6.476
10624SOL    HW132771   0.153   2.017   6.501
10624SOL    HW232772   0.235   1.889   6.559
10625SOL     OW32773   5.960   5.668   0.200
10625SOL    HW132774   5.865   5.687   0.223
10625SOL    HW232775   6.019   5.738   0.240
10626SOL     OW32776   5.691   3.336   2.451
10626SOL    HW132777   5.607   3.383   2.423
10626SOL    HW232778   5.731   3.384   2.529
10627SOL     OW32779   5.950   4.830   5.385
10627SOL    HW132780   5.950   4.751   5.323
10627SOL    HW232781   5.953   4.798   5.480
10628SOL     OW32782   2.657   5.853   0.900
10628SOL    HW132783   2.570   5.837   0.948
10628SOL    HW232784   2.638   5.895   0.811
10629SOL     OW32785   4.471   4.853   4.114
10629SOL    HW132786   4.524   4.824   4.194
10629SOL    HW232787   4.425   4.773   4.075
10630SOL     OW32788   3.889   0.663   1.434
10630SOL    HW132789   3.980   0.622   1.441
10630SOL    HW232790   3.897   0.762   1.425
10631SOL     OW32791   3.405   5.776   1.903
10631SOL    HW132792   3.475   5.705   1.917
10631SOL    HW232793   3.340   5.745   1.834
10632SOL     OW32794   5.632   6.944   4.251
10632SOL    HW132795   5.619   6.863   4.308
10632SOL    HW232796   5.688   6.920   4.172
10633SOL     OW32797   2.274   2.803   0.197
10633SOL    HW132798   2.342   2.873   0.216
10633SOL    HW232799   2.297   2.755   0.113
10634SOL     OW32800   1.284   4.683   0.119
10634SOL    HW132801   1.320   4.770   0.151
10634SOL    HW232802   1.350   4.610   0.139
10635SOL     OW32803   3.325   5.106   6.388
10635SOL    HW132804   3.334   5.086   6.485
10635SOL    HW232805   3.365   5.031   6.335
10636SOL     OW32806   6.342   3.038   0.546
10636SOL    HW132807   6.344   3.087   0.633
10636SOL    HW232808   6.405   2.960   0.550
10637SOL     OW32809   2.858   1.032   6.070
10637SOL    HW132810   2.880   1.091   5.993
10637SOL    HW232811   2.770   1.060   6.109
10638SOL     OW32812   5.002   5.151   0.357
10638SOL    HW132813   4.975   5.075   0.416
10638SOL    HW232814   4.925   5.178   0.300
10639SOL     OW32815   6.100   4.951   0.178
10639SOL    HW132816   6.043   4.963   0.260
10639SOL    HW232817   6.154   4.867   0.187
10640SOL     OW32818   3.842   6.170   4.112
10640SOL    HW132819   3.821   6.078   4.080
10640SOL    HW232820   3.888   6.221   4.038
10641SOL     OW32821   1.267   1.410   3.327
10641SOL    HW132822   1.194   1.346   3.304
10641SOL    HW232823   1.282   1.472   3.249
10642SOL     OW32824   0.260   2.143   6.216
10642SOL    HW132825   0.265   2.194   6.302
10642SOL    HW232826   0.200   2.064   6.228
10643SOL     OW32827   3.045   5.299   5.701
10643SOL    HW132828   2.994   5.290   5.787
10643SOL    HW232829   3.131   5.348   5.719
10644SOL     OW32830   0.090   3.537   2.998
10644SOL    HW132831   0.081   3.439   3.017
10644SOL    HW232832   0.022   3.563   2.929
10645SOL     OW32833   2.336   2.832   3.188
10645SOL    HW132834   2.293   2.884   3.262
10645SOL    HW232835   2.299   2.862   3.100
10646SOL     OW32836   4.789   0.508   3.448
10646SOL    HW132837   4.725   0.444   3.405
10646SOL    HW232838   4.761   0.602   3.428
10647SOL     OW32839   3.853   5.382   4.905
10647SOL    HW132840   3.883   5.414   4.815
10647SOL    HW232841   3.786   5.309   4.894
10648SOL     OW32842   4.725   4.124   5.359
10648SOL    HW132843   4.741   4.182   5.439
10648SOL    HW232844   4.630   4.132   5.330
10649SOL     OW32845   6.211   3.413   3.511
10649SOL    HW132846   6.251   3.490   3.561
10649SOL    HW232847   6.237   3.327   3.556
10650SOL     OW32848   0.452   6.643   2.647
10650SOL    HW132849   0.487   6.730   2.681
10650SOL    HW232850   0.363   6.658   2.604
10651SOL     OW32851   2.267   6.350   6.121
10651SOL    HW132852   2.185   6.404   6.103
10651SOL    HW232853   2.269   6.271   6.059
10652SOL     OW32854   2.398   0.602   6.970
10652SOL    HW132855   2.404   0.663   0.026
10652SOL    HW232856   2.317   0.545   6.978
10653SOL     OW32857   5.373   6.260   4.721
10653SOL    HW132858   5.280   6.267   4.757
10653SOL    HW232859   5.371   6.281   4.623
10654SOL     OW32860   6.679   1.461   3.861
10654SOL    HW132861   6.606   1.397   3.887
10654SOL    HW232862   6.767   1.426   3.894
10655SOL     OW32863   6.884   5.001   0.749
10655SOL    HW132864   6.794   4.984   0.787
10655SOL    HW232865   6.878   5.004   0.649
10656SOL     OW32866   6.029   1.621   5.715
10656SOL    HW132867   5.997   1.628   5.621
10656SOL    HW232868   5.969   1.560   5.766
10657SOL     OW32869   4.715   6.770   5.494
10657SOL    HW132870   4.756   6.860   5.508
10657SOL    HW232871   4.766   6.722   5.423
10658SOL     OW32872   0.559   1.673   5.884
10658SOL    HW132873   0.563   1.718   5.794
10658SOL    HW232874   0.470   1.692   5.926
10659SOL     OW32875   6.719   5.575   0.181
10659SOL    HW132876   6.759   5.483   0.178
10659SOL    HW232877   6.689   5.595   0.274
10660SOL     OW32878   5.763   2.973   6.713
10660SOL    HW132879   5.834   2.916   6.754
10660SOL    HW232880   5.712   2.919   6.645
10661SOL     OW32881   3.558   5.616   5.772
10661SOL    HW132882   3.534   5.706   5.734
10661SOL    HW232883   3.533   5.613   5.869
10662SOL     OW32884   3.226   1.271   1.007
10662SOL    HW132885   3.220   1.275   1.106
10662SOL    HW232886   3.160   1.204   0.972
10663SOL     OW32887   0.178   3.354   3.758
10663SOL    HW132888   0.141   3.368   3.666
10663SOL    HW232889   0.263   3.300   3.752
10664SOL     OW32890   1.188   6.200   4.730
10664SOL    HW132891   1.149   6.264   4.796
10664SOL    HW232892   1.232   6.124   4.778
10665SOL     OW32893   3.436   3.669   0.332
10665SOL    HW132894   3.407   3.628   0.419
10665SOL    HW232895   3.512   3.732   0.349
10666SOL     OW32896   4.125   3.938   1.218
10666SOL    HW132897   4.088   3.980   1.300
10666SOL    HW232898   4.117   4.002   1.141
10667SOL     OW32899   5.659   2.577   4.226
10667SOL    HW132900   5.692   2.604   4.316
10667SOL    HW232901   5.606   2.652   4.185
10668SOL     OW32902   3.510   3.326   6.154
10668SOL    HW132903   3.463   3.409   6.125
10668SOL    HW232904   3.454   3.246   6.133
10669SOL     OW32905   6.194   2.007   1.528
10669SOL    HW132906   6.193   2.026   1.626
10669SOL    HW232907   6.193   1.908   1.514
10670SOL     OW32908   4.549   4.449   3.669
10670SOL    HW132909   4.478   4.519   3.678
10670SOL    HW232910   4.570   4.412   3.759
10671SOL     OW32911   1.942   2.960   4.740
10671SOL    HW132912   1.959   2.927   4.647
10671SOL    HW232913   2.016   3.022   4.766
10672SOL     OW32914   6.351   4.085   1.733
10672SOL    HW132915   6.377   4.023   1.807
10672SOL    HW232916   6.433   4.113   1.682
10673SOL     OW32917   3.079   1.322   1.266
10673SOL    HW132918   2.998   1.277   1.231
10673SOL    HW232919   3.073   1.421   1.248
10674SOL     OW32920   3.796   3.513   4.360
10674SOL    HW132921   3.744   3.558   4.432
10674SOL    HW232922   3.862   3.578   4.321
10675SOL     OW32923   3.551   6.408   5.612
10675SOL    HW132924   3.619   6.365   5.672
10675SOL    HW232925   3.572   6.506   5.603
10676SOL     OW32926   1.717   0.792   5.322
10676SOL    HW132927   1.771   0.737   5.384
10676SOL    HW232928   1.762   0.796   5.232
10677SOL     OW32929   0.458   2.319   6.903
10677SOL    HW132930   0.472   2.391   6.971
10677SOL    HW232931   0.399   2.353   6.830
10678SOL     OW32932   3.946   5.181   2.433
10678SOL    HW132933   3.903   5.135   2.511
10678SOL    HW232934   3.959   5.278   2.454
10679SOL     OW32935   4.682   3.726   0.359
10679SOL    HW132936   4.749   3.691   0.424
10679SOL    HW232937   4.622   3.791   0.404
10680SOL     OW32938   4.323   1.037   5.805
10680SOL    HW132939   4.354   0.943   5.819
10680SOL    HW232940   4.242   1.054   5.862
10681SOL     OW32941   2.509   3.147   5.462
10681SOL    HW132942   2.562   3.231   5.457
10681SOL    HW232943   2.520   3.095   5.377
10682SOL     OW32944   4.829   3.625   6.314
10682SOL    HW132945   4.870   3.621   6.405
10682SOL    HW232946   4.813   3.720   6.288
10683SOL     OW32947   2.541   0.580   3.071
10683SOL    HW132948   2.494   0.607   2.987
10683SOL    HW232949   2.610   0.511   3.050
10684SOL     OW32950   4.754   4.672   1.795
10684SOL    HW132951   4.688   4.747   1.782
10684SOL    HW232952   4.803   4.686   1.881
10685SOL     OW32953   1.027   6.691   2.353
10685SOL    HW132954   1.094   6.636   2.402
10685SOL    HW232955   1.062   6.712   2.261
10686SOL     OW32956   2.628   1.167   7.008
10686SOL    HW132957   2.609   1.208   6.918
10686SOL    HW232958   2.681   1.083   6.995
10687SOL     OW32959   1.060   3.418   3.630
10687SOL    HW132960   0.999   3.405   3.707
10687SOL    HW232961   1.061   3.514   3.603
10688SOL     OW32962   4.957   1.135   3.691
10688SOL    HW132963   5.011   1.071   3.636
10688SOL    HW232964   4.955   1.224   3.645
10689SOL     OW32965   0.979   1.255   2.587
10689SOL    HW132966   0.989   1.293   2.679
10689SOL    HW232967   0.899   1.195   2.585
10690SOL     OW32968   1.094   6.593   4.480
10690SOL    HW132969   1.147   6.663   4.432
10690SOL    HW232970   1.050   6.533   4.413
10691SOL     OW32971   3.195   6.293   1.448
10691SOL    HW132972   3.232   6.208   1.486
10691SOL    HW232973   3.185   6.360   1.522
10692SOL     OW32974   2.892   1.583   4.184
10692SOL    HW132975   2.901   1.664   4.126
10692SOL    HW232976   2.795   1.568   4.205
10693SOL     OW32977   1.290   5.276   0.490
10693SOL    HW132978   1.191   5.284   0.494
10693SOL    HW232979   1.321   5.285   0.395
10694SOL     OW32980   4.404   0.276   5.483
10694SOL    HW132981   4.373   0.204   5.546
10694SOL    HW232982   4.487   0.318   5.520
10695SOL     OW32983   5.090   4.368   1.923
10695SOL    HW132984   5.188   4.384   1.936
10695SOL    HW232985   5.038   4.439   1.970
10696SOL     OW32986   6.336   4.401   4.101
10696SOL    HW132987   6.237   4.390   4.106
10696SOL    HW232988   6.358   4.497   4.086
10697SOL     OW32989   3.028   5.464   5.464
10697SOL    HW132990   3.027   5.409   5.547
10697SOL    HW232991   2.940   5.509   5.452
10698SOL     OW32992   3.671   3.805   0.197
10698SOL    HW132993   3.725   3.721   0.200
10698SOL    HW232994   3.643   3.823   0.102
10699SOL     OW32995   3.657   3.248   0.787
10699SOL    HW132996   3.708   3.242   0.700
10699SOL    HW232997   3.571   3.297   0.772
10700SOL     OW32998   4.897   0.508   1.314
10700SOL    HW132999   4.970   0.474   1.255
10700SOL    HW233000   4.810   0.468   1.285
10701SOL     OW33001   3.294   6.436   6.356
10701SOL    HW133002   3.203   6.478   6.361
10701SOL    HW233003   3.355   6.496   6.304
10702SOL     OW33004   5.826   1.601   1.789
10702SOL    HW133005   5.771   1.607   1.873
10702SOL    HW233006   5.859   1.507   1.777
10703SOL     OW33007   0.515   1.938   5.260
10703SOL    HW133008   0.526   1.979   5.169
10703SOL    HW233009   0.582   1.865   5.271
10704SOL     OW33010   5.310   6.644   2.221
10704SOL    HW133011   5.373   6.600   2.157
10704SOL    HW233012   5.235   6.686   2.170
10705SOL     OW33013   4.723   3.038   0.479
10705SOL    HW133014   4.723   2.938   0.478
10705SOL    HW233015   4.691   3.072   0.390
10706SOL     OW33016   3.666   0.862   1.561
10706SOL    HW133017   3.747   0.897   1.514
10706SOL    HW233018   3.690   0.777   1.608
10707SOL     OW33019   4.818   6.524   3.629
10707SOL    HW133020   4.775   6.531   3.539
10707SOL    HW233021   4.800   6.434   3.667
10708SOL     OW33022   4.341   0.710   2.190
10708SOL    HW133023   4.266   0.689   2.127
10708SOL    HW233024   4.322   0.669   2.279
10709SOL     OW33025   6.211   4.571   3.235
10709SOL    HW133026   6.243   4.513   3.310
10709SOL    HW233027   6.169   4.515   3.165
10710SOL     OW33028   4.716   1.793   3.986
10710SOL    HW133029   4.701   1.711   4.041
10710SOL    HW233030   4.696   1.874   4.040
10711SOL     OW33031   3.098   0.003   2.721
10711SOL    HW133032   3.173   6.983   2.771
10711SOL    HW233033   3.131   0.034   2.631
10712SOL     OW33034   5.395   0.309   3.679
10712SOL    HW133035   5.309   0.284   3.724
10712SOL    HW233036   5.461   0.342   3.747
10713SOL     OW33037   1.888   3.885   1.684
10713SOL    HW133038   1.848   3.953   1.746
10713SOL    HW233039   1.877   3.915   1.590
10714SOL     OW33040   2.932   3.699   4.813
10714SOL    HW133041   2.854   3.687   4.875
10714SOL    HW233042   2.930   3.629   4.742
10715SOL     OW33043   5.814   0.741   1.690
10715SOL    HW133044   5.738   0.694   1.735
10715SOL    HW233045   5.897   0.728   1.743
10716SOL     OW33046   5.004   0.815   3.135
10716SOL    HW133047   5.055   0.739   3.096
10716SOL    HW233048   5.027   0.899   3.087
10717SOL     OW33049   1.982   3.141   6.535
10717SOL    HW133050   1.975   3.132   6.435
10717SOL    HW233051   1.893   3.166   6.572
10718SOL     OW33052   1.734   5.165   5.911
10718SOL    HW133053   1.730   5.256   5.869
10718SOL    HW233054   1.779   5.173   6.001
10719SOL     OW33055   0.382   5.824   4.554
10719SOL    HW133056   0.459   5.826   4.617
10719SOL    HW233057   0.315   5.757   4.585
10720SOL     OW33058   0.251   4.652   3.304
10720SOL    HW133059   0.167   4.598   3.310
10720SOL    HW233060   0.325   4.604   3.350
10721SOL     OW33061   5.125   3.584   5.993
10721SOL    HW133062   5.066   3.543   6.062
10721SOL    HW233063   5.168   3.666   6.030
10722SOL     OW33064   6.854   3.633   5.544
10722SOL    HW133065   6.762   3.625   5.507
10722SOL    HW233066   6.890   3.543   5.567
10723SOL     OW33067   5.569   6.610   1.052
10723SOL    HW133068   5.639   6.622   1.121
10723SOL    HW233069   5.609   6.567   0.971
10724SOL     OW33070   7.021   6.348   6.470
10724SOL    HW133071   0.086   6.318   6.506
10724SOL    HW233072   7.012   6.447   6.485
10725SOL     OW33073   2.019   6.033   5.753
10725SOL    HW133074   2.049   5.940   5.774
10725SOL    HW233075   2.015   6.045   5.654
10726SOL     OW33076   4.611   1.018   4.545
10726SOL    HW133077   4.705   1.047   4.524
10726SOL    HW233078   4.565   1.090   4.596
10727SOL     OW33079   2.087   6.658   6.332
10727SOL    HW133080   2.083   6.682   6.235
10727SOL    HW233081   2.014   6.592   6.353
10728SOL     OW33082   5.225   5.775   0.681
10728SOL    HW133083   5.130   5.805   0.690
10728SOL    HW233084   5.227   5.684   0.640
10729SOL     OW33085   6.496   2.446   1.341
10729SOL    HW133086   6.433   2.524   1.336
10729SOL    HW233087   6.582   2.470   1.297
10730SOL     OW33088   4.527   0.145   2.645
10730SOL    HW133089   4.501   0.232   2.604
10730SOL    HW233090   4.624   0.145   2.668
10731SOL     OW33091   4.738   0.027   1.157
10731SOL    HW133092   4.751   0.030   1.256
10731SOL    HW233093   4.699   6.962   1.132
10732SOL     OW33094   0.668   3.851   6.044
10732SOL    HW133095   0.723   3.807   6.115
10732SOL    HW233096   0.723   3.923   5.999
10733SOL     OW33097   6.304   1.807   0.350
10733SOL    HW133098   6.319   1.895   0.395
10733SOL    HW233099   6.333   1.733   0.410
10734SOL     OW33100   6.663   3.024   1.852
10734SOL    HW133101   6.705   2.945   1.807
10734SOL    HW233102   6.726   3.102   1.848
10735SOL     OW33103   0.286   4.933   2.956
10735SOL    HW133104   0.199   4.925   3.005
10735SOL    HW233105   0.286   5.016   2.901
10736SOL     OW33106   2.395   0.735   4.036
10736SOL    HW133107   2.304   0.774   4.024
10736SOL    HW233108   2.393   0.637   4.012
10737SOL     OW33109   6.942   2.450   1.273
10737SOL    HW133110   6.859   2.442   1.217
10737SOL    HW233111   6.975   2.544   1.271
10738SOL     OW33112   4.271   6.717   3.727
10738SOL    HW133113   4.279   6.812   3.757
10738SOL    HW233114   4.339   6.699   3.655
10739SOL     OW33115   2.700   1.856   2.052
10739SOL    HW133116   2.731   1.764   2.026
10739SOL    HW233117   2.680   1.858   2.150
10740SOL     OW33118   4.474   5.236   3.228
10740SOL    HW133119   4.496   5.326   3.190
10740SOL    HW233120   4.472   5.169   3.154
10741SOL     OW33121   3.795   0.800   2.975
10741SOL    HW133122   3.769   0.770   2.883
10741SOL    HW233123   3.884   0.761   2.998
10742SOL     OW33124   6.792   5.462   0.466
10742SOL    HW133125   6.772   5.550   0.507
10742SOL    HW233126   6.771   5.389   0.531
10743SOL     OW33127   2.496   2.583   5.111
10743SOL    HW133128   2.559   2.630   5.174
10743SOL    HW233129   2.422   2.645   5.086
10744SOL     OW33130   4.976   1.624   0.408
10744SOL    HW133131   4.910   1.606   0.334
10744SOL    HW233132   5.051   1.680   0.373
10745SOL     OW33133   6.811   5.608   6.057
10745SOL    HW133134   6.840   5.673   6.127
10745SOL    HW233135   6.715   5.582   6.073
10746SOL     OW33136   0.845   4.368   6.253
10746SOL    HW133137   0.903   4.432   6.302
10746SOL    HW233138   0.873   4.274   6.275
10747SOL     OW33139   3.189   2.191   4.537
10747SOL    HW133140   3.213   2.287   4.551
10747SOL    HW233141   3.211   2.139   4.619
10748SOL     OW33142   4.915   1.527   2.156
10748SOL    HW133143   4.851   1.544   2.081
10748SOL    HW233144   4.977   1.453   2.131
10749SOL     OW33145   2.575   0.498   6.368
10749SOL    HW133146   2.600   0.539   6.456
10749SOL    HW233147   2.641   0.428   6.343
10750SOL     OW33148   3.781   7.003   6.505
10750SOL    HW133149   3.772   0.056   6.569
10750SOL    HW233150   3.867   7.012   6.455
10751SOL     OW33151   1.966   5.329   3.804
10751SOL    HW133152   1.935   5.242   3.766
10751SOL    HW233153   1.896   5.366   3.865
10752SOL     OW33154   5.012   4.809   3.739
10752SOL    HW133155   4.931   4.766   3.778
10752SOL    HW233156   5.028   4.897   3.784
10753SOL     OW33157   6.719   3.288   4.511
10753SOL    HW133158   6.770   3.312   4.594
10753SOL    HW233159   6.778   3.234   4.451
10754SOL     OW33160   1.563   0.529   2.407
10754SOL    HW133161   1.592   0.536   2.312
10754SOL    HW233162   1.643   0.533   2.467
10755SOL     OW33163   5.891   5.514   2.162
10755SOL    HW133164   5.944   5.445   2.211
10755SOL    HW233165   5.793   5.495   2.173
10756SOL     OW33166   0.576   6.934   5.049
10756SOL    HW133167   0.484   6.949   5.086
10756SOL    HW233168   0.631   7.016   5.063
10757SOL     OW33169   2.597   3.481   1.133
10757SOL    HW133170   2.516   3.443   1.088
10757SOL    HW233171   2.679   3.437   1.099
10758SOL     OW33172   0.491   5.245   4.290
10758SOL    HW133173   0.480   5.247   4.191
10758SOL    HW233174   0.566   5.304   4.317
10759SOL     OW33175   6.976   1.992   6.679
10759SOL    HW133176   6.894   1.940   6.702
10759SOL    HW233177   6.950   2.078   6.636
10760SOL     OW33178   5.555   1.112   4.588
10760SOL    HW133179   5.550   1.160   4.500
10760SOL    HW233180   5.477   1.140   4.645
10761SOL     OW33181   2.577   4.911   5.753
10761SOL    HW133182   2.555   4.897   5.656
10761SOL    HW233183   2.665   4.868   5.773
10762SOL     OW33184   3.381   1.164   4.998
10762SOL    HW133185   3.325   1.124   4.925
10762SOL    HW233186   3.452   1.099   5.025
10763SOL     OW33187   4.068   6.609   3.860
10763SOL    HW133188   4.111   6.521   3.879
10763SOL    HW233189   4.129   6.664   3.803
10764SOL     OW33190   4.786   0.083   4.771
10764SOL    HW133191   4.735   0.081   4.856
10764SOL    HW233192   4.856   0.155   4.776
10765SOL     OW33193   5.493   3.555   0.553
10765SOL    HW133194   5.515   3.506   0.469
10765SOL    HW233195   5.561   3.627   0.568
10766SOL     OW33196   3.976   3.433   1.405
10766SOL    HW133197   3.992   3.481   1.319
10766SOL    HW233198   3.878   3.419   1.418
10767SOL     OW33199   4.633   1.600   2.505
10767SOL    HW133200   4.559   1.666   2.515
10767SOL    HW233201   4.714   1.646   2.467
10768SOL     OW33202   5.799   4.725   0.284
10768SOL    HW133203   5.790   4.657   0.211
10768SOL    HW233204   5.714   4.729   0.336
10769SOL     OW33205   1.763   4.241   5.382
10769SOL    HW133206   1.793   4.154   5.343
10769SOL    HW233207   1.840   4.304   5.385
10770SOL     OW33208   3.719   5.908   3.710
10770SOL    HW133209   3.758   5.970   3.778
10770SOL    HW233210   3.791   5.875   3.649
10771SOL     OW33211   1.925   1.694   3.933
10771SOL    HW133212   1.869   1.776   3.944
10771SOL    HW233213   1.934   1.648   4.021
10772SOL     OW33214   5.349   5.342   3.711
10772SOL    HW133215   5.313   5.428   3.747
10772SOL    HW233216   5.400   5.359   3.627
10773SOL     OW33217   5.770   4.390   3.615
10773SOL    HW133218   5.738   4.303   3.577
10773SOL    HW233219   5.697   4.433   3.668
10774SOL     OW33220   0.813   0.446   2.898
10774SOL    HW133221   0.868   0.418   2.820
10774SOL    HW233222   0.724   0.401   2.894
10775SOL     OW33223   0.420   3.440   1.880
10775SOL    HW133224   0.484   3.367   1.902
10775SOL    HW233225   0.338   3.431   1.937
10776SOL     OW33226   1.469   0.437   6.280
10776SOL    HW133227   1.494   0.378   6.357
10776SOL    HW233228   1.510   0.528   6.294
10777SOL     OW33229   2.428   5.561   0.913
10777SOL    HW133230   2.480   5.552   0.828
10777SOL    HW233231   2.446   5.651   0.954
10778SOL     OW33232   5.966   5.394   2.529
10778SOL    HW133233   5.868   5.407   2.546
10778SOL    HW233234   5.996   5.308   2.570
10779SOL     OW33235   5.089   2.657   3.884
10779SOL    HW133236   5.035   2.721   3.829
10779SOL    HW233237   5.186   2.666   3.861
10780SOL     OW33238   6.309   0.269   2.598
10780SOL    HW133239   6.301   0.354   2.546
10780SOL    HW233240   6.375   0.282   2.672
10781SOL     OW33241   3.453   0.176   4.183
10781SOL    HW133242   3.490   0.192   4.274
10781SOL    HW233243   3.498   0.097   4.142
10782SOL     OW33244   6.140   5.489   4.136
10782SOL    HW133245   6.201   5.428   4.187
10782SOL    HW233246   6.112   5.445   4.051
10783SOL     OW33247   6.944   1.841   3.435
10783SOL    HW133248   6.963   1.827   3.532
10783SOL    HW233249   6.891   1.925   3.423
10784SOL     OW33250   3.048   1.553   4.605
10784SOL    HW133251   3.138   1.547   4.648
10784SOL    HW233252   3.010   1.461   4.595
10785SOL     OW33253   1.055   3.811   6.436
10785SOL    HW133254   1.094   3.881   6.376
10785SOL    HW233255   1.084   3.720   6.405
10786SOL     OW33256   0.673   4.733   3.381
10786SOL    HW133257   0.663   4.642   3.341
10786SOL    HW233258   0.588   4.757   3.430
10787SOL     OW33259   1.484   1.813   6.601
10787SOL    HW133260   1.453   1.871   6.526
10787SOL    HW233261   1.459   1.856   6.688
10788SOL     OW33262   5.885   3.711   5.969
10788SOL    HW133263   5.825   3.734   6.046
10788SOL    HW233264   5.980   3.731   5.994
10789SOL     OW33265   6.010   1.785   0.693
10789SOL    HW133266   5.928   1.747   0.737
10789SOL    HW233267   6.080   1.714   0.686
10790SOL     OW33268   0.052   5.965   2.893
10790SOL    HW133269   0.136   5.934   2.848
10790SOL    HW233270   0.069   6.054   2.935
10791SOL     OW33271   0.522   6.491   2.865
10791SOL    HW133272   0.478   6.542   2.790
10791SOL    HW233273   0.599   6.544   2.901
10792SOL     OW33274   3.972   4.152   5.299
10792SOL    HW133275   3.922   4.165   5.213
10792SOL    HW233276   4.024   4.067   5.295
10793SOL     OW33277   5.945   3.683   4.705
10793SOL    HW133278   5.890   3.625   4.765
10793SOL    HW233279   5.970   3.631   4.623
10794SOL     OW33280   3.295   4.024   3.494
10794SOL    HW133281   3.379   4.046   3.543
10794SOL    HW233282   3.234   3.973   3.555
10795SOL     OW33283   0.008   4.507   3.287
10795SOL    HW133284   6.971   4.475   3.215
10795SOL    HW233285   6.979   4.523   3.370
10796SOL     OW33286   1.120   6.164   5.256
10796SOL    HW133287   1.182   6.242   5.248
10796SOL    HW233288   1.038   6.181   5.201
10797SOL     OW33289   3.673   2.265   0.102
10797SOL    HW133290   3.594   2.226   0.150
10797SOL    HW233291   3.641   2.316   0.022
10798SOL     OW33292   6.895   1.331   1.272
10798SOL    HW133293   6.891   1.278   1.188
10798SOL    HW233294   6.802   1.355   1.301
10799SOL     OW33295   4.565   2.135   1.506
10799SOL    HW133296   4.566   2.230   1.536
10799SOL    HW233297   4.606   2.077   1.576
10800SOL     OW33298   0.600   0.262   1.682
10800SOL    HW133299   0.594   0.245   1.583
10800SOL    HW233300   0.604   0.175   1.730
10801SOL     OW33301   1.551   0.474   1.124
10801SOL    HW133302   1.589   0.497   1.213
10801SOL    HW233303   1.608   0.515   1.052
10802SOL     OW33304   6.515   1.294   3.393
10802SOL    HW133305   6.449   1.278   3.319
10802SOL    HW233306   6.467   1.294   3.480
10803SOL     OW33307   1.772   5.753   6.104
10803SOL    HW133308   1.813   5.783   6.190
10803SOL    HW233309   1.818   5.671   6.071
10804SOL     OW33310   0.328   2.953   4.404
10804SOL    HW133311   0.426   2.945   4.424
10804SOL    HW233312   0.315   2.975   4.308
10805SOL     OW33313   6.551   1.279   6.361
10805SOL    HW133314   6.552   1.199   6.420
10805SOL    HW233315   6.461   1.323   6.365
10806SOL     OW33316   1.772   5.263   0.004
10806SOL    HW133317   1.819   5.327   6.967
10806SOL    HW233318   1.797   5.169   7.003
10807SOL     OW33319   2.642   5.925   5.200
10807SOL    HW133320   2.608   5.835   5.227
10807SOL    HW233321   2.737   5.936   5.230
10808SOL     OW33322   0.862   3.450   6.343
10808SOL    HW133323   0.868   3.351   6.330
10808SOL    HW233324   0.929   3.495   6.285
10809SOL     OW33325   2.004   0.364   4.704
10809SOL    HW133326   1.942   0.286   4.694
10809SOL    HW233327   2.097   0.331   4.719
10810SOL     OW33328   6.778   0.142   3.928
10810SOL    HW133329   6.763   0.193   3.843
10810SOL    HW233330   6.690   0.127   3.974
10811SOL     OW33331   5.322   5.080   4.406
10811SOL    HW133332   5.299   5.091   4.503
10811SOL    HW233333   5.262   5.011   4.365
10812SOL     OW33334   6.072   2.878   0.291
10812SOL    HW133335   6.031   2.795   0.329
10812SOL    HW233336   6.075   2.949   0.362
10813SOL     OW33337   0.355   3.542   6.039
10813SOL    HW133338   0.342   3.620   6.100
10813SOL    HW233339   0.367   3.459   6.093
10814SOL     OW33340   3.318   1.263   1.374
10814SOL    HW133341   3.232   1.272   1.323
10814SOL    HW233342   3.375   1.343   1.358
10815SOL     OW33343   5.549   0.834   4.601
10815SOL    HW133344   5.534   0.928   4.631
10815SOL    HW233345   5.557   0.831   4.502
10816SOL     OW33346   4.040   3.130   4.801
10816SOL    HW133347   4.097   3.048   4.793
10816SOL    HW233348   4.069   3.183   4.881
10817SOL     OW33349   1.615   6.087   3.634
10817SOL    HW133350   1.613   6.112   3.731
10817SOL    HW233351   1.651   6.164   3.581
10818SOL     OW33352   3.937   4.441   6.899
10818SOL    HW133353   3.846   4.399   6.893
10818SOL    HW233354   3.927   4.540   6.913
10819SOL     OW33355   6.244   6.447   5.349
10819SOL    HW133356   6.230   6.546   5.346
10819SOL    HW233357   6.166   6.401   5.306
10820SOL     OW33358   2.670   4.391   6.100
10820SOL    HW133359   2.668   4.386   6.200
10820SOL    HW233360   2.762   4.417   6.070
10821SOL     OW33361   5.020   5.390   2.834
10821SOL    HW133362   5.035   5.489   2.836
10821SOL    HW233363   5.069   5.350   2.757
10822SOL     OW33364   5.559   1.177   1.695
10822SOL    HW133365   5.490   1.148   1.762
10822SOL    HW233366   5.576   1.275   1.705
10823SOL     OW33367   5.753   6.570   1.296
10823SOL    HW133368   5.712   6.633   1.363
10823SOL    HW233369   5.852   6.563   1.314
10824SOL     OW33370   1.176   3.002   3.798
10824SOL    HW133371   1.166   2.906   3.821
10824SOL    HW233372   1.253   3.041   3.848
10825SOL     OW33373   0.503   2.667   0.484
10825SOL    HW133374   0.448   2.583   0.484
10825SOL    HW233375   0.463   2.733   0.547
10826SOL     OW33376   0.591   3.440   3.012
10826SOL    HW133377   0.634   3.470   2.927
10826SOL    HW233378   0.495   3.470   3.013
10827SOL     OW33379   0.063   4.436   4.732
10827SOL    HW133380   0.008   4.407   4.653
10827SOL    HW233381   0.155   4.398   4.723
10828SOL     OW33382   6.409   4.374   5.156
10828SOL    HW133383   6.394   4.422   5.242
10828SOL    HW233384   6.508   4.364   5.140
10829SOL     OW33385   3.631   3.136   5.102
10829SOL    HW133386   3.703   3.099   5.044
10829SOL    HW233387   3.621   3.078   5.183
10830SOL     OW33388   4.439   2.087   3.315
10830SOL    HW133389   4.489   2.118   3.396
10830SOL    HW233390   4.371   2.156   3.289
10831SOL     OW33391   4.168   6.721   4.296
10831SOL    HW133392   4.128   6.757   4.211
10831SOL    HW233393   4.147   6.783   4.371
10832SOL     OW33394   6.664   2.750   0.184
10832SOL    HW133395   6.687   2.813   0.110
10832SOL    HW233396   6.575   2.708   0.165
10833SOL     OW33397   0.781   1.430   0.028
10833SOL    HW133398   0.781   1.478   6.964
10833SOL    HW233399   0.765   1.495   0.102
10834SOL     OW33400   5.977   6.263   1.755
10834SOL    HW133401   5.953   6.358   1.733
10834SOL    HW233402   5.900   6.204   1.731
10835SOL     OW33403   0.271   2.157   5.444
10835SOL    HW133404   0.370   2.152   5.458
10835SOL    HW233405   0.248   2.114   5.356
10836SOL     OW33406   0.061   0.986   3.475
10836SOL    HW133407   0.112   0.965   3.392
10836SOL    HW233408   0.061   1.085   3.490
10837SOL     OW33409   0.745   3.333   3.360
10837SOL    HW133410   0.690   3.389   3.422
10837SOL    HW233411   0.685   3.278   3.302
10838SOL     OW33412   0.398   5.925   2.245
10838SOL    HW133413   0.386   5.886   2.154
10838SOL    HW233414   0.316   5.978   2.270
10839SOL     OW33415   4.705   2.741   0.534
10839SOL    HW133416   4.651   2.776   0.457
10839SOL    HW233417   4.644   2.724   0.612
10840SOL     OW33418   2.672   0.310   1.488
10840SOL    HW133419   2.720   0.237   1.537
10840SOL    HW233420   2.660   0.284   1.392
10841SOL     OW33421   2.167   5.351   4.915
10841SOL    HW133422   2.087   5.402   4.885
10841SOL    HW233423   2.155   5.254   4.894
10842SOL     OW33424   5.353   4.510   1.986
10842SOL    HW133425   5.319   4.526   2.078
10842SOL    HW233426   5.417   4.433   1.987
10843SOL     OW33427   3.027   2.177   1.168
10843SOL    HW133428   3.044   2.139   1.259
10843SOL    HW233429   3.026   2.102   1.101
10844SOL     OW33430   1.405   5.287   5.097
10844SOL    HW133431   1.378   5.380   5.071
10844SOL    HW233432   1.442   5.288   5.190
10845SOL     OW33433   3.565   6.949   4.527
10845SOL    HW133434   3.657   6.913   4.540
10845SOL    HW233435   3.557   0.015   4.570
10846SOL     OW33436   5.520   0.192   6.173
10846SOL    HW133437   5.581   0.125   6.213
10846SOL    HW233438   5.432   0.149   6.151
10847SOL     OW33439   3.275   0.801   6.084
10847SOL    HW133440   3.194   0.814   6.142
10847SOL    HW233441   3.257   0.730   6.016
10848SOL     OW33442   1.823   4.786   1.766
10848SOL    HW133443   1.904   4.804   1.820
10848SOL    HW233444   1.812   4.687   1.753
10849SOL     OW33445   2.496   6.749   3.268
10849SOL    HW133446   2.468   6.664   3.313
10849SOL    HW233447   2.539   6.809   3.336
10850SOL     OW33448   4.460   4.453   0.958
10850SOL    HW133449   4.398   4.379   0.985
10850SOL    HW233450   4.503   4.430   0.870
10851SOL     OW33451   1.639   4.772   0.817
10851SOL    HW133452   1.601   4.717   0.743
10851SOL    HW233453   1.667   4.712   0.892
10852SOL     OW33454   2.499   2.246   2.603
10852SOL    HW133455   2.400   2.259   2.597
10852SOL    HW233456   2.541   2.276   2.517
10853SOL     OW33457   3.460   1.366   6.154
10853SOL    HW133458   3.430   1.313   6.233
10853SOL    HW233459   3.456   1.463   6.175
10854SOL     OW33460   2.791   6.339   5.235
10854SOL    HW133461   2.704   6.301   5.268
10854SOL    HW233462   2.803   6.431   5.273
10855SOL     OW33463   3.917   1.709   0.105
10855SOL    HW133464   3.923   1.661   0.018
10855SOL    HW233465   4.003   1.698   0.155
10856SOL     OW33466   0.510   1.215   0.688
10856SOL    HW133467   0.428   1.159   0.692
10856SOL    HW233468   0.487   1.310   0.710
10857SOL     OW33469   6.295   2.982   2.292
10857SOL    HW133470   6.351   3.052   2.337
10857SOL    HW233471   6.297   2.996   2.193
10858SOL     OW33472   2.971   6.316   2.253
10858SOL    HW133473   2.899   6.386   2.254
10858SOL    HW233474   3.026   6.326   2.170
10859SOL     OW33475   1.559   5.558   3.804
10859SOL    HW133476   1.469   5.520   3.824
10859SOL    HW233477   1.589   5.528   3.714
10860SOL     OW33478   0.132   3.783   3.512
10860SOL    HW133479   0.130   3.796   3.413
10860SOL    HW233480   0.044   3.812   3.551
10861SOL     OW33481   3.517   2.977   5.311
10861SOL    HW133482   3.429   2.975   5.263
10861SOL    HW233483   3.507   2.936   5.401
10862SOL     OW33484   1.042   0.466   4.858
10862SOL    HW133485   1.121   0.480   4.918
10862SOL    HW233486   1.074   0.431   4.769
10863SOL     OW33487   2.424   6.524   4.472
10863SOL    HW133488   2.339   6.491   4.514
10863SOL    HW233489   2.409   6.617   4.437
10864SOL     OW33490   3.494   6.202   2.769
10864SOL    HW133491   3.579   6.171   2.728
10864SOL    HW233492   3.416   6.163   2.720
10865SOL     OW33493   6.376   1.804   5.945
10865SOL    HW133494   6.285   1.774   5.972
10865SOL    HW233495   6.445   1.744   5.985
10866SOL     OW33496   4.955   4.950   0.527
10866SOL    HW133497   4.912   4.876   0.477
10866SOL    HW233498   4.974   4.921   0.621
10867SOL     OW33499   3.149   1.428   0.456
10867SOL    HW133500   3.240   1.431   0.497
10867SOL    HW233501   3.156   1.435   0.356
10868SOL     OW33502   2.868   2.181   3.077
10868SOL    HW133503   2.794   2.209   3.139
10868SOL    HW233504   2.956   2.204   3.118
10869NA      NA33505   6.270   2.484   5.315
10870NA      NA33506   4.486   4.562   5.200
10871NA      NA33507   2.178   3.554   1.772
10872NA      NA33508   4.842   3.683   5.273
10873NA      NA33509   4.338   2.496   5.293
10874NA      NA33510   3.552   4.764   1.630
10875NA      NA33511   6.557   6.076   4.568
10876NA      NA33512   3.659   3.551   4.772
10877NA      NA33513   4.646   6.673   6.532
10878NA      NA33514   2.746   0.509   5.005
10879NA      NA33515   0.574   4.997   2.496
10880NA      NA33516   2.951   0.596   2.766
10881NA      NA33517   3.464   4.158   1.407
10882NA      NA33518   3.580   3.071   2.808
   7.02348   7.02348   7.02348
