Generated by trjconv : CNT in water t= 257.00000
33518
    1C        C    1   2.846   2.772   4.751
    1C        C    2   2.902   2.724   4.872
    1C        C    3   2.845   2.767   4.992
    1C        C    4   2.847   2.772   4.266
    1C        C    5   2.905   2.730   4.387
    1C        C    6   2.850   2.776   4.509
    1C        C    7   3.017   2.644   4.629
    1C        C    8   2.900   2.723   4.630
    1C        C    9   3.083   2.610   4.749
    1C        C   10   3.014   2.638   4.869
    1C        C   11   3.185   2.495   4.981
    1C        C   12   3.064   2.566   4.978
    1C        C   13   2.851   2.771   3.776
    1C        C   14   2.902   2.724   3.899
    1C        C   15   2.846   2.770   4.020
    1C        C   16   3.023   2.656   4.142
    1C        C   17   2.903   2.730   4.143
    1C        C   18   3.089   2.626   4.264
    1C        C   19   3.023   2.652   4.386
    1C        C   20   3.214   2.561   4.506
    1C        C   21   3.083   2.613   4.508
    1C        C   22   3.282   2.538   4.627
    1C        C   23   3.213   2.553   4.750
    1C        C   24   3.415   2.480   4.870
    1C        C   25   3.274   2.503   4.869
    1C        C   26   3.493   2.477   4.987
    1C        C   27   2.851   2.769   3.284
    1C        C   28   2.907   2.726   3.407
    1C        C   29   2.857   2.772   3.531
    1C        C   30   3.019   2.640   3.652
    1C        C   31   2.905   2.723   3.654
    1C        C   32   3.082   2.608   3.775
    1C        C   33   3.019   2.645   3.896
    1C        C   34   3.213   2.565   4.019
    1C        C   35   3.081   2.615   4.020
    1C        C   36   3.283   2.548   4.141
    1C        C   37   3.217   2.568   4.264
    1C        C   38   3.423   2.511   4.382
    1C        C   39   3.284   2.540   4.385
    1C        C   40   3.490   2.503   4.506
    1C        C   41   3.419   2.504   4.629
    1C        C   42   3.631   2.476   4.749
    1C        C   43   3.489   2.476   4.749
    1C        C   44   3.708   2.488   4.867
    1C        C   45   3.632   2.482   4.984
    1C        C   46   2.843   2.756   2.797
    1C        C   47   2.899   2.717   2.921
    1C        C   48   2.844   2.766   3.041
    1C        C   49   3.018   2.640   3.160
    1C        C   50   2.902   2.721   3.162
    1C        C   51   3.079   2.606   3.283
    1C        C   52   3.020   2.641   3.407
    1C        C   53   3.212   2.553   3.528
    1C        C   54   3.080   2.605   3.529
    1C        C   55   3.280   2.533   3.650
    1C        C   56   3.214   2.559   3.772
    1C        C   57   3.416   2.509   3.896
    1C        C   58   3.278   2.541   3.896
    1C        C   59   3.489   2.502   4.016
    1C        C   60   3.420   2.513   4.139
    1C        C   61   3.633   2.502   4.262
    1C        C   62   3.492   2.502   4.260
    1C        C   63   3.701   2.509   4.386
    1C        C   64   3.631   2.506   4.509
    1C        C   65   3.837   2.545   4.623
    1C        C   66   3.703   2.501   4.630
    1C        C   67   3.907   2.566   4.744
    1C        C   68   3.844   2.525   4.864
    1C        C   69   4.051   2.587   4.982
    1C        C   70   3.926   2.525   4.977
    1C        C   71   2.820   2.731   2.312
    1C        C   72   2.883   2.695   2.433
    1C        C   73   2.833   2.749   2.553
    1C        C   74   3.011   2.629   2.673
    1C        C   75   2.895   2.710   2.674
    1C        C   76   3.074   2.597   2.795
    1C        C   77   3.015   2.636   2.917
    1C        C   78   3.205   2.541   3.039
    1C        C   79   3.076   2.598   3.039
    1C        C   80   3.274   2.529   3.162
    1C        C   81   3.208   2.549   3.285
    1C        C   82   3.417   2.503   3.405
    1C        C   83   3.278   2.525   3.406
    1C        C   84   3.487   2.506   3.528
    1C        C   85   3.420   2.513   3.653
    1C        C   86   3.631   2.501   3.771
    1C        C   87   3.490   2.502   3.775
    1C        C   88   3.701   2.511   3.893
    1C        C   89   3.630   2.507   4.016
    1C        C   90   3.838   2.547   4.138
    1C        C   91   3.700   2.515   4.138
    1C        C   92   3.905   2.570   4.260
    1C        C   93   3.836   2.549   4.382
    1C        C   94   4.032   2.632   4.501
    1C        C   95   3.907   2.565   4.503
    1C        C   96   4.094   2.671   4.621
    1C        C   97   4.033   2.631   4.743
    1C        C   98   4.193   2.763   4.865
    1C        C   99   4.103   2.652   4.865
    1C        C  100   4.215   2.844   4.978
    1C        C  101   2.829   2.735   2.072
    1C        C  102   2.993   2.597   2.191
    1C        C  103   2.874   2.678   2.191
    1C        C  104   3.067   2.582   2.312
    1C        C  105   3.004   2.623   2.432
    1C        C  106   3.201   2.532   2.553
    1C        C  107   3.073   2.591   2.552
    1C        C  108   3.272   2.515   2.675
    1C        C  109   3.203   2.538   2.796
    1C        C  110   3.413   2.495   2.915
    1C        C  111   3.274   2.523   2.917
    1C        C  112   3.483   2.498   3.038
    1C        C  113   3.414   2.508   3.161
    1C        C  114   3.627   2.504   3.280
    1C        C  115   3.486   2.497   3.282
    1C        C  116   3.695   2.512   3.404
    1C        C  117   3.628   2.500   3.527
    1C        C  118   3.836   2.549   3.648
    1C        C  119   3.700   2.509   3.648
    1C        C  120   3.899   2.578   3.771
    1C        C  121   3.836   2.554   3.895
    1C        C  122   4.029   2.643   4.014
    1C        C  123   3.904   2.578   4.017
    1C        C  124   4.091   2.673   4.138
    1C        C  125   4.032   2.632   4.259
    1C        C  126   4.202   2.761   4.379
    1C        C  127   4.094   2.671   4.380
    1C        C  128   4.247   2.817   4.501
    1C        C  129   4.196   2.769   4.623
    1C        C  130   4.323   2.938   4.741
    1C        C  131   4.244   2.820   4.746
    1C        C  132   4.353   3.005   4.862
    1C        C  133   4.281   2.966   4.975
    1C        C  134   3.178   2.471   2.080
    1C        C  135   3.044   2.512   2.089
    1C        C  136   3.262   2.484   2.192
    1C        C  137   3.197   2.526   2.310
    1C        C  138   3.408   2.492   2.427
    1C        C  139   3.269   2.512   2.431
    1C        C  140   3.481   2.488   2.548
    1C        C  141   3.411   2.493   2.671
    1C        C  142   3.623   2.499   2.793
    1C        C  143   3.482   2.487   2.793
    1C        C  144   3.695   2.510   2.914
    1C        C  145   3.624   2.500   3.036
    1C        C  146   3.834   2.538   3.160
    1C        C  147   3.696   2.505   3.157
    1C        C  148   3.902   2.564   3.281
    1C        C  149   3.833   2.543   3.402
    1C        C  150   4.029   2.626   3.524
    1C        C  151   3.901   2.566   3.524
    1C        C  152   4.091   2.668   3.645
    1C        C  153   4.027   2.639   3.767
    1C        C  154   4.198   2.763   3.890
    1C        C  155   4.086   2.678   3.889
    1C        C  156   4.249   2.811   4.013
    1C        C  157   4.201   2.762   4.136
    1C        C  158   4.342   2.922   4.256
    1C        C  159   4.255   2.810   4.258
    1C        C  160   4.375   2.988   4.377
    1C        C  161   4.330   2.932   4.499
    1C        C  162   4.435   3.119   4.619
    1C        C  163   4.366   2.996   4.620
    1C        C  164   4.463   3.187   4.739
    1C        C  165   4.429   3.124   4.861
    1C        C  166   4.516   3.321   4.974
    1C        C  167   4.485   3.185   4.974
    1C        C  168   3.481   2.450   2.073
    1C        C  169   3.402   2.465   2.188
    1C        C  170   3.620   2.469   2.308
    1C        C  171   3.478   2.468   2.307
    1C        C  172   3.694   2.488   2.426
    1C        C  173   3.622   2.493   2.547
    1C        C  174   3.829   2.541   2.667
    1C        C  175   3.691   2.511   2.669
    1C        C  176   3.895   2.565   2.790
    1C        C  177   3.832   2.544   2.914
    1C        C  178   4.025   2.627   3.033
    1C        C  179   3.900   2.562   3.037
    1C        C  180   4.086   2.664   3.155
    1C        C  181   4.026   2.631   3.279
    1C        C  182   4.201   2.749   3.402
    1C        C  183   4.086   2.667   3.401
    1C        C  184   4.254   2.800   3.522
    1C        C  185   4.203   2.754   3.646
    1C        C  186   4.343   2.916   3.766
    1C        C  187   4.252   2.808   3.767
    1C        C  188   4.378   2.978   3.888
    1C        C  189   4.333   2.924   4.011
    1C        C  190   4.443   3.106   4.128
    1C        C  191   4.377   2.981   4.133
    1C        C  192   4.461   3.174   4.251
    1C        C  193   4.436   3.115   4.377
    1C        C  194   4.505   3.319   4.490
    1C        C  195   4.468   3.182   4.497
    1C        C  196   4.516   3.389   4.613
    1C        C  197   4.506   3.323   4.737
    1C        C  198   4.559   3.536   4.852
    1C        C  199   4.533   3.395   4.856
    1C        C  200   4.588   3.622   4.963
    1C        C  201   3.618   2.421   2.076
    1C        C  202   3.830   2.514   2.186
    1C        C  203   3.696   2.462   2.188
    1C        C  204   3.904   2.541   2.304
    1C        C  205   3.832   2.518   2.424
    1C        C  206   4.024   2.614   2.546
    1C        C  207   3.898   2.551   2.544
    1C        C  208   4.082   2.661   2.666
    1C        C  209   4.019   2.634   2.789
    1C        C  210   4.199   2.747   2.909
    1C        C  211   4.083   2.666   2.911
    1C        C  212   4.250   2.797   3.031
    1C        C  213   4.199   2.750   3.154
    1C        C  214   4.331   2.910   3.274
    1C        C  215   4.250   2.794   3.277
    1C        C  216   4.370   2.973   3.394
    1C        C  217   4.337   2.914   3.519
    1C        C  218   4.437   3.100   3.640
    1C        C  219   4.379   2.971   3.641
    1C        C  220   4.466   3.166   3.761
    1C        C  221   4.446   3.102   3.886
    1C        C  222   4.500   3.310   4.003
    1C        C  223   4.471   3.171   4.006
    1C        C  224   4.509   3.380   4.125
    1C        C  225   4.495   3.311   4.248
    1C        C  226   4.522   3.527   4.367
    1C        C  227   4.513   3.386   4.366
    1C        C  228   4.519   3.600   4.487
    1C        C  229   4.529   3.529   4.610
    1C        C  230   4.507   3.742   4.730
    1C        C  231   4.541   3.604   4.729
    1C        C  232   4.501   3.822   4.847
    1C        C  233   4.551   3.757   4.960
    1C        C  234   4.022   2.608   2.063
    1C        C  235   3.895   2.551   2.068
    1C        C  236   4.087   2.652   2.179
    1C        C  237   4.029   2.610   2.301
    1C        C  238   4.199   2.735   2.421
    1C        C  239   4.087   2.648   2.424
    1C        C  240   4.253   2.783   2.542
    1C        C  241   4.199   2.740   2.665
    1C        C  242   4.340   2.902   2.784
    1C        C  243   4.253   2.791   2.785
    1C        C  244   4.382   2.959   2.906
    1C        C  245   4.342   2.905   3.030
    1C        C  246   4.438   3.094   3.152
    1C        C  247   4.374   2.968   3.152
    1C        C  248   4.462   3.161   3.273
    1C        C  249   4.433   3.099   3.397
    1C        C  250   4.496   3.304   3.514
    1C        C  251   4.460   3.167   3.517
    1C        C  252   4.511   3.373   3.637
    1C        C  253   4.499   3.303   3.759
    1C        C  254   4.520   3.517   3.877
    1C        C  255   4.512   3.376   3.879
    1C        C  256   4.519   3.589   3.999
    1C        C  257   4.522   3.521   4.123
    1C        C  258   4.494   3.734   4.245
    1C        C  259   4.515   3.595   4.243
    1C        C  260   4.476   3.806   4.366
    1C        C  261   4.493   3.738   4.489
    1C        C  262   4.433   3.944   4.605
    1C        C  263   4.480   3.810   4.609
    1C        C  264   4.403   4.013   4.725
    1C        C  265   4.442   3.950   4.845
    1C        C  266   4.324   4.133   4.959
    1C        C  267   4.397   4.014   4.961
    1C        C  268   4.273   2.774   2.066
    1C        C  269   4.202   2.734   2.180
    1C        C  270   4.347   2.893   2.300
    1C        C  271   4.256   2.783   2.301
    1C        C  272   4.391   2.952   2.421
    1C        C  273   4.342   2.893   2.539
    1C        C  274   4.447   3.081   2.663
    1C        C  275   4.379   2.957   2.660
    1C        C  276   4.475   3.151   2.783
    1C        C  277   4.449   3.084   2.904
    1C        C  278   4.495   3.292   3.024
    1C        C  279   4.462   3.154   3.026
    1C        C  280   4.503   3.365   3.144
    1C        C  281   4.491   3.299   3.269
    1C        C  282   4.512   3.512   3.391
    1C        C  283   4.504   3.371   3.390
    1C        C  284   4.505   3.584   3.513
    1C        C  285   4.509   3.514   3.636
    1C        C  286   4.490   3.728   3.754
    1C        C  287   4.513   3.589   3.755
    1C        C  288   4.476   3.793   3.879
    1C        C  289   4.494   3.728   4.003
    1C        C  290   4.435   3.937   4.118
    1C        C  291   4.480   3.803   4.122
    1C        C  292   4.405   4.003   4.239
    1C        C  293   4.429   3.939   4.363
    1C        C  294   4.329   4.129   4.481
    1C        C  295   4.400   4.007   4.483
    1C        C  296   4.289   4.191   4.601
    1C        C  297   4.327   4.133   4.724
    1C        C  298   4.201   4.316   4.840
    1C        C  299   4.282   4.197   4.842
    1C        C  300   4.169   4.406   4.946
    1C        C  301   4.352   2.888   2.063
    1C        C  302   4.472   3.071   2.181
    1C        C  303   4.404   2.944   2.180
    1C        C  304   4.486   3.144   2.302
    1C        C  305   4.454   3.078   2.423
    1C        C  306   4.509   3.287   2.539
    1C        C  307   4.477   3.149   2.543
    1C        C  308   4.521   3.359   2.659
    1C        C  309   4.508   3.288   2.781
    1C        C  310   4.524   3.500   2.903
    1C        C  311   4.520   3.359   2.902
    1C        C  312   4.515   3.575   3.023
    1C        C  313   4.515   3.506   3.146
    1C        C  314   4.494   3.719   3.267
    1C        C  315   4.515   3.579   3.267
    1C        C  316   4.479   3.790   3.388
    1C        C  317   4.494   3.724   3.512
    1C        C  318   4.431   3.931   3.629
    1C        C  319   4.478   3.798   3.632
    1C        C  320   4.398   3.991   3.753
    1C        C  321   4.430   3.927   3.875
    1C        C  322   4.317   4.110   3.992
    1C        C  323   4.396   3.994   3.995
    1C        C  324   4.280   4.172   4.114
    1C        C  325   4.328   4.121   4.237
    1C        C  326   4.192   4.287   4.357
    1C        C  327   4.288   4.183   4.357
    1C        C  328   4.142   4.344   4.476
    1C        C  329   4.195   4.297   4.598
    1C        C  330   4.025   4.434   4.715
    1C        C  331   4.141   4.352   4.716
    1C        C  332   3.970   4.492   4.832
    1C        C  333   4.053   4.484   4.945
    1C        C  334   4.554   3.270   2.060
    1C        C  335   4.529   3.132   2.065
    1C        C  336   4.539   3.350   2.173
    1C        C  337   4.521   3.281   2.296
    1C        C  338   4.529   3.496   2.411
    1C        C  339   4.525   3.355   2.416
    1C        C  340   4.524   3.567   2.533
    1C        C  341   4.528   3.500   2.657
    1C        C  342   4.496   3.708   2.777
    1C        C  343   4.520   3.569   2.780
    1C        C  344   4.479   3.780   2.897
    1C        C  345   4.495   3.715   3.021
    1C        C  346   4.431   3.918   3.140
    1C        C  347   4.478   3.785   3.143
    1C        C  348   4.395   3.982   3.261
    1C        C  349   4.427   3.922   3.384
    1C        C  350   4.323   4.108   3.503
    1C        C  351   4.403   3.991   3.505
    1C        C  352   4.280   4.167   3.624
    1C        C  353   4.324   4.111   3.746
    1C        C  354   4.182   4.270   3.870
    1C        C  355   4.276   4.165   3.868
    1C        C  356   4.130   4.321   3.991
    1C        C  357   4.182   4.273   4.114
    1C        C  358   4.017   4.407   4.233
    1C        C  359   4.135   4.329   4.235
    1C        C  360   3.956   4.449   4.353
    1C        C  361   4.024   4.422   4.474
    1C        C  362   3.829   4.515   4.594
    1C        C  363   3.962   4.467   4.593
    1C        C  364   3.763   4.549   4.714
    1C        C  365   3.839   4.543   4.832
    1C        C  366   3.630   4.591   4.952
    1C        C  367   3.768   4.576   4.949
    1C        C  368   4.520   3.567   2.055
    1C        C  369   4.533   3.491   2.172
    1C        C  370   4.510   3.709   2.290
    1C        C  371   4.528   3.569   2.290
    1C        C  372   4.484   3.778   2.410
    1C        C  373   4.495   3.706   2.531
    1C        C  374   4.424   3.905   2.653
    1C        C  375   4.480   3.775   2.653
    1C        C  376   4.395   3.975   2.772
    1C        C  377   4.429   3.913   2.894
    1C        C  378   4.330   4.100   3.013
    1C        C  379   4.404   3.979   3.016
    1C        C  380   4.279   4.154   3.133
    1C        C  381   4.320   4.102   3.258
    1C        C  382   4.177   4.258   3.378
    1C        C  383   4.280   4.161   3.380
    1C        C  384   4.125   4.307   3.499
    1C        C  385   4.180   4.267   3.623
    1C        C  386   4.011   4.392   3.744
    1C        C  387   4.129   4.314   3.746
    1C        C  388   3.949   4.428   3.865
    1C        C  389   4.013   4.400   3.988
    1C        C  390   3.822   4.489   4.107
    1C        C  391   3.952   4.435   4.111
    1C        C  392   3.755   4.512   4.230
    1C        C  393   3.824   4.500   4.352
    1C        C  394   3.618   4.554   4.475
    1C        C  395   3.758   4.531   4.473
    1C        C  396   3.546   4.565   4.596
    1C        C  397   3.623   4.567   4.715
    1C        C  398   3.413   4.554   4.842
    1C        C  399   3.552   4.574   4.837
    1C        C  400   3.343   4.511   4.956
    1C        C  401   4.511   3.706   2.053
    1C        C  402   4.455   3.917   2.169
    1C        C  403   4.498   3.782   2.170
    1C        C  404   4.418   3.980   2.289
    1C        C  405   4.438   3.912   2.411
    1C        C  406   4.323   4.092   2.524
    1C        C  407   4.396   3.971   2.532
    1C        C  408   4.280   4.150   2.646
    1C        C  409   4.320   4.095   2.770
    1C        C  410   4.178   4.250   2.888
    1C        C  411   4.281   4.154   2.892
    1C        C  412   4.125   4.298   3.010
    1C        C  413   4.180   4.255   3.133
    1C        C  414   4.004   4.376   3.253
    1C        C  415   4.123   4.301   3.254
    1C        C  416   3.943   4.411   3.376
    1C        C  417   4.007   4.384   3.499
    1C        C  418   3.816   4.475   3.619
    1C        C  419   3.948   4.423   3.622
    1C        C  420   3.751   4.501   3.742
    1C        C  421   3.819   4.483   3.865
    1C        C  422   3.613   4.534   3.987
    1C        C  423   3.752   4.512   3.986
    1C        C  424   3.545   4.538   4.111
    1C        C  425   3.616   4.533   4.233
    1C        C  426   3.404   4.549   4.358
    1C        C  427   3.545   4.552   4.354
    1C        C  428   3.332   4.548   4.480
    1C        C  429   3.405   4.556   4.601
    1C        C  430   3.196   4.521   4.723
    1C        C  431   3.337   4.540   4.723
    1C        C  432   3.128   4.497   4.845
    1C        C  433   3.205   4.494   4.962
    1C        C  434   4.383   4.119   2.051
    1C        C  435   4.450   3.996   2.053
    1C        C  436   4.302   4.162   2.162
    1C        C  437   4.339   4.099   2.284
    1C        C  438   4.185   4.251   2.402
    1C        C  439   4.290   4.156   2.403
    1C        C  440   4.127   4.299   2.522
    1C        C  441   4.181   4.250   2.643
    1C        C  442   4.006   4.372   2.765
    1C        C  443   4.122   4.291   2.765
    1C        C  444   3.946   4.409   2.887
    1C        C  445   4.003   4.369   3.010
    1C        C  446   3.810   4.463   3.130
    1C        C  447   3.939   4.405   3.131
    1C        C  448   3.750   4.494   3.254
    1C        C  449   3.813   4.466   3.377
    1C        C  450   3.608   4.520   3.497
    1C        C  451   3.747   4.496   3.498
    1C        C  452   3.542   4.537   3.621
    1C        C  453   3.613   4.531   3.743
    1C        C  454   3.401   4.543   3.867
    1C        C  455   3.543   4.541   3.865
    1C        C  456   3.334   4.534   3.991
    1C        C  457   3.404   4.542   4.113
    1C        C  458   3.197   4.508   4.237
    1C        C  459   3.333   4.544   4.236
    1C        C  460   3.128   4.487   4.359
    1C        C  461   3.195   4.516   4.480
    1C        C  462   2.999   4.439   4.605
    1C        C  463   3.126   4.499   4.602
    1C        C  464   2.930   4.409   4.725
    1C        C  465   2.993   4.449   4.846
    1C        C  466   2.806   4.344   4.963
    1C        C  467   2.911   4.436   4.963
    1C        C  468   4.122   4.281   2.042
    1C        C  469   4.190   4.250   2.161
    1C        C  470   4.006   4.367   2.276
    1C        C  471   4.130   4.297   2.281
    1C        C  472   3.945   4.402   2.399
    1C        C  473   4.010   4.377   2.522
    1C        C  474   3.815   4.465   2.643
    1C        C  475   3.945   4.410   2.643
    1C        C  476   3.747   4.487   2.765
    1C        C  477   3.817   4.466   2.886
    1C        C  478   3.609   4.518   3.010
    1C        C  479   3.747   4.488   3.006
    1C        C  480   3.538   4.529   3.132
    1C        C  481   3.613   4.528   3.252
    1C        C  482   3.399   4.524   3.377
    1C        C  483   3.540   4.526   3.373
    1C        C  484   3.330   4.533   3.500
    1C        C  485   3.401   4.545   3.622
    1C        C  486   3.194   4.501   3.747
    1C        C  487   3.330   4.538   3.744
    1C        C  488   3.129   4.481   3.870
    1C        C  489   3.197   4.503   3.992
    1C        C  490   3.004   4.417   4.116
    1C        C  491   3.129   4.485   4.115
    1C        C  492   2.946   4.385   4.240
    1C        C  493   2.998   4.432   4.362
    1C        C  494   2.830   4.304   4.485
    1C        C  495   2.937   4.396   4.485
    1C        C  496   2.778   4.258   4.608
    1C        C  497   2.819   4.320   4.728
    1C        C  498   2.672   4.168   4.848
    1C        C  499   2.758   4.279   4.848
    1C        C  500   2.603   4.119   4.960
    1C        C  501   4.006   4.358   2.038
    1C        C  502   3.818   4.468   2.156
    1C        C  503   3.942   4.401   2.155
    1C        C  504   3.750   4.490   2.278
    1C        C  505   3.815   4.458   2.400
    1C        C  506   3.607   4.504   2.521
    1C        C  507   3.747   4.484   2.520
    1C        C  508   3.538   4.516   2.644
    1C        C  509   3.608   4.513   2.766
    1C        C  510   3.396   4.528   2.889
    1C        C  511   3.538   4.522   2.888
    1C        C  512   3.323   4.525   3.010
    1C        C  513   3.397   4.527   3.131
    1C        C  514   3.192   4.488   3.256
    1C        C  515   3.329   4.522   3.254
    1C        C  516   3.127   4.469   3.379
    1C        C  517   3.193   4.498   3.500
    1C        C  518   3.002   4.415   3.625
    1C        C  519   3.128   4.477   3.624
    1C        C  520   2.944   4.374   3.747
    1C        C  521   3.006   4.411   3.869
    1C        C  522   2.842   4.282   3.998
    1C        C  523   2.949   4.375   3.993
    1C        C  524   2.790   4.238   4.122
    1C        C  525   2.838   4.293   4.243
    1C        C  526   2.697   4.137   4.367
    1C        C  527   2.779   4.251   4.364
    1C        C  528   2.653   4.080   4.488
    1C        C  529   2.693   4.145   4.607
    1C        C  530   2.593   3.962   4.732
    1C        C  531   2.646   4.094   4.730
    1C        C  532   2.549   3.904   4.854
    1C        C  533   2.534   3.997   4.962
    1C        C  534   3.621   4.562   2.042
    1C        C  535   3.755   4.521   2.043
    1C        C  536   3.539   4.536   2.157
    1C        C  537   3.610   4.512   2.278
    1C        C  538   3.396   4.517   2.402
    1C        C  539   3.538   4.514   2.399
    1C        C  540   3.327   4.508   2.525
    1C        C  541   3.397   4.513   2.648
    1C        C  542   3.185   4.492   2.768
    1C        C  543   3.324   4.517   2.769
    1C        C  544   3.119   4.472   2.891
    1C        C  545   3.185   4.496   3.014
    1C        C  546   2.991   4.412   3.135
    1C        C  547   3.118   4.474   3.136
    1C        C  548   2.935   4.372   3.259
    1C        C  549   2.999   4.408   3.380
    1C        C  550   2.834   4.283   3.507
    1C        C  551   2.940   4.376   3.504
    1C        C  552   2.784   4.234   3.630
    1C        C  553   2.834   4.286   3.752
    1C        C  554   2.704   4.123   3.878
    1C        C  555   2.789   4.236   3.876
    1C        C  556   2.663   4.065   4.000
    1C        C  557   2.701   4.128   4.120
    1C        C  558   2.608   3.943   4.249
    1C        C  559   2.666   4.072   4.245
    1C        C  560   2.576   3.879   4.371
    1C        C  561   2.594   3.952   4.490
    1C        C  562   2.530   3.753   4.616
    1C        C  563   2.574   3.887   4.614
    1C        C  564   2.517   3.685   4.739
    1C        C  565   2.522   3.763   4.859
    1C        C  566   2.530   3.546   4.977
    1C        C  567   2.521   3.685   4.975
    1C        C  568   3.333   4.474   2.042
    1C        C  569   3.399   4.512   2.160
    1C        C  570   3.187   4.475   2.283
    1C        C  571   3.325   4.508   2.281
    1C        C  572   3.120   4.457   2.406
    1C        C  573   3.188   4.482   2.527
    1C        C  574   2.987   4.409   2.649
    1C        C  575   3.115   4.468   2.647
    1C        C  576   2.929   4.369   2.772
    1C        C  577   2.993   4.407   2.892
    1C        C  578   2.828   4.276   3.018
    1C        C  579   2.932   4.372   3.014
    1C        C  580   2.779   4.225   3.140
    1C        C  581   2.827   4.281   3.260
    1C        C  582   2.699   4.118   3.385
    1C        C  583   2.784   4.231   3.385
    1C        C  584   2.664   4.059   3.508
    1C        C  585   2.702   4.119   3.630
    1C        C  586   2.606   3.936   3.759
    1C        C  587   2.668   4.063   3.755
    1C        C  588   2.581   3.870   3.881
    1C        C  589   2.604   3.936   4.004
    1C        C  590   2.545   3.738   4.131
    1C        C  591   2.584   3.874   4.129
    1C        C  592   2.527   3.671   4.254
    1C        C  593   2.533   3.744   4.375
    1C        C  594   2.511   3.535   4.500
    1C        C  595   2.516   3.677   4.498
    1C        C  596   2.518   3.466   4.623
    1C        C  597   2.520   3.543   4.742
    1C        C  598   2.529   3.327   4.865
    1C        C  599   2.520   3.468   4.861
    1C        C  600   2.536   3.250   4.981
    1C        C  601   3.201   4.435   2.047
    1C        C  602   2.984   4.399   2.162
    1C        C  603   3.121   4.443   2.161
    1C        C  604   2.929   4.362   2.288
    1C        C  605   2.993   4.398   2.409
    1C        C  606   2.818   4.276   2.531
    1C        C  607   2.924   4.369   2.529
    1C        C  608   2.771   4.223   2.653
    1C        C  609   2.824   4.274   2.774
    1C        C  610   2.690   4.112   2.897
    1C        C  611   2.777   4.223   2.897
    1C        C  612   2.656   4.053   3.021
    1C        C  613   2.690   4.115   3.144
    1C        C  614   2.594   3.927   3.268
    1C        C  615   2.657   4.054   3.267
    1C        C  616   2.575   3.863   3.392
    1C        C  617   2.603   3.931   3.513
    1C        C  618   2.540   3.733   3.643
    1C        C  619   2.578   3.869   3.637
    1C        C  620   2.528   3.663   3.765
    1C        C  621   2.543   3.734   3.886
    1C        C  622   2.518   3.526   4.011
    1C        C  623   2.526   3.667   4.010
    1C        C  624   2.516   3.457   4.134
    1C        C  625   2.512   3.531   4.254
    1C        C  626   2.547   3.325   4.381
    1C        C  627   2.517   3.464   4.379
    1C        C  628   2.559   3.255   4.502
    1C        C  629   2.541   3.327   4.623
    1C        C  630   2.597   3.121   4.747
    1C        C  631   2.554   3.257   4.745
    1C        C  632   2.619   3.048   4.867
    1C        C  633   2.562   3.112   4.981
    1C        C  634   2.786   4.307   2.057
    1C        C  635   2.894   4.397   2.052
    1C        C  636   2.754   4.232   2.170
    1C        C  637   2.813   4.279   2.289
    1C        C  638   2.684   4.108   2.410
    1C        C  639   2.767   4.223   2.410
    1C        C  640   2.646   4.051   2.533
    1C        C  641   2.689   4.108   2.655
    1C        C  642   2.589   3.922   2.780
    1C        C  643   2.646   4.052   2.777
    1C        C  644   2.569   3.856   2.903
    1C        C  645   2.600   3.924   3.023
    1C        C  646   2.533   3.724   3.152
    1C        C  647   2.568   3.861   3.146
    1C        C  648   2.521   3.657   3.275
    1C        C  649   2.539   3.726   3.397
    1C        C  650   2.521   3.520   3.522
    1C        C  651   2.531   3.661   3.522
    1C        C  652   2.521   3.449   3.644
    1C        C  653   2.515   3.522   3.765
    1C        C  654   2.533   3.315   3.890
    1C        C  655   2.513   3.455   3.890
    1C        C  656   2.554   3.250   4.014
    1C        C  657   2.536   3.317   4.137
    1C        C  658   2.604   3.118   4.259
    1C        C  659   2.558   3.252   4.260
    1C        C  660   2.635   3.056   4.382
    1C        C  661   2.603   3.120   4.504
    1C        C  662   2.714   2.941   4.629
    1C        C  663   2.636   3.059   4.627
    1C        C  664   2.757   2.883   4.750
    1C        C  665   2.703   2.932   4.872
    1C        C  666   2.756   2.874   4.988
    1C        C  667   2.689   4.026   2.056
    1C        C  668   2.689   4.106   2.171
    1C        C  669   2.591   3.912   2.294
    1C        C  670   2.653   4.040   2.291
    1C        C  671   2.565   3.850   2.418
    1C        C  672   2.585   3.923   2.537
    1C        C  673   2.526   3.718   2.661
    1C        C  674   2.563   3.855   2.659
    1C        C  675   2.512   3.651   2.784
    1C        C  676   2.533   3.719   2.906
    1C        C  677   2.513   3.512   3.033
    1C        C  678   2.523   3.653   3.030
    1C        C  679   2.517   3.444   3.156
    1C        C  680   2.514   3.516   3.278
    1C        C  681   2.535   3.308   3.402
    1C        C  682   2.511   3.447   3.402
    1C        C  683   2.550   3.239   3.524
    1C        C  684   2.536   3.309   3.646
    1C        C  685   2.605   3.112   3.774
    1C        C  686   2.552   3.242   3.770
    1C        C  687   2.634   3.049   3.897
    1C        C  688   2.602   3.117   4.017
    1C        C  689   2.712   2.933   4.142
    1C        C  690   2.639   3.054   4.138
    1C        C  691   2.756   2.880   4.265
    1C        C  692   2.712   2.938   4.386
    1C        C  693   2.755   2.881   4.508
    1C        C  694   2.632   3.898   2.058
    1C        C  695   2.537   3.705   2.181
    1C        C  696   2.579   3.840   2.174
    1C        C  697   2.505   3.641   2.303
    1C        C  698   2.521   3.715   2.422
    1C        C  699   2.492   3.502   2.546
    1C        C  700   2.508   3.643   2.543
    1C        C  701   2.498   3.435   2.670
    1C        C  702   2.501   3.510   2.790
    1C        C  703   2.520   3.298   2.913
    1C        C  704   2.507   3.439   2.912
    1C        C  705   2.544   3.232   3.035
    1C        C  706   2.535   3.303   3.157
    1C        C  707   2.601   3.104   3.282
    1C        C  708   2.553   3.237   3.281
    1C        C  709   2.633   3.044   3.406
    1C        C  710   2.601   3.108   3.528
    1C        C  711   2.715   2.931   3.651
    1C        C  712   2.636   3.048   3.652
    1C        C  713   2.760   2.879   3.774
    1C        C  714   2.709   2.930   3.896
    1C        C  715   2.751   2.875   4.019
    1C        C  716   2.450   3.505   2.069
    1C        C  717   2.503   3.635   2.065
    1C        C  718   2.464   3.424   2.186
    1C        C  719   2.481   3.501   2.304
    1C        C  720   2.513   3.290   2.427
    1C        C  721   2.486   3.429   2.425
    1C        C  722   2.533   3.224   2.550
    1C        C  723   2.521   3.296   2.671
    1C        C  724   2.583   3.093   2.793
    1C        C  725   2.533   3.225   2.793
    1C        C  726   2.614   3.031   2.916
    1C        C  727   2.582   3.096   3.037
    1C        C  728   2.710   2.925   3.161
    1C        C  729   2.630   3.042   3.159
    1C        C  730   2.751   2.869   3.284
    1C        C  731   2.715   2.929   3.407
    1C        C  732   2.759   2.873   3.530
    1C        C  733   2.487   3.201   2.073
    1C        C  734   2.490   3.283   2.187
    1C        C  735   2.586   3.087   2.308
    1C        C  736   2.530   3.218   2.307
    1C        C  737   2.614   3.022   2.430
    1C        C  738   2.588   3.094   2.549
    1C        C  739   2.696   2.912   2.674
    1C        C  740   2.616   3.029   2.671
    1C        C  741   2.746   2.859   2.795
    1C        C  742   2.699   2.918   2.914
    1C        C  743   2.747   2.869   3.037
    1C        C  744   2.547   3.075   2.075
    1C        C  745   2.686   2.900   2.188
    1C        C  746   2.611   3.020   2.186
    1C        C  747   2.731   2.842   2.308
    1C        C  748   2.690   2.903   2.429
    1C        C  749   2.735   2.851   2.553
    1C        C  750   2.733   2.836   2.072
    1C        C  751   3.644   2.303   1.990
    1C        O  752   3.604   2.185   2.008
    1C        O  753   3.710   2.322   1.867
    1C        C  754   4.618   3.049   1.981
    1C        O  755   4.602   3.031   1.857
    1C        O  756   4.739   2.991   2.021
    1C        C  757   4.437   4.210   1.948
    1C        O  758   4.523   4.293   1.988
    1C        O  759   4.377   4.252   1.828
    1C        C  760   3.594   4.670   1.944
    1C        O  761   3.565   4.787   1.981
    1C        O  762   3.570   4.639   1.809
    1C        C  763   2.900   4.476   1.927
    1C        O  764   2.959   4.434   1.824
    1C        O  765   2.834   4.600   1.921
    1C        C  766   2.333   3.487   1.980
    1C        O  767   2.337   3.477   1.855
    1C        O  768   2.202   3.508   2.026
    1C        C  769   4.697   3.581   5.055
    1C        O  770   4.668   3.576   5.178
    1C        O  771   4.830   3.617   5.029
    1C        C  772   4.257   4.446   5.058
    1C        O  773   4.240   4.415   5.179
    1C        O  774   4.388   4.491   5.038
    1C        C  775   4.145   2.536   5.085
    1C        O  776   4.221   2.440   5.060
    1C        O  777   4.112   2.553   5.220
    1C        C  778   2.885   4.556   5.047
    1C        O  779   2.815   4.657   5.024
    1C        O  780   2.940   4.573   5.174
    1C        C  781   2.489   3.032   5.082
    1C        O  782   2.371   3.000   5.050
    1C        O  783   2.522   3.039   5.217
    1C        C  784   2.407   3.994   5.037
    1C        O  785   2.295   4.016   4.983
    1C        O  786   2.402   4.042   5.168
    1C        C  787   2.955   2.451   1.988
    1C        O  788   2.962   2.495   1.870
    1C        O  789   2.908   2.320   1.990
    1C        C  790   3.189   2.385   5.080
    1C        O  791   3.134   2.274   5.060
    1C        O  792   3.252   2.389   5.206
    1C        H  793   4.223   3.042   5.024
    1C        H  794   4.169   2.817   5.070
    1C        H  795   4.494   3.123   5.061
    1C        H  796   4.487   3.381   5.058
    1C        H  797   4.538   3.800   5.057
    1C        H  798   4.394   3.957   5.052
    1C        H  799   4.325   4.194   5.046
    1C        H  800   4.036   4.550   5.027
    1C        H  801   3.819   4.578   5.043
    1C        H  802   3.591   4.659   5.025
    1C        H  803   3.402   4.480   5.040
    1C        H  804   3.163   4.510   5.059
    1C        H  805   3.917   2.432   5.031
    1C        H  806   3.671   2.422   5.064
    1C        H  807   2.994   2.551   5.057
    1C        H  808   3.446   2.493   5.082
    1C        H  809   2.820   2.693   5.065
    1C        H  810   2.747   2.930   5.079
    1C        H  811   2.536   3.296   5.078
    1C        H  812   2.587   3.507   5.059
    1C        H  813   2.502   3.731   5.069
    1C        H  814   2.602   4.176   5.050
    1C        H  815   2.739   4.354   5.046
    1C        H  816   2.671   2.840   1.985
    1C        H  817   2.905   2.749   1.998
    1C        H  818   3.214   2.412   1.998
    1C        H  819   3.445   2.486   1.978
    1C        H  820   3.876   2.486   1.985
    1C        H  821   4.070   2.622   1.969
    1C        H  822   4.282   2.713   1.978
    1C        H  823   4.332   2.952   1.980
    1C        H  824   4.568   3.312   1.962
    1C        H  825   4.534   3.520   1.960
    1C        H  826   4.516   3.752   1.957
    1C        H  827   3.807   4.520   1.949
    1C        H  828   3.948   4.359   1.949
    1C        H  829   4.172   4.267   1.949
    1C        H  830   4.479   3.958   1.958
    1C        H  831   2.608   3.856   1.963
    1C        H  832   2.724   4.057   1.960
    1C        H  833   2.704   4.331   1.992
    1C        H  834   3.357   4.535   1.957
    1C        H  835   3.168   4.371   1.968
    1C        H  836   2.515   3.003   2.003
    1C        H  837   2.491   3.252   1.980
    1C        H  838   2.559   3.659   1.976
    2V3OU   H29  839   2.817   3.543   2.488
    2V3OU   C27  840   2.791   3.502   2.589
    2V3OU   H27  841   2.741   3.575   2.657
    2V3OU   H28  842   2.736   3.408   2.564
    2V3OU   O11  843   2.911   3.476   2.663
    2V3OU   C15  844   2.930   3.394   2.772
    2V3OU   C13  845   3.058   3.368   2.827
    2V3OU   C14  846   3.087   3.266   2.918
    2V3OU   C16  847   2.981   3.190   2.966
    2V3OU    H6  848   2.995   3.104   3.033
    2V3OU   C12  849   3.218   3.230   2.976
    2V3OU    O2  850   3.240   3.126   3.042
    2V3OU   C10  851   3.330   3.315   2.932
    2V3OU    C8  852   3.461   3.275   2.958
    2V3OU   O10  853   3.491   3.159   3.023
    2V3OU   H26  854   3.406   3.117   3.044
    2V3OU    C6  855   3.571   3.353   2.910
    2V3OU    C5  856   3.541   3.469   2.839
    2V3OU    C4  857   3.708   3.296   2.921
    2V3OU    H4  858   3.722   3.230   3.011
    2V3OU    H5  859   3.717   3.224   2.833
    2V3OU    C2  860   3.818   3.401   2.910
    2V3OU    O6  861   3.812   3.481   3.028
    2V3OU   H21  862   3.765   3.560   2.996
    2V3OU    C3  863   3.786   3.497   2.794
    2V3OU    H2  864   3.870   3.571   2.794
    2V3OU    H3  865   3.784   3.445   2.695
    2V3OU   C25  866   3.954   3.330   2.904
    2V3OU    O7  867   3.999   3.303   2.793
    2V3OU   C26  868   4.032   3.291   3.028
    2V3OU   H22  869   4.069   3.383   3.081
    2V3OU   H23  870   4.116   3.222   3.000
    2V3OU    O8  871   3.965   3.210   3.122
    2V3OU   H24  872   3.922   3.270   3.185
    2V3OU    C1  873   3.651   3.565   2.807
    2V3OU    H1  874   3.627   3.627   2.716
    2V3OU    O3  875   3.661   3.655   2.919
    2V3OU   C19  876   3.615   3.789   2.901
    2V3OU    H9  877   3.520   3.802   2.841
    2V3OU    O4  878   3.714   3.844   2.816
    2V3OU   C20  879   3.845   3.870   2.868
    2V3OU   H10  880   3.899   3.771   2.873
    2V3OU   C24  881   3.611   3.858   3.037
    2V3OU   H16  882   3.550   3.796   3.108
    2V3OU   H17  883   3.559   3.956   3.025
    2V3OU   C23  884   3.751   3.873   3.098
    2V3OU   H15  885   3.797   3.771   3.115
    2V3OU    N1  886   3.736   3.951   3.220
    2V3OU   H19  887   3.816   3.920   3.270
    2V3OU   H20  888   3.655   3.926   3.273
    2V3OU   C21  889   3.848   3.947   3.000
    2V3OU   H11  890   3.950   3.928   3.044
    2V3OU    O5  891   3.830   4.088   2.998
    2V3OU   H18  892   3.785   4.108   3.082
    2V3OU   C22  893   3.912   3.952   2.760
    2V3OU   H12  894   3.855   4.046   2.739
    2V3OU   H13  895   3.917   3.889   2.667
    2V3OU   H14  896   4.019   3.971   2.788
    2V3OU   C11  897   3.164   3.470   2.819
    2V3OU    O1  898   3.133   3.588   2.793
    2V3OU    C9  899   3.302   3.425   2.848
    2V3OU    C7  900   3.407   3.504   2.803
    2V3OU    O9  901   3.386   3.623   2.736
    2V3OU   H25  902   3.289   3.625   2.742
    2V3OU   C17  903   2.826   3.315   2.824
    2V3OU    H7  904   2.729   3.352   2.789
    2V3OU   C18  905   2.853   3.216   2.918
    2V3OU    H8  906   2.781   3.170   2.986
    3SOL     OW  907   2.610   5.307   0.319
    3SOL    HW1  908   2.690   5.331   0.373
    3SOL    HW2  909   2.570   5.390   0.279
    4SOL     OW  910   6.677   0.157   2.287
    4SOL    HW1  911   6.636   0.235   2.240
    4SOL    HW2  912   6.605   0.094   2.317
    5SOL     OW  913   4.178   1.505   2.564
    5SOL    HW1  914   4.210   1.597   2.542
    5SOL    HW2  915   4.119   1.508   2.645
    6SOL     OW  916   3.863   0.881   1.719
    6SOL    HW1  917   3.925   0.814   1.759
    6SOL    HW2  918   3.783   0.835   1.682
    7SOL     OW  919   0.051   4.292   3.176
    7SOL    HW1  920   0.130   4.280   3.235
    7SOL    HW2  921   0.080   4.333   3.089
    8SOL     OW  922   3.234   0.998   6.776
    8SOL    HW1  923   3.230   0.925   6.708
    8SOL    HW2  924   3.163   1.066   6.757
    9SOL     OW  925   4.775   0.719   5.615
    9SOL    HW1  926   4.701   0.717   5.683
    9SOL    HW2  927   4.781   0.811   5.575
   10SOL     OW  928   1.954   5.003   5.172
   10SOL    HW1  929   1.864   4.976   5.205
   10SOL    HW2  930   2.023   4.940   5.210
   11SOL     OW  931   2.876   0.701   5.786
   11SOL    HW1  932   2.794   0.652   5.757
   11SOL    HW2  933   2.922   0.739   5.706
   12SOL     OW  934   3.442   5.860   3.624
   12SOL    HW1  935   3.343   5.857   3.609
   12SOL    HW2  936   3.465   5.803   3.702
   13SOL     OW  937   3.975   6.327   3.522
   13SOL    HW1  938   4.045   6.358   3.586
   13SOL    HW2  939   4.018   6.303   3.435
   14SOL     OW  940   3.806   5.286   6.300
   14SOL    HW1  941   3.891   5.339   6.301
   14SOL    HW2  942   3.822   5.198   6.258
   15SOL     OW  943   1.011   6.584   1.916
   15SOL    HW1  944   1.041   6.490   1.900
   15SOL    HW2  945   0.932   6.584   1.977
   16SOL     OW  946   5.781   2.470   5.920
   16SOL    HW1  947   5.813   2.532   5.992
   16SOL    HW2  948   5.859   2.432   5.871
   17SOL     OW  949   5.449   6.237   6.768
   17SOL    HW1  950   5.376   6.279   6.714
   17SOL    HW2  951   5.463   6.290   6.851
   18SOL     OW  952   3.237   0.912   5.390
   18SOL    HW1  953   3.212   1.006   5.414
   18SOL    HW2  954   3.333   0.909   5.363
   19SOL     OW  955   0.103   1.117   2.820
   19SOL    HW1  956   0.153   1.140   2.904
   19SOL    HW2  957   0.168   1.082   2.752
   20SOL     OW  958   5.235   1.662   4.116
   20SOL    HW1  959   5.206   1.674   4.211
   20SOL    HW2  960   5.221   1.748   4.066
   21SOL     OW  961   3.167   1.178   2.554
   21SOL    HW1  962   3.240   1.213   2.495
   21SOL    HW2  963   3.197   1.181   2.649
   22SOL     OW  964   1.355   6.578   6.693
   22SOL    HW1  965   1.278   6.568   6.755
   22SOL    HW2  966   1.366   6.495   6.639
   23SOL     OW  967   5.871   5.431   2.965
   23SOL    HW1  968   5.820   5.346   2.973
   23SOL    HW2  969   5.901   5.444   2.871
   24SOL     OW  970   3.373   0.142   3.278
   24SOL    HW1  971   3.414   0.076   3.340
   24SOL    HW2  972   3.405   0.234   3.300
   25SOL     OW  973   3.755   0.436   4.579
   25SOL    HW1  974   3.707   0.377   4.644
   25SOL    HW2  975   3.815   0.381   4.521
   26SOL     OW  976   6.672   0.634   0.576
   26SOL    HW1  977   6.720   0.547   0.589
   26SOL    HW2  978   6.634   0.637   0.483
   27SOL     OW  979   1.815   1.893   2.880
   27SOL    HW1  980   1.864   1.900   2.967
   27SOL    HW2  981   1.774   1.981   2.857
   28SOL     OW  982   2.604   0.998   5.766
   28SOL    HW1  983   2.608   0.942   5.849
   28SOL    HW2  984   2.543   0.955   5.700
   29SOL     OW  985   6.119   2.059   2.025
   29SOL    HW1  986   6.104   2.156   2.009
   29SOL    HW2  987   6.115   2.041   2.124
   30SOL     OW  988   3.683   1.204   3.923
   30SOL    HW1  989   3.591   1.179   3.954
   30SOL    HW2  990   3.682   1.216   3.823
   31SOL     OW  991   0.592   2.529   6.536
   31SOL    HW1  992   0.687   2.554   6.516
   31SOL    HW2  993   0.532   2.566   6.465
   32SOL     OW  994   6.925   1.827   2.952
   32SOL    HW1  995   6.854   1.896   2.966
   32SOL    HW2  996   6.908   1.778   2.866
   33SOL     OW  997   1.140   4.889   5.545
   33SOL    HW1  998   1.163   4.910   5.450
   33SOL    HW2  999   1.041   4.888   5.556
   34SOL     OW 1000   2.705   6.999   4.846
   34SOL    HW1 1001   2.627   0.007   4.793
   34SOL    HW2 1002   2.698   6.900   4.852
   35SOL     OW 1003   4.456   3.304   6.533
   35SOL    HW1 1004   4.501   3.362   6.466
   35SOL    HW2 1005   4.411   3.361   6.602
   36SOL     OW 1006   5.725   0.972   4.869
   36SOL    HW1 1007   5.735   0.948   4.966
   36SOL    HW2 1008   5.669   1.055   4.861
   37SOL     OW 1009   1.326   2.019   6.792
   37SOL    HW1 1010   1.329   2.065   6.881
   37SOL    HW2 1011   1.314   1.921   6.805
   38SOL     OW 1012   0.774   5.328   2.460
   38SOL    HW1 1013   0.751   5.230   2.461
   38SOL    HW2 1014   0.701   5.380   2.505
   39SOL     OW 1015   6.786   3.948   6.862
   39SOL    HW1 1016   6.810   4.027   6.917
   39SOL    HW2 1017   6.710   3.972   6.801
   40SOL     OW 1018   4.572   1.620   0.624
   40SOL    HW1 1019   4.491   1.668   0.591
   40SOL    HW2 1020   4.649   1.638   0.562
   41SOL     OW 1021   6.865   4.733   3.507
   41SOL    HW1 1022   6.821   4.683   3.581
   41SOL    HW2 1023   6.812   4.722   3.423
   42SOL     OW 1024   3.030   4.985   4.351
   42SOL    HW1 1025   2.968   4.909   4.331
   42SOL    HW2 1026   2.976   5.069   4.362
   43SOL     OW 1027   4.864   6.867   5.670
   43SOL    HW1 1028   4.820   6.899   5.587
   43SOL    HW2 1029   4.887   6.770   5.661
   44SOL     OW 1030   4.460   1.877   6.439
   44SOL    HW1 1031   4.400   1.927   6.377
   44SOL    HW2 1032   4.483   1.788   6.400
   45SOL     OW 1033   5.005   6.019   1.645
   45SOL    HW1 1034   4.970   5.951   1.709
   45SOL    HW2 1035   4.945   6.098   1.643
   46SOL     OW 1036   1.042   3.307   3.307
   46SOL    HW1 1037   1.101   3.382   3.337
   46SOL    HW2 1038   0.991   3.270   3.385
   47SOL     OW 1039   4.680   4.371   0.949
   47SOL    HW1 1040   4.644   4.419   1.029
   47SOL    HW2 1041   4.625   4.290   0.931
   48SOL     OW 1042   6.594   3.112   6.515
   48SOL    HW1 1043   6.576   3.170   6.594
   48SOL    HW2 1044   6.689   3.122   6.486
   49SOL     OW 1045   5.753   3.266   1.493
   49SOL    HW1 1046   5.850   3.285   1.507
   49SOL    HW2 1047   5.743   3.194   1.424
   50SOL     OW 1048   5.537   1.165   4.831
   50SOL    HW1 1049   5.485   1.225   4.892
   50SOL    HW2 1050   5.500   1.173   4.738
   51SOL     OW 1051   2.205   6.422   3.650
   51SOL    HW1 1052   2.250   6.502   3.612
   51SOL    HW2 1053   2.106   6.429   3.634
   52SOL     OW 1054   6.005   3.317   2.442
   52SOL    HW1 1055   5.907   3.315   2.419
   52SOL    HW2 1056   6.043   3.225   2.432
   53SOL     OW 1057   4.627   6.858   3.750
   53SOL    HW1 1058   4.607   6.863   3.848
   53SOL    HW2 1059   4.557   6.803   3.705
   54SOL     OW 1060   4.442   5.202   1.206
   54SOL    HW1 1061   4.439   5.293   1.248
   54SOL    HW2 1062   4.523   5.194   1.148
   55SOL     OW 1063   1.591   2.883   6.273
   55SOL    HW1 1064   1.648   2.965   6.266
   55SOL    HW2 1065   1.524   2.884   6.199
   56SOL     OW 1066   0.236   1.003   0.961
   56SOL    HW1 1067   0.150   1.050   0.942
   56SOL    HW2 1068   0.220   0.905   0.970
   57SOL     OW 1069   4.458   0.938   1.167
   57SOL    HW1 1070   4.523   0.980   1.230
   57SOL    HW2 1071   4.456   0.839   1.181
   58SOL     OW 1072   0.419   6.895   5.403
   58SOL    HW1 1073   0.352   6.877   5.331
   58SOL    HW2 1074   0.493   6.952   5.367
   59SOL     OW 1075   0.652   2.542   6.043
   59SOL    HW1 1076   0.733   2.485   6.030
   59SOL    HW2 1077   0.678   2.638   6.042
   60SOL     OW 1078   5.336   2.790   4.292
   60SOL    HW1 1079   5.416   2.825   4.243
   60SOL    HW2 1080   5.339   2.823   4.387
   61SOL     OW 1081   6.699   2.081   3.955
   61SOL    HW1 1082   6.677   1.990   3.922
   61SOL    HW2 1083   6.798   2.096   3.950
   62SOL     OW 1084   1.031   0.928   1.477
   62SOL    HW1 1085   1.087   0.857   1.435
   62SOL    HW2 1086   1.072   1.017   1.459
   63SOL     OW 1087   5.497   1.392   3.672
   63SOL    HW1 1088   5.478   1.366   3.766
   63SOL    HW2 1089   5.411   1.405   3.622
   64SOL     OW 1090   0.367   2.920   6.192
   64SOL    HW1 1091   0.335   2.945   6.284
   64SOL    HW2 1092   0.439   2.983   6.164
   65SOL     OW 1093   0.902   4.435   6.379
   65SOL    HW1 1094   0.984   4.449   6.435
   65SOL    HW2 1095   0.872   4.340   6.389
   66SOL     OW 1096   4.141   1.022   5.053
   66SOL    HW1 1097   4.196   0.979   5.124
   66SOL    HW2 1098   4.129   0.958   4.977
   67SOL     OW 1099   0.245   2.940   5.462
   67SOL    HW1 1100   0.289   3.028   5.441
   67SOL    HW2 1101   0.155   2.937   5.418
   68SOL     OW 1102   6.349   1.319   0.167
   68SOL    HW1 1103   6.349   1.233   0.218
   68SOL    HW2 1104   6.387   1.304   0.076
   69SOL     OW 1105   0.706   3.351   6.325
   69SOL    HW1 1106   0.759   3.407   6.260
   69SOL    HW2 1107   0.712   3.392   6.416
   70SOL     OW 1108   5.462   4.326   5.013
   70SOL    HW1 1109   5.413   4.355   5.095
   70SOL    HW2 1110   5.542   4.272   5.040
   71SOL     OW 1111   3.711   1.795   3.600
   71SOL    HW1 1112   3.710   1.889   3.635
   71SOL    HW2 1113   3.767   1.792   3.517
   72SOL     OW 1114   1.573   0.498   3.807
   72SOL    HW1 1115   1.668   0.469   3.797
   72SOL    HW2 1116   1.566   0.569   3.878
   73SOL     OW 1117   3.606   0.532   1.264
   73SOL    HW1 1118   3.670   0.458   1.284
   73SOL    HW2 1119   3.641   0.618   1.302
   74SOL     OW 1120   4.227   0.697   0.258
   74SOL    HW1 1121   4.169   0.635   0.310
   74SOL    HW2 1122   4.302   0.645   0.216
   75SOL     OW 1123   4.360   1.075   0.953
   75SOL    HW1 1124   4.445   1.120   0.927
   75SOL    HW2 1125   4.379   1.007   1.023
   76SOL     OW 1126   2.798   3.510   1.171
   76SOL    HW1 1127   2.885   3.496   1.218
   76SOL    HW2 1128   2.726   3.462   1.220
   77SOL     OW 1129   0.907   0.334   3.545
   77SOL    HW1 1130   0.867   0.243   3.536
   77SOL    HW2 1131   0.867   0.381   3.623
   78SOL     OW 1132   5.507   1.730   0.161
   78SOL    HW1 1133   5.576   1.715   0.232
   78SOL    HW2 1134   5.442   1.654   0.161
   79SOL     OW 1135   3.130   5.647   1.302
   79SOL    HW1 1136   3.168   5.599   1.222
   79SOL    HW2 1137   3.031   5.655   1.291
   80SOL     OW 1138   4.353   1.437   3.835
   80SOL    HW1 1139   4.323   1.388   3.753
   80SOL    HW2 1140   4.411   1.514   3.808
   81SOL     OW 1141   2.640   6.882   2.262
   81SOL    HW1 1142   2.549   6.922   2.279
   81SOL    HW2 1143   2.639   6.785   2.284
   82SOL     OW 1144   5.836   4.722   0.966
   82SOL    HW1 1145   5.748   4.721   0.919
   82SOL    HW2 1146   5.910   4.723   0.899
   83SOL     OW 1147   0.168   0.094   0.567
   83SOL    HW1 1148   0.179   0.035   0.487
   83SOL    HW2 1149   0.100   0.055   0.629
   84SOL     OW 1150   6.076   3.085   2.881
   84SOL    HW1 1151   6.106   3.043   2.796
   84SOL    HW2 1152   6.085   3.020   2.956
   85SOL     OW 1153   1.705   1.338   3.842
   85SOL    HW1 1154   1.739   1.272   3.910
   85SOL    HW2 1155   1.707   1.430   3.881
   86SOL     OW 1156   0.684   1.403   6.540
   86SOL    HW1 1157   0.597   1.438   6.574
   86SOL    HW2 1158   0.758   1.433   6.601
   87SOL     OW 1159   5.214   4.524   0.868
   87SOL    HW1 1160   5.205   4.462   0.946
   87SOL    HW2 1161   5.295   4.499   0.814
   88SOL     OW 1162   3.103   1.384   6.316
   88SOL    HW1 1163   3.195   1.406   6.284
   88SOL    HW2 1164   3.047   1.354   6.239
   89SOL     OW 1165   2.255   2.376   6.945
   89SOL    HW1 1166   2.334   2.321   6.919
   89SOL    HW2 1167   2.196   2.389   6.866
   90SOL     OW 1168   4.187   5.032   1.954
   90SOL    HW1 1169   4.108   4.977   1.926
   90SOL    HW2 1170   4.201   5.021   2.053
   91SOL     OW 1171   5.860   3.865   6.413
   91SOL    HW1 1172   5.928   3.938   6.421
   91SOL    HW2 1173   5.896   3.791   6.357
   92SOL     OW 1174   4.396   4.653   1.125
   92SOL    HW1 1175   4.358   4.742   1.099
   92SOL    HW2 1176   4.348   4.581   1.075
   93SOL     OW 1177   3.613   3.713   0.824
   93SOL    HW1 1178   3.527   3.663   0.834
   93SOL    HW2 1179   3.652   3.731   0.914
   94SOL     OW 1180   2.240   5.756   6.217
   94SOL    HW1 1181   2.319   5.695   6.220
   94SOL    HW2 1182   2.202   5.766   6.309
   95SOL     OW 1183   0.992   0.232   2.654
   95SOL    HW1 1184   1.027   0.255   2.745
   95SOL    HW2 1185   0.932   0.153   2.660
   96SOL     OW 1186   3.646   6.928   5.079
   96SOL    HW1 1187   3.649   7.008   5.138
   96SOL    HW2 1188   3.551   6.912   5.049
   97SOL     OW 1189   1.992   3.059   6.300
   97SOL    HW1 1190   2.048   3.126   6.349
   97SOL    HW2 1191   2.052   2.994   6.252
   98SOL     OW 1192   1.273   3.081   0.797
   98SOL    HW1 1193   1.259   2.987   0.828
   98SOL    HW2 1194   1.355   3.086   0.740
   99SOL     OW 1195   3.982   2.790   1.493
   99SOL    HW1 1196   3.949   2.820   1.582
   99SOL    HW2 1197   3.904   2.769   1.434
  100SOL     OW 1198   0.890   6.292   4.392
  100SOL    HW1 1199   0.828   6.295   4.313
  100SOL    HW2 1200   0.884   6.377   4.443
  101SOL     OW 1201   2.195   4.861   2.063
  101SOL    HW1 1202   2.135   4.824   2.134
  101SOL    HW2 1203   2.289   4.864   2.097
  102SOL     OW 1204   3.462   5.713   1.169
  102SOL    HW1 1205   3.405   5.793   1.152
  102SOL    HW2 1206   3.405   5.631   1.171
  103SOL     OW 1207   2.427   2.009   1.739
  103SOL    HW1 1208   2.373   1.987   1.658
  103SOL    HW2 1209   2.524   2.006   1.716
  104SOL     OW 1210   1.516   5.798   3.179
  104SOL    HW1 1211   1.493   5.892   3.153
  104SOL    HW2 1212   1.525   5.792   3.278
  105SOL     OW 1213   6.321   1.193   6.622
  105SOL    HW1 1214   6.259   1.165   6.696
  105SOL    HW2 1215   6.282   1.164   6.535
  106SOL     OW 1216   3.775   6.277   4.492
  106SOL    HW1 1217   3.798   6.228   4.577
  106SOL    HW2 1218   3.679   6.302   4.494
  107SOL     OW 1219   1.042   1.385   0.353
  107SOL    HW1 1220   1.083   1.392   0.444
  107SOL    HW2 1221   1.109   1.409   0.283
  108SOL     OW 1222   3.378   0.024   5.713
  108SOL    HW1 1223   3.396   6.964   5.668
  108SOL    HW2 1224   3.280   0.035   5.729
  109SOL     OW 1225   1.668   0.999   2.382
  109SOL    HW1 1226   1.573   1.005   2.353
  109SOL    HW2 1227   1.699   0.904   2.375
  110SOL     OW 1228   2.683   5.352   4.239
  110SOL    HW1 1229   2.677   5.451   4.252
  110SOL    HW2 1230   2.599   5.310   4.271
  111SOL     OW 1231   1.990   1.148   3.981
  111SOL    HW1 1232   2.065   1.088   4.008
  111SOL    HW2 1233   2.004   1.179   3.887
  112SOL     OW 1234   3.367   5.742   6.417
  112SOL    HW1 1235   3.407   5.759   6.327
  112SOL    HW2 1236   3.267   5.740   6.409
  113SOL     OW 1237   0.963   5.920   2.353
  113SOL    HW1 1238   0.999   5.896   2.262
  113SOL    HW2 1239   1.013   5.868   2.422
  114SOL     OW 1240   0.796   6.619   2.119
  114SOL    HW1 1241   0.790   6.703   2.171
  114SOL    HW2 1242   0.731   6.552   2.155
  115SOL     OW 1243   4.882   1.356   3.021
  115SOL    HW1 1244   4.948   1.290   3.055
  115SOL    HW2 1245   4.878   1.353   2.921
  116SOL     OW 1246   6.318   5.917   1.563
  116SOL    HW1 1247   6.415   5.898   1.548
  116SOL    HW2 1248   6.309   5.978   1.642
  117SOL     OW 1249   1.247   1.412   1.192
  117SOL    HW1 1250   1.319   1.479   1.210
  117SOL    HW2 1251   1.284   1.320   1.205
  118SOL     OW 1252   1.086   1.184   2.005
  118SOL    HW1 1253   1.038   1.108   2.049
  118SOL    HW2 1254   1.030   1.267   2.011
  119SOL     OW 1255   0.204   0.325   0.437
  119SOL    HW1 1256   0.185   0.244   0.493
  119SOL    HW2 1257   0.284   0.372   0.473
  120SOL     OW 1258   5.139   1.235   5.770
  120SOL    HW1 1259   5.062   1.297   5.766
  120SOL    HW2 1260   5.119   1.160   5.833
  121SOL     OW 1261   2.085   2.745   0.302
  121SOL    HW1 1262   2.092   2.645   0.294
  121SOL    HW2 1263   2.114   2.787   0.217
  122SOL     OW 1264   1.479   3.688   6.675
  122SOL    HW1 1265   1.488   3.679   6.775
  122SOL    HW2 1266   1.448   3.601   6.637
  123SOL     OW 1267   0.745   1.133   2.814
  123SOL    HW1 1268   0.686   1.175   2.883
  123SOL    HW2 1269   0.834   1.112   2.855
  124SOL     OW 1270   3.982   2.515   0.850
  124SOL    HW1 1271   4.048   2.572   0.801
  124SOL    HW2 1272   4.029   2.441   0.896
  125SOL     OW 1273   3.675   2.476   0.434
  125SOL    HW1 1274   3.687   2.436   0.525
  125SOL    HW2 1275   3.715   2.415   0.365
  126SOL     OW 1276   2.988   4.174   1.481
  126SOL    HW1 1277   2.949   4.236   1.412
  126SOL    HW2 1278   2.943   4.189   1.569
  127SOL     OW 1279   0.884   4.828   6.883
  127SOL    HW1 1280   0.947   4.806   6.958
  127SOL    HW2 1281   0.884   4.753   6.817
  128SOL     OW 1282   4.546   2.561   1.125
  128SOL    HW1 1283   4.615   2.492   1.145
  128SOL    HW2 1284   4.533   2.619   1.205
  129SOL     OW 1285   3.233   3.711   6.053
  129SOL    HW1 1286   3.178   3.670   6.126
  129SOL    HW2 1287   3.330   3.694   6.071
  130SOL     OW 1288   1.599   1.583   4.551
  130SOL    HW1 1289   1.676   1.645   4.536
  130SOL    HW2 1290   1.607   1.505   4.489
  131SOL     OW 1291   4.491   0.692   3.371
  131SOL    HW1 1292   4.397   0.675   3.341
  131SOL    HW2 1293   4.522   0.615   3.427
  132SOL     OW 1294   3.021   2.741   1.726
  132SOL    HW1 1295   2.996   2.652   1.764
  132SOL    HW2 1296   3.079   2.790   1.792
  133SOL     OW 1297   5.024   0.672   4.242
  133SOL    HW1 1298   5.019   0.764   4.282
  133SOL    HW2 1299   5.110   0.663   4.192
  134SOL     OW 1300   6.884   1.208   2.525
  134SOL    HW1 1301   6.856   1.113   2.534
  134SOL    HW2 1302   6.882   1.234   2.428
  135SOL     OW 1303   5.122   3.715   3.717
  135SOL    HW1 1304   5.076   3.675   3.638
  135SOL    HW2 1305   5.216   3.739   3.693
  136SOL     OW 1306   1.584   5.184   5.038
  136SOL    HW1 1307   1.603   5.196   5.135
  136SOL    HW2 1308   1.666   5.151   4.991
  137SOL     OW 1309   4.993   1.844   2.773
  137SOL    HW1 1310   4.911   1.866   2.825
  137SOL    HW2 1311   5.063   1.913   2.792
  138SOL     OW 1312   0.945   3.778   3.099
  138SOL    HW1 1313   0.986   3.845   3.036
  138SOL    HW2 1314   0.944   3.816   3.191
  139SOL     OW 1315   1.576   6.958   5.363
  139SOL    HW1 1316   1.639   6.925   5.434
  139SOL    HW2 1317   1.490   6.985   5.405
  140SOL     OW 1318   1.581   6.897   3.958
  140SOL    HW1 1319   1.519   6.837   3.907
  140SOL    HW2 1320   1.654   6.928   3.896
  141SOL     OW 1321   0.150   2.634   4.791
  141SOL    HW1 1322   0.142   2.689   4.874
  141SOL    HW2 1323   0.080   2.663   4.725
  142SOL     OW 1324   1.555   4.585   1.479
  142SOL    HW1 1325   1.645   4.621   1.454
  142SOL    HW2 1326   1.506   4.557   1.396
  143SOL     OW 1327   6.227   4.590   7.004
  143SOL    HW1 1328   6.164   4.551   0.044
  143SOL    HW2 1329   6.178   4.654   6.946
  144SOL     OW 1330   1.337   4.374   5.795
  144SOL    HW1 1331   1.408   4.444   5.808
  144SOL    HW2 1332   1.359   4.320   5.714
  145SOL     OW 1333   1.736   5.052   1.478
  145SOL    HW1 1334   1.835   5.046   1.467
  145SOL    HW2 1335   1.714   5.093   1.566
  146SOL     OW 1336   5.100   0.201   5.654
  146SOL    HW1 1337   5.014   0.177   5.610
  146SOL    HW2 1338   5.092   0.292   5.696
  147SOL     OW 1339   5.517   2.591   6.045
  147SOL    HW1 1340   5.575   2.543   5.979
  147SOL    HW2 1341   5.491   2.529   6.119
  148SOL     OW 1342   0.043   5.435   0.661
  148SOL    HW1 1343   0.104   5.379   0.605
  148SOL    HW2 1344   6.975   5.415   0.636
  149SOL     OW 1345   3.501   2.148   4.226
  149SOL    HW1 1346   3.518   2.052   4.203
  149SOL    HW2 1347   3.572   2.205   4.184
  150SOL     OW 1348   5.608   7.026   6.971
  150SOL    HW1 1349   5.593   0.055   6.890
  150SOL    HW2 1350   5.705   7.005   6.980
  151SOL     OW 1351   3.117   1.267   1.936
  151SOL    HW1 1352   3.172   1.290   1.855
  151SOL    HW2 1353   3.069   1.350   1.967
  152SOL     OW 1354   6.891   1.029   1.680
  152SOL    HW1 1355   6.961   1.050   1.612
  152SOL    HW2 1356   6.820   1.099   1.677
  153SOL     OW 1357   2.842   0.201   3.608
  153SOL    HW1 1358   2.814   0.109   3.635
  153SOL    HW2 1359   2.863   0.255   3.690
  154SOL     OW 1360   0.847   3.300   1.148
  154SOL    HW1 1361   0.786   3.356   1.204
  154SOL    HW2 1362   0.928   3.275   1.201
  155SOL     OW 1363   0.871   1.493   5.535
  155SOL    HW1 1364   0.840   1.517   5.627
  155SOL    HW2 1365   0.847   1.566   5.471
  156SOL     OW 1366   6.822   0.771   0.991
  156SOL    HW1 1367   6.888   0.720   1.046
  156SOL    HW2 1368   6.783   0.845   1.046
  157SOL     OW 1369   5.690   3.002   1.328
  157SOL    HW1 1370   5.601   2.975   1.364
  157SOL    HW2 1371   5.760   2.938   1.359
  158SOL     OW 1372   1.223   3.050   1.873
  158SOL    HW1 1373   1.214   2.965   1.821
  158SOL    HW2 1374   1.227   3.029   1.971
  159SOL     OW 1375   4.373   4.904   2.344
  159SOL    HW1 1376   4.292   4.852   2.317
  159SOL    HW2 1377   4.370   4.994   2.300
  160SOL     OW 1378   5.364   6.659   0.852
  160SOL    HW1 1379   5.298   6.714   0.801
  160SOL    HW2 1380   5.317   6.585   0.899
  161SOL     OW 1381   1.239   6.350   3.438
  161SOL    HW1 1382   1.174   6.293   3.388
  161SOL    HW2 1383   1.267   6.427   3.380
  162SOL     OW 1384   3.920   6.188   7.005
  162SOL    HW1 1385   3.824   6.206   0.001
  162SOL    HW2 1386   3.933   6.089   6.993
  163SOL     OW 1387   6.357   5.833   2.167
  163SOL    HW1 1388   6.447   5.854   2.129
  163SOL    HW2 1389   6.366   5.819   2.266
  164SOL     OW 1390   0.721   4.299   2.824
  164SOL    HW1 1391   0.642   4.237   2.826
  164SOL    HW2 1392   0.709   4.370   2.894
  165SOL     OW 1393   4.945   4.101   0.990
  165SOL    HW1 1394   4.879   4.045   1.040
  165SOL    HW2 1395   4.930   4.090   0.892
  166SOL     OW 1396   1.521   3.203   2.375
  166SOL    HW1 1397   1.542   3.132   2.308
  166SOL    HW2 1398   1.491   3.161   2.460
  167SOL     OW 1399   5.485   2.589   6.971
  167SOL    HW1 1400   5.555   2.537   7.021
  167SOL    HW2 1401   5.523   2.676   6.941
  168SOL     OW 1402   3.466   2.753   0.660
  168SOL    HW1 1403   3.498   2.708   0.743
  168SOL    HW2 1404   3.367   2.748   0.655
  169SOL     OW 1405   6.748   1.970   1.381
  169SOL    HW1 1406   6.778   1.880   1.351
  169SOL    HW2 1407   6.670   1.999   1.325
  170SOL     OW 1408   0.326   6.861   2.394
  170SOL    HW1 1409   0.227   6.849   2.403
  170SOL    HW2 1410   0.369   6.774   2.371
  171SOL     OW 1411   2.516   3.945   6.777
  171SOL    HW1 1412   2.611   3.953   6.749
  171SOL    HW2 1413   2.457   3.946   6.696
  172SOL     OW 1414   6.216   1.040   2.679
  172SOL    HW1 1415   6.131   1.074   2.719
  172SOL    HW2 1416   6.288   1.109   2.690
  173SOL     OW 1417   6.439   1.292   3.931
  173SOL    HW1 1418   6.504   1.337   3.870
  173SOL    HW2 1419   6.347   1.299   3.893
  174SOL     OW 1420   3.928   5.190   3.604
  174SOL    HW1 1421   3.995   5.117   3.612
  174SOL    HW2 1422   3.873   5.176   3.521
  175SOL     OW 1423   2.931   0.406   1.527
  175SOL    HW1 1424   2.929   0.453   1.616
  175SOL    HW2 1425   2.990   0.326   1.533
  176SOL     OW 1426   6.801   4.698   1.133
  176SOL    HW1 1427   6.860   4.626   1.094
  176SOL    HW2 1428   6.841   4.731   1.219
  177SOL     OW 1429   5.766   3.555   3.856
  177SOL    HW1 1430   5.673   3.548   3.892
  177SOL    HW2 1431   5.830   3.567   3.931
  178SOL     OW 1432   3.511   4.502   5.724
  178SOL    HW1 1433   3.439   4.454   5.774
  178SOL    HW2 1434   3.473   4.543   5.641
  179SOL     OW 1435   4.190   1.521   5.840
  179SOL    HW1 1436   4.279   1.506   5.882
  179SOL    HW2 1437   4.147   1.433   5.819
  180SOL     OW 1438   2.200   6.900   0.386
  180SOL    HW1 1439   2.137   6.839   0.433
  180SOL    HW2 1440   2.278   6.920   0.446
  181SOL     OW 1441   3.571   3.706   5.955
  181SOL    HW1 1442   3.601   3.621   5.911
  181SOL    HW2 1443   3.546   3.687   6.050
  182SOL     OW 1444   3.700   2.029   5.822
  182SOL    HW1 1445   3.664   2.118   5.795
  182SOL    HW2 1446   3.798   2.026   5.806
  183SOL     OW 1447   3.431   1.690   3.691
  183SOL    HW1 1448   3.494   1.766   3.705
  183SOL    HW2 1449   3.360   1.717   3.627
  184SOL     OW 1450   0.802   6.555   4.209
  184SOL    HW1 1451   0.746   6.580   4.288
  184SOL    HW2 1452   0.768   6.470   4.169
  185SOL     OW 1453   0.785   0.753   5.496
  185SOL    HW1 1454   0.864   0.767   5.556
  185SOL    HW2 1455   0.705   0.732   5.552
  186SOL     OW 1456   6.163   1.107   4.094
  186SOL    HW1 1457   6.165   1.060   4.006
  186SOL    HW2 1458   6.108   1.190   4.086
  187SOL     OW 1459   5.053   6.819   2.226
  187SOL    HW1 1460   4.982   6.756   2.256
  187SOL    HW2 1461   5.108   6.776   2.154
  188SOL     OW 1462   1.492   3.076   3.073
  188SOL    HW1 1463   1.434   3.063   3.154
  188SOL    HW2 1464   1.434   3.081   2.991
  189SOL     OW 1465   2.528   5.790   0.575
  189SOL    HW1 1466   2.444   5.756   0.618
  189SOL    HW2 1467   2.597   5.718   0.574
  190SOL     OW 1468   5.872   3.223   5.587
  190SOL    HW1 1469   5.893   3.247   5.492
  190SOL    HW2 1470   5.820   3.138   5.589
  191SOL     OW 1471   5.590   0.445   6.638
  191SOL    HW1 1472   5.574   0.544   6.648
  191SOL    HW2 1473   5.619   0.408   6.726
  192SOL     OW 1474   0.868   5.005   2.543
  192SOL    HW1 1475   0.846   4.908   2.537
  192SOL    HW2 1476   0.897   5.028   2.636
  193SOL     OW 1477   4.332   3.573   5.213
  193SOL    HW1 1478   4.302   3.513   5.288
  193SOL    HW2 1479   4.432   3.577   5.212
  194SOL     OW 1480   3.824   0.102   2.708
  194SOL    HW1 1481   3.765   0.166   2.757
  194SOL    HW2 1482   3.795   0.008   2.728
  195SOL     OW 1483   1.699   0.391   4.282
  195SOL    HW1 1484   1.642   0.342   4.216
  195SOL    HW2 1485   1.641   0.450   4.339
  196SOL     OW 1486   2.793   0.312   0.586
  196SOL    HW1 1487   2.887   0.316   0.551
  196SOL    HW2 1488   2.752   0.403   0.581
  197SOL     OW 1489   2.536   0.370   1.615
  197SOL    HW1 1490   2.461   0.304   1.619
  197SOL    HW2 1491   2.575   0.382   1.706
  198SOL     OW 1492   4.869   6.942   2.032
  198SOL    HW1 1493   4.947   6.915   2.088
  198SOL    HW2 1494   4.898   6.950   1.936
  199SOL     OW 1495   6.619   1.427   3.516
  199SOL    HW1 1496   6.621   1.521   3.480
  199SOL    HW2 1497   6.529   1.409   3.555
  200SOL     OW 1498   1.271   4.107   1.581
  200SOL    HW1 1499   1.217   4.172   1.634
  200SOL    HW2 1500   1.274   4.136   1.485
  201SOL     OW 1501   6.835   0.054   6.221
  201SOL    HW1 1502   6.889   0.137   6.215
  201SOL    HW2 1503   6.763   0.055   6.152
  202SOL     OW 1504   4.940   0.475   5.847
  202SOL    HW1 1505   4.895   0.441   5.764
  202SOL    HW2 1506   4.874   0.479   5.921
  203SOL     OW 1507   4.340   2.417   4.280
  203SOL    HW1 1508   4.265   2.365   4.239
  203SOL    HW2 1509   4.323   2.428   4.378
  204SOL     OW 1510   0.289   1.023   6.295
  204SOL    HW1 1511   0.349   1.008   6.373
  204SOL    HW2 1512   0.271   1.120   6.284
  205SOL     OW 1513   0.465   0.843   3.475
  205SOL    HW1 1514   0.429   0.846   3.569
  205SOL    HW2 1515   0.556   0.884   3.474
  206SOL     OW 1516   0.276   4.775   1.855
  206SOL    HW1 1517   0.224   4.859   1.875
  206SOL    HW2 1518   0.342   4.760   1.929
  207SOL     OW 1519   5.026   1.281   3.620
  207SOL    HW1 1520   5.041   1.188   3.653
  207SOL    HW2 1521   4.951   1.323   3.671
  208SOL     OW 1522   5.773   2.902   5.336
  208SOL    HW1 1523   5.693   2.961   5.320
  208SOL    HW2 1524   5.811   2.873   5.248
  209SOL     OW 1525   0.525   4.571   4.735
  209SOL    HW1 1526   0.470   4.488   4.724
  209SOL    HW2 1527   0.489   4.625   4.811
  210SOL     OW 1528   4.441   2.022   0.766
  210SOL    HW1 1529   4.523   2.051   0.816
  210SOL    HW2 1530   4.388   1.959   0.822
  211SOL     OW 1531   2.587   6.083   3.546
  211SOL    HW1 1532   2.576   6.006   3.483
  211SOL    HW2 1533   2.659   6.144   3.511
  212SOL     OW 1534   1.865   4.327   1.443
  212SOL    HW1 1535   1.930   4.273   1.496
  212SOL    HW2 1536   1.878   4.424   1.463
  213SOL     OW 1537   3.169   0.659   6.330
  213SOL    HW1 1538   3.137   0.698   6.243
  213SOL    HW2 1539   3.150   0.561   6.332
  214SOL     OW 1540   4.772   5.541   2.014
  214SOL    HW1 1541   4.856   5.578   1.974
  214SOL    HW2 1542   4.795   5.485   2.094
  215SOL     OW 1543   2.349   3.639   0.782
  215SOL    HW1 1544   2.270   3.701   0.789
  215SOL    HW2 1545   2.371   3.602   0.872
  216SOL     OW 1546   2.208   5.848   4.656
  216SOL    HW1 1547   2.137   5.820   4.592
  216SOL    HW2 1548   2.277   5.777   4.663
  217SOL     OW 1549   2.044   2.585   4.038
  217SOL    HW1 1550   2.003   2.639   3.965
  217SOL    HW2 1551   1.993   2.500   4.050
  218SOL     OW 1552   1.153   2.991   4.555
  218SOL    HW1 1553   1.067   3.030   4.589
  218SOL    HW2 1554   1.141   2.965   4.459
  219SOL     OW 1555   4.036   6.590   5.752
  219SOL    HW1 1556   4.035   6.689   5.734
  219SOL    HW2 1557   4.119   6.550   5.712
  220SOL     OW 1558   3.939   6.551   0.638
  220SOL    HW1 1559   3.939   6.631   0.577
  220SOL    HW2 1560   3.956   6.581   0.732
  221SOL     OW 1561   6.272   3.039   2.069
  221SOL    HW1 1562   6.363   3.024   2.029
  221SOL    HW2 1563   6.236   3.127   2.039
  222SOL     OW 1564   2.757   5.125   5.876
  222SOL    HW1 1565   2.665   5.085   5.879
  222SOL    HW2 1566   2.817   5.068   5.821
  223SOL     OW 1567   5.877   3.014   0.884
  223SOL    HW1 1568   5.839   2.928   0.851
  223SOL    HW2 1569   5.824   3.047   0.962
  224SOL     OW 1570   2.049   2.004   4.458
  224SOL    HW1 1571   2.080   1.967   4.371
  224SOL    HW2 1572   2.104   1.965   4.532
  225SOL     OW 1573   5.147   2.833   6.226
  225SOL    HW1 1574   5.075   2.864   6.163
  225SOL    HW2 1575   5.229   2.810   6.174
  226SOL     OW 1576   1.401   0.588   6.291
  226SOL    HW1 1577   1.439   0.630   6.374
  226SOL    HW2 1578   1.475   0.571   6.226
  227SOL     OW 1579   1.612   3.556   3.269
  227SOL    HW1 1580   1.541   3.527   3.205
  227SOL    HW2 1581   1.574   3.564   3.361
  228SOL     OW 1582   3.315   6.375   3.597
  228SOL    HW1 1583   3.390   6.393   3.660
  228SOL    HW2 1584   3.317   6.279   3.568
  229SOL     OW 1585   4.947   5.915   0.064
  229SOL    HW1 1586   4.898   5.887   7.009
  229SOL    HW2 1587   4.882   5.943   0.134
  230SOL     OW 1588   2.818   4.891   3.081
  230SOL    HW1 1589   2.805   4.827   3.005
  230SOL    HW2 1590   2.772   4.977   3.061
  231SOL     OW 1591   5.950   1.676   6.629
  231SOL    HW1 1592   5.920   1.696   6.722
  231SOL    HW2 1593   6.039   1.629   6.632
  232SOL     OW 1594   1.376   3.766   6.240
  232SOL    HW1 1595   1.401   3.845   6.183
  232SOL    HW2 1596   1.286   3.732   6.213
  233SOL     OW 1597   2.412   2.058   4.125
  233SOL    HW1 1598   2.370   1.984   4.072
  233SOL    HW2 1599   2.450   2.126   4.062
  234SOL     OW 1600   4.394   6.482   5.005
  234SOL    HW1 1601   4.404   6.383   4.996
  234SOL    HW2 1602   4.368   6.521   4.917
  235SOL     OW 1603   3.644   3.092   1.756
  235SOL    HW1 1604   3.575   3.086   1.683
  235SOL    HW2 1605   3.598   3.107   1.844
  236SOL     OW 1606   5.368   2.943   6.849
  236SOL    HW1 1607   5.416   2.987   6.773
  236SOL    HW2 1608   5.344   2.850   6.823
  237SOL     OW 1609   6.285   5.386   2.171
  237SOL    HW1 1610   6.263   5.469   2.119
  237SOL    HW2 1611   6.238   5.308   2.130
  238SOL     OW 1612   5.379   2.173   6.996
  238SOL    HW1 1613   5.462   2.228   7.008
  238SOL    HW2 1614   5.404   2.083   6.962
  239SOL     OW 1615   0.168   5.816   6.261
  239SOL    HW1 1616   0.225   5.836   6.181
  239SOL    HW2 1617   0.154   5.717   6.268
  240SOL     OW 1618   0.666   2.544   4.000
  240SOL    HW1 1619   0.713   2.489   4.069
  240SOL    HW2 1620   0.624   2.624   4.044
  241SOL     OW 1621   1.650   0.061   4.970
  241SOL    HW1 1622   1.694   0.151   4.970
  241SOL    HW2 1623   1.719   7.017   4.960
  242SOL     OW 1624   2.832   3.181   5.584
  242SOL    HW1 1625   2.796   3.126   5.508
  242SOL    HW2 1626   2.928   3.204   5.566
  243SOL     OW 1627   4.694   0.531   6.039
  243SOL    HW1 1628   4.673   0.582   5.955
  243SOL    HW2 1629   4.632   0.453   6.047
  244SOL     OW 1630   5.609   2.646   4.745
  244SOL    HW1 1631   5.542   2.578   4.715
  244SOL    HW2 1632   5.566   2.736   4.748
  245SOL     OW 1633   6.522   3.686   4.962
  245SOL    HW1 1634   6.538   3.775   5.004
  245SOL    HW2 1635   6.538   3.693   4.863
  246SOL     OW 1636   5.282   2.604   3.275
  246SOL    HW1 1637   5.342   2.684   3.286
  246SOL    HW2 1638   5.204   2.613   3.337
  247SOL     OW 1639   3.225   1.634   1.763
  247SOL    HW1 1640   3.254   1.541   1.742
  247SOL    HW2 1641   3.276   1.699   1.705
  248SOL     OW 1642   3.995   1.957   2.910
  248SOL    HW1 1643   3.948   2.024   2.968
  248SOL    HW2 1644   3.928   1.896   2.869
  249SOL     OW 1645   4.401   7.012   6.114
  249SOL    HW1 1646   4.428   6.983   6.206
  249SOL    HW2 1647   4.323   0.048   6.120
  250SOL     OW 1648   5.681   2.781   0.933
  250SOL    HW1 1649   5.659   2.703   0.874
  250SOL    HW2 1650   5.603   2.844   0.935
  251SOL     OW 1651   4.712   3.628   5.563
  251SOL    HW1 1652   4.684   3.544   5.608
  251SOL    HW2 1653   4.810   3.625   5.543
  252SOL     OW 1654   6.488   0.144   6.413
  252SOL    HW1 1655   6.448   0.105   6.497
  252SOL    HW2 1656   6.498   0.072   6.345
  253SOL     OW 1657   2.256   4.169   6.702
  253SOL    HW1 1658   2.296   4.079   6.683
  253SOL    HW2 1659   2.317   4.240   6.668
  254SOL     OW 1660   4.920   3.336   3.059
  254SOL    HW1 1661   4.964   3.316   2.972
  254SOL    HW2 1662   4.881   3.252   3.097
  255SOL     OW 1663   2.195   3.263   4.615
  255SOL    HW1 1664   2.212   3.220   4.703
  255SOL    HW2 1665   2.155   3.354   4.629
  256SOL     OW 1666   5.885   4.211   6.501
  256SOL    HW1 1667   5.816   4.231   6.432
  256SOL    HW2 1668   5.844   4.215   6.592
  257SOL     OW 1669   4.543   6.989   4.002
  257SOL    HW1 1670   4.580   6.979   4.095
  257SOL    HW2 1671   4.466   6.927   3.990
  258SOL     OW 1672   0.315   4.736   4.909
  258SOL    HW1 1673   0.304   4.807   4.978
  258SOL    HW2 1674   0.308   4.777   4.818
  259SOL     OW 1675   1.579   2.155   2.237
  259SOL    HW1 1676   1.534   2.242   2.222
  259SOL    HW2 1677   1.665   2.152   2.186
  260SOL     OW 1678   4.637   1.153   0.854
  260SOL    HW1 1679   4.658   1.243   0.817
  260SOL    HW2 1680   4.639   1.086   0.780
  261SOL     OW 1681   6.750   3.726   0.347
  261SOL    HW1 1682   6.727   3.814   0.306
  261SOL    HW2 1683   6.740   3.654   0.279
  262SOL     OW 1684   0.188   4.416   0.455
  262SOL    HW1 1685   0.247   4.361   0.515
  262SOL    HW2 1686   0.092   4.394   0.472
  263SOL     OW 1687   0.473   0.803   4.011
  263SOL    HW1 1688   0.523   0.881   4.050
  263SOL    HW2 1689   0.500   0.720   4.058
  264SOL     OW 1690   4.691   3.032   6.017
  264SOL    HW1 1691   4.661   2.971   5.943
  264SOL    HW2 1692   4.615   3.048   6.080
  265SOL     OW 1693   4.921   4.817   3.249
  265SOL    HW1 1694   4.903   4.720   3.232
  265SOL    HW2 1695   4.834   4.867   3.249
  266SOL     OW 1696   3.836   3.449   5.652
  266SOL    HW1 1697   3.741   3.439   5.680
  266SOL    HW2 1698   3.864   3.367   5.601
  267SOL     OW 1699   6.109   2.218   6.065
  267SOL    HW1 1700   6.157   2.131   6.075
  267SOL    HW2 1701   6.092   2.257   6.155
  268SOL     OW 1702   4.136   0.134   5.069
  268SOL    HW1 1703   4.059   0.099   5.016
  268SOL    HW2 1704   4.213   0.070   5.063
  269SOL     OW 1705   1.581   3.344   1.243
  269SOL    HW1 1706   1.555   3.362   1.148
  269SOL    HW2 1707   1.531   3.406   1.304
  270SOL     OW 1708   7.020   0.281   0.906
  270SOL    HW1 1709   6.968   0.353   0.952
  270SOL    HW2 1710   6.969   0.195   0.908
  271SOL     OW 1711   2.881   1.138   0.714
  271SOL    HW1 1712   2.886   1.229   0.672
  271SOL    HW2 1713   2.801   1.090   0.678
  272SOL     OW 1714   3.189   5.047   4.082
  272SOL    HW1 1715   3.189   4.997   3.995
  272SOL    HW2 1716   3.165   4.984   4.156
  273SOL     OW 1717   2.182   5.072   4.482
  273SOL    HW1 1718   2.128   5.019   4.548
  273SOL    HW2 1719   2.273   5.089   4.519
  274SOL     OW 1720   4.941   2.486   3.478
  274SOL    HW1 1721   4.921   2.388   3.477
  274SOL    HW2 1722   5.038   2.500   3.494
  275SOL     OW 1723   6.352   5.043   6.054
  275SOL    HW1 1724   6.326   4.968   6.115
  275SOL    HW2 1725   6.451   5.043   6.042
  276SOL     OW 1726   0.274   5.109   2.665
  276SOL    HW1 1727   0.221   5.146   2.588
  276SOL    HW2 1728   0.346   5.173   2.690
  277SOL     OW 1729   2.412   3.551   0.185
  277SOL    HW1 1730   2.356   3.615   0.131
  277SOL    HW2 1731   2.384   3.555   0.281
  278SOL     OW 1732   0.252   5.279   1.892
  278SOL    HW1 1733   0.300   5.334   1.960
  278SOL    HW2 1734   0.159   5.316   1.879
  279SOL     OW 1735   6.988   3.344   4.377
  279SOL    HW1 1736   6.950   3.260   4.413
  279SOL    HW2 1737   6.940   3.423   4.416
  280SOL     OW 1738   1.865   6.814   2.933
  280SOL    HW1 1739   1.863   6.743   3.003
  280SOL    HW2 1740   1.921   6.784   2.856
  281SOL     OW 1741   3.391   4.885   2.178
  281SOL    HW1 1742   3.293   4.896   2.159
  281SOL    HW2 1743   3.438   4.860   2.094
  282SOL     OW 1744   3.727   1.759   5.622
  282SOL    HW1 1745   3.649   1.764   5.560
  282SOL    HW2 1746   3.694   1.738   5.715
  283SOL     OW 1747   6.612   1.147   5.944
  283SOL    HW1 1748   6.524   1.159   5.899
  283SOL    HW2 1749   6.599   1.142   6.043
  284SOL     OW 1750   0.682   4.346   4.690
  284SOL    HW1 1751   0.623   4.358   4.610
  284SOL    HW2 1752   0.674   4.424   4.751
  285SOL     OW 1753   5.742   5.214   6.322
  285SOL    HW1 1754   5.811   5.183   6.257
  285SOL    HW2 1755   5.655   5.227   6.274
  286SOL     OW 1756   3.412   5.265   5.365
  286SOL    HW1 1757   3.479   5.307   5.426
  286SOL    HW2 1758   3.351   5.336   5.328
  287SOL     OW 1759   0.704   4.600   6.868
  287SOL    HW1 1760   0.661   4.510   6.878
  287SOL    HW2 1761   0.804   4.589   6.870
  288SOL     OW 1762   4.449   2.503   6.695
  288SOL    HW1 1763   4.383   2.496   6.621
  288SOL    HW2 1764   4.412   2.461   6.778
  289SOL     OW 1765   6.912   5.472   5.491
  289SOL    HW1 1766   6.978   5.471   5.416
  289SOL    HW2 1767   6.943   5.535   5.561
  290SOL     OW 1768   4.882   1.601   3.561
  290SOL    HW1 1769   4.839   1.553   3.637
  290SOL    HW2 1770   4.970   1.638   3.590
  291SOL     OW 1771   2.686   1.735   4.989
  291SOL    HW1 1772   2.734   1.700   4.908
  291SOL    HW2 1773   2.753   1.763   5.058
  292SOL     OW 1774   2.572   1.870   2.682
  292SOL    HW1 1775   2.516   1.952   2.675
  292SOL    HW2 1776   2.545   1.804   2.612
  293SOL     OW 1777   5.081   4.912   1.833
  293SOL    HW1 1778   4.999   4.914   1.777
  293SOL    HW2 1779   5.161   4.901   1.774
  294SOL     OW 1780   6.374   5.640   6.521
  294SOL    HW1 1781   6.442   5.713   6.530
  294SOL    HW2 1782   6.357   5.600   6.611
  295SOL     OW 1783   3.226   1.509   4.638
  295SOL    HW1 1784   3.260   1.512   4.544
  295SOL    HW2 1785   3.295   1.467   4.697
  296SOL     OW 1786   6.072   1.891   2.252
  296SOL    HW1 1787   6.005   1.817   2.249
  296SOL    HW2 1788   6.164   1.854   2.260
  297SOL     OW 1789   2.675   4.849   2.833
  297SOL    HW1 1790   2.750   4.853   2.766
  297SOL    HW2 1791   2.629   4.938   2.836
  298SOL     OW 1792   3.087   6.096   0.635
  298SOL    HW1 1793   3.057   6.106   0.730
  298SOL    HW2 1794   3.050   6.011   0.598
  299SOL     OW 1795   4.048   3.147   6.554
  299SOL    HW1 1796   4.031   3.078   6.624
  299SOL    HW2 1797   4.031   3.238   6.592
  300SOL     OW 1798   5.398   0.614   2.081
  300SOL    HW1 1799   5.416   0.690   2.019
  300SOL    HW2 1800   5.299   0.601   2.091
  301SOL     OW 1801   5.801   3.107   0.616
  301SOL    HW1 1802   5.854   3.078   0.696
  301SOL    HW2 1803   5.753   3.029   0.578
  302SOL     OW 1804   0.032   0.886   3.929
  302SOL    HW1 1805   0.099   0.939   3.982
  302SOL    HW2 1806   0.062   0.878   3.834
  303SOL     OW 1807   6.507   6.757   2.191
  303SOL    HW1 1808   6.486   6.784   2.097
  303SOL    HW2 1809   6.604   6.735   2.199
  304SOL     OW 1810   1.537   6.542   5.588
  304SOL    HW1 1811   1.622   6.498   5.617
  304SOL    HW2 1812   1.470   6.473   5.563
  305SOL     OW 1813   1.353   3.259   6.949
  305SOL    HW1 1814   1.272   3.249   6.892
  305SOL    HW2 1815   1.400   3.171   6.956
  306SOL     OW 1816   1.750   0.205   3.633
  306SOL    HW1 1817   1.704   0.251   3.557
  306SOL    HW2 1818   1.839   0.171   3.603
  307SOL     OW 1819   4.826   5.962   0.628
  307SOL    HW1 1820   4.898   5.983   0.561
  307SOL    HW2 1821   4.799   5.866   0.620
  308SOL     OW 1822   6.015   3.562   4.321
  308SOL    HW1 1823   5.997   3.468   4.294
  308SOL    HW2 1824   6.080   3.564   4.397
  309SOL     OW 1825   2.410   5.898   0.107
  309SOL    HW1 1826   2.487   5.836   0.094
  309SOL    HW2 1827   2.441   5.993   0.094
  310SOL     OW 1828   5.531   6.466   5.287
  310SOL    HW1 1829   5.525   6.543   5.351
  310SOL    HW2 1830   5.503   6.382   5.334
  311SOL     OW 1831   4.349   4.967   2.915
  311SOL    HW1 1832   4.298   4.989   2.832
  311SOL    HW2 1833   4.366   4.868   2.917
  312SOL     OW 1834   4.149   1.190   4.787
  312SOL    HW1 1835   4.110   1.123   4.723
  312SOL    HW2 1836   4.238   1.159   4.819
  313SOL     OW 1837   3.013   3.600   2.338
  313SOL    HW1 1838   3.041   3.505   2.354
  313SOL    HW2 1839   2.990   3.613   2.242
  314SOL     OW 1840   2.880   5.260   6.702
  314SOL    HW1 1841   2.902   5.326   6.774
  314SOL    HW2 1842   2.965   5.220   6.667
  315SOL     OW 1843   1.120   3.181   3.986
  315SOL    HW1 1844   1.194   3.211   3.926
  315SOL    HW2 1845   1.144   3.202   4.081
  316SOL     OW 1846   2.836   1.230   4.374
  316SOL    HW1 1847   2.877   1.183   4.452
  316SOL    HW2 1848   2.816   1.164   4.302
  317SOL     OW 1849   6.999   1.328   0.798
  317SOL    HW1 1850   6.972   1.356   0.890
  317SOL    HW2 1851   6.941   1.252   0.767
  318SOL     OW 1852   0.849   5.635   6.599
  318SOL    HW1 1853   0.853   5.696   6.520
  318SOL    HW2 1854   0.765   5.652   6.650
  319SOL     OW 1855   6.344   1.188   3.357
  319SOL    HW1 1856   6.342   1.288   3.359
  319SOL    HW2 1857   6.292   1.155   3.277
  320SOL     OW 1858   6.742   2.465   1.493
  320SOL    HW1 1859   6.657   2.479   1.543
  320SOL    HW2 1860   6.797   2.549   1.496
  321SOL     OW 1861   4.005   1.923   6.959
  321SOL    HW1 1862   4.068   1.873   7.019
  321SOL    HW2 1863   4.017   1.893   6.865
  322SOL     OW 1864   3.523   2.942   4.287
  322SOL    HW1 1865   3.542   2.846   4.308
  322SOL    HW2 1866   3.442   2.972   4.337
  323SOL     OW 1867   1.185   2.907   6.632
  323SOL    HW1 1868   1.157   2.883   6.539
  323SOL    HW2 1869   1.280   2.937   6.631
  324SOL     OW 1870   2.652   1.110   5.074
  324SOL    HW1 1871   2.655   1.210   5.079
  324SOL    HW2 1872   2.727   1.072   5.129
  325SOL     OW 1873   0.635   2.830   2.007
  325SOL    HW1 1874   0.628   2.878   1.920
  325SOL    HW2 1875   0.586   2.743   2.001
  326SOL     OW 1876   1.233   5.060   6.774
  326SOL    HW1 1877   1.296   4.982   6.777
  326SOL    HW2 1878   1.267   5.132   6.835
  327SOL     OW 1879   1.396   4.609   3.221
  327SOL    HW1 1880   1.334   4.604   3.143
  327SOL    HW2 1881   1.485   4.644   3.191
  328SOL     OW 1882   1.389   5.747   1.767
  328SOL    HW1 1883   1.290   5.732   1.762
  328SOL    HW2 1884   1.408   5.843   1.783
  329SOL     OW 1885   3.695   3.398   4.858
  329SOL    HW1 1886   3.630   3.434   4.924
  329SOL    HW2 1887   3.776   3.458   4.855
  330SOL     OW 1888   3.856   6.907   1.422
  330SOL    HW1 1889   3.844   6.814   1.387
  330SOL    HW2 1890   3.769   6.956   1.414
  331SOL     OW 1891   3.673   5.488   0.186
  331SOL    HW1 1892   3.707   5.398   0.156
  331SOL    HW2 1893   3.751   5.547   0.208
  332SOL     OW 1894   4.361   1.765   5.223
  332SOL    HW1 1895   4.297   1.707   5.172
  332SOL    HW2 1896   4.310   1.840   5.266
  333SOL     OW 1897   2.913   0.311   6.051
  333SOL    HW1 1898   2.968   0.336   5.971
  333SOL    HW2 1899   2.873   0.393   6.090
  334SOL     OW 1900   3.290   0.403   1.428
  334SOL    HW1 1901   3.318   0.497   1.447
  334SOL    HW2 1902   3.216   0.377   1.490
  335SOL     OW 1903   3.885   0.074   5.515
  335SOL    HW1 1904   3.913   0.123   5.597
  335SOL    HW2 1905   3.965   0.058   5.457
  336SOL     OW 1906   1.675   0.792   3.531
  336SOL    HW1 1907   1.763   0.791   3.578
  336SOL    HW2 1908   1.601   0.803   3.598
  337SOL     OW 1909   0.162   2.623   0.003
  337SOL    HW1 1910   0.096   2.695   7.010
  337SOL    HW2 1911   0.148   2.590   0.097
  338SOL     OW 1912   2.862   2.556   1.507
  338SOL    HW1 1913   2.792   2.572   1.576
  338SOL    HW2 1914   2.935   2.499   1.544
  339SOL     OW 1915   3.287   6.432   3.905
  339SOL    HW1 1916   3.373   6.386   3.883
  339SOL    HW2 1917   3.229   6.435   3.823
  340SOL     OW 1918   4.930   4.319   5.321
  340SOL    HW1 1919   4.981   4.378   5.259
  340SOL    HW2 1920   4.993   4.253   5.363
  341SOL     OW 1921   6.353   0.784   4.661
  341SOL    HW1 1922   6.342   0.883   4.675
  341SOL    HW2 1923   6.286   0.753   4.593
  342SOL     OW 1924   6.096   3.715   0.208
  342SOL    HW1 1925   6.079   3.617   0.219
  342SOL    HW2 1926   6.074   3.742   0.115
  343SOL     OW 1927   1.936   5.665   0.452
  343SOL    HW1 1928   1.984   5.578   0.465
  343SOL    HW2 1929   1.869   5.678   0.525
  344SOL     OW 1930   1.604   4.072   2.026
  344SOL    HW1 1931   1.611   3.979   1.989
  344SOL    HW2 1932   1.508   4.097   2.038
  345SOL     OW 1933   4.055   1.632   3.234
  345SOL    HW1 1934   4.080   1.630   3.137
  345SOL    HW2 1935   3.996   1.554   3.254
  346SOL     OW 1936   2.180   0.783   2.746
  346SOL    HW1 1937   2.096   0.831   2.720
  346SOL    HW2 1938   2.259   0.832   2.711
  347SOL     OW 1939   2.814   5.592   6.446
  347SOL    HW1 1940   2.875   5.580   6.367
  347SOL    HW2 1941   2.749   5.516   6.449
  348SOL     OW 1942   5.463   4.089   2.245
  348SOL    HW1 1943   5.411   4.029   2.184
  348SOL    HW2 1944   5.462   4.182   2.208
  349SOL     OW 1945   0.048   5.464   0.930
  349SOL    HW1 1946   7.019   5.394   0.974
  349SOL    HW2 1947   0.067   5.436   0.835
  350SOL     OW 1948   3.753   3.421   1.033
  350SOL    HW1 1949   3.807   3.476   0.969
  350SOL    HW2 1950   3.671   3.388   0.987
  351SOL     OW 1951   1.925   2.977   1.185
  351SOL    HW1 1952   1.992   2.961   1.257
  351SOL    HW2 1953   1.853   3.038   1.218
  352SOL     OW 1954   2.792   0.866   4.868
  352SOL    HW1 1955   2.835   0.956   4.870
  352SOL    HW2 1956   2.814   0.820   4.782
  353SOL     OW 1957   2.478   0.011   0.828
  353SOL    HW1 1958   2.414   6.972   0.867
  353SOL    HW2 1959   2.446   0.037   0.737
  354SOL     OW 1960   3.581   2.637   0.928
  354SOL    HW1 1961   3.577   2.634   1.028
  354SOL    HW2 1962   3.595   2.545   0.892
  355SOL     OW 1963   0.978   3.542   2.649
  355SOL    HW1 1964   1.009   3.628   2.609
  355SOL    HW2 1965   0.880   3.546   2.667
  356SOL     OW 1966   2.975   0.071   6.146
  356SOL    HW1 1967   2.944   0.164   6.125
  356SOL    HW2 1968   3.034   0.038   6.073
  357SOL     OW 1969   6.685   6.496   5.524
  357SOL    HW1 1970   6.682   6.396   5.516
  357SOL    HW2 1971   6.604   6.535   5.481
  358SOL     OW 1972   4.332   6.798   0.489
  358SOL    HW1 1973   4.413   6.806   0.431
  358SOL    HW2 1974   4.341   6.716   0.546
  359SOL     OW 1975   1.660   2.781   2.214
  359SOL    HW1 1976   1.685   2.748   2.305
  359SOL    HW2 1977   1.743   2.792   2.159
  360SOL     OW 1978   1.018   5.234   6.744
  360SOL    HW1 1979   0.926   5.196   6.751
  360SOL    HW2 1980   1.082   5.161   6.717
  361SOL     OW 1981   5.887   5.703   3.118
  361SOL    HW1 1982   5.838   5.624   3.082
  361SOL    HW2 1983   5.888   5.776   3.049
  362SOL     OW 1984   3.774   3.910   1.504
  362SOL    HW1 1985   3.867   3.881   1.480
  362SOL    HW2 1986   3.735   3.847   1.570
  363SOL     OW 1987   5.567   4.416   3.349
  363SOL    HW1 1988   5.539   4.482   3.419
  363SOL    HW2 1989   5.523   4.438   3.262
  364SOL     OW 1990   6.594   5.439   6.322
  364SOL    HW1 1991   6.560   5.412   6.412
  364SOL    HW2 1992   6.652   5.520   6.332
  365SOL     OW 1993   6.119   6.078   2.464
  365SOL    HW1 1994   6.118   6.055   2.561
  365SOL    HW2 1995   6.039   6.038   2.420
  366SOL     OW 1996   6.147   0.811   6.178
  366SOL    HW1 1997   6.072   0.854   6.228
  366SOL    HW2 1998   6.179   0.730   6.227
  367SOL     OW 1999   5.083   2.940   0.880
  367SOL    HW1 2000   5.134   2.876   0.823
  367SOL    HW2 2001   5.104   3.034   0.853
  368SOL     OW 2002   0.118   4.056   4.909
  368SOL    HW1 2003   0.202   4.044   4.856
  368SOL    HW2 2004   0.110   4.151   4.936
  369SOL     OW 2005   6.533   5.544   1.878
  369SOL    HW1 2006   6.507   5.578   1.968
  369SOL    HW2 2007   6.593   5.610   1.833
  370SOL     OW 2008   2.770   1.178   5.657
  370SOL    HW1 2009   2.713   1.106   5.697
  370SOL    HW2 2010   2.742   1.267   5.694
  371SOL     OW 2011   2.447   3.872   6.300
  371SOL    HW1 2012   2.421   3.839   6.391
  371SOL    HW2 2013   2.487   3.796   6.248
  372SOL     OW 2014   0.929   6.296   6.210
  372SOL    HW1 2015   0.849   6.342   6.170
  372SOL    HW2 2016   1.006   6.301   6.145
  373SOL     OW 2017   6.805   6.876   4.544
  373SOL    HW1 2018   6.842   6.813   4.612
  373SOL    HW2 2019   6.880   6.932   4.507
  374SOL     OW 2020   2.561   1.737   3.278
  374SOL    HW1 2021   2.623   1.790   3.221
  374SOL    HW2 2022   2.562   1.773   3.371
  375SOL     OW 2023   1.266   4.019   3.784
  375SOL    HW1 2024   1.228   4.075   3.857
  375SOL    HW2 2025   1.199   3.950   3.756
  376SOL     OW 2026   2.450   1.647   5.133
  376SOL    HW1 2027   2.413   1.556   5.116
  376SOL    HW2 2028   2.547   1.649   5.111
  377SOL     OW 2029   1.214   2.056   1.220
  377SOL    HW1 2030   1.307   2.065   1.184
  377SOL    HW2 2031   1.161   1.997   1.159
  378SOL     OW 2032   3.629   2.351   5.811
  378SOL    HW1 2033   3.580   2.325   5.895
  378SOL    HW2 2034   3.721   2.383   5.834
  379SOL     OW 2035   6.069   3.820   1.128
  379SOL    HW1 2036   6.059   3.920   1.132
  379SOL    HW2 2037   5.992   3.781   1.078
  380SOL     OW 2038   2.513   1.593   1.372
  380SOL    HW1 2039   2.462   1.533   1.311
  380SOL    HW2 2040   2.559   1.538   1.442
  381SOL     OW 2041   1.577   3.758   2.766
  381SOL    HW1 2042   1.644   3.702   2.718
  381SOL    HW2 2043   1.599   3.761   2.864
  382SOL     OW 2044   5.822   6.380   6.288
  382SOL    HW1 2045   5.921   6.389   6.299
  382SOL    HW2 2046   5.777   6.465   6.314
  383SOL     OW 2047   4.509   3.278   5.647
  383SOL    HW1 2048   4.513   3.182   5.674
  383SOL    HW2 2049   4.595   3.323   5.672
  384SOL     OW 2050   6.987   5.693   4.351
  384SOL    HW1 2051   6.914   5.744   4.308
  384SOL    HW2 2052   0.011   5.753   4.413
  385SOL     OW 2053   4.086   5.848   4.997
  385SOL    HW1 2054   4.099   5.911   4.920
  385SOL    HW2 2055   4.006   5.791   4.979
  386SOL     OW 2056   2.464   6.332   5.758
  386SOL    HW1 2057   2.403   6.329   5.678
  386SOL    HW2 2058   2.549   6.283   5.737
  387SOL     OW 2059   0.924   6.793   3.680
  387SOL    HW1 2060   0.905   6.773   3.583
  387SOL    HW2 2061   0.837   6.800   3.729
  388SOL     OW 2062   1.666   1.519   4.268
  388SOL    HW1 2063   1.735   1.564   4.212
  388SOL    HW2 2064   1.636   1.435   4.222
  389SOL     OW 2065   4.009   4.868   0.834
  389SOL    HW1 2066   4.058   4.814   0.765
  389SOL    HW2 2067   4.047   4.848   0.925
  390SOL     OW 2068   3.245   1.620   0.105
  390SOL    HW1 2069   3.197   1.567   0.035
  390SOL    HW2 2070   3.344   1.610   0.092
  391SOL     OW 2071   2.240   3.875   5.581
  391SOL    HW1 2072   2.217   3.916   5.493
  391SOL    HW2 2073   2.339   3.861   5.587
  392SOL     OW 2074   2.112   4.202   1.142
  392SOL    HW1 2075   2.116   4.129   1.211
  392SOL    HW2 2076   2.037   4.184   1.079
  393SOL     OW 2077   1.392   4.852   6.782
  393SOL    HW1 2078   1.402   4.827   6.685
  393SOL    HW2 2079   1.412   4.772   6.839
  394SOL     OW 2080   0.118   2.480   0.553
  394SOL    HW1 2081   0.185   2.406   0.555
  394SOL    HW2 2082   0.107   2.517   0.645
  395SOL     OW 2083   4.670   4.923   3.273
  395SOL    HW1 2084   4.621   4.835   3.271
  395SOL    HW2 2085   4.605   4.996   3.295
  396SOL     OW 2086   2.863   3.310   2.125
  396SOL    HW1 2087   2.784   3.276   2.176
  396SOL    HW2 2088   2.831   3.359   2.043
  397SOL     OW 2089   5.572   1.605   6.020
  397SOL    HW1 2090   5.577   1.519   5.969
  397SOL    HW2 2091   5.536   1.677   5.960
  398SOL     OW 2092   1.080   6.996   3.829
  398SOL    HW1 2093   1.027   6.934   3.771
  398SOL    HW2 2094   1.046   6.991   3.923
  399SOL     OW 2095   5.308   6.723   3.867
  399SOL    HW1 2096   5.217   6.729   3.827
  399SOL    HW2 2097   5.311   6.775   3.953
  400SOL     OW 2098   6.215   6.826   5.489
  400SOL    HW1 2099   6.192   6.729   5.481
  400SOL    HW2 2100   6.227   6.849   5.585
  401SOL     OW 2101   4.997   0.135   6.646
  401SOL    HW1 2102   5.058   0.153   6.569
  401SOL    HW2 2103   4.978   0.037   6.652
  402SOL     OW 2104   6.576   0.586   3.377
  402SOL    HW1 2105   6.516   0.576   3.457
  402SOL    HW2 2106   6.615   0.677   3.375
  403SOL     OW 2107   3.874   1.158   4.925
  403SOL    HW1 2108   3.883   1.058   4.923
  403SOL    HW2 2109   3.965   1.200   4.915
  404SOL     OW 2110   1.634   4.568   3.724
  404SOL    HW1 2111   1.653   4.555   3.821
  404SOL    HW2 2112   1.586   4.655   3.711
  405SOL     OW 2113   2.034   3.177   3.342
  405SOL    HW1 2114   2.075   3.085   3.347
  405SOL    HW2 2115   2.020   3.201   3.246
  406SOL     OW 2116   0.359   4.349   4.811
  406SOL    HW1 2117   0.284   4.348   4.877
  406SOL    HW2 2118   0.323   4.336   4.718
  407SOL     OW 2119   1.108   1.878   5.479
  407SOL    HW1 2120   1.114   1.801   5.416
  407SOL    HW2 2121   1.177   1.947   5.456
  408SOL     OW 2122   3.027   2.214   3.075
  408SOL    HW1 2123   3.022   2.294   3.135
  408SOL    HW2 2124   2.937   2.194   3.037
  409SOL     OW 2125   6.158   3.263   1.990
  409SOL    HW1 2126   6.062   3.243   1.972
  409SOL    HW2 2127   6.169   3.362   2.004
  410SOL     OW 2128   0.907   1.536   1.066
  410SOL    HW1 2129   0.831   1.497   1.015
  410SOL    HW2 2130   0.991   1.526   1.013
  411SOL     OW 2131   6.946   0.859   1.343
  411SOL    HW1 2132   6.858   0.832   1.382
  411SOL    HW2 2133   6.951   0.959   1.337
  412SOL     OW 2134   3.674   5.702   2.920
  412SOL    HW1 2135   3.615   5.696   3.001
  412SOL    HW2 2136   3.618   5.721   2.840
  413SOL     OW 2137   5.940   4.184   2.018
  413SOL    HW1 2138   5.980   4.235   2.094
  413SOL    HW2 2139   5.851   4.148   2.045
  414SOL     OW 2140   3.885   6.192   3.091
  414SOL    HW1 2141   3.909   6.126   3.020
  414SOL    HW2 2142   3.844   6.143   3.168
  415SOL     OW 2143   0.155   0.465   0.205
  415SOL    HW1 2144   0.149   0.543   0.268
  415SOL    HW2 2145   0.155   0.380   0.258
  416SOL     OW 2146   4.985   5.947   5.132
  416SOL    HW1 2147   5.044   5.981   5.206
  416SOL    HW2 2148   4.995   6.006   5.052
  417SOL     OW 2149   2.083   6.728   5.629
  417SOL    HW1 2150   2.086   6.632   5.659
  417SOL    HW2 2151   2.162   6.777   5.666
  418SOL     OW 2152   3.316   6.497   6.512
  418SOL    HW1 2153   3.338   6.403   6.486
  418SOL    HW2 2154   3.391   6.557   6.487
  419SOL     OW 2155   1.086   6.796   2.863
  419SOL    HW1 2156   1.181   6.765   2.862
  419SOL    HW2 2157   1.083   6.896   2.867
  420SOL     OW 2158   5.909   1.365   6.587
  420SOL    HW1 2159   5.858   1.375   6.672
  420SOL    HW2 2160   6.006   1.385   6.604
  421SOL     OW 2161   5.745   4.054   4.936
  421SOL    HW1 2162   5.689   4.083   5.014
  421SOL    HW2 2163   5.841   4.071   4.956
  422SOL     OW 2164   5.069   3.580   1.337
  422SOL    HW1 2165   5.147   3.545   1.286
  422SOL    HW2 2166   4.990   3.585   1.277
  423SOL     OW 2167   1.369   2.258   0.054
  423SOL    HW1 2168   1.356   2.353   0.082
  423SOL    HW2 2169   1.281   2.211   0.056
  424SOL     OW 2170   1.891   5.097   1.999
  424SOL    HW1 2171   1.899   5.051   2.088
  424SOL    HW2 2172   1.833   5.042   1.939
  425SOL     OW 2173   4.887   1.971   3.961
  425SOL    HW1 2174   4.822   1.935   3.893
  425SOL    HW2 2175   4.843   2.046   4.011
  426SOL     OW 2176   2.550   1.723   4.660
  426SOL    HW1 2177   2.526   1.799   4.719
  426SOL    HW2 2178   2.637   1.684   4.689
  427SOL     OW 2179   6.440   6.732   3.867
  427SOL    HW1 2180   6.388   6.716   3.952
  427SOL    HW2 2181   6.536   6.711   3.882
  428SOL     OW 2182   3.740   0.297   3.466
  428SOL    HW1 2183   3.688   0.380   3.483
  428SOL    HW2 2184   3.794   0.274   3.547
  429SOL     OW 2185   0.652   4.632   3.411
  429SOL    HW1 2186   0.713   4.711   3.405
  429SOL    HW2 2187   0.559   4.663   3.431
  430SOL     OW 2188   1.298   6.515   4.432
  430SOL    HW1 2189   1.300   6.493   4.334
  430SOL    HW2 2190   1.338   6.439   4.483
  431SOL     OW 2191   3.000   0.682   1.391
  431SOL    HW1 2192   2.946   0.707   1.310
  431SOL    HW2 2193   2.982   0.587   1.414
  432SOL     OW 2194   6.841   2.266   1.294
  432SOL    HW1 2195   6.819   2.179   1.338
  432SOL    HW2 2196   6.810   2.341   1.352
  433SOL     OW 2197   1.957   6.374   5.987
  433SOL    HW1 2198   2.003   6.389   6.075
  433SOL    HW2 2199   1.875   6.432   5.983
  434SOL     OW 2200   4.403   6.190   3.641
  434SOL    HW1 2201   4.455   6.106   3.621
  434SOL    HW2 2202   4.417   6.216   3.736
  435SOL     OW 2203   3.740   2.094   6.118
  435SOL    HW1 2204   3.667   2.163   6.112
  435SOL    HW2 2205   3.754   2.053   6.029
  436SOL     OW 2206   3.038   5.732   1.960
  436SOL    HW1 2207   3.031   5.823   2.002
  436SOL    HW2 2208   2.969   5.723   1.888
  437SOL     OW 2209   0.772   0.937   6.839
  437SOL    HW1 2210   0.685   0.911   6.882
  437SOL    HW2 2211   0.843   0.942   6.908
  438SOL     OW 2212   1.449   3.409   4.195
  438SOL    HW1 2213   1.515   3.433   4.124
  438SOL    HW2 2214   1.497   3.378   4.277
  439SOL     OW 2215   5.711   6.051   2.559
  439SOL    HW1 2216   5.710   6.114   2.636
  439SOL    HW2 2217   5.651   5.974   2.578
  440SOL     OW 2218   2.846   2.024   5.648
  440SOL    HW1 2219   2.803   2.111   5.670
  440SOL    HW2 2220   2.835   1.961   5.725
  441SOL     OW 2221   6.850   3.777   3.205
  441SOL    HW1 2222   6.812   3.689   3.177
  441SOL    HW2 2223   6.903   3.817   3.130
  442SOL     OW 2224   4.454   5.705   5.205
  442SOL    HW1 2225   4.460   5.803   5.184
  442SOL    HW2 2226   4.358   5.680   5.217
  443SOL     OW 2227   5.592   3.972   4.367
  443SOL    HW1 2228   5.609   4.015   4.455
  443SOL    HW2 2229   5.657   3.898   4.353
  444SOL     OW 2230   4.659   6.858   5.875
  444SOL    HW1 2231   4.742   6.871   5.821
  444SOL    HW2 2232   4.671   6.780   5.936
  445SOL     OW 2233   1.883   6.177   3.249
  445SOL    HW1 2234   1.945   6.197   3.324
  445SOL    HW2 2235   1.891   6.080   3.224
  446SOL     OW 2236   4.686   5.735   2.517
  446SOL    HW1 2237   4.667   5.710   2.612
  446SOL    HW2 2238   4.620   5.803   2.487
  447SOL     OW 2239   6.216   4.017   5.210
  447SOL    HW1 2240   6.180   3.988   5.299
  447SOL    HW2 2241   6.274   4.098   5.223
  448SOL     OW 2242   2.427   0.892   3.126
  448SOL    HW1 2243   2.491   0.853   3.060
  448SOL    HW2 2244   2.336   0.898   3.085
  449SOL     OW 2245   2.859   1.022   4.179
  449SOL    HW1 2246   2.856   0.936   4.128
  449SOL    HW2 2247   2.954   1.056   4.180
  450SOL     OW 2248   1.752   4.537   3.320
  450SOL    HW1 2249   1.773   4.514   3.225
  450SOL    HW2 2250   1.785   4.464   3.380
  451SOL     OW 2251   1.684   1.955   4.220
  451SOL    HW1 2252   1.598   1.903   4.217
  451SOL    HW2 2253   1.754   1.907   4.166
  452SOL     OW 2254   4.783   6.483   1.504
  452SOL    HW1 2255   4.848   6.508   1.433
  452SOL    HW2 2256   4.719   6.415   1.468
  453SOL     OW 2257   3.690   0.112   6.608
  453SOL    HW1 2258   3.786   0.140   6.599
  453SOL    HW2 2259   3.631   0.191   6.590
  454SOL     OW 2260   6.958   3.283   6.619
  454SOL    HW1 2261   6.941   3.194   6.662
  454SOL    HW2 2262   6.958   3.355   6.689
  455SOL     OW 2263   5.233   2.316   4.642
  455SOL    HW1 2264   5.137   2.340   4.632
  455SOL    HW2 2265   5.243   2.217   4.638
  456SOL     OW 2266   0.743   0.385   4.864
  456SOL    HW1 2267   0.829   0.364   4.912
  456SOL    HW2 2268   0.723   0.312   4.798
  457SOL     OW 2269   1.980   4.362   4.272
  457SOL    HW1 2270   1.922   4.322   4.344
  457SOL    HW2 2271   2.049   4.420   4.314
  458SOL     OW 2272   2.720   6.960   2.989
  458SOL    HW1 2273   2.665   6.904   3.051
  458SOL    HW2 2274   2.724   0.026   3.024
  459SOL     OW 2275   1.615   0.071   5.854
  459SOL    HW1 2276   1.641   7.015   5.806
  459SOL    HW2 2277   1.697   0.115   5.891
  460SOL     OW 2278   1.421   7.025   4.814
  460SOL    HW1 2279   1.490   0.007   4.886
  460SOL    HW2 2280   1.462   0.020   4.725
  461SOL     OW 2281   6.410   4.567   6.197
  461SOL    HW1 2282   6.431   4.664   6.192
  461SOL    HW2 2283   6.408   4.538   6.293
  462SOL     OW 2284   3.928   3.528   6.080
  462SOL    HW1 2285   3.903   3.621   6.110
  462SOL    HW2 2286   3.982   3.533   5.996
  463SOL     OW 2287   0.172   0.257   3.909
  463SOL    HW1 2288   0.093   0.301   3.866
  463SOL    HW2 2289   0.147   0.227   4.001
  464SOL     OW 2290   2.179   0.620   5.759
  464SOL    HW1 2291   2.241   0.622   5.681
  464SOL    HW2 2292   2.215   0.677   5.833
  465SOL     OW 2293   0.405   2.184   0.112
  465SOL    HW1 2294   0.380   2.281   0.121
  465SOL    HW2 2295   0.470   2.160   0.184
  466SOL     OW 2296   2.753   6.323   4.025
  466SOL    HW1 2297   2.821   6.387   4.060
  466SOL    HW2 2298   2.751   6.242   4.084
  467SOL     OW 2299   1.322   1.264   2.384
  467SOL    HW1 2300   1.236   1.306   2.355
  467SOL    HW2 2301   1.340   1.290   2.479
  468SOL     OW 2302   3.875   5.161   5.083
  468SOL    HW1 2303   3.783   5.187   5.111
  468SOL    HW2 2304   3.877   5.140   4.986
  469SOL     OW 2305   2.980   3.459   5.759
  469SOL    HW1 2306   2.904   3.453   5.693
  469SOL    HW2 2307   3.063   3.489   5.711
  470SOL     OW 2308   4.262   5.866   1.338
  470SOL    HW1 2309   4.241   5.773   1.367
  470SOL    HW2 2310   4.256   5.872   1.238
  471SOL     OW 2311   2.532   2.386   4.182
  471SOL    HW1 2312   2.566   2.428   4.266
  471SOL    HW2 2313   2.434   2.404   4.173
  472SOL     OW 2314   5.897   4.809   6.954
  472SOL    HW1 2315   5.943   4.894   6.979
  472SOL    HW2 2316   5.958   4.754   6.897
  473SOL     OW 2317   1.146   1.674   2.413
  473SOL    HW1 2318   1.167   1.703   2.320
  473SOL    HW2 2319   1.053   1.701   2.437
  474SOL     OW 2320   5.245   5.347   4.876
  474SOL    HW1 2321   5.194   5.305   4.952
  474SOL    HW2 2322   5.256   5.280   4.803
  475SOL     OW 2323   6.201   2.518   0.649
  475SOL    HW1 2324   6.200   2.572   0.733
  475SOL    HW2 2325   6.114   2.529   0.601
  476SOL     OW 2326   6.998   3.841   1.956
  476SOL    HW1 2327   6.983   3.904   1.880
  476SOL    HW2 2328   0.043   3.878   2.015
  477SOL     OW 2329   2.910   5.936   3.430
  477SOL    HW1 2330   2.867   5.913   3.343
  477SOL    HW2 2331   2.968   6.017   3.418
  478SOL     OW 2332   4.339   6.051   3.277
  478SOL    HW1 2333   4.276   6.077   3.351
  478SOL    HW2 2334   4.290   6.054   3.190
  479SOL     OW 2335   3.881   3.012   5.018
  479SOL    HW1 2336   3.860   2.956   4.938
  479SOL    HW2 2337   3.939   3.089   4.990
  480SOL     OW 2338   3.139   0.487   0.955
  480SOL    HW1 2339   3.044   0.512   0.939
  480SOL    HW2 2340   3.148   0.440   1.042
  481SOL     OW 2341   0.629   6.589   1.564
  481SOL    HW1 2342   0.641   6.521   1.636
  481SOL    HW2 2343   0.692   6.665   1.579
  482SOL     OW 2344   4.647   5.030   2.200
  482SOL    HW1 2345   4.733   5.056   2.157
  482SOL    HW2 2346   4.598   4.966   2.140
  483SOL     OW 2347   0.009   2.509   2.702
  483SOL    HW1 2348   7.018   2.591   2.756
  483SOL    HW2 2349   0.023   2.431   2.762
  484SOL     OW 2350   1.658   4.006   4.772
  484SOL    HW1 2351   1.732   3.938   4.773
  484SOL    HW2 2352   1.644   4.037   4.678
  485SOL     OW 2353   4.834   4.644   2.360
  485SOL    HW1 2354   4.896   4.686   2.293
  485SOL    HW2 2355   4.741   4.678   2.345
  486SOL     OW 2356   5.825   1.633   6.900
  486SOL    HW1 2357   5.778   1.550   6.870
  486SOL    HW2 2358   5.757   1.698   6.934
  487SOL     OW 2359   0.642   0.614   3.410
  487SOL    HW1 2360   0.711   0.602   3.339
  487SOL    HW2 2361   0.582   0.690   3.385
  488SOL     OW 2362   0.732   6.833   2.421
  488SOL    HW1 2363   0.731   6.755   2.483
  488SOL    HW2 2364   0.826   6.851   2.391
  489SOL     OW 2365   5.749   6.013   5.558
  489SOL    HW1 2366   5.684   5.939   5.538
  489SOL    HW2 2367   5.843   5.979   5.545
  490SOL     OW 2368   2.191   6.053   3.893
  490SOL    HW1 2369   2.287   6.073   3.872
  490SOL    HW2 2370   2.149   6.132   3.936
  491SOL     OW 2371   1.068   3.190   1.254
  491SOL    HW1 2372   1.132   3.207   1.179
  491SOL    HW2 2373   1.118   3.157   1.334
  492SOL     OW 2374   1.315   1.280   5.640
  492SOL    HW1 2375   1.231   1.226   5.636
  492SOL    HW2 2376   1.355   1.273   5.731
  493SOL     OW 2377   2.912   6.657   5.646
  493SOL    HW1 2378   3.003   6.643   5.605
  493SOL    HW2 2379   2.896   6.755   5.656
  494SOL     OW 2380   1.421   6.897   6.436
  494SOL    HW1 2381   1.334   6.857   6.465
  494SOL    HW2 2382   1.404   6.967   6.366
  495SOL     OW 2383   3.526   6.157   4.062
  495SOL    HW1 2384   3.573   6.231   4.111
  495SOL    HW2 2385   3.565   6.149   3.970
  496SOL     OW 2386   6.400   2.694   2.005
  496SOL    HW1 2387   6.303   2.712   2.022
  496SOL    HW2 2388   6.456   2.738   2.075
  497SOL     OW 2389   3.407   1.333   4.778
  497SOL    HW1 2390   3.356   1.273   4.841
  497SOL    HW2 2391   3.448   1.277   4.706
  498SOL     OW 2392   0.571   4.387   2.301
  498SOL    HW1 2393   0.474   4.371   2.285
  498SOL    HW2 2394   0.602   4.332   2.378
  499SOL     OW 2395   1.598   5.084   4.505
  499SOL    HW1 2396   1.535   5.123   4.438
  499SOL    HW2 2397   1.678   5.047   4.459
  500SOL     OW 2398   5.781   2.488   0.030
  500SOL    HW1 2399   5.796   2.557   0.101
  500SOL    HW2 2400   5.766   2.534   6.969
  501SOL     OW 2401   4.156   6.982   0.585
  501SOL    HW1 2402   4.097   0.014   0.531
  501SOL    HW2 2403   4.221   6.935   0.525
  502SOL     OW 2404   0.737   4.479   6.061
  502SOL    HW1 2405   0.754   4.578   6.054
  502SOL    HW2 2406   0.767   4.446   6.150
  503SOL     OW 2407   1.703   4.968   5.929
  503SOL    HW1 2408   1.644   5.013   5.862
  503SOL    HW2 2409   1.794   5.010   5.927
  504SOL     OW 2410   1.287   5.505   2.232
  504SOL    HW1 2411   1.304   5.408   2.219
  504SOL    HW2 2412   1.349   5.558   2.173
  505SOL     OW 2413   4.245   6.562   4.798
  505SOL    HW1 2414   4.203   6.540   4.710
  505SOL    HW2 2415   4.178   6.548   4.872
  506SOL     OW 2416   3.013   6.181   2.546
  506SOL    HW1 2417   2.925   6.171   2.498
  506SOL    HW2 2418   3.040   6.278   2.545
  507SOL     OW 2419   3.074   6.308   2.913
  507SOL    HW1 2420   2.988   6.342   2.950
  507SOL    HW2 2421   3.093   6.354   2.826
  508SOL     OW 2422   0.131   3.400   1.874
  508SOL    HW1 2423   0.163   3.492   1.900
  508SOL    HW2 2424   0.055   3.374   1.933
  509SOL     OW 2425   3.626   1.253   1.161
  509SOL    HW1 2426   3.618   1.306   1.077
  509SOL    HW2 2427   3.554   1.184   1.165
  510SOL     OW 2428   6.786   4.298   6.254
  510SOL    HW1 2429   6.753   4.203   6.248
  510SOL    HW2 2430   6.869   4.307   6.198
  511SOL     OW 2431   1.049   2.285   6.840
  511SOL    HW1 2432   0.988   2.208   6.858
  511SOL    HW2 2433   0.995   2.367   6.823
  512SOL     OW 2434   6.341   2.253   6.950
  512SOL    HW1 2435   6.242   2.250   6.939
  512SOL    HW2 2436   6.367   2.201   0.004
  513SOL     OW 2437   5.198   0.054   3.230
  513SOL    HW1 2438   5.203   0.112   3.311
  513SOL    HW2 2439   5.248   6.996   3.246
  514SOL     OW 2440   6.711   1.005   4.550
  514SOL    HW1 2441   6.719   0.927   4.612
  514SOL    HW2 2442   6.655   1.076   4.592
  515SOL     OW 2443   1.862   0.573   0.450
  515SOL    HW1 2444   1.796   0.639   0.415
  515SOL    HW2 2445   1.910   0.529   0.374
  516SOL     OW 2446   2.930   4.822   1.817
  516SOL    HW1 2447   2.884   4.740   1.851
  516SOL    HW2 2448   2.881   4.904   1.847
  517SOL     OW 2449   3.353   4.704   1.688
  517SOL    HW1 2450   3.446   4.703   1.724
  517SOL    HW2 2451   3.296   4.765   1.743
  518SOL     OW 2452   2.237   2.185   3.148
  518SOL    HW1 2453   2.330   2.192   3.184
  518SOL    HW2 2454   2.179   2.253   3.193
  519SOL     OW 2455   0.191   6.548   3.418
  519SOL    HW1 2456   0.123   6.620   3.430
  519SOL    HW2 2457   0.257   6.576   3.348
  520SOL     OW 2458   6.205   3.309   6.643
  520SOL    HW1 2459   6.114   3.267   6.645
  520SOL    HW2 2460   6.210   3.373   6.566
  521SOL     OW 2461   5.855   5.746   5.682
  521SOL    HW1 2462   5.907   5.823   5.645
  521SOL    HW2 2463   5.764   5.744   5.640
  522SOL     OW 2464   4.106   3.661   2.983
  522SOL    HW1 2465   4.200   3.693   2.994
  522SOL    HW2 2466   4.070   3.632   3.071
  523SOL     OW 2467   0.389   5.860   1.368
  523SOL    HW1 2468   0.339   5.821   1.446
  523SOL    HW2 2469   0.339   5.938   1.332
  524SOL     OW 2470   1.589   2.630   2.721
  524SOL    HW1 2471   1.591   2.691   2.801
  524SOL    HW2 2472   1.606   2.683   2.638
  525SOL     OW 2473   1.956   4.341   5.724
  525SOL    HW1 2474   2.014   4.394   5.662
  525SOL    HW2 2475   1.998   4.251   5.741
  526SOL     OW 2476   3.370   6.682   3.962
  526SOL    HW1 2477   3.418   6.689   3.875
  526SOL    HW2 2478   3.339   6.588   3.976
  527SOL     OW 2479   6.861   2.623   0.827
  527SOL    HW1 2480   6.821   2.572   0.903
  527SOL    HW2 2481   6.956   2.593   0.813
  528SOL     OW 2482   1.941   2.507   3.756
  528SOL    HW1 2483   1.981   2.598   3.741
  528SOL    HW2 2484   1.847   2.517   3.787
  529SOL     OW 2485   1.827   6.834   5.181
  529SOL    HW1 2486   1.766   6.766   5.222
  529SOL    HW2 2487   1.903   6.853   5.244
  530SOL     OW 2488   4.118   3.671   2.715
  530SOL    HW1 2489   4.185   3.739   2.684
  530SOL    HW2 2490   4.112   3.674   2.814
  531SOL     OW 2491   0.971   1.213   2.982
  531SOL    HW1 2492   0.979   1.132   3.040
  531SOL    HW2 2493   0.948   1.292   3.039
  532SOL     OW 2494   1.252   3.067   0.345
  532SOL    HW1 2495   1.232   3.120   0.428
  532SOL    HW2 2496   1.176   3.005   0.326
  533SOL     OW 2497   4.255   0.014   3.380
  533SOL    HW1 2498   4.177   0.048   3.328
  533SOL    HW2 2499   4.267   0.070   3.462
  534SOL     OW 2500   5.606   5.802   2.803
  534SOL    HW1 2501   5.538   5.730   2.791
  534SOL    HW2 2502   5.565   5.890   2.781
  535SOL     OW 2503   6.796   4.191   3.488
  535SOL    HW1 2504   6.839   4.276   3.457
  535SOL    HW2 2505   6.698   4.207   3.501
  536SOL     OW 2506   6.801   4.947   2.864
  536SOL    HW1 2507   6.724   4.917   2.807
  536SOL    HW2 2508   6.768   5.016   2.929
  537SOL     OW 2509   3.086   6.810   4.797
  537SOL    HW1 2510   3.006   6.794   4.855
  537SOL    HW2 2511   3.090   6.907   4.771
  538SOL     OW 2512   0.534   4.600   4.110
  538SOL    HW1 2513   0.611   4.585   4.171
  538SOL    HW2 2514   0.537   4.693   4.073
  539SOL     OW 2515   2.171   4.697   1.818
  539SOL    HW1 2516   2.174   4.726   1.723
  539SOL    HW2 2517   2.169   4.777   1.878
  540SOL     OW 2518   1.365   1.489   2.874
  540SOL    HW1 2519   1.416   1.513   2.792
  540SOL    HW2 2520   1.426   1.487   2.953
  541SOL     OW 2521   5.264   5.393   3.790
  541SOL    HW1 2522   5.200   5.460   3.827
  541SOL    HW2 2523   5.329   5.439   3.729
  542SOL     OW 2524   4.647   6.221   6.904
  542SOL    HW1 2525   4.618   6.268   6.988
  542SOL    HW2 2526   4.746   6.230   6.894
  543SOL     OW 2527   6.176   4.006   3.621
  543SOL    HW1 2528   6.098   3.947   3.642
  543SOL    HW2 2529   6.187   4.074   3.694
  544SOL     OW 2530   1.071   4.837   0.031
  544SOL    HW1 2531   1.103   4.744   0.011
  544SOL    HW2 2532   1.146   4.889   0.074
  545SOL     OW 2533   3.435   0.519   1.056
  545SOL    HW1 2534   3.507   0.519   1.125
  545SOL    HW2 2535   3.363   0.584   1.083
  546SOL     OW 2536   0.913   3.998   1.128
  546SOL    HW1 2537   0.989   3.933   1.130
  546SOL    HW2 2538   0.831   3.956   1.166
  547SOL     OW 2539   3.406   2.044   0.933
  547SOL    HW1 2540   3.437   2.031   1.027
  547SOL    HW2 2541   3.456   2.120   0.892
  548SOL     OW 2542   3.152   3.255   1.399
  548SOL    HW1 2543   3.143   3.234   1.496
  548SOL    HW2 2544   3.125   3.176   1.344
  549SOL     OW 2545   5.321   2.425   2.172
  549SOL    HW1 2546   5.223   2.431   2.155
  549SOL    HW2 2547   5.368   2.398   2.088
  550SOL     OW 2548   1.015   5.651   3.390
  550SOL    HW1 2549   1.092   5.666   3.452
  550SOL    HW2 2550   0.959   5.735   3.386
  551SOL     OW 2551   0.399   6.763   1.745
  551SOL    HW1 2552   0.483   6.812   1.719
  551SOL    HW2 2553   0.378   6.694   1.676
  552SOL     OW 2554   5.807   3.926   6.993
  552SOL    HW1 2555   5.749   3.989   0.016
  552SOL    HW2 2556   5.880   3.977   6.947
  553SOL     OW 2557   2.589   6.683   4.367
  553SOL    HW1 2558   2.583   6.671   4.268
  553SOL    HW2 2559   2.662   6.747   4.388
  554SOL     OW 2560   5.874   0.237   0.109
  554SOL    HW1 2561   5.862   0.140   0.084
  554SOL    HW2 2562   5.836   0.253   0.200
  555SOL     OW 2563   3.587   4.943   4.972
  555SOL    HW1 2564   3.655   4.926   4.901
  555SOL    HW2 2565   3.622   4.910   5.060
  556SOL     OW 2566   5.021   2.084   3.752
  556SOL    HW1 2567   4.985   2.026   3.826
  556SOL    HW2 2568   4.966   2.071   3.670
  557SOL     OW 2569   6.784   5.637   0.639
  557SOL    HW1 2570   6.862   5.693   0.610
  557SOL    HW2 2571   6.699   5.686   0.621
  558SOL     OW 2572   3.525   3.234   3.330
  558SOL    HW1 2573   3.443   3.226   3.387
  558SOL    HW2 2574   3.526   3.160   3.262
  559SOL     OW 2575   0.043   5.530   6.055
  559SOL    HW1 2576   0.131   5.482   6.062
  559SOL    HW2 2577   0.017   5.564   6.145
  560SOL     OW 2578   6.600   3.685   3.587
  560SOL    HW1 2579   6.682   3.741   3.598
  560SOL    HW2 2580   6.520   3.736   3.615
  561SOL     OW 2581   0.499   2.356   1.092
  561SOL    HW1 2582   0.578   2.354   1.153
  561SOL    HW2 2583   0.527   2.392   1.003
  562SOL     OW 2584   4.177   0.067   6.314
  562SOL    HW1 2585   4.212   0.157   6.287
  562SOL    HW2 2586   4.090   0.050   6.268
  563SOL     OW 2587   2.918   0.380   3.867
  563SOL    HW1 2588   2.872   0.469   3.867
  563SOL    HW2 2589   3.014   0.393   3.893
  564SOL     OW 2590   0.817   2.926   0.214
  564SOL    HW1 2591   0.893   2.990   0.206
  564SOL    HW2 2592   0.735   2.975   0.244
  565SOL     OW 2593   3.757   4.090   4.596
  565SOL    HW1 2594   3.666   4.092   4.554
  565SOL    HW2 2595   3.751   4.132   4.687
  566SOL     OW 2596   0.722   4.377   3.437
  566SOL    HW1 2597   0.694   4.473   3.431
  566SOL    HW2 2598   0.766   4.361   3.526
  567SOL     OW 2599   2.881   3.012   1.729
  567SOL    HW1 2600   2.906   2.924   1.770
  567SOL    HW2 2601   2.878   3.004   1.630
  568SOL     OW 2602   4.928   0.055   6.996
  568SOL    HW1 2603   4.926   7.008   0.035
  568SOL    HW2 2604   5.023   0.081   6.978
  569SOL     OW 2605   1.357   2.990   0.048
  569SOL    HW1 2606   1.322   3.052   0.118
  569SOL    HW2 2607   1.340   2.896   0.076
  570SOL     OW 2608   3.738   0.162   6.311
  570SOL    HW1 2609   3.678   0.130   6.384
  570SOL    HW2 2610   3.683   0.197   6.235
  571SOL     OW 2611   3.059   4.987   2.900
  571SOL    HW1 2612   2.992   4.975   2.827
  571SOL    HW2 2613   3.074   4.899   2.946
  572SOL     OW 2614   2.785   4.976   5.430
  572SOL    HW1 2615   2.778   5.074   5.408
  572SOL    HW2 2616   2.694   4.938   5.444
  573SOL     OW 2617   5.389   0.587   5.686
  573SOL    HW1 2618   5.439   0.671   5.708
  573SOL    HW2 2619   5.398   0.523   5.762
  574SOL     OW 2620   3.791   1.514   4.603
  574SOL    HW1 2621   3.735   1.514   4.686
  574SOL    HW2 2622   3.873   1.570   4.619
  575SOL     OW 2623   5.027   3.793   1.613
  575SOL    HW1 2624   5.045   3.889   1.595
  575SOL    HW2 2625   5.023   3.742   1.526
  576SOL     OW 2626   1.404   2.429   2.741
  576SOL    HW1 2627   1.449   2.362   2.682
  576SOL    HW2 2628   1.463   2.510   2.750
  577SOL     OW 2629   1.165   1.318   2.810
  577SOL    HW1 2630   1.219   1.391   2.852
  577SOL    HW2 2631   1.106   1.276   2.878
  578SOL     OW 2632   6.716   5.448   4.754
  578SOL    HW1 2633   6.726   5.492   4.664
  578SOL    HW2 2634   6.721   5.518   4.825
  579SOL     OW 2635   1.805   3.416   4.120
  579SOL    HW1 2636   1.882   3.425   4.183
  579SOL    HW2 2637   1.815   3.481   4.045
  580SOL     OW 2638   4.811   4.919   5.323
  580SOL    HW1 2639   4.722   4.957   5.296
  580SOL    HW2 2640   4.815   4.823   5.295
  581SOL     OW 2641   1.802   2.686   1.757
  581SOL    HW1 2642   1.815   2.588   1.773
  581SOL    HW2 2643   1.805   2.735   1.844
  582SOL     OW 2644   4.794   6.060   2.457
  582SOL    HW1 2645   4.841   6.008   2.529
  582SOL    HW2 2646   4.854   6.069   2.378
  583SOL     OW 2647   2.763   6.079   5.026
  583SOL    HW1 2648   2.790   6.032   4.942
  583SOL    HW2 2649   2.689   6.144   5.005
  584SOL     OW 2650   2.511   5.689   6.695
  584SOL    HW1 2651   2.542   5.776   6.656
  584SOL    HW2 2652   2.418   5.700   6.729
  585SOL     OW 2653   4.653   1.627   6.593
  585SOL    HW1 2654   4.706   1.658   6.672
  585SOL    HW2 2655   4.588   1.556   6.622
  586SOL     OW 2656   3.308   0.242   6.148
  586SOL    HW1 2657   3.331   0.188   6.230
  586SOL    HW2 2658   3.259   0.325   6.176
  587SOL     OW 2659   4.855   2.411   3.963
  587SOL    HW1 2660   4.818   2.348   3.895
  587SOL    HW2 2661   4.928   2.365   4.015
  588SOL     OW 2662   2.562   5.419   1.169
  588SOL    HW1 2663   2.520   5.341   1.122
  588SOL    HW2 2664   2.504   5.446   1.246
  589SOL     OW 2665   3.519   4.923   1.493
  589SOL    HW1 2666   3.423   4.948   1.508
  589SOL    HW2 2667   3.565   4.913   1.581
  590SOL     OW 2668   5.378   2.960   1.952
  590SOL    HW1 2669   5.437   2.958   2.032
  590SOL    HW2 2670   5.285   2.932   1.978
  591SOL     OW 2671   3.668   5.803   3.494
  591SOL    HW1 2672   3.573   5.809   3.526
  591SOL    HW2 2673   3.670   5.761   3.404
  592SOL     OW 2674   4.061   1.167   1.371
  592SOL    HW1 2675   4.081   1.263   1.355
  592SOL    HW2 2676   4.135   1.111   1.333
  593SOL     OW 2677   3.947   2.149   4.403
  593SOL    HW1 2678   4.035   2.194   4.390
  593SOL    HW2 2679   3.945   2.105   4.493
  594SOL     OW 2680   6.208   1.306   0.859
  594SOL    HW1 2681   6.175   1.215   0.834
  594SOL    HW2 2682   6.297   1.322   0.817
  595SOL     OW 2683   5.485   0.687   3.499
  595SOL    HW1 2684   5.527   0.752   3.435
  595SOL    HW2 2685   5.478   0.730   3.590
  596SOL     OW 2686   0.560   5.404   3.668
  596SOL    HW1 2687   0.471   5.450   3.672
  596SOL    HW2 2688   0.626   5.462   3.620
  597SOL     OW 2689   2.252   6.923   0.105
  597SOL    HW1 2690   2.268   6.916   0.204
  597SOL    HW2 2691   2.333   6.958   0.060
  598SOL     OW 2692   3.731   3.780   5.081
  598SOL    HW1 2693   3.831   3.787   5.084
  598SOL    HW2 2694   3.695   3.775   5.174
  599SOL     OW 2695   2.721   6.190   2.135
  599SOL    HW1 2696   2.695   6.099   2.166
  599SOL    HW2 2697   2.639   6.244   2.117
  600SOL     OW 2698   6.165   1.457   6.655
  600SOL    HW1 2699   6.227   1.398   6.602
  600SOL    HW2 2700   6.199   1.464   6.749
  601SOL     OW 2701   1.209   0.708   4.500
  601SOL    HW1 2702   1.117   0.673   4.482
  601SOL    HW2 2703   1.235   0.773   4.429
  602SOL     OW 2704   1.250   1.255   6.241
  602SOL    HW1 2705   1.171   1.298   6.196
  602SOL    HW2 2706   1.218   1.178   6.296
  603SOL     OW 2707   2.898   2.584   5.402
  603SOL    HW1 2708   2.960   2.505   5.400
  603SOL    HW2 2709   2.913   2.636   5.487
  604SOL     OW 2710   1.068   2.147   1.455
  604SOL    HW1 2711   1.103   2.099   1.375
  604SOL    HW2 2712   1.033   2.082   1.521
  605SOL     OW 2713   6.646   5.317   6.938
  605SOL    HW1 2714   6.677   5.410   6.919
  605SOL    HW2 2715   6.654   5.299   0.009
  606SOL     OW 2716   4.991   6.515   6.258
  606SOL    HW1 2717   4.936   6.594   6.232
  606SOL    HW2 2718   5.079   6.518   6.209
  607SOL     OW 2719   5.993   5.226   5.000
  607SOL    HW1 2720   5.941   5.255   5.081
  607SOL    HW2 2721   6.086   5.261   5.006
  608SOL     OW 2722   3.674   6.436   6.710
  608SOL    HW1 2723   3.591   6.407   6.758
  608SOL    HW2 2724   3.754   6.393   6.751
  609SOL     OW 2725   3.933   3.175   2.521
  609SOL    HW1 2726   3.872   3.114   2.572
  609SOL    HW2 2727   4.018   3.187   2.573
  610SOL     OW 2728   5.983   3.828   2.015
  610SOL    HW1 2729   5.915   3.828   2.089
  610SOL    HW2 2730   5.959   3.897   1.947
  611SOL     OW 2731   4.010   0.058   2.083
  611SOL    HW1 2732   4.077   0.117   2.127
  611SOL    HW2 2733   4.055   7.027   2.016
  612SOL     OW 2734   4.025   6.452   4.622
  612SOL    HW1 2735   4.032   6.410   4.531
  612SOL    HW2 2736   3.976   6.391   4.683
  613SOL     OW 2737   4.773   5.778   5.204
  613SOL    HW1 2738   4.853   5.817   5.159
  613SOL    HW2 2739   4.784   5.783   5.303
  614SOL     OW 2740   5.156   5.732   6.819
  614SOL    HW1 2741   5.143   5.759   6.914
  614SOL    HW2 2742   5.155   5.812   6.760
  615SOL     OW 2743   6.923   2.513   2.258
  615SOL    HW1 2744   6.927   2.530   2.159
  615SOL    HW2 2745   6.865   2.582   2.300
  616SOL     OW 2746   0.889   3.201   3.548
  616SOL    HW1 2747   0.916   3.255   3.628
  616SOL    HW2 2748   0.913   3.105   3.564
  617SOL     OW 2749   0.633   4.502   6.474
  617SOL    HW1 2750   0.712   4.520   6.416
  617SOL    HW2 2751   0.626   4.572   6.544
  618SOL     OW 2752   6.591   2.315   0.693
  618SOL    HW1 2753   6.502   2.294   0.653
  618SOL    HW2 2754   6.615   2.410   0.673
  619SOL     OW 2755   4.340   1.167   0.180
  619SOL    HW1 2756   4.300   1.204   0.264
  619SOL    HW2 2757   4.353   1.240   0.114
  620SOL     OW 2758   3.950   2.434   1.531
  620SOL    HW1 2759   4.031   2.443   1.473
  620SOL    HW2 2760   3.971   2.375   1.608
  621SOL     OW 2761   2.363   6.433   6.989
  621SOL    HW1 2762   2.370   6.432   0.061
  621SOL    HW2 2763   2.435   6.377   6.949
  622SOL     OW 2764   1.186   0.483   6.615
  622SOL    HW1 2765   1.131   0.407   6.650
  622SOL    HW2 2766   1.258   0.446   6.556
  623SOL     OW 2767   0.485   5.463   5.540
  623SOL    HW1 2768   0.539   5.407   5.476
  623SOL    HW2 2769   0.544   5.493   5.615
  624SOL     OW 2770   0.089   2.511   0.844
  624SOL    HW1 2771   0.043   2.423   0.857
  624SOL    HW2 2772   0.092   2.560   0.931
  625SOL     OW 2773   2.055   1.945   1.810
  625SOL    HW1 2774   2.047   1.850   1.780
  625SOL    HW2 2775   2.063   1.948   1.909
  626SOL     OW 2776   2.024   6.247   3.496
  626SOL    HW1 2777   1.980   6.336   3.506
  626SOL    HW2 2778   2.123   6.258   3.493
  627SOL     OW 2779   5.279   6.494   0.031
  627SOL    HW1 2780   5.293   6.534   6.968
  627SOL    HW2 2781   5.181   6.485   0.049
  628SOL     OW 2782   6.368   5.650   6.175
  628SOL    HW1 2783   6.275   5.670   6.142
  628SOL    HW2 2784   6.365   5.636   6.274
  629SOL     OW 2785   6.611   6.564   0.690
  629SOL    HW1 2786   6.676   6.554   0.614
  629SOL    HW2 2787   6.644   6.512   0.769
  630SOL     OW 2788   6.462   2.099   2.403
  630SOL    HW1 2789   6.484   2.038   2.480
  630SOL    HW2 2790   6.547   2.136   2.365
  631SOL     OW 2791   3.120   6.674   5.350
  631SOL    HW1 2792   3.145   6.677   5.446
  631SOL    HW2 2793   3.161   6.593   5.307
  632SOL     OW 2794   2.530   1.264   0.732
  632SOL    HW1 2795   2.559   1.360   0.731
  632SOL    HW2 2796   2.579   1.214   0.661
  633SOL     OW 2797   4.748   4.119   0.086
  633SOL    HW1 2798   4.665   4.174   0.100
  633SOL    HW2 2799   4.824   4.179   0.064
  634SOL     OW 2800   4.513   4.871   1.296
  634SOL    HW1 2801   4.471   4.856   1.386
  634SOL    HW2 2802   4.483   4.800   1.233
  635SOL     OW 2803   4.669   4.917   1.060
  635SOL    HW1 2804   4.612   4.883   1.135
  635SOL    HW2 2805   4.677   5.017   1.067
  636SOL     OW 2806   4.186   5.577   6.558
  636SOL    HW1 2807   4.179   5.484   6.523
  636SOL    HW2 2808   4.162   5.641   6.485
  637SOL     OW 2809   6.792   3.966   2.651
  637SOL    HW1 2810   6.787   3.999   2.557
  637SOL    HW2 2811   6.699   3.950   2.686
  638SOL     OW 2812   5.610   2.036   3.034
  638SOL    HW1 2813   5.545   2.052   2.960
  638SOL    HW2 2814   5.561   2.028   3.121
  639SOL     OW 2815   4.933   3.769   2.688
  639SOL    HW1 2816   4.944   3.767   2.588
  639SOL    HW2 2817   5.018   3.743   2.732
  640SOL     OW 2818   0.249   5.142   4.186
  640SOL    HW1 2819   0.180   5.134   4.115
  640SOL    HW2 2820   0.339   5.151   4.143
  641SOL     OW 2821   6.945   6.229   4.878
  641SOL    HW1 2822   6.887   6.298   4.835
  641SOL    HW2 2823   6.917   6.217   4.974
  642SOL     OW 2824   0.375   3.178   4.507
  642SOL    HW1 2825   0.457   3.145   4.460
  642SOL    HW2 2826   0.329   3.247   4.450
  643SOL     OW 2827   4.911   5.410   5.053
  643SOL    HW1 2828   4.893   5.507   5.034
  643SOL    HW2 2829   4.924   5.361   4.967
  644SOL     OW 2830   0.940   5.765   4.336
  644SOL    HW1 2831   0.936   5.700   4.412
  644SOL    HW2 2832   1.022   5.822   4.345
  645SOL     OW 2833   4.687   1.523   4.613
  645SOL    HW1 2834   4.594   1.500   4.641
  645SOL    HW2 2835   4.752   1.490   4.681
  646SOL     OW 2836   3.386   1.496   4.387
  646SOL    HW1 2837   3.483   1.487   4.364
  646SOL    HW2 2838   3.332   1.441   4.323
  647SOL     OW 2839   5.720   1.914   5.020
  647SOL    HW1 2840   5.772   1.984   5.069
  647SOL    HW2 2841   5.759   1.824   5.038
  648SOL     OW 2842   0.323   4.150   4.171
  648SOL    HW1 2843   0.352   4.239   4.138
  648SOL    HW2 2844   0.258   4.161   4.245
  649SOL     OW 2845   3.523   3.947   0.652
  649SOL    HW1 2846   3.598   3.960   0.717
  649SOL    HW2 2847   3.485   3.855   0.663
  650SOL     OW 2848   6.332   4.447   0.931
  650SOL    HW1 2849   6.416   4.430   0.880
  650SOL    HW2 2850   6.302   4.362   0.975
  651SOL     OW 2851   6.661   6.776   6.032
  651SOL    HW1 2852   6.681   6.826   6.116
  651SOL    HW2 2853   6.599   6.700   6.052
  652SOL     OW 2854   5.318   6.200   3.640
  652SOL    HW1 2855   5.252   6.234   3.573
  652SOL    HW2 2856   5.396   6.158   3.593
  653SOL     OW 2857   2.895   5.971   4.804
  653SOL    HW1 2858   2.821   5.963   4.737
  653SOL    HW2 2859   2.967   6.030   4.767
  654SOL     OW 2860   0.432   4.054   5.985
  654SOL    HW1 2861   0.387   4.066   6.074
  654SOL    HW2 2862   0.378   3.991   5.930
  655SOL     OW 2863   0.739   6.199   1.922
  655SOL    HW1 2864   0.777   6.266   1.987
  655SOL    HW2 2865   0.687   6.247   1.852
  656SOL     OW 2866   1.740   5.861   1.873
  656SOL    HW1 2867   1.746   5.767   1.908
  656SOL    HW2 2868   1.648   5.896   1.889
  657SOL     OW 2869   1.615   2.317   1.527
  657SOL    HW1 2870   1.566   2.230   1.518
  657SOL    HW2 2871   1.588   2.378   1.452
  658SOL     OW 2872   2.858   3.507   5.986
  658SOL    HW1 2873   2.891   3.493   5.893
  658SOL    HW2 2874   2.829   3.602   5.997
  659SOL     OW 2875   2.502   5.947   5.728
  659SOL    HW1 2876   2.596   5.952   5.696
  659SOL    HW2 2877   2.498   5.974   5.824
  660SOL     OW 2878   5.223   4.580   2.291
  660SOL    HW1 2879   5.307   4.594   2.344
  660SOL    HW2 2880   5.173   4.501   2.328
  661SOL     OW 2881   4.172   5.582   3.177
  661SOL    HW1 2882   4.122   5.496   3.166
  661SOL    HW2 2883   4.163   5.636   3.093
  662SOL     OW 2884   3.989   0.538   5.655
  662SOL    HW1 2885   4.046   0.612   5.689
  662SOL    HW2 2886   3.909   0.527   5.714
  663SOL     OW 2887   2.371   4.092   6.139
  663SOL    HW1 2888   2.388   4.007   6.189
  663SOL    HW2 2889   2.453   4.117   6.087
  664SOL     OW 2890   7.006   5.267   6.187
  664SOL    HW1 2891   0.027   5.335   6.131
  664SOL    HW2 2892   6.908   5.288   6.186
  665SOL     OW 2893   5.727   5.319   1.914
  665SOL    HW1 2894   5.787   5.238   1.912
  665SOL    HW2 2895   5.648   5.300   1.972
  666SOL     OW 2896   5.234   1.947   2.560
  666SOL    HW1 2897   5.236   1.852   2.528
  666SOL    HW2 2898   5.325   1.987   2.551
  667SOL     OW 2899   1.185   4.843   3.153
  667SOL    HW1 2900   1.126   4.825   3.232
  667SOL    HW2 2901   1.204   4.756   3.107
  668SOL     OW 2902   5.394   6.804   5.879
  668SOL    HW1 2903   5.356   6.768   5.965
  668SOL    HW2 2904   5.324   6.800   5.808
  669SOL     OW 2905   3.996   0.378   2.757
  669SOL    HW1 2906   4.059   0.318   2.708
  669SOL    HW2 2907   3.999   0.469   2.717
  670SOL     OW 2908   3.231   2.622   1.295
  670SOL    HW1 2909   3.221   2.523   1.302
  670SOL    HW2 2910   3.288   2.644   1.216
  671SOL     OW 2911   1.451   6.359   0.230
  671SOL    HW1 2912   1.353   6.379   0.235
  671SOL    HW2 2913   1.471   6.309   0.146
  672SOL     OW 2914   0.385   5.435   2.262
  672SOL    HW1 2915   0.421   5.349   2.298
  672SOL    HW2 2916   0.366   5.498   2.338
  673SOL     OW 2917   6.871   6.547   1.615
  673SOL    HW1 2918   6.911   6.457   1.597
  673SOL    HW2 2919   6.937   6.604   1.665
  674SOL     OW 2920   1.188   1.590   4.996
  674SOL    HW1 2921   1.216   1.674   4.950
  674SOL    HW2 2922   1.268   1.548   5.039
  675SOL     OW 2923   0.773   0.758   3.161
  675SOL    HW1 2924   0.851   0.707   3.199
  675SOL    HW2 2925   0.794   0.856   3.161
  676SOL     OW 2926   3.094   6.184   2.268
  676SOL    HW1 2927   3.073   6.177   2.366
  676SOL    HW2 2928   3.141   6.271   2.251
  677SOL     OW 2929   5.664   2.023   0.823
  677SOL    HW1 2930   5.579   2.046   0.871
  677SOL    HW2 2931   5.642   1.974   0.739
  678SOL     OW 2932   2.058   0.422   5.476
  678SOL    HW1 2933   1.974   0.400   5.427
  678SOL    HW2 2934   2.117   0.341   5.480
  679SOL     OW 2935   4.681   2.035   3.245
  679SOL    HW1 2936   4.589   2.041   3.285
  679SOL    HW2 2937   4.700   1.940   3.222
  680SOL     OW 2938   5.626   5.510   5.786
  680SOL    HW1 2939   5.550   5.574   5.791
  680SOL    HW2 2940   5.596   5.420   5.819
  681SOL     OW 2941   5.663   4.677   1.790
  681SOL    HW1 2942   5.679   4.775   1.773
  681SOL    HW2 2943   5.612   4.639   1.713
  682SOL     OW 2944   6.719   1.535   1.221
  682SOL    HW1 2945   6.650   1.582   1.166
  682SOL    HW2 2946   6.774   1.477   1.161
  683SOL     OW 2947   4.810   3.503   0.284
  683SOL    HW1 2948   4.821   3.415   0.238
  683SOL    HW2 2949   4.848   3.497   0.377
  684SOL     OW 2950   6.828   1.252   0.070
  684SOL    HW1 2951   6.803   1.194   7.020
  684SOL    HW2 2952   6.815   1.202   0.155
  685SOL     OW 2953   3.731   1.246   3.620
  685SOL    HW1 2954   3.811   1.234   3.560
  685SOL    HW2 2955   3.726   1.342   3.648
  686SOL     OW 2956   4.894   3.169   3.829
  686SOL    HW1 2957   4.940   3.128   3.908
  686SOL    HW2 2958   4.842   3.098   3.781
  687SOL     OW 2959   0.375   2.161   4.287
  687SOL    HW1 2960   0.449   2.110   4.242
  687SOL    HW2 2961   0.305   2.097   4.319
  688SOL     OW 2962   0.486   1.451   6.831
  688SOL    HW1 2963   0.578   1.489   6.837
  688SOL    HW2 2964   0.472   1.384   6.903
  689SOL     OW 2965   0.546   5.017   6.605
  689SOL    HW1 2966   0.485   5.096   6.617
  689SOL    HW2 2967   0.531   4.977   6.515
  690SOL     OW 2968   0.665   3.894   2.485
  690SOL    HW1 2969   0.613   3.947   2.552
  690SOL    HW2 2970   0.623   3.902   2.395
  691SOL     OW 2971   2.567   0.131   0.331
  691SOL    HW1 2972   2.597   0.051   0.277
  691SOL    HW2 2973   2.621   0.211   0.304
  692SOL     OW 2974   3.511   0.612   3.839
  692SOL    HW1 2975   3.499   0.710   3.829
  692SOL    HW2 2976   3.445   0.577   3.906
  693SOL     OW 2977   5.418   0.588   3.871
  693SOL    HW1 2978   5.427   0.649   3.792
  693SOL    HW2 2979   5.463   0.501   3.850
  694SOL     OW 2980   4.104   6.328   3.201
  694SOL    HW1 2981   4.176   6.300   3.137
  694SOL    HW2 2982   4.022   6.273   3.186
  695SOL     OW 2983   4.181   6.915   4.283
  695SOL    HW1 2984   4.200   6.846   4.212
  695SOL    HW2 2985   4.219   6.884   4.370
  696SOL     OW 2986   4.733   4.858   2.720
  696SOL    HW1 2987   4.666   4.905   2.662
  696SOL    HW2 2988   4.685   4.795   2.781
  697SOL     OW 2989   1.721   3.915   3.560
  697SOL    HW1 2990   1.793   3.865   3.608
  697SOL    HW2 2991   1.725   3.894   3.462
  698SOL     OW 2992   4.684   6.948   0.857
  698SOL    HW1 2993   4.673   6.890   0.776
  698SOL    HW2 2994   4.781   6.954   0.881
  699SOL     OW 2995   2.073   3.485   6.463
  699SOL    HW1 2996   2.087   3.386   6.474
  699SOL    HW2 2997   2.099   3.512   6.370
  700SOL     OW 2998   2.836   0.658   2.075
  700SOL    HW1 2999   2.743   0.677   2.106
  700SOL    HW2 3000   2.901   0.700   2.138
  701SOL     OW 3001   6.327   3.793   6.254
  701SOL    HW1 3002   6.277   3.869   6.213
  701SOL    HW2 3003   6.321   3.799   6.354
  702SOL     OW 3004   1.445   5.924   4.774
  702SOL    HW1 3005   1.345   5.920   4.764
  702SOL    HW2 3006   1.484   5.836   4.746
  703SOL     OW 3007   3.799   3.761   6.808
  703SOL    HW1 3008   3.757   3.850   6.831
  703SOL    HW2 3009   3.738   3.710   6.747
  704SOL     OW 3010   1.502   2.826   0.480
  704SOL    HW1 3011   1.563   2.811   0.402
  704SOL    HW2 3012   1.415   2.779   0.463
  705SOL     OW 3013   6.403   5.355   2.939
  705SOL    HW1 3014   6.388   5.286   3.010
  705SOL    HW2 3015   6.364   5.442   2.969
  706SOL     OW 3016   4.511   1.956   4.811
  706SOL    HW1 3017   4.585   1.948   4.878
  706SOL    HW2 3018   4.505   2.051   4.780
  707SOL     OW 3019   4.540   5.023   2.530
  707SOL    HW1 3020   4.481   5.072   2.594
  707SOL    HW2 3021   4.487   4.996   2.450
  708SOL     OW 3022   3.813   0.399   2.029
  708SOL    HW1 3023   3.857   0.444   2.106
  708SOL    HW2 3024   3.760   0.320   2.061
  709SOL     OW 3025   0.492   6.008   0.780
  709SOL    HW1 3026   0.559   5.937   0.801
  709SOL    HW2 3027   0.407   5.965   0.750
  710SOL     OW 3028   3.866   2.495   1.104
  710SOL    HW1 3029   3.887   2.494   1.007
  710SOL    HW2 3030   3.776   2.452   1.119
  711SOL     OW 3031   6.991   3.099   5.707
  711SOL    HW1 3032   7.015   3.183   5.658
  711SOL    HW2 3033   0.045   3.061   5.752
  712SOL     OW 3034   4.195   2.481   1.389
  712SOL    HW1 3035   4.208   2.427   1.305
  712SOL    HW2 3036   4.279   2.481   1.443
  713SOL     OW 3037   4.255   2.426   5.886
  713SOL    HW1 3038   4.298   2.480   5.958
  713SOL    HW2 3039   4.213   2.488   5.819
  714SOL     OW 3040   0.109   4.609   3.615
  714SOL    HW1 3041   0.046   4.676   3.576
  714SOL    HW2 3042   0.164   4.568   3.543
  715SOL     OW 3043   5.179   5.956   6.677
  715SOL    HW1 3044   5.278   5.947   6.686
  715SOL    HW2 3045   5.158   6.045   6.636
  716SOL     OW 3046   0.407   0.713   2.076
  716SOL    HW1 3047   0.327   0.730   2.134
  716SOL    HW2 3048   0.381   0.724   1.980
  717SOL     OW 3049   6.711   4.477   4.058
  717SOL    HW1 3050   6.772   4.556   4.059
  717SOL    HW2 3051   6.765   4.393   4.053
  718SOL     OW 3052   4.447   2.960   6.155
  718SOL    HW1 3053   4.464   2.874   6.106
  718SOL    HW2 3054   4.378   2.945   6.225
  719SOL     OW 3055   6.607   1.035   2.524
  719SOL    HW1 3056   6.632   0.958   2.583
  719SOL    HW2 3057   6.606   1.006   2.429
  720SOL     OW 3058   2.249   0.486   6.094
  720SOL    HW1 3059   2.168   0.534   6.060
  720SOL    HW2 3060   2.222   0.422   6.166
  721SOL     OW 3061   2.523   1.506   2.799
  721SOL    HW1 3062   2.471   1.544   2.722
  721SOL    HW2 3063   2.461   1.456   2.859
  722SOL     OW 3064   2.808   0.350   5.336
  722SOL    HW1 3065   2.822   0.335   5.434
  722SOL    HW2 3066   2.809   0.448   5.317
  723SOL     OW 3067   1.416   4.552   3.505
  723SOL    HW1 3068   1.421   4.598   3.417
  723SOL    HW2 3069   1.508   4.543   3.543
  724SOL     OW 3070   1.485   2.324   3.953
  724SOL    HW1 3071   1.501   2.295   4.047
  724SOL    HW2 3072   1.392   2.360   3.944
  725SOL     OW 3073   2.262   5.379   1.382
  725SOL    HW1 3074   2.321   5.453   1.415
  725SOL    HW2 3075   2.224   5.330   1.461
  726SOL     OW 3076   3.592   4.732   1.295
  726SOL    HW1 3077   3.524   4.737   1.222
  726SOL    HW2 3078   3.568   4.795   1.369
  727SOL     OW 3079   6.466   4.674   5.889
  727SOL    HW1 3080   6.556   4.635   5.910
  727SOL    HW2 3081   6.395   4.619   5.934
  728SOL     OW 3082   6.506   3.268   3.783
  728SOL    HW1 3083   6.522   3.222   3.695
  728SOL    HW2 3084   6.577   3.336   3.798
  729SOL     OW 3085   0.557   1.890   1.824
  729SOL    HW1 3086   0.497   1.964   1.856
  729SOL    HW2 3087   0.652   1.920   1.826
  730SOL     OW 3088   5.768   0.273   4.384
  730SOL    HW1 3089   5.671   0.289   4.402
  730SOL    HW2 3090   5.803   0.204   4.447
  731SOL     OW 3091   4.794   4.892   6.544
  731SOL    HW1 3092   4.874   4.837   6.565
  731SOL    HW2 3093   4.758   4.933   6.628
  732SOL     OW 3094   5.457   2.966   1.490
  732SOL    HW1 3095   5.487   3.027   1.563
  732SOL    HW2 3096   5.491   2.873   1.508
  733SOL     OW 3097   5.354   6.957   4.726
  733SOL    HW1 3098   5.326   6.905   4.806
  733SOL    HW2 3099   5.365   0.026   4.751
  734SOL     OW 3100   6.403   4.792   3.013
  734SOL    HW1 3101   6.437   4.737   2.937
  734SOL    HW2 3102   6.320   4.840   2.985
  735SOL     OW 3103   4.373   1.761   0.475
  735SOL    HW1 3104   4.353   1.670   0.438
  735SOL    HW2 3105   4.301   1.787   0.539
  736SOL     OW 3106   0.074   1.737   3.390
  736SOL    HW1 3107   0.057   1.820   3.443
  736SOL    HW2 3108   0.172   1.720   3.385
  737SOL     OW 3109   5.042   1.798   4.748
  737SOL    HW1 3110   4.997   1.802   4.838
  737SOL    HW2 3111   5.104   1.876   4.738
  738SOL     OW 3112   2.733   3.787   1.154
  738SOL    HW1 3113   2.808   3.721   1.158
  738SOL    HW2 3114   2.660   3.757   1.215
  739SOL     OW 3115   4.602   1.116   4.192
  739SOL    HW1 3116   4.614   1.215   4.198
  739SOL    HW2 3117   4.593   1.090   4.095
  740SOL     OW 3118   6.261   1.337   1.558
  740SOL    HW1 3119   6.253   1.409   1.627
  740SOL    HW2 3120   6.177   1.332   1.505
  741SOL     OW 3121   1.613   0.429   3.530
  741SOL    HW1 3122   1.526   0.459   3.570
  741SOL    HW2 3123   1.684   0.496   3.550
  742SOL     OW 3124   2.871   6.648   1.523
  742SOL    HW1 3125   2.779   6.624   1.493
  742SOL    HW2 3126   2.882   6.747   1.522
  743SOL     OW 3127   1.068   5.022   3.616
  743SOL    HW1 3128   1.038   5.007   3.522
  743SOL    HW2 3129   0.999   4.987   3.679
  744SOL     OW 3130   5.432   0.229   1.203
  744SOL    HW1 3131   5.523   0.212   1.166
  744SOL    HW2 3132   5.440   0.265   1.296
  745SOL     OW 3133   1.191   5.105   4.457
  745SOL    HW1 3134   1.183   5.021   4.403
  745SOL    HW2 3135   1.275   5.153   4.431
  746SOL     OW 3136   6.447   3.839   7.004
  746SOL    HW1 3137   6.534   3.885   6.989
  746SOL    HW2 3138   6.378   3.906   0.002
  747SOL     OW 3139   3.797   6.543   4.369
  747SOL    HW1 3140   3.837   6.619   4.420
  747SOL    HW2 3141   3.814   6.458   4.417
  748SOL     OW 3142   3.998   4.828   1.946
  748SOL    HW1 3143   3.959   4.817   1.854
  748SOL    HW2 3144   3.925   4.828   2.013
  749SOL     OW 3145   5.730   3.697   4.529
  749SOL    HW1 3146   5.693   3.754   4.602
  749SOL    HW2 3147   5.813   3.739   4.493
  750SOL     OW 3148   2.331   2.026   1.321
  750SOL    HW1 3149   2.302   1.998   1.412
  750SOL    HW2 3150   2.339   2.126   1.318
  751SOL     OW 3151   4.102   1.503   7.016
  751SOL    HW1 3152   4.139   1.521   6.925
  751SOL    HW2 3153   4.148   1.423   0.028
  752SOL     OW 3154   3.389   1.285   1.578
  752SOL    HW1 3155   3.469   1.325   1.534
  752SOL    HW2 3156   3.357   1.207   1.524
  753SOL     OW 3157   1.145   3.595   5.780
  753SOL    HW1 3158   1.137   3.691   5.753
  753SOL    HW2 3159   1.187   3.543   5.705
  754SOL     OW 3160   4.454   1.817   5.500
  754SOL    HW1 3161   4.406   1.735   5.531
  754SOL    HW2 3162   4.486   1.805   5.406
  755SOL     OW 3163   1.831   5.080   4.929
  755SOL    HW1 3164   1.808   5.009   4.862
  755SOL    HW2 3165   1.893   5.042   4.998
  756SOL     OW 3166   3.163   6.063   6.788
  756SOL    HW1 3167   3.123   5.983   6.832
  756SOL    HW2 3168   3.127   6.146   6.831
  757SOL     OW 3169   0.383   0.297   4.170
  757SOL    HW1 3170   0.290   0.259   4.171
  757SOL    HW2 3171   0.421   0.288   4.078
  758SOL     OW 3172   3.039   0.531   3.036
  758SOL    HW1 3173   3.008   0.505   2.945
  758SOL    HW2 3174   3.094   0.615   3.030
  759SOL     OW 3175   0.550   2.539   1.981
  759SOL    HW1 3176   0.559   2.484   1.898
  759SOL    HW2 3177   0.455   2.537   2.012
  760SOL     OW 3178   6.278   6.771   4.183
  760SOL    HW1 3179   6.263   6.678   4.216
  760SOL    HW2 3180   6.202   6.798   4.124
  761SOL     OW 3181   5.617   3.748   6.291
  761SOL    HW1 3182   5.701   3.798   6.311
  761SOL    HW2 3183   5.638   3.667   6.236
  762SOL     OW 3184   2.723   6.650   4.818
  762SOL    HW1 3185   2.650   6.681   4.879
  762SOL    HW2 3186   2.682   6.608   4.737
  763SOL     OW 3187   4.384   5.291   6.424
  763SOL    HW1 3188   4.367   5.277   6.326
  763SOL    HW2 3189   4.298   5.316   6.469
  764SOL     OW 3190   5.597   0.705   5.101
  764SOL    HW1 3191   5.648   0.790   5.117
  764SOL    HW2 3192   5.622   0.638   5.170
  765SOL     OW 3193   1.219   5.825   1.487
  765SOL    HW1 3194   1.165   5.740   1.486
  765SOL    HW2 3195   1.300   5.812   1.545
  766SOL     OW 3196   2.354   2.230   6.242
  766SOL    HW1 3197   2.404   2.271   6.166
  766SOL    HW2 3198   2.280   2.292   6.270
  767SOL     OW 3199   6.534   5.976   3.360
  767SOL    HW1 3200   6.600   5.923   3.413
  767SOL    HW2 3201   6.583   6.033   3.294
  768SOL     OW 3202   2.516   5.928   2.513
  768SOL    HW1 3203   2.477   5.919   2.421
  768SOL    HW2 3204   2.538   5.837   2.548
  769SOL     OW 3205   2.502   1.321   5.346
  769SOL    HW1 3206   2.480   1.292   5.439
  769SOL    HW2 3207   2.601   1.333   5.338
  770SOL     OW 3208   1.640   4.735   3.122
  770SOL    HW1 3209   1.659   4.738   3.023
  770SOL    HW2 3210   1.718   4.694   3.169
  771SOL     OW 3211   0.993   5.067   2.319
  771SOL    HW1 3212   0.923   5.042   2.387
  771SOL    HW2 3213   1.053   5.137   2.357
  772SOL     OW 3214   5.584   4.586   6.710
  772SOL    HW1 3215   5.595   4.500   6.662
  772SOL    HW2 3216   5.545   4.569   6.801
  773SOL     OW 3217   0.219   4.636   3.944
  773SOL    HW1 3218   0.224   4.564   4.013
  773SOL    HW2 3219   0.140   4.620   3.884
  774SOL     OW 3220   1.796   1.418   1.259
  774SOL    HW1 3221   1.798   1.429   1.160
  774SOL    HW2 3222   1.757   1.501   1.300
  775SOL     OW 3223   1.983   2.312   4.106
  775SOL    HW1 3224   1.892   2.348   4.086
  775SOL    HW2 3225   1.994   2.302   4.205
  776SOL     OW 3226   0.932   0.539   5.434
  776SOL    HW1 3227   1.017   0.585   5.406
  776SOL    HW2 3228   0.859   0.606   5.444
  777SOL     OW 3229   1.754   4.757   1.390
  777SOL    HW1 3230   1.743   4.852   1.419
  777SOL    HW2 3231   1.827   4.713   1.442
  778SOL     OW 3232   2.264   1.333   2.047
  778SOL    HW1 3233   2.206   1.296   2.120
  778SOL    HW2 3234   2.333   1.393   2.086
  779SOL     OW 3235   7.015   2.794   2.799
  779SOL    HW1 3236   0.067   2.835   2.754
  779SOL    HW2 3237   7.016   2.816   2.896
  780SOL     OW 3238   0.658   3.122   3.986
  780SOL    HW1 3239   0.727   3.057   4.017
  780SOL    HW2 3240   0.573   3.074   3.968
  781SOL     OW 3241   5.905   6.886   0.273
  781SOL    HW1 3242   5.996   6.843   0.267
  781SOL    HW2 3243   5.903   6.948   0.352
  782SOL     OW 3244   1.498   3.535   6.167
  782SOL    HW1 3245   1.434   3.486   6.108
  782SOL    HW2 3246   1.461   3.626   6.188
  783SOL     OW 3247   5.331   5.029   2.072
  783SOL    HW1 3248   5.316   4.930   2.074
  783SOL    HW2 3249   5.379   5.056   2.156
  784SOL     OW 3250   4.711   4.725   0.540
  784SOL    HW1 3251   4.640   4.730   0.611
  784SOL    HW2 3252   4.688   4.653   0.475
  785SOL     OW 3253   0.663   2.083   3.561
  785SOL    HW1 3254   0.734   2.149   3.540
  785SOL    HW2 3255   0.600   2.120   3.629
  786SOL     OW 3256   0.602   0.167   3.301
  786SOL    HW1 3257   0.533   0.230   3.336
  786SOL    HW2 3258   0.668   0.217   3.244
  787SOL     OW 3259   1.441   0.544   0.172
  787SOL    HW1 3260   1.504   0.490   0.228
  787SOL    HW2 3261   1.434   0.503   0.081
  788SOL     OW 3262   3.969   1.482   0.383
  788SOL    HW1 3263   3.885   1.455   0.430
  788SOL    HW2 3264   3.947   1.543   0.307
  789SOL     OW 3265   3.880   4.515   1.170
  789SOL    HW1 3266   3.929   4.601   1.152
  789SOL    HW2 3267   3.883   4.495   1.268
  790SOL     OW 3268   1.758   1.607   3.017
  790SOL    HW1 3269   1.821   1.673   3.058
  790SOL    HW2 3270   1.740   1.632   2.922
  791SOL     OW 3271   1.377   5.458   4.496
  791SOL    HW1 3272   1.438   5.469   4.574
  791SOL    HW2 3273   1.308   5.530   4.498
  792SOL     OW 3274   0.319   1.016   1.410
  792SOL    HW1 3275   0.362   1.094   1.456
  792SOL    HW2 3276   0.364   0.931   1.438
  793SOL     OW 3277   5.181   5.002   4.069
  793SOL    HW1 3278   5.209   5.058   4.147
  793SOL    HW2 3279   5.161   5.061   3.991
  794SOL     OW 3280   2.996   3.908   5.878
  794SOL    HW1 3281   2.902   3.875   5.869
  794SOL    HW2 3282   3.058   3.842   5.835
  795SOL     OW 3283   3.762   6.871   4.733
  795SOL    HW1 3284   3.711   6.899   4.814
  795SOL    HW2 3285   3.698   6.838   4.664
  796SOL     OW 3286   0.869   2.662   5.702
  796SOL    HW1 3287   0.916   2.580   5.736
  796SOL    HW2 3288   0.786   2.635   5.654
  797SOL     OW 3289   5.692   2.002   1.117
  797SOL    HW1 3290   5.704   2.005   1.018
  797SOL    HW2 3291   5.605   2.043   1.142
  798SOL     OW 3292   3.499   6.570   1.758
  798SOL    HW1 3293   3.506   6.471   1.747
  798SOL    HW2 3294   3.424   6.592   1.820
  799SOL     OW 3295   0.251   7.022   6.416
  799SOL    HW1 3296   0.349   7.007   6.403
  799SOL    HW2 3297   0.235   0.030   6.509
  800SOL     OW 3298   5.650   1.279   2.451
  800SOL    HW1 3299   5.731   1.266   2.394
  800SOL    HW2 3300   5.626   1.192   2.496
  801SOL     OW 3301   2.350   4.268   4.471
  801SOL    HW1 3302   2.359   4.319   4.557
  801SOL    HW2 3303   2.280   4.197   4.482
  802SOL     OW 3304   3.177   1.411   0.740
  802SOL    HW1 3305   3.084   1.425   0.704
  802SOL    HW2 3306   3.239   1.477   0.697
  803SOL     OW 3307   1.081   0.214   6.157
  803SOL    HW1 3308   1.076   0.146   6.084
  803SOL    HW2 3309   1.018   0.289   6.135
  804SOL     OW 3310   5.598   6.728   0.139
  804SOL    HW1 3311   5.586   6.629   0.128
  804SOL    HW2 3312   5.668   6.760   0.075
  805SOL     OW 3313   2.782   0.806   4.050
  805SOL    HW1 3314   2.767   0.750   3.968
  805SOL    HW2 3315   2.697   0.812   4.102
  806SOL     OW 3316   5.280   0.920   4.411
  806SOL    HW1 3317   5.322   0.972   4.337
  806SOL    HW2 3318   5.181   0.915   4.396
  807SOL     OW 3319   0.781   0.811   5.226
  807SOL    HW1 3320   0.760   0.718   5.195
  807SOL    HW2 3321   0.760   0.819   5.323
  808SOL     OW 3322   4.120   4.076   6.163
  808SOL    HW1 3323   4.037   4.090   6.109
  808SOL    HW2 3324   4.197   4.060   6.101
  809SOL     OW 3325   0.394   4.971   1.671
  809SOL    HW1 3326   0.379   5.065   1.700
  809SOL    HW2 3327   0.352   4.908   1.737
  810SOL     OW 3328   3.622   4.139   1.001
  810SOL    HW1 3329   3.662   4.096   0.920
  810SOL    HW2 3330   3.653   4.092   1.083
  811SOL     OW 3331   4.989   6.096   5.432
  811SOL    HW1 3332   5.058   6.026   5.418
  811SOL    HW2 3333   5.019   6.181   5.388
  812SOL     OW 3334   6.862   0.410   2.501
  812SOL    HW1 3335   6.952   0.427   2.462
  812SOL    HW2 3336   6.858   0.315   2.535
  813SOL     OW 3337   4.214   6.674   4.134
  813SOL    HW1 3338   4.268   6.610   4.188
  813SOL    HW2 3339   4.140   6.625   4.088
  814SOL     OW 3340   5.833   5.912   2.906
  814SOL    HW1 3341   5.743   5.872   2.893
  814SOL    HW2 3342   5.828   6.011   2.896
  815SOL     OW 3343   6.980   3.624   3.583
  815SOL    HW1 3344   6.960   3.721   3.572
  815SOL    HW2 3345   0.029   3.613   3.646
  816SOL     OW 3346   6.035   5.786   0.424
  816SOL    HW1 3347   6.013   5.881   0.444
  816SOL    HW2 3348   6.050   5.736   0.510
  817SOL     OW 3349   1.565   5.619   1.596
  817SOL    HW1 3350   1.521   5.677   1.665
  817SOL    HW2 3351   1.523   5.528   1.598
  818SOL     OW 3352   6.011   2.310   3.373
  818SOL    HW1 3353   6.010   2.342   3.278
  818SOL    HW2 3354   5.919   2.322   3.412
  819SOL     OW 3355   5.645   2.834   2.308
  819SOL    HW1 3356   5.579   2.767   2.344
  819SOL    HW2 3357   5.696   2.874   2.384
  820SOL     OW 3358   3.214   2.055   4.952
  820SOL    HW1 3359   3.185   2.147   4.979
  820SOL    HW2 3360   3.148   1.988   4.987
  821SOL     OW 3361   6.762   4.273   0.192
  821SOL    HW1 3362   6.727   4.299   0.282
  821SOL    HW2 3363   6.803   4.354   0.148
  822SOL     OW 3364   0.601   3.750   3.588
  822SOL    HW1 3365   0.641   3.798   3.510
  822SOL    HW2 3366   0.507   3.723   3.567
  823SOL     OW 3367   5.622   3.990   6.496
  823SOL    HW1 3368   5.714   3.966   6.464
  823SOL    HW2 3369   5.566   3.907   6.501
  824SOL     OW 3370   4.737   1.431   6.285
  824SOL    HW1 3371   4.735   1.342   6.240
  824SOL    HW2 3372   4.810   1.487   6.245
  825SOL     OW 3373   0.185   4.917   1.143
  825SOL    HW1 3374   0.280   4.948   1.145
  825SOL    HW2 3375   0.125   4.995   1.158
  826SOL     OW 3376   4.034   2.261   5.899
  826SOL    HW1 3377   4.126   2.300   5.899
  826SOL    HW2 3378   3.969   2.328   5.936
  827SOL     OW 3379   2.693   4.686   5.498
  827SOL    HW1 3380   2.716   4.613   5.433
  827SOL    HW2 3381   2.778   4.728   5.532
  828SOL     OW 3382   5.096   6.132   6.482
  828SOL    HW1 3383   5.098   6.046   6.431
  828SOL    HW2 3384   5.038   6.198   6.434
  829SOL     OW 3385   4.012   3.902   2.237
  829SOL    HW1 3386   4.005   3.821   2.295
  829SOL    HW2 3387   4.108   3.930   2.231
  830SOL     OW 3388   5.996   4.583   6.411
  830SOL    HW1 3389   5.903   4.590   6.376
  830SOL    HW2 3390   6.031   4.675   6.430
  831SOL     OW 3391   5.937   0.601   6.783
  831SOL    HW1 3392   5.999   0.563   6.714
  831SOL    HW2 3393   5.990   0.636   6.860
  832SOL     OW 3394   4.142   0.833   3.097
  832SOL    HW1 3395   4.143   0.914   3.039
  832SOL    HW2 3396   4.193   0.759   3.052
  833SOL     OW 3397   1.872   3.596   6.651
  833SOL    HW1 3398   1.938   3.560   6.585
  833SOL    HW2 3399   1.919   3.617   6.737
  834SOL     OW 3400   4.448   4.154   0.943
  834SOL    HW1 3401   4.380   4.082   0.930
  834SOL    HW2 3402   4.500   4.137   1.027
  835SOL     OW 3403   3.071   0.086   5.432
  835SOL    HW1 3404   3.133   0.035   5.372
  835SOL    HW2 3405   3.082   0.053   5.526
  836SOL     OW 3406   3.490   6.838   5.318
  836SOL    HW1 3407   3.558   6.906   5.343
  836SOL    HW2 3408   3.535   6.757   5.280
  837SOL     OW 3409   6.432   0.004   0.955
  837SOL    HW1 3410   6.431   0.091   0.906
  837SOL    HW2 3411   6.489   6.966   0.905
  838SOL     OW 3412   2.220   0.898   4.353
  838SOL    HW1 3413   2.306   0.848   4.349
  838SOL    HW2 3414   2.171   0.874   4.437
  839SOL     OW 3415   1.297   1.548   1.847
  839SOL    HW1 3416   1.386   1.590   1.866
  839SOL    HW2 3417   1.309   1.449   1.836
  840SOL     OW 3418   5.955   5.795   6.928
  840SOL    HW1 3419   5.998   5.815   6.840
  840SOL    HW2 3420   5.921   5.701   6.927
  841SOL     OW 3421   2.911   5.540   6.181
  841SOL    HW1 3422   3.006   5.534   6.150
  841SOL    HW2 3423   2.862   5.609   6.128
  842SOL     OW 3424   3.605   0.265   4.755
  842SOL    HW1 3425   3.554   0.349   4.775
  842SOL    HW2 3426   3.668   0.245   4.830
  843SOL     OW 3427   0.847   1.546   1.322
  843SOL    HW1 3428   0.872   1.560   1.226
  843SOL    HW2 3429   0.825   1.634   1.364
  844SOL     OW 3430   5.880   7.011   0.577
  844SOL    HW1 3431   5.940   6.935   0.554
  844SOL    HW2 3432   5.808   6.979   0.638
  845SOL     OW 3433   4.801   4.012   4.023
  845SOL    HW1 3434   4.759   4.051   4.105
  845SOL    HW2 3435   4.844   3.925   4.046
  846SOL     OW 3436   2.110   1.137   5.839
  846SOL    HW1 3437   2.155   1.177   5.919
  846SOL    HW2 3438   2.029   1.191   5.817
  847SOL     OW 3439   1.580   3.662   1.069
  847SOL    HW1 3440   1.520   3.721   1.016
  847SOL    HW2 3441   1.539   3.644   1.158
  848SOL     OW 3442   6.913   6.765   5.891
  848SOL    HW1 3443   7.006   6.758   5.926
  848SOL    HW2 3444   6.848   6.762   5.967
  849SOL     OW 3445   6.011   3.656   6.326
  849SOL    HW1 3446   6.098   3.706   6.327
  849SOL    HW2 3447   6.020   3.575   6.268
  850SOL     OW 3448   4.597   1.401   4.208
  850SOL    HW1 3449   4.631   1.495   4.204
  850SOL    HW2 3450   4.502   1.398   4.176
  851SOL     OW 3451   6.830   2.724   1.493
  851SOL    HW1 3452   6.852   2.733   1.396
  851SOL    HW2 3453   6.795   2.811   1.528
  852SOL     OW 3454   1.572   4.165   0.157
  852SOL    HW1 3455   1.589   4.184   0.254
  852SOL    HW2 3456   1.480   4.129   0.146
  853SOL     OW 3457   0.671   4.888   1.252
  853SOL    HW1 3458   0.711   4.806   1.210
  853SOL    HW2 3459   0.744   4.945   1.290
  854SOL     OW 3460   5.422   5.262   0.826
  854SOL    HW1 3461   5.413   5.163   0.811
  854SOL    HW2 3462   5.519   5.285   0.837
  855SOL     OW 3463   6.933   0.080   1.413
  855SOL    HW1 3464   6.912   0.145   1.485
  855SOL    HW2 3465   6.849   0.054   1.365
  856SOL     OW 3466   1.458   1.930   6.492
  856SOL    HW1 3467   1.456   1.896   6.586
  856SOL    HW2 3468   1.468   2.030   6.493
  857SOL     OW 3469   6.448   5.266   1.867
  857SOL    HW1 3470   6.489   5.356   1.886
  857SOL    HW2 3471   6.512   5.195   1.894
  858SOL     OW 3472   3.330   4.052   1.329
  858SOL    HW1 3473   3.299   4.059   1.424
  858SOL    HW2 3474   3.427   4.074   1.324
  859SOL     OW 3475   5.898   0.138   4.581
  859SOL    HW1 3476   5.892   0.064   4.648
  859SOL    HW2 3477   5.988   0.181   4.586
  860SOL     OW 3478   6.332   2.297   0.588
  860SOL    HW1 3479   6.290   2.386   0.606
  860SOL    HW2 3480   6.286   2.226   0.642
  861SOL     OW 3481   2.281   5.565   4.027
  861SOL    HW1 3482   2.359   5.613   4.068
  861SOL    HW2 3483   2.209   5.631   4.006
  862SOL     OW 3484   1.226   3.669   4.088
  862SOL    HW1 3485   1.311   3.616   4.084
  862SOL    HW2 3486   1.148   3.607   4.078
  863SOL     OW 3487   5.763   1.372   6.839
  863SOL    HW1 3488   5.775   1.275   6.858
  863SOL    HW2 3489   5.679   1.404   6.883
  864SOL     OW 3490   4.178   5.670   4.114
  864SOL    HW1 3491   4.247   5.701   4.049
  864SOL    HW2 3492   4.096   5.643   4.065
  865SOL     OW 3493   1.514   6.564   6.019
  865SOL    HW1 3494   1.525   6.609   6.108
  865SOL    HW2 3495   1.425   6.587   5.980
  866SOL     OW 3496   1.993   1.673   1.281
  866SOL    HW1 3497   2.062   1.620   1.332
  866SOL    HW2 3498   1.905   1.665   1.327
  867SOL     OW 3499   5.255   3.837   0.319
  867SOL    HW1 3500   5.219   3.751   0.354
  867SOL    HW2 3501   5.202   3.866   0.239
  868SOL     OW 3502   6.417   1.342   0.647
  868SOL    HW1 3503   6.448   1.336   0.552
  868SOL    HW2 3504   6.483   1.395   0.700
  869SOL     OW 3505   0.492   4.203   2.911
  869SOL    HW1 3506   0.410   4.159   2.872
  869SOL    HW2 3507   0.521   4.152   2.992
  870SOL     OW 3508   4.042   3.522   7.020
  870SOL    HW1 3509   4.100   3.560   6.949
  870SOL    HW2 3510   3.949   3.558   7.011
  871SOL     OW 3511   4.946   2.028   2.519
  871SOL    HW1 3512   5.019   1.999   2.580
  871SOL    HW2 3513   4.910   2.116   2.550
  872SOL     OW 3514   5.670   3.336   4.081
  872SOL    HW1 3515   5.613   3.271   4.032
  872SOL    HW2 3516   5.753   3.289   4.113
  873SOL     OW 3517   6.058   6.220   4.976
  873SOL    HW1 3518   6.101   6.194   4.889
  873SOL    HW2 3519   5.969   6.262   4.958
  874SOL     OW 3520   0.799   3.653   6.086
  874SOL    HW1 3521   0.712   3.675   6.043
  874SOL    HW2 3522   0.797   3.684   6.182
  875SOL     OW 3523   5.494   4.300   0.557
  875SOL    HW1 3524   5.406   4.255   0.546
  875SOL    HW2 3525   5.567   4.232   0.559
  876SOL     OW 3526   1.271   4.408   2.045
  876SOL    HW1 3527   1.214   4.333   2.013
  876SOL    HW2 3528   1.212   4.483   2.077
  877SOL     OW 3529   3.874   4.892   5.650
  877SOL    HW1 3530   3.957   4.870   5.600
  877SOL    HW2 3531   3.898   4.924   5.742
  878SOL     OW 3532   3.841   5.709   4.931
  878SOL    HW1 3533   3.770   5.777   4.917
  878SOL    HW2 3534   3.860   5.661   4.845
  879SOL     OW 3535   3.671   1.800   0.978
  879SOL    HW1 3536   3.768   1.789   1.000
  879SOL    HW2 3537   3.662   1.853   0.893
  880SOL     OW 3538   2.896   3.548   4.788
  880SOL    HW1 3539   2.815   3.607   4.793
  880SOL    HW2 3540   2.960   3.573   4.860
  881SOL     OW 3541   5.953   3.322   5.837
  881SOL    HW1 3542   6.038   3.373   5.849
  881SOL    HW2 3543   5.940   3.301   5.740
  882SOL     OW 3544   0.926   2.415   4.590
  882SOL    HW1 3545   0.925   2.336   4.651
  882SOL    HW2 3546   0.991   2.483   4.624
  883SOL     OW 3547   3.702   0.711   0.552
  883SOL    HW1 3548   3.757   0.778   0.602
  883SOL    HW2 3549   3.737   0.619   0.570
  884SOL     OW 3550   6.888   4.466   0.023
  884SOL    HW1 3551   6.878   4.537   6.981
  884SOL    HW2 3552   6.957   4.494   0.089
  885SOL     OW 3553   4.258   6.500   5.647
  885SOL    HW1 3554   4.214   6.555   5.577
  885SOL    HW2 3555   4.342   6.460   5.611
  886SOL     OW 3556   4.633   0.761   0.884
  886SOL    HW1 3557   4.628   0.666   0.914
  886SOL    HW2 3558   4.548   0.808   0.907
  887SOL     OW 3559   4.075   5.382   3.500
  887SOL    HW1 3560   4.012   5.322   3.550
  887SOL    HW2 3561   4.118   5.330   3.426
  888SOL     OW 3562   0.379   6.484   3.128
  888SOL    HW1 3563   0.434   6.530   3.059
  888SOL    HW2 3564   0.298   6.445   3.085
  889SOL     OW 3565   6.903   1.115   6.434
  889SOL    HW1 3566   6.982   1.086   6.487
  889SOL    HW2 3567   6.931   1.139   6.341
  890SOL     OW 3568   2.453   5.091   2.105
  890SOL    HW1 3569   2.436   5.021   2.175
  890SOL    HW2 3570   2.530   5.062   2.048
  891SOL     OW 3571   0.032   3.814   0.411
  891SOL    HW1 3572   0.019   3.722   0.446
  891SOL    HW2 3573   7.010   3.825   0.325
  892SOL     OW 3574   3.230   3.773   5.437
  892SOL    HW1 3575   3.206   3.702   5.370
  892SOL    HW2 3576   3.316   3.817   5.411
  893SOL     OW 3577   1.521   0.373   2.836
  893SOL    HW1 3578   1.620   0.382   2.824
  893SOL    HW2 3579   1.502   0.303   2.906
  894SOL     OW 3580   1.226   2.491   2.940
  894SOL    HW1 3581   1.293   2.485   3.014
  894SOL    HW2 3582   1.273   2.508   2.853
  895SOL     OW 3583   1.311   4.971   3.786
  895SOL    HW1 3584   1.322   4.872   3.799
  895SOL    HW2 3585   1.231   4.989   3.730
  896SOL     OW 3586   6.145   5.722   1.440
  896SOL    HW1 3587   6.206   5.790   1.480
  896SOL    HW2 3588   6.118   5.656   1.510
  897SOL     OW 3589   4.175   0.301   6.540
  897SOL    HW1 3590   4.233   0.308   6.458
  897SOL    HW2 3591   4.216   0.356   6.613
  898SOL     OW 3592   3.936   5.651   2.176
  898SOL    HW1 3593   3.879   5.656   2.093
  898SOL    HW2 3594   3.948   5.743   2.214
  899SOL     OW 3595   0.348   5.542   0.434
  899SOL    HW1 3596   0.414   5.571   0.365
  899SOL    HW2 3597   0.381   5.566   0.525
  900SOL     OW 3598   4.902   6.221   6.754
  900SOL    HW1 3599   4.873   6.198   6.661
  900SOL    HW2 3600   4.922   6.137   6.804
  901SOL     OW 3601   0.822   0.912   4.327
  901SOL    HW1 3602   0.845   0.843   4.259
  901SOL    HW2 3603   0.899   0.924   4.390
  902SOL     OW 3604   1.378   2.559   0.913
  902SOL    HW1 3605   1.308   2.489   0.928
  902SOL    HW2 3606   1.443   2.558   0.989
  903SOL     OW 3607   0.393   2.876   6.893
  903SOL    HW1 3608   0.418   2.808   6.961
  903SOL    HW2 3609   0.400   2.835   6.801
  904SOL     OW 3610   2.231   2.919   2.680
  904SOL    HW1 3611   2.303   2.956   2.621
  904SOL    HW2 3612   2.266   2.840   2.730
  905SOL     OW 3613   4.894   4.448   6.129
  905SOL    HW1 3614   4.960   4.377   6.107
  905SOL    HW2 3615   4.942   4.534   6.148
  906SOL     OW 3616   0.949   2.651   6.192
  906SOL    HW1 3617   0.953   2.748   6.168
  906SOL    HW2 3618   0.992   2.597   6.120
  907SOL     OW 3619   5.315   2.787   1.741
  907SOL    HW1 3620   5.366   2.841   1.808
  907SOL    HW2 3621   5.222   2.772   1.774
  908SOL     OW 3622   2.252   4.994   3.171
  908SOL    HW1 3623   2.251   5.056   3.093
  908SOL    HW2 3624   2.192   4.916   3.153
  909SOL     OW 3625   3.506   5.802   2.398
  909SOL    HW1 3626   3.599   5.824   2.425
  909SOL    HW2 3627   3.464   5.880   2.352
  910SOL     OW 3628   3.015   0.795   0.816
  910SOL    HW1 3629   2.971   0.873   0.860
  910SOL    HW2 3630   2.970   0.710   0.844
  911SOL     OW 3631   0.591   5.676   6.737
  911SOL    HW1 3632   0.608   5.774   6.726
  911SOL    HW2 3633   0.528   5.661   6.812
  912SOL     OW 3634   4.596   0.371   3.249
  912SOL    HW1 3635   4.651   0.415   3.178
  912SOL    HW2 3636   4.630   0.399   3.339
  913SOL     OW 3637   2.235   0.773   3.897
  913SOL    HW1 3638   2.299   0.704   3.864
  913SOL    HW2 3639   2.159   0.781   3.832
  914SOL     OW 3640   2.662   6.001   5.280
  914SOL    HW1 3641   2.683   6.059   5.201
  914SOL    HW2 3642   2.669   6.055   5.364
  915SOL     OW 3643   0.001   3.290   0.701
  915SOL    HW1 3644   6.980   3.365   0.656
  915SOL    HW2 3645   0.004   3.307   0.799
  916SOL     OW 3646   2.026   2.812   2.956
  916SOL    HW1 3647   1.950   2.862   2.914
  916SOL    HW2 3648   2.113   2.847   2.921
  917SOL     OW 3649   6.170   0.690   2.546
  917SOL    HW1 3650   6.222   0.701   2.462
  917SOL    HW2 3651   6.228   0.712   2.625
  918SOL     OW 3652   3.521   6.881   0.932
  918SOL    HW1 3653   3.452   6.953   0.941
  918SOL    HW2 3654   3.541   6.866   0.836
  919SOL     OW 3655   6.743   6.900   3.368
  919SOL    HW1 3656   6.721   6.804   3.388
  919SOL    HW2 3657   6.753   6.950   3.453
  920SOL     OW 3658   2.600   5.097   2.415
  920SOL    HW1 3659   2.522   5.037   2.396
  920SOL    HW2 3660   2.588   5.184   2.369
  921SOL     OW 3661   3.946   4.997   2.986
  921SOL    HW1 3662   4.024   4.937   3.004
  921SOL    HW2 3663   3.935   5.010   2.888
  922SOL     OW 3664   3.287   3.409   4.797
  922SOL    HW1 3665   3.341   3.326   4.791
  922SOL    HW2 3666   3.348   3.489   4.792
  923SOL     OW 3667   2.570   4.150   5.592
  923SOL    HW1 3668   2.570   4.107   5.502
  923SOL    HW2 3669   2.478   4.180   5.615
  924SOL     OW 3670   6.167   2.621   3.162
  924SOL    HW1 3671   6.197   2.579   3.248
  924SOL    HW2 3672   6.207   2.712   3.154
  925SOL     OW 3673   7.023   1.949   6.473
  925SOL    HW1 3674   7.026   1.918   6.567
  925SOL    HW2 3675   6.934   1.990   6.453
  926SOL     OW 3676   6.590   1.219   0.944
  926SOL    HW1 3677   6.646   1.208   0.862
  926SOL    HW2 3678   6.545   1.309   0.942
  927SOL     OW 3679   5.299   4.203   3.181
  927SOL    HW1 3680   5.246   4.121   3.200
  927SOL    HW2 3681   5.396   4.185   3.197
  928SOL     OW 3682   1.271   6.558   0.280
  928SOL    HW1 3683   1.356   6.584   0.234
  928SOL    HW2 3684   1.261   6.613   0.363
  929SOL     OW 3685   0.384   0.123   0.778
  929SOL    HW1 3686   0.459   0.178   0.741
  929SOL    HW2 3687   0.308   0.124   0.714
  930SOL     OW 3688   5.379   5.917   4.288
  930SOL    HW1 3689   5.379   5.858   4.208
  930SOL    HW2 3690   5.318   5.995   4.273
  931SOL     OW 3691   5.531   1.510   4.511
  931SOL    HW1 3692   5.578   1.567   4.579
  931SOL    HW2 3693   5.434   1.532   4.511
  932SOL     OW 3694   2.978   6.979   3.417
  932SOL    HW1 3695   3.048   7.010   3.482
  932SOL    HW2 3696   2.887   6.994   3.457
  933SOL     OW 3697   1.823   5.851   3.614
  933SOL    HW1 3698   1.905   5.909   3.616
  933SOL    HW2 3699   1.770   5.873   3.532
  934SOL     OW 3700   1.404   0.328   6.509
  934SOL    HW1 3701   1.353   0.258   6.560
  934SOL    HW2 3702   1.400   0.307   6.412
  935SOL     OW 3703   5.054   3.967   3.841
  935SOL    HW1 3704   5.135   4.020   3.866
  935SOL    HW2 3705   5.083   3.881   3.799
  936SOL     OW 3706   0.533   0.695   6.338
  936SOL    HW1 3707   0.552   0.792   6.323
  936SOL    HW2 3708   0.448   0.670   6.291
  937SOL     OW 3709   5.346   1.677   5.160
  937SOL    HW1 3710   5.273   1.662   5.228
  937SOL    HW2 3711   5.388   1.766   5.177
  938SOL     OW 3712   6.710   5.250   6.184
  938SOL    HW1 3713   6.660   5.219   6.104
  938SOL    HW2 3714   6.652   5.311   6.238
  939SOL     OW 3715   6.745   6.735   5.220
  939SOL    HW1 3716   6.783   6.646   5.197
  939SOL    HW2 3717   6.733   6.788   5.136
  940SOL     OW 3718   1.523   3.977   1.708
  940SOL    HW1 3719   1.493   3.967   1.803
  940SOL    HW2 3720   1.454   4.028   1.656
  941SOL     OW 3721   5.176   1.129   6.185
  941SOL    HW1 3722   5.262   1.083   6.167
  941SOL    HW2 3723   5.183   1.182   6.269
  942SOL     OW 3724   5.175   6.745   3.005
  942SOL    HW1 3725   5.216   6.770   3.092
  942SOL    HW2 3726   5.225   6.790   2.930
  943SOL     OW 3727   2.043   3.914   4.073
  943SOL    HW1 3728   1.949   3.949   4.069
  943SOL    HW2 3729   2.042   3.820   4.105
  944SOL     OW 3730   0.518   4.904   6.354
  944SOL    HW1 3731   0.565   4.970   6.296
  944SOL    HW2 3732   0.425   4.892   6.321
  945SOL     OW 3733   6.629   3.591   5.827
  945SOL    HW1 3734   6.594   3.654   5.758
  945SOL    HW2 3735   6.620   3.497   5.794
  946SOL     OW 3736   5.426   3.318   5.836
  946SOL    HW1 3737   5.351   3.373   5.800
  946SOL    HW2 3738   5.404   3.288   5.928
  947SOL     OW 3739   3.706   2.986   3.651
  947SOL    HW1 3740   3.680   2.897   3.690
  947SOL    HW2 3741   3.785   2.973   3.590
  948SOL     OW 3742   3.795   0.850   2.810
  948SOL    HW1 3743   3.790   0.783   2.885
  948SOL    HW2 3744   3.708   0.899   2.804
  949SOL     OW 3745   1.049   6.121   6.871
  949SOL    HW1 3746   1.136   6.156   6.905
  949SOL    HW2 3747   1.004   6.066   6.941
  950SOL     OW 3748   5.185   5.824   2.167
  950SOL    HW1 3749   5.266   5.804   2.222
  950SOL    HW2 3750   5.104   5.817   2.225
  951SOL     OW 3751   1.901   0.772   4.010
  951SOL    HW1 3752   1.896   0.683   4.055
  951SOL    HW2 3753   1.987   0.817   4.035
  952SOL     OW 3754   4.524   2.331   3.032
  952SOL    HW1 3755   4.482   2.320   3.122
  952SOL    HW2 3756   4.583   2.252   3.013
  953SOL     OW 3757   5.411   4.871   4.075
  953SOL    HW1 3758   5.452   4.884   3.984
  953SOL    HW2 3759   5.319   4.910   4.076
  954SOL     OW 3760   3.870   5.616   1.426
  954SOL    HW1 3761   3.788   5.674   1.430
  954SOL    HW2 3762   3.842   5.520   1.421
  955SOL     OW 3763   0.509   3.538   2.214
  955SOL    HW1 3764   0.558   3.553   2.300
  955SOL    HW2 3765   0.482   3.441   2.209
  956SOL     OW 3766   6.521   0.422   2.586
  956SOL    HW1 3767   6.594   0.354   2.576
  956SOL    HW2 3768   6.516   0.451   2.682
  957SOL     OW 3769   6.033   3.270   4.355
  957SOL    HW1 3770   5.987   3.228   4.277
  957SOL    HW2 3771   6.132   3.257   4.346
  958SOL     OW 3772   4.073   2.071   1.597
  958SOL    HW1 3773   4.160   2.116   1.617
  958SOL    HW2 3774   4.033   2.037   1.683
  959SOL     OW 3775   4.311   6.253   3.000
  959SOL    HW1 3776   4.382   6.184   3.009
  959SOL    HW2 3777   4.293   6.271   2.904
  960SOL     OW 3778   0.463   6.532   2.508
  960SOL    HW1 3779   0.514   6.601   2.559
  960SOL    HW2 3780   0.507   6.443   2.522
  961SOL     OW 3781   4.112   6.563   3.346
  961SOL    HW1 3782   4.159   6.549   3.433
  961SOL    HW2 3783   4.104   6.476   3.298
  962SOL     OW 3784   0.587   1.689   5.458
  962SOL    HW1 3785   0.611   1.781   5.426
  962SOL    HW2 3786   0.524   1.647   5.394
  963SOL     OW 3787   5.722   1.353   6.389
  963SOL    HW1 3788   5.685   1.439   6.354
  963SOL    HW2 3789   5.783   1.373   6.467
  964SOL     OW 3790   5.682   4.676   0.024
  964SOL    HW1 3791   5.740   4.713   6.979
  964SOL    HW2 3792   5.736   4.666   0.108
  965SOL     OW 3793   5.581   2.197   1.619
  965SOL    HW1 3794   5.642   2.201   1.539
  965SOL    HW2 3795   5.546   2.289   1.639
  966SOL     OW 3796   5.894   2.008   2.856
  966SOL    HW1 3797   5.914   1.911   2.863
  966SOL    HW2 3798   5.904   2.051   2.946
  967SOL     OW 3799   2.667   4.749   0.889
  967SOL    HW1 3800   2.579   4.713   0.919
  967SOL    HW2 3801   2.740   4.686   0.917
  968SOL     OW 3802   3.423   0.255   2.135
  968SOL    HW1 3803   3.431   0.329   2.201
  968SOL    HW2 3804   3.512   0.212   2.122
  969SOL     OW 3805   2.458   5.663   5.790
  969SOL    HW1 3806   2.391   5.609   5.740
  969SOL    HW2 3807   2.478   5.747   5.739
  970SOL     OW 3808   5.408   0.979   6.112
  970SOL    HW1 3809   5.475   0.917   6.154
  970SOL    HW2 3810   5.343   0.926   6.057
  971SOL     OW 3811   0.243   2.607   3.057
  971SOL    HW1 3812   0.263   2.509   3.047
  971SOL    HW2 3813   0.298   2.659   2.992
  972SOL     OW 3814   5.571   2.738   1.583
  972SOL    HW1 3815   5.644   2.670   1.586
  972SOL    HW2 3816   5.483   2.693   1.573
  973SOL     OW 3817   0.240   5.193   6.820
  973SOL    HW1 3818   0.165   5.254   6.845
  973SOL    HW2 3819   0.302   5.241   6.758
  974SOL     OW 3820   5.213   6.064   2.407
  974SOL    HW1 3821   5.242   6.142   2.463
  974SOL    HW2 3822   5.293   6.022   2.365
  975SOL     OW 3823   1.921   0.296   6.416
  975SOL    HW1 3824   1.889   0.231   6.347
  975SOL    HW2 3825   1.899   0.261   6.508
  976SOL     OW 3826   7.003   3.554   2.383
  976SOL    HW1 3827   0.051   3.567   2.320
  976SOL    HW2 3828   6.996   3.634   2.444
  977SOL     OW 3829   0.763   6.734   1.784
  977SOL    HW1 3830   0.810   6.680   1.853
  977SOL    HW2 3831   0.738   6.823   1.822
  978SOL     OW 3832   5.147   3.113   5.773
  978SOL    HW1 3833   5.223   3.172   5.745
  978SOL    HW2 3834   5.172   3.017   5.760
  979SOL     OW 3835   0.529   2.097   0.319
  979SOL    HW1 3836   0.571   2.086   0.409
  979SOL    HW2 3837   0.472   2.018   0.298
  980SOL     OW 3838   4.336   2.352   3.708
  980SOL    HW1 3839   4.382   2.420   3.766
  980SOL    HW2 3840   4.318   2.392   3.618
  981SOL     OW 3841   0.523   2.043   4.651
  981SOL    HW1 3842   0.442   1.999   4.612
  981SOL    HW2 3843   0.602   1.982   4.643
  982SOL     OW 3844   1.984   1.842   4.800
  982SOL    HW1 3845   2.062   1.882   4.753
  982SOL    HW2 3846   1.931   1.914   4.844
  983SOL     OW 3847   6.030   3.136   3.898
  983SOL    HW1 3848   6.048   3.054   3.844
  983SOL    HW2 3849   5.989   3.206   3.840
  984SOL     OW 3850   2.491   1.905   4.863
  984SOL    HW1 3851   2.537   1.844   4.928
  984SOL    HW2 3852   2.556   1.974   4.830
  985SOL     OW 3853   6.313   3.049   5.173
  985SOL    HW1 3854   6.366   3.022   5.253
  985SOL    HW2 3855   6.374   3.056   5.093
  986SOL     OW 3856   5.315   4.742   1.300
  986SOL    HW1 3857   5.413   4.756   1.296
  986SOL    HW2 3858   5.289   4.669   1.235
  987SOL     OW 3859   4.543   0.046   2.544
  987SOL    HW1 3860   4.625   0.102   2.554
  987SOL    HW2 3861   4.559   6.984   2.584
  988SOL     OW 3862   3.326   3.605   1.747
  988SOL    HW1 3863   3.368   3.682   1.795
  988SOL    HW2 3864   3.393   3.532   1.735
  989SOL     OW 3865   6.470   1.375   6.352
  989SOL    HW1 3866   6.495   1.377   6.449
  989SOL    HW2 3867   6.518   1.300   6.307
  990SOL     OW 3868   4.412   0.978   2.337
  990SOL    HW1 3869   4.496   0.978   2.283
  990SOL    HW2 3870   4.335   1.004   2.279
  991SOL     OW 3871   0.928   3.806   4.919
  991SOL    HW1 3872   0.931   3.895   4.965
  991SOL    HW2 3873   0.844   3.758   4.944
  992SOL     OW 3874   0.295   3.508   1.142
  992SOL    HW1 3875   0.335   3.431   1.192
  992SOL    HW2 3876   0.325   3.506   1.047
  993SOL     OW 3877   0.255   5.102   0.643
  993SOL    HW1 3878   0.219   5.153   0.565
  993SOL    HW2 3879   0.251   5.004   0.624
  994SOL     OW 3880   4.195   5.117   1.297
  994SOL    HW1 3881   4.119   5.179   1.277
  994SOL    HW2 3882   4.275   5.145   1.245
  995SOL     OW 3883   3.454   2.882   5.575
  995SOL    HW1 3884   3.539   2.936   5.577
  995SOL    HW2 3885   3.475   2.787   5.552
  996SOL     OW 3886   3.628   4.898   4.633
  996SOL    HW1 3887   3.657   4.909   4.538
  996SOL    HW2 3888   3.529   4.894   4.637
  997SOL     OW 3889   1.074   0.293   3.793
  997SOL    HW1 3890   1.141   0.306   3.721
  997SOL    HW2 3891   1.023   0.209   3.777
  998SOL     OW 3892   5.107   0.492   5.130
  998SOL    HW1 3893   5.140   0.417   5.074
  998SOL    HW2 3894   5.165   0.572   5.117
  999SOL     OW 3895   5.176   4.363   2.730
  999SOL    HW1 3896   5.145   4.452   2.695
  999SOL    HW2 3897   5.259   4.335   2.682
 1000SOL     OW 3898   3.011   1.430   1.604
 1000SOL    HW1 3899   3.016   1.525   1.636
 1000SOL    HW2 3900   3.080   1.415   1.534
 1001SOL     OW 3901   5.068   5.823   1.121
 1001SOL    HW1 3902   5.091   5.876   1.202
 1001SOL    HW2 3903   5.019   5.881   1.056
 1002SOL     OW 3904   5.991   2.291   1.573
 1002SOL    HW1 3905   6.073   2.246   1.609
 1002SOL    HW2 3906   5.952   2.236   1.500
 1003SOL     OW 3907   1.772   6.414   2.501
 1003SOL    HW1 3908   1.677   6.442   2.512
 1003SOL    HW2 3909   1.781   6.317   2.525
 1004SOL     OW 3910   0.216   0.449   1.656
 1004SOL    HW1 3911   0.253   0.435   1.564
 1004SOL    HW2 3912   0.269   0.396   1.722
 1005SOL     OW 3913   2.283   2.948   4.198
 1005SOL    HW1 3914   2.244   3.003   4.125
 1005SOL    HW2 3915   2.325   2.866   4.159
 1006SOL     OW 3916   1.319   4.491   0.993
 1006SOL    HW1 3917   1.316   4.591   0.994
 1006SOL    HW2 3918   1.387   4.460   0.927
 1007SOL     OW 3919   4.248   0.404   4.912
 1007SOL    HW1 3920   4.297   0.440   4.833
 1007SOL    HW2 3921   4.214   0.480   4.968
 1008SOL     OW 3922   0.801   3.122   5.979
 1008SOL    HW1 3923   0.784   3.142   5.883
 1008SOL    HW2 3924   0.840   3.202   6.024
 1009SOL     OW 3925   0.476   4.819   5.398
 1009SOL    HW1 3926   0.502   4.740   5.453
 1009SOL    HW2 3927   0.554   4.850   5.343
 1010SOL     OW 3928   3.466   1.828   7.011
 1010SOL    HW1 3929   3.545   1.880   6.978
 1010SOL    HW2 3930   3.498   1.749   0.036
 1011SOL     OW 3931   1.741   5.193   2.563
 1011SOL    HW1 3932   1.685   5.110   2.567
 1011SOL    HW2 3933   1.732   5.235   2.473
 1012SOL     OW 3934   0.015   6.859   2.300
 1012SOL    HW1 3935   6.984   6.831   2.375
 1012SOL    HW2 3936   7.015   6.949   2.267
 1013SOL     OW 3937   1.297   1.511   6.054
 1013SOL    HW1 3938   1.318   1.564   5.972
 1013SOL    HW2 3939   1.375   1.515   6.117
 1014SOL     OW 3940   6.616   4.469   6.053
 1014SOL    HW1 3941   6.677   4.428   6.121
 1014SOL    HW2 3942   6.523   4.475   6.091
 1015SOL     OW 3943   2.699   6.621   5.932
 1015SOL    HW1 3944   2.643   6.670   5.865
 1015SOL    HW2 3945   2.738   6.540   5.889
 1016SOL     OW 3946   4.223   3.676   6.870
 1016SOL    HW1 3947   4.259   3.737   6.940
 1016SOL    HW2 3948   4.200   3.728   6.788
 1017SOL     OW 3949   4.238   2.833   1.344
 1017SOL    HW1 3950   4.159   2.826   1.404
 1017SOL    HW2 3951   4.229   2.768   1.269
 1018SOL     OW 3952   0.738   4.597   4.286
 1018SOL    HW1 3953   0.751   4.504   4.321
 1018SOL    HW2 3954   0.789   4.661   4.343
 1019SOL     OW 3955   7.010   6.609   0.950
 1019SOL    HW1 3956   0.057   6.666   0.914
 1019SOL    HW2 3957   7.007   6.523   0.899
 1020SOL     OW 3958   6.400   1.427   1.136
 1020SOL    HW1 3959   6.323   1.371   1.166
 1020SOL    HW2 3960   6.407   1.509   1.193
 1021SOL     OW 3961   5.458   0.104   1.518
 1021SOL    HW1 3962   5.481   0.082   1.613
 1021SOL    HW2 3963   5.417   0.195   1.515
 1022SOL     OW 3964   3.098   4.489   5.356
 1022SOL    HW1 3965   3.178   4.545   5.334
 1022SOL    HW2 3966   3.023   4.512   5.293
 1023SOL     OW 3967   0.187   0.499   2.868
 1023SOL    HW1 3968   0.235   0.453   2.793
 1023SOL    HW2 3969   0.243   0.575   2.901
 1024SOL     OW 3970   0.433   2.969   3.995
 1024SOL    HW1 3971   0.417   2.900   4.066
 1024SOL    HW2 3972   0.353   3.030   3.990
 1025SOL     OW 3973   3.667   3.750   1.697
 1025SOL    HW1 3974   3.630   3.661   1.725
 1025SOL    HW2 3975   3.720   3.789   1.771
 1026SOL     OW 3976   2.571   2.588   1.169
 1026SOL    HW1 3977   2.531   2.497   1.173
 1026SOL    HW2 3978   2.605   2.614   1.260
 1027SOL     OW 3979   3.238   6.291   1.996
 1027SOL    HW1 3980   3.203   6.198   1.983
 1027SOL    HW2 3981   3.163   6.356   1.989
 1028SOL     OW 3982   2.454   6.696   1.539
 1028SOL    HW1 3983   2.527   6.634   1.510
 1028SOL    HW2 3984   2.478   6.790   1.516
 1029SOL     OW 3985   1.596   0.220   6.165
 1029SOL    HW1 3986   1.506   0.230   6.207
 1029SOL    HW2 3987   1.591   0.246   6.069
 1030SOL     OW 3988   3.382   2.878   1.884
 1030SOL    HW1 3989   3.343   2.802   1.832
 1030SOL    HW2 3990   3.478   2.857   1.906
 1031SOL     OW 3991   4.572   4.188   1.187
 1031SOL    HW1 3992   4.559   4.286   1.172
 1031SOL    HW2 3993   4.669   4.169   1.202
 1032SOL     OW 3994   2.379   1.941   5.935
 1032SOL    HW1 3995   2.455   1.875   5.943
 1032SOL    HW2 3996   2.305   1.914   5.996
 1033SOL     OW 3997   1.350   6.467   1.905
 1033SOL    HW1 3998   1.314   6.439   1.994
 1033SOL    HW2 3999   1.299   6.421   1.832
 1034SOL     OW 4000   0.159   5.192   4.472
 1034SOL    HW1 4001   0.208   5.161   4.390
 1034SOL    HW2 4002   0.216   5.255   4.523
 1035SOL     OW 4003   0.417   1.630   5.256
 1035SOL    HW1 4004   0.415   1.536   5.222
 1035SOL    HW2 4005   0.436   1.693   5.180
 1036SOL     OW 4006   4.037   0.113   1.620
 1036SOL    HW1 4007   4.089   0.089   1.702
 1036SOL    HW2 4008   3.950   0.153   1.647
 1037SOL     OW 4009   1.452   1.262   1.712
 1037SOL    HW1 4010   1.432   1.204   1.791
 1037SOL    HW2 4011   1.539   1.235   1.672
 1038SOL     OW 4012   1.795   0.906   5.212
 1038SOL    HW1 4013   1.796   0.965   5.293
 1038SOL    HW2 4014   1.886   0.905   5.170
 1039SOL     OW 4015   3.682   3.794   4.243
 1039SOL    HW1 4016   3.653   3.847   4.163
 1039SOL    HW2 4017   3.776   3.817   4.266
 1040SOL     OW 4018   5.324   1.211   2.590
 1040SOL    HW1 4019   5.417   1.194   2.555
 1040SOL    HW2 4020   5.295   1.134   2.646
 1041SOL     OW 4021   0.407   6.636   3.790
 1041SOL    HW1 4022   0.380   6.651   3.885
 1041SOL    HW2 4023   0.421   6.725   3.745
 1042SOL     OW 4024   4.390   5.148   2.237
 1042SOL    HW1 4025   4.377   5.236   2.191
 1042SOL    HW2 4026   4.483   5.115   2.220
 1043SOL     OW 4027   3.048   2.215   4.434
 1043SOL    HW1 4028   3.122   2.224   4.367
 1043SOL    HW2 4029   3.084   2.174   4.518
 1044SOL     OW 4030   5.694   5.257   2.581
 1044SOL    HW1 4031   5.647   5.295   2.661
 1044SOL    HW2 4032   5.666   5.161   2.568
 1045SOL     OW 4033   3.979   0.230   2.985
 1045SOL    HW1 4034   3.962   0.272   2.896
 1045SOL    HW2 4035   3.908   0.163   3.005
 1046SOL     OW 4036   1.848   0.533   0.719
 1046SOL    HW1 4037   1.827   0.435   0.729
 1046SOL    HW2 4038   1.868   0.553   0.624
 1047SOL     OW 4039   1.869   0.209   4.049
 1047SOL    HW1 4040   1.814   0.155   4.112
 1047SOL    HW2 4041   1.923   0.148   3.991
 1048SOL     OW 4042   4.426   6.424   3.173
 1048SOL    HW1 4043   4.372   6.346   3.142
 1048SOL    HW2 4044   4.470   6.468   3.094
 1049SOL     OW 4045   6.708   6.719   4.014
 1049SOL    HW1 4046   6.687   6.655   4.087
 1049SOL    HW2 4047   6.743   6.668   3.934
 1050SOL     OW 4048   3.817   4.958   1.268
 1050SOL    HW1 4049   3.779   4.876   1.308
 1050SOL    HW2 4050   3.753   4.997   1.201
 1051SOL     OW 4051   0.916   5.793   0.458
 1051SOL    HW1 4052   0.876   5.714   0.504
 1051SOL    HW2 4053   0.968   5.761   0.378
 1052SOL     OW 4054   4.047   0.596   5.043
 1052SOL    HW1 4055   3.966   0.581   4.986
 1052SOL    HW2 4056   4.029   0.670   5.107
 1053SOL     OW 4057   6.163   4.631   2.881
 1053SOL    HW1 4058   6.253   4.663   2.851
 1053SOL    HW2 4059   6.092   4.680   2.830
 1054SOL     OW 4060   3.591   3.529   0.427
 1054SOL    HW1 4061   3.491   3.540   0.428
 1054SOL    HW2 4062   3.621   3.512   0.333
 1055SOL     OW 4063   3.723   6.151   5.013
 1055SOL    HW1 4064   3.702   6.064   5.056
 1055SOL    HW2 4065   3.639   6.192   4.977
 1056SOL     OW 4066   2.486   4.178   6.931
 1056SOL    HW1 4067   2.387   4.174   6.946
 1056SOL    HW2 4068   2.517   4.091   6.894
 1057SOL     OW 4069   3.078   3.490   1.293
 1057SOL    HW1 4070   3.118   3.415   1.346
 1057SOL    HW2 4071   3.111   3.577   1.328
 1058SOL     OW 4072   4.799   2.252   3.334
 1058SOL    HW1 4073   4.743   2.179   3.296
 1058SOL    HW2 4074   4.744   2.336   3.341
 1059SOL     OW 4075   2.815   0.552   1.825
 1059SOL    HW1 4076   2.805   0.610   1.906
 1059SOL    HW2 4077   2.909   0.559   1.791
 1060SOL     OW 4078   0.253   4.828   4.169
 1060SOL    HW1 4079   0.330   4.892   4.173
 1060SOL    HW2 4080   0.249   4.786   4.079
 1061SOL     OW 4081   6.809   3.100   0.767
 1061SOL    HW1 4082   6.835   3.132   0.858
 1061SOL    HW2 4083   6.886   3.108   0.705
 1062SOL     OW 4084   5.453   4.888   6.064
 1062SOL    HW1 4085   5.357   4.914   6.068
 1062SOL    HW2 4086   5.468   4.825   5.988
 1063SOL     OW 4087   1.318   5.387   1.146
 1063SOL    HW1 4088   1.265   5.465   1.179
 1063SOL    HW2 4089   1.259   5.327   1.092
 1064SOL     OW 4090   1.702   4.478   2.689
 1064SOL    HW1 4091   1.665   4.404   2.745
 1064SOL    HW2 4092   1.637   4.500   2.617
 1065SOL     OW 4093   4.139   0.893   3.888
 1065SOL    HW1 4094   4.048   0.933   3.889
 1065SOL    HW2 4095   4.168   0.878   3.793
 1066SOL     OW 4096   4.982   6.788   2.509
 1066SOL    HW1 4097   5.016   6.784   2.415
 1066SOL    HW2 4098   4.886   6.818   2.509
 1067SOL     OW 4099   0.911   3.083   1.006
 1067SOL    HW1 4100   0.911   3.168   1.058
 1067SOL    HW2 4101   0.980   3.021   1.044
 1068SOL     OW 4102   6.532   5.038   2.828
 1068SOL    HW1 4103   6.583   5.123   2.839
 1068SOL    HW2 4104   6.436   5.058   2.809
 1069SOL     OW 4105   4.667   5.190   1.037
 1069SOL    HW1 4106   4.732   5.266   1.036
 1069SOL    HW2 4107   4.630   5.177   0.946
 1070SOL     OW 4108   0.026   0.632   1.748
 1070SOL    HW1 4109   0.107   0.579   1.724
 1070SOL    HW2 4110   6.986   0.572   1.791
 1071SOL     OW 4111   1.278   0.962   4.322
 1071SOL    HW1 4112   1.368   1.006   4.327
 1071SOL    HW2 4113   1.256   0.941   4.227
 1072SOL     OW 4114   1.746   1.008   0.680
 1072SOL    HW1 4115   1.716   1.067   0.755
 1072SOL    HW2 4116   1.821   1.053   0.631
 1073SOL     OW 4117   4.391   0.389   2.797
 1073SOL    HW1 4118   4.357   0.445   2.721
 1073SOL    HW2 4119   4.398   0.293   2.767
 1074SOL     OW 4120   2.319   5.122   1.580
 1074SOL    HW1 4121   2.395   5.181   1.607
 1074SOL    HW2 4122   2.275   5.085   1.661
 1075SOL     OW 4123   5.290   0.719   3.304
 1075SOL    HW1 4124   5.255   0.811   3.320
 1075SOL    HW2 4125   5.354   0.694   3.377
 1076SOL     OW 4126   0.277   2.238   5.424
 1076SOL    HW1 4127   0.191   2.265   5.381
 1076SOL    HW2 4128   0.353   2.288   5.381
 1077SOL     OW 4129   5.724   0.139   1.113
 1077SOL    HW1 4130   5.816   0.104   1.097
 1077SOL    HW2 4131   5.657   0.081   1.066
 1078SOL     OW 4132   0.565   0.468   2.319
 1078SOL    HW1 4133   0.552   0.422   2.231
 1078SOL    HW2 4134   0.587   0.565   2.303
 1079SOL     OW 4135   1.641   0.002   2.209
 1079SOL    HW1 4136   1.547   0.003   2.177
 1079SOL    HW2 4137   1.699   0.055   2.147
 1080SOL     OW 4138   1.786   5.519   3.353
 1080SOL    HW1 4139   1.802   5.559   3.262
 1080SOL    HW2 4140   1.801   5.420   3.348
 1081SOL     OW 4141   0.053   5.014   6.121
 1081SOL    HW1 4142   0.027   5.107   6.145
 1081SOL    HW2 4143   7.001   4.965   6.085
 1082SOL     OW 4144   5.209   1.972   4.486
 1082SOL    HW1 4145   5.244   1.888   4.446
 1082SOL    HW2 4146   5.255   1.991   4.572
 1083SOL     OW 4147   4.707   4.127   0.549
 1083SOL    HW1 4148   4.692   4.221   0.519
 1083SOL    HW2 4149   4.619   4.086   0.577
 1084SOL     OW 4150   6.192   6.303   6.767
 1084SOL    HW1 4151   6.136   6.235   6.814
 1084SOL    HW2 4152   6.137   6.347   6.695
 1085SOL     OW 4153   2.117   3.545   4.665
 1085SOL    HW1 4154   2.060   3.531   4.584
 1085SOL    HW2 4155   2.116   3.641   4.691
 1086SOL     OW 4156   0.822   5.234   0.651
 1086SOL    HW1 4157   0.741   5.276   0.612
 1086SOL    HW2 4158   0.902   5.258   0.595
 1087SOL     OW 4159   5.896   2.062   5.176
 1087SOL    HW1 4160   5.875   2.027   5.267
 1087SOL    HW2 4161   5.994   2.072   5.165
 1088SOL     OW 4162   0.626   3.960   2.771
 1088SOL    HW1 4163   0.682   4.022   2.715
 1088SOL    HW2 4164   0.628   3.990   2.866
 1089SOL     OW 4165   0.843   5.911   4.795
 1089SOL    HW1 4166   0.865   5.839   4.729
 1089SOL    HW2 4167   0.784   5.875   4.867
 1090SOL     OW 4168   2.695   2.398   3.125
 1090SOL    HW1 4169   2.747   2.324   3.083
 1090SOL    HW2 4170   2.659   2.458   3.054
 1091SOL     OW 4171   2.704   2.060   4.781
 1091SOL    HW1 4172   2.756   2.107   4.851
 1091SOL    HW2 4173   2.767   2.019   4.714
 1092SOL     OW 4174   1.037   4.521   0.996
 1092SOL    HW1 4175   1.130   4.491   1.016
 1092SOL    HW2 4176   0.972   4.448   1.019
 1093SOL     OW 4177   1.812   1.318   1.837
 1093SOL    HW1 4178   1.773   1.238   1.793
 1093SOL    HW2 4179   1.912   1.316   1.829
 1094SOL     OW 4180   0.475   0.039   2.313
 1094SOL    HW1 4181   0.398   7.014   2.349
 1094SOL    HW2 4182   0.512   0.097   2.385
 1095SOL     OW 4183   1.049   2.916   6.393
 1095SOL    HW1 4184   1.099   2.927   6.307
 1095SOL    HW2 4185   0.951   2.911   6.373
 1096SOL     OW 4186   3.527   4.411   1.660
 1096SOL    HW1 4187   3.526   4.493   1.718
 1096SOL    HW2 4188   3.450   4.352   1.685
 1097SOL     OW 4189   2.474   4.445   4.297
 1097SOL    HW1 4190   2.413   4.488   4.230
 1097SOL    HW2 4191   2.421   4.385   4.356
 1098SOL     OW 4192   4.690   3.847   6.422
 1098SOL    HW1 4193   4.705   3.938   6.383
 1098SOL    HW2 4194   4.598   3.816   6.399
 1099SOL     OW 4195   3.263   0.808   5.844
 1099SOL    HW1 4196   3.238   0.905   5.848
 1099SOL    HW2 4197   3.361   0.799   5.863
 1100SOL     OW 4198   4.230   1.905   4.194
 1100SOL    HW1 4199   4.272   1.865   4.276
 1100SOL    HW2 4200   4.153   1.848   4.165
 1101SOL     OW 4201   5.540   3.074   6.123
 1101SOL    HW1 4202   5.629   3.089   6.080
 1101SOL    HW2 4203   5.546   2.994   6.183
 1102SOL     OW 4204   0.551   7.018   4.542
 1102SOL    HW1 4205   0.574   6.985   4.450
 1102SOL    HW2 4206   0.603   6.967   4.609
 1103SOL     OW 4207   4.217   1.783   0.054
 1103SOL    HW1 4208   4.204   1.684   0.059
 1103SOL    HW2 4209   4.187   1.825   0.139
 1104SOL     OW 4210   2.296   3.447   5.784
 1104SOL    HW1 4211   2.246   3.533   5.793
 1104SOL    HW2 4212   2.332   3.419   5.873
 1105SOL     OW 4213   6.166   4.059   4.766
 1105SOL    HW1 4214   6.244   4.116   4.742
 1105SOL    HW2 4215   6.117   4.100   4.843
 1106SOL     OW 4216   0.393   2.233   1.461
 1106SOL    HW1 4217   0.403   2.325   1.500
 1106SOL    HW2 4218   0.472   2.177   1.486
 1107SOL     OW 4219   0.764   0.398   6.985
 1107SOL    HW1 4220   0.792   0.433   0.047
 1107SOL    HW2 4221   0.828   0.430   6.916
 1108SOL     OW 4222   3.208   7.011   5.015
 1108SOL    HW1 4223   3.203   6.972   5.107
 1108SOL    HW2 4224   3.278   6.964   4.962
 1109SOL     OW 4225   4.905   0.967   4.082
 1109SOL    HW1 4226   4.838   0.929   4.018
 1109SOL    HW2 4227   4.934   1.057   4.051
 1110SOL     OW 4228   3.582   2.033   3.373
 1110SOL    HW1 4229   3.538   1.945   3.357
 1110SOL    HW2 4230   3.580   2.087   3.288
 1111SOL     OW 4231   4.850   5.181   6.359
 1111SOL    HW1 4232   4.845   5.147   6.453
 1111SOL    HW2 4233   4.782   5.252   6.345
 1112SOL     OW 4234   5.548   1.040   2.541
 1112SOL    HW1 4235   5.470   1.020   2.600
 1112SOL    HW2 4236   5.574   0.957   2.491
 1113SOL     OW 4237   5.994   4.575   1.733
 1113SOL    HW1 4238   5.907   4.545   1.694
 1113SOL    HW2 4239   6.043   4.496   1.770
 1114SOL     OW 4240   3.131   1.715   6.144
 1114SOL    HW1 4241   3.141   1.767   6.059
 1114SOL    HW2 4242   3.109   1.778   6.219
 1115SOL     OW 4243   3.899   3.187   5.875
 1115SOL    HW1 4244   3.876   3.208   5.970
 1115SOL    HW2 4245   3.975   3.245   5.845
 1116SOL     OW 4246   5.034   6.856   5.968
 1116SOL    HW1 4247   5.084   6.781   5.925
 1116SOL    HW2 4248   5.001   6.826   6.058
 1117SOL     OW 4249   2.303   2.492   2.197
 1117SOL    HW1 4250   2.207   2.491   2.224
 1117SOL    HW2 4251   2.356   2.548   2.260
 1118SOL     OW 4252   2.796   4.638   0.138
 1118SOL    HW1 4253   2.837   4.728   0.130
 1118SOL    HW2 4254   2.867   4.570   0.159
 1119SOL     OW 4255   4.233   4.750   1.730
 1119SOL    HW1 4256   4.291   4.813   1.679
 1119SOL    HW2 4257   4.284   4.666   1.749
 1120SOL     OW 4258   6.077   6.230   0.102
 1120SOL    HW1 4259   5.998   6.220   0.162
 1120SOL    HW2 4260   6.101   6.142   0.062
 1121SOL     OW 4261   6.141   4.363   4.329
 1121SOL    HW1 4262   6.217   4.343   4.390
 1121SOL    HW2 4263   6.067   4.297   4.345
 1122SOL     OW 4264   5.372   2.425   0.902
 1122SOL    HW1 4265   5.349   2.373   0.820
 1122SOL    HW2 4266   5.307   2.500   0.914
 1123SOL     OW 4267   5.272   1.907   3.176
 1123SOL    HW1 4268   5.232   1.843   3.242
 1123SOL    HW2 4269   5.349   1.955   3.219
 1124SOL     OW 4270   6.779   3.750   5.156
 1124SOL    HW1 4271   6.855   3.707   5.108
 1124SOL    HW2 4272   6.711   3.682   5.180
 1125SOL     OW 4273   2.632   2.514   3.719
 1125SOL    HW1 4274   2.536   2.487   3.709
 1125SOL    HW2 4275   2.651   2.535   3.815
 1126SOL     OW 4276   5.296   4.934   0.354
 1126SOL    HW1 4277   5.225   5.002   0.371
 1126SOL    HW2 4278   5.298   4.913   0.256
 1127SOL     OW 4279   5.268   5.380   4.448
 1127SOL    HW1 4280   5.337   5.396   4.518
 1127SOL    HW2 4281   5.241   5.467   4.406
 1128SOL     OW 4282   5.837   1.392   5.414
 1128SOL    HW1 4283   5.767   1.438   5.360
 1128SOL    HW2 4284   5.795   1.350   5.495
 1129SOL     OW 4285   1.495   0.021   0.737
 1129SOL    HW1 4286   1.427   0.093   0.722
 1129SOL    HW2 4287   1.482   6.976   0.670
 1130SOL     OW 4288   2.950   4.977   0.447
 1130SOL    HW1 4289   2.998   4.893   0.424
 1130SOL    HW2 4290   2.885   4.999   0.374
 1131SOL     OW 4291   1.137   5.777   5.728
 1131SOL    HW1 4292   1.154   5.687   5.768
 1131SOL    HW2 4293   1.101   5.766   5.635
 1132SOL     OW 4294   5.215   6.945   2.407
 1132SOL    HW1 4295   5.139   7.010   2.412
 1132SOL    HW2 4296   5.193   6.875   2.339
 1133SOL     OW 4297   0.658   1.136   0.432
 1133SOL    HW1 4298   0.629   1.047   0.396
 1133SOL    HW2 4299   0.589   1.170   0.497
 1134SOL     OW 4300   5.200   0.278   2.568
 1134SOL    HW1 4301   5.257   0.212   2.618
 1134SOL    HW2 4302   5.136   0.228   2.510
 1135SOL     OW 4303   2.298   0.076   3.243
 1135SOL    HW1 4304   2.312   7.007   3.221
 1135SOL    HW2 4305   2.274   0.127   3.160
 1136SOL     OW 4306   4.423   4.661   3.476
 1136SOL    HW1 4307   4.366   4.705   3.407
 1136SOL    HW2 4308   4.474   4.586   3.434
 1137SOL     OW 4309   1.260   6.998   0.195
 1137SOL    HW1 4310   1.356   6.971   0.199
 1137SOL    HW2 4311   1.202   6.918   0.213
 1138SOL     OW 4312   0.147   0.844   6.139
 1138SOL    HW1 4313   0.065   0.848   6.195
 1138SOL    HW2 4314   0.221   0.894   6.183
 1139SOL     OW 4315   3.067   4.978   2.435
 1139SOL    HW1 4316   3.084   4.925   2.351
 1139SOL    HW2 4317   3.154   5.014   2.469
 1140SOL     OW 4318   2.846   1.103   2.192
 1140SOL    HW1 4319   2.862   1.120   2.290
 1140SOL    HW2 4320   2.841   1.190   2.144
 1141SOL     OW 4321   0.632   6.501   6.885
 1141SOL    HW1 4322   0.686   6.441   6.944
 1141SOL    HW2 4323   0.672   6.502   6.793
 1142SOL     OW 4324   3.053   6.794   4.506
 1142SOL    HW1 4325   2.964   6.836   4.487
 1142SOL    HW2 4326   3.061   6.776   4.604
 1143SOL     OW 4327   2.233   2.947   3.347
 1143SOL    HW1 4328   2.286   2.894   3.413
 1143SOL    HW2 4329   2.295   2.995   3.284
 1144SOL     OW 4330   5.932   4.604   4.262
 1144SOL    HW1 4331   5.839   4.567   4.258
 1144SOL    HW2 4332   5.992   4.537   4.306
 1145SOL     OW 4333   6.591   3.689   1.861
 1145SOL    HW1 4334   6.536   3.648   1.933
 1145SOL    HW2 4335   6.578   3.788   1.860
 1146SOL     OW 4336   6.765   0.789   2.963
 1146SOL    HW1 4337   6.770   0.883   2.998
 1146SOL    HW2 4338   6.851   0.766   2.918
 1147SOL     OW 4339   2.579   5.858   1.614
 1147SOL    HW1 4340   2.649   5.820   1.553
 1147SOL    HW2 4341   2.491   5.818   1.593
 1148SOL     OW 4342   4.352   6.014   0.294
 1148SOL    HW1 4343   4.359   5.947   0.220
 1148SOL    HW2 4344   4.288   5.981   0.363
 1149SOL     OW 4345   5.768   3.534   2.774
 1149SOL    HW1 4346   5.841   3.486   2.822
 1149SOL    HW2 4347   5.743   3.483   2.692
 1150SOL     OW 4348   1.069   3.658   0.313
 1150SOL    HW1 4349   1.154   3.615   0.342
 1150SOL    HW2 4350   1.012   3.677   0.394
 1151SOL     OW 4351   5.140   4.228   6.480
 1151SOL    HW1 4352   5.223   4.241   6.426
 1151SOL    HW2 4353   5.060   4.245   6.422
 1152SOL     OW 4354   5.269   5.219   6.863
 1152SOL    HW1 4355   5.244   5.316   6.855
 1152SOL    HW2 4356   5.368   5.210   6.850
 1153SOL     OW 4357   0.502   0.512   1.613
 1153SOL    HW1 4358   0.599   0.517   1.590
 1153SOL    HW2 4359   0.485   0.433   1.672
 1154SOL     OW 4360   6.579   4.208   1.654
 1154SOL    HW1 4361   6.501   4.229   1.712
 1154SOL    HW2 4362   6.563   4.246   1.563
 1155SOL     OW 4363   2.184   4.736   5.765
 1155SOL    HW1 4364   2.252   4.695   5.703
 1155SOL    HW2 4365   2.106   4.674   5.775
 1156SOL     OW 4366   4.715   1.804   4.942
 1156SOL    HW1 4367   4.724   1.795   4.843
 1156SOL    HW2 4368   4.636   1.751   4.973
 1157SOL     OW 4369   4.823   2.085   5.964
 1157SOL    HW1 4370   4.878   2.043   6.037
 1157SOL    HW2 4371   4.822   2.185   5.978
 1158SOL     OW 4372   0.139   4.731   5.686
 1158SOL    HW1 4373   0.183   4.658   5.635
 1158SOL    HW2 4374   0.051   4.753   5.644
 1159SOL     OW 4375   6.714   0.002   3.602
 1159SOL    HW1 4376   6.662   7.008   3.685
 1159SOL    HW2 4377   6.737   0.099   3.601
 1160SOL     OW 4378   5.266   4.489   1.152
 1160SOL    HW1 4379   5.229   4.400   1.179
 1160SOL    HW2 4380   5.365   4.481   1.142
 1161SOL     OW 4381   6.146   6.167   5.892
 1161SOL    HW1 4382   6.158   6.080   5.940
 1161SOL    HW2 4383   6.212   6.173   5.817
 1162SOL     OW 4384   3.454   2.873   6.780
 1162SOL    HW1 4385   3.372   2.928   6.766
 1162SOL    HW2 4386   3.505   2.907   6.859
 1163SOL     OW 4387   6.766   3.869   1.559
 1163SOL    HW1 4388   6.849   3.875   1.502
 1163SOL    HW2 4389   6.775   3.931   1.637
 1164SOL     OW 4390   6.153   2.969   4.185
 1164SOL    HW1 4391   6.102   3.055   4.194
 1164SOL    HW2 4392   6.113   2.915   4.111
 1165SOL     OW 4393   3.730   4.971   3.721
 1165SOL    HW1 4394   3.735   5.013   3.630
 1165SOL    HW2 4395   3.634   4.958   3.746
 1166SOL     OW 4396   3.713   6.968   6.861
 1166SOL    HW1 4397   3.708   6.868   6.862
 1166SOL    HW2 4398   3.696   7.002   6.769
 1167SOL     OW 4399   4.564   6.428   0.063
 1167SOL    HW1 4400   4.483   6.409   0.118
 1167SOL    HW2 4401   4.621   6.495   0.110
 1168SOL     OW 4402   5.744   2.474   2.837
 1168SOL    HW1 4403   5.719   2.391   2.888
 1168SOL    HW2 4404   5.685   2.484   2.757
 1169SOL     OW 4405   4.547   2.603   5.877
 1169SOL    HW1 4406   4.538   2.620   5.975
 1169SOL    HW2 4407   4.641   2.623   5.848
 1170SOL     OW 4408   5.092   6.909   2.732
 1170SOL    HW1 4409   5.027   6.916   2.808
 1170SOL    HW2 4410   5.051   6.858   2.657
 1171SOL     OW 4411   1.973   6.611   0.264
 1171SOL    HW1 4412   1.993   6.647   0.173
 1171SOL    HW2 4413   2.032   6.655   0.331
 1172SOL     OW 4414   3.503   4.139   1.552
 1172SOL    HW1 4415   3.568   4.070   1.584
 1172SOL    HW2 4416   3.427   4.146   1.618
 1173SOL     OW 4417   3.017   0.791   0.332
 1173SOL    HW1 4418   3.052   0.752   0.247
 1173SOL    HW2 4419   2.981   0.883   0.314
 1174SOL     OW 4420   2.827   5.065   1.491
 1174SOL    HW1 4421   2.815   4.980   1.439
 1174SOL    HW2 4422   2.852   5.139   1.428
 1175SOL     OW 4423   4.450   4.647   6.724
 1175SOL    HW1 4424   4.469   4.745   6.718
 1175SOL    HW2 4425   4.352   4.631   6.716
 1176SOL     OW 4426   6.121   3.919   6.651
 1176SOL    HW1 4427   6.063   3.858   6.705
 1176SOL    HW2 4428   6.200   3.868   6.616
 1177SOL     OW 4429   0.226   3.504   5.005
 1177SOL    HW1 4430   0.301   3.500   5.071
 1177SOL    HW2 4431   0.231   3.426   4.944
 1178SOL     OW 4432   3.940   4.172   0.824
 1178SOL    HW1 4433   3.918   4.258   0.870
 1178SOL    HW2 4434   4.007   4.190   0.752
 1179SOL     OW 4435   2.321   6.202   1.284
 1179SOL    HW1 4436   2.333   6.109   1.248
 1179SOL    HW2 4437   2.246   6.247   1.236
 1180SOL     OW 4438   2.727   5.960   4.565
 1180SOL    HW1 4439   2.638   5.963   4.611
 1180SOL    HW2 4440   2.727   5.887   4.497
 1181SOL     OW 4441   0.253   4.059   6.223
 1181SOL    HW1 4442   0.287   3.969   6.250
 1181SOL    HW2 4443   0.232   4.112   6.305
 1182SOL     OW 4444   4.161   5.195   3.331
 1182SOL    HW1 4445   4.209   5.147   3.258
 1182SOL    HW2 4446   4.130   5.130   3.400
 1183SOL     OW 4447   3.087   4.995   1.571
 1183SOL    HW1 4448   3.089   4.977   1.669
 1183SOL    HW2 4449   2.996   5.028   1.545
 1184SOL     OW 4450   0.213   1.497   5.391
 1184SOL    HW1 4451   0.268   1.415   5.370
 1184SOL    HW2 4452   0.257   1.577   5.351
 1185SOL     OW 4453   1.401   0.772   0.355
 1185SOL    HW1 4454   1.334   0.746   0.425
 1185SOL    HW2 4455   1.408   0.700   0.286
 1186SOL     OW 4456   4.944   6.365   5.317
 1186SOL    HW1 4457   4.894   6.303   5.258
 1186SOL    HW2 4458   4.910   6.357   5.411
 1187SOL     OW 4459   5.250   0.349   4.929
 1187SOL    HW1 4460   5.227   0.257   4.961
 1187SOL    HW2 4461   5.179   0.381   4.866
 1188SOL     OW 4462   2.495   5.292   6.177
 1188SOL    HW1 4463   2.582   5.331   6.209
 1188SOL    HW2 4464   2.511   5.201   6.139
 1189SOL     OW 4465   6.484   2.183   1.716
 1189SOL    HW1 4466   6.477   2.227   1.806
 1189SOL    HW2 4467   6.580   2.177   1.689
 1190SOL     OW 4468   3.031   5.737   2.835
 1190SOL    HW1 4469   2.949   5.717   2.889
 1190SOL    HW2 4470   3.009   5.804   2.764
 1191SOL     OW 4471   4.546   5.995   4.313
 1191SOL    HW1 4472   4.501   6.062   4.254
 1191SOL    HW2 4473   4.630   6.034   4.351
 1192SOL     OW 4474   5.411   5.006   3.313
 1192SOL    HW1 4475   5.407   5.077   3.383
 1192SOL    HW2 4476   5.479   4.937   3.338
 1193SOL     OW 4477   6.634   2.208   5.605
 1193SOL    HW1 4478   6.684   2.122   5.594
 1193SOL    HW2 4479   6.693   2.285   5.583
 1194SOL     OW 4480   6.274   1.065   1.597
 1194SOL    HW1 4481   6.370   1.041   1.583
 1194SOL    HW2 4482   6.258   1.157   1.563
 1195SOL     OW 4483   0.231   3.621   0.204
 1195SOL    HW1 4484   0.146   3.591   0.161
 1195SOL    HW2 4485   0.259   3.553   0.272
 1196SOL     OW 4486   6.882   5.001   3.580
 1196SOL    HW1 4487   6.881   4.903   3.561
 1196SOL    HW2 4488   6.824   5.020   3.659
 1197SOL     OW 4489   4.650   6.396   4.423
 1197SOL    HW1 4490   4.561   6.411   4.468
 1197SOL    HW2 4491   4.649   6.440   4.333
 1198SOL     OW 4492   1.879   3.412   2.139
 1198SOL    HW1 4493   1.783   3.403   2.113
 1198SOL    HW2 4494   1.921   3.485   2.085
 1199SOL     OW 4495   3.415   3.883   2.568
 1199SOL    HW1 4496   3.358   3.834   2.501
 1199SOL    HW2 4497   3.442   3.820   2.640
 1200SOL     OW 4498   3.198   4.131   4.820
 1200SOL    HW1 4499   3.149   4.057   4.867
 1200SOL    HW2 4500   3.202   4.112   4.722
 1201SOL     OW 4501   0.606   1.347   4.106
 1201SOL    HW1 4502   0.665   1.339   4.186
 1201SOL    HW2 4503   0.516   1.382   4.135
 1202SOL     OW 4504   0.147   5.771   5.550
 1202SOL    HW1 4505   0.099   5.695   5.594
 1202SOL    HW2 4506   0.083   5.846   5.534
 1203SOL     OW 4507   0.645   5.351   0.882
 1203SOL    HW1 4508   0.556   5.387   0.857
 1203SOL    HW2 4509   0.661   5.264   0.836
 1204SOL     OW 4510   4.582   1.758   1.236
 1204SOL    HW1 4511   4.553   1.673   1.194
 1204SOL    HW2 4512   4.582   1.748   1.336
 1205SOL     OW 4513   4.019   3.769   0.637
 1205SOL    HW1 4514   3.980   3.801   0.550
 1205SOL    HW2 4515   4.050   3.847   0.690
 1206SOL     OW 4516   2.627   2.674   5.546
 1206SOL    HW1 4517   2.543   2.650   5.595
 1206SOL    HW2 4518   2.605   2.703   5.453
 1207SOL     OW 4519   0.923   0.345   1.023
 1207SOL    HW1 4520   1.019   0.329   1.045
 1207SOL    HW2 4521   0.911   0.440   0.994
 1208SOL     OW 4522   3.184   3.662   1.508
 1208SOL    HW1 4523   3.227   3.728   1.446
 1208SOL    HW2 4524   3.225   3.670   1.598
 1209SOL     OW 4525   4.727   0.616   3.916
 1209SOL    HW1 4526   4.731   0.555   3.838
 1209SOL    HW2 4527   4.696   0.566   3.997
 1210SOL     OW 4528   3.850   6.797   3.361
 1210SOL    HW1 4529   3.935   6.814   3.311
 1210SOL    HW2 4530   3.840   6.865   3.433
 1211SOL     OW 4531   1.540   2.713   3.170
 1211SOL    HW1 4532   1.600   2.663   3.232
 1211SOL    HW2 4533   1.561   2.811   3.174
 1212SOL     OW 4534   6.535   0.305   5.992
 1212SOL    HW1 4535   6.493   0.378   5.938
 1212SOL    HW2 4536   6.565   0.342   6.080
 1213SOL     OW 4537   6.051   2.519   1.285
 1213SOL    HW1 4538   6.101   2.496   1.202
 1213SOL    HW2 4539   6.015   2.436   1.326
 1214SOL     OW 4540   1.013   3.151   0.223
 1214SOL    HW1 4541   0.974   3.175   0.134
 1214SOL    HW2 4542   1.103   3.194   0.234
 1215SOL     OW 4543   0.834   4.822   3.402
 1215SOL    HW1 4544   0.851   4.896   3.336
 1215SOL    HW2 4545   0.919   4.772   3.418
 1216SOL     OW 4546   5.497   0.854   0.533
 1216SOL    HW1 4547   5.505   0.768   0.482
 1216SOL    HW2 4548   5.450   0.837   0.619
 1217SOL     OW 4549   3.029   4.310   1.014
 1217SOL    HW1 4550   3.120   4.281   0.985
 1217SOL    HW2 4551   2.986   4.237   1.067
 1218SOL     OW 4552   1.515   2.967   4.835
 1218SOL    HW1 4553   1.508   3.057   4.879
 1218SOL    HW2 4554   1.601   2.924   4.861
 1219SOL     OW 4555   6.003   6.163   1.559
 1219SOL    HW1 4556   5.981   6.197   1.651
 1219SOL    HW2 4557   6.094   6.195   1.533
 1220SOL     OW 4558   0.788   4.756   2.450
 1220SOL    HW1 4559   0.827   4.788   2.363
 1220SOL    HW2 4560   0.835   4.672   2.478
 1221SOL     OW 4561   4.197   3.726   6.293
 1221SOL    HW1 4562   4.252   3.682   6.222
 1221SOL    HW2 4563   4.123   3.665   6.321
 1222SOL     OW 4564   6.566   1.077   6.809
 1222SOL    HW1 4565   6.489   1.026   6.769
 1222SOL    HW2 4566   6.652   1.036   6.778
 1223SOL     OW 4567   4.230   1.455   0.827
 1223SOL    HW1 4568   4.291   1.533   0.821
 1223SOL    HW2 4569   4.172   1.451   0.745
 1224SOL     OW 4570   3.296   5.883   0.338
 1224SOL    HW1 4571   3.219   5.902   0.399
 1224SOL    HW2 4572   3.379   5.872   0.392
 1225SOL     OW 4573   3.443   3.343   6.624
 1225SOL    HW1 4574   3.364   3.303   6.669
 1225SOL    HW2 4575   3.415   3.381   6.535
 1226SOL     OW 4576   2.861   6.942   1.529
 1226SOL    HW1 4577   2.935   6.940   1.596
 1226SOL    HW2 4578   2.895   6.977   1.442
 1227SOL     OW 4579   5.194   4.760   5.810
 1227SOL    HW1 4580   5.172   4.771   5.713
 1227SOL    HW2 4581   5.190   4.850   5.855
 1228SOL     OW 4582   2.680   2.472   6.165
 1228SOL    HW1 4583   2.740   2.504   6.092
 1228SOL    HW2 4584   2.587   2.505   6.149
 1229SOL     OW 4585   3.013   5.831   6.069
 1229SOL    HW1 4586   3.041   5.808   6.163
 1229SOL    HW2 4587   2.972   5.922   6.068
 1230SOL     OW 4588   5.335   6.694   2.125
 1230SOL    HW1 4589   5.316   6.604   2.087
 1230SOL    HW2 4590   5.404   6.686   2.197
 1231SOL     OW 4591   1.658   2.052   5.266
 1231SOL    HW1 4592   1.630   2.129   5.209
 1231SOL    HW2 4593   1.733   2.003   5.220
 1232SOL     OW 4594   0.077   2.054   5.682
 1232SOL    HW1 4595   0.053   2.009   5.596
 1232SOL    HW2 4596   0.174   2.039   5.702
 1233SOL     OW 4597   0.651   4.972   5.038
 1233SOL    HW1 4598   0.649   4.903   5.111
 1233SOL    HW2 4599   0.695   4.932   4.957
 1234SOL     OW 4600   6.683   2.675   5.799
 1234SOL    HW1 4601   6.613   2.633   5.741
 1234SOL    HW2 4602   6.646   2.757   5.841
 1235SOL     OW 4603   6.259   5.557   3.019
 1235SOL    HW1 4604   6.275   5.655   3.034
 1235SOL    HW2 4605   6.191   5.546   2.946
 1236SOL     OW 4606   4.586   1.116   0.318
 1236SOL    HW1 4607   4.569   1.199   0.370
 1236SOL    HW2 4608   4.519   1.108   0.244
 1237SOL     OW 4609   2.182   4.739   6.077
 1237SOL    HW1 4610   2.082   4.733   6.066
 1237SOL    HW2 4611   2.226   4.728   5.988
 1238SOL     OW 4612   0.950   0.916   0.286
 1238SOL    HW1 4613   0.968   1.001   0.236
 1238SOL    HW2 4614   0.981   0.926   0.381
 1239SOL     OW 4615   6.748   6.730   6.592
 1239SOL    HW1 4616   6.840   6.695   6.575
 1239SOL    HW2 4617   6.705   6.677   6.666
 1240SOL     OW 4618   5.521   6.272   1.064
 1240SOL    HW1 4619   5.472   6.261   0.978
 1240SOL    HW2 4620   5.507   6.191   1.121
 1241SOL     OW 4621   5.351   3.614   4.326
 1241SOL    HW1 4622   5.442   3.577   4.339
 1241SOL    HW2 4623   5.304   3.562   4.254
 1242SOL     OW 4624   0.689   3.469   1.353
 1242SOL    HW1 4625   0.648   3.429   1.435
 1242SOL    HW2 4626   0.761   3.533   1.380
 1243SOL     OW 4627   0.332   0.078   5.093
 1243SOL    HW1 4628   0.326   7.008   5.117
 1243SOL    HW2 4629   0.423   0.112   5.119
 1244SOL     OW 4630   5.768   6.924   4.771
 1244SOL    HW1 4631   5.701   6.901   4.841
 1244SOL    HW2 4632   5.859   6.929   4.813
 1245SOL     OW 4633   5.762   4.340   0.763
 1245SOL    HW1 4634   5.723   4.276   0.697
 1245SOL    HW2 4635   5.770   4.430   0.721
 1246SOL     OW 4636   2.919   0.215   1.114
 1246SOL    HW1 4637   2.882   0.307   1.130
 1246SOL    HW2 4638   2.896   0.185   1.022
 1247SOL     OW 4639   0.499   6.989   6.302
 1247SOL    HW1 4640   0.594   6.958   6.306
 1247SOL    HW2 4641   0.479   7.023   6.210
 1248SOL     OW 4642   1.899   0.344   5.280
 1248SOL    HW1 4643   1.840   0.332   5.199
 1248SOL    HW2 4644   1.940   0.256   5.304
 1249SOL     OW 4645   6.199   2.136   2.350
 1249SOL    HW1 4646   6.293   2.119   2.379
 1249SOL    HW2 4647   6.171   2.064   2.286
 1250SOL     OW 4648   5.982   5.369   3.859
 1250SOL    HW1 4649   6.006   5.301   3.929
 1250SOL    HW2 4650   6.018   5.458   3.886
 1251SOL     OW 4651   2.580   0.401   3.543
 1251SOL    HW1 4652   2.579   0.321   3.484
 1251SOL    HW2 4653   2.670   0.444   3.540
 1252SOL     OW 4654   4.811   3.239   6.174
 1252SOL    HW1 4655   4.806   3.184   6.257
 1252SOL    HW2 4656   4.748   3.203   6.105
 1253SOL     OW 4657   2.708   5.914   2.127
 1253SOL    HW1 4658   2.772   5.849   2.168
 1253SOL    HW2 4659   2.731   5.928   2.031
 1254SOL     OW 4660   1.025   2.872   2.527
 1254SOL    HW1 4661   1.077   2.804   2.578
 1254SOL    HW2 4662   1.086   2.921   2.464
 1255SOL     OW 4663   5.624   1.395   5.833
 1255SOL    HW1 4664   5.723   1.390   5.824
 1255SOL    HW2 4665   5.587   1.304   5.848
 1256SOL     OW 4666   0.029   6.769   3.446
 1256SOL    HW1 4667   0.033   6.855   3.394
 1256SOL    HW2 4668   7.010   6.785   3.533
 1257SOL     OW 4669   6.670   6.211   5.562
 1257SOL    HW1 4670   6.711   6.155   5.635
 1257SOL    HW2 4671   6.575   6.183   5.549
 1258SOL     OW 4672   2.019   5.052   2.746
 1258SOL    HW1 4673   1.934   5.013   2.782
 1258SOL    HW2 4674   2.003   5.082   2.652
 1259SOL     OW 4675   3.739   0.825   3.802
 1259SOL    HW1 4676   3.655   0.870   3.771
 1259SOL    HW2 4677   3.745   0.734   3.762
 1260SOL     OW 4678   2.331   1.674   0.054
 1260SOL    HW1 4679   2.384   1.675   0.138
 1260SOL    HW2 4680   2.366   1.743   7.018
 1261SOL     OW 4681   0.051   6.005   0.020
 1261SOL    HW1 4682   0.065   5.978   6.952
 1261SOL    HW2 4683   0.056   6.105   0.028
 1262SOL     OW 4684   6.088   4.538   1.431
 1262SOL    HW1 4685   6.015   4.507   1.370
 1262SOL    HW2 4686   6.103   4.469   1.502
 1263SOL     OW 4687   0.142   2.458   1.763
 1263SOL    HW1 4688   0.228   2.471   1.714
 1263SOL    HW2 4689   0.081   2.536   1.746
 1264SOL     OW 4690   6.934   4.492   0.955
 1264SOL    HW1 4691   6.941   4.485   0.856
 1264SOL    HW2 4692   7.026   4.502   0.994
 1265SOL     OW 4693   5.544   5.391   4.554
 1265SOL    HW1 4694   5.558   5.295   4.530
 1265SOL    HW2 4695   5.562   5.405   4.651
 1266SOL     OW 4696   0.689   1.782   4.067
 1266SOL    HW1 4697   0.782   1.812   4.046
 1266SOL    HW2 4698   0.654   1.726   3.991
 1267SOL     OW 4699   4.822   6.989   1.262
 1267SOL    HW1 4700   4.839   0.024   1.338
 1267SOL    HW2 4701   4.724   6.989   1.240
 1268SOL     OW 4702   2.583   2.332   0.696
 1268SOL    HW1 4703   2.538   2.420   0.709
 1268SOL    HW2 4704   2.668   2.346   0.645
 1269SOL     OW 4705   5.654   4.192   5.165
 1269SOL    HW1 4706   5.626   4.109   5.213
 1269SOL    HW2 4707   5.670   4.265   5.230
 1270SOL     OW 4708   1.391   2.829   3.887
 1270SOL    HW1 4709   1.382   2.734   3.857
 1270SOL    HW2 4710   1.443   2.832   3.972
 1271SOL     OW 4711   2.734   2.097   3.266
 1271SOL    HW1 4712   2.738   2.052   3.177
 1271SOL    HW2 4713   2.822   2.141   3.285
 1272SOL     OW 4714   6.130   4.330   6.808
 1272SOL    HW1 4715   6.030   4.340   6.814
 1272SOL    HW2 4716   6.174   4.402   6.862
 1273SOL     OW 4717   0.490   2.733   0.079
 1273SOL    HW1 4718   0.425   2.692   0.143
 1273SOL    HW2 4719   0.579   2.687   0.088
 1274SOL     OW 4720   6.710   4.249   1.890
 1274SOL    HW1 4721   6.680   4.236   1.795
 1274SOL    HW2 4722   6.764   4.332   1.896
 1275SOL     OW 4723   3.677   1.498   4.343
 1275SOL    HW1 4724   3.724   1.569   4.291
 1275SOL    HW2 4725   3.695   1.509   4.441
 1276SOL     OW 4726   6.578   5.138   5.587
 1276SOL    HW1 4727   6.668   5.097   5.572
 1276SOL    HW2 4728   6.585   5.238   5.578
 1277SOL     OW 4729   1.480   5.431   5.824
 1277SOL    HW1 4730   1.466   5.371   5.746
 1277SOL    HW2 4731   1.552   5.498   5.802
 1278SOL     OW 4732   1.098   6.605   5.111
 1278SOL    HW1 4733   1.021   6.588   5.172
 1278SOL    HW2 4734   1.094   6.542   5.033
 1279SOL     OW 4735   2.190   4.976   0.378
 1279SOL    HW1 4736   2.259   5.045   0.359
 1279SOL    HW2 4737   2.231   4.885   0.374
 1280SOL     OW 4738   4.419   6.151   4.122
 1280SOL    HW1 4739   4.387   6.231   4.072
 1280SOL    HW2 4740   4.468   6.090   4.060
 1281SOL     OW 4741   2.156   6.632   3.153
 1281SOL    HW1 4742   2.056   6.622   3.161
 1281SOL    HW2 4743   2.184   6.604   3.061
 1282SOL     OW 4744   6.555   2.407   0.152
 1282SOL    HW1 4745   6.562   2.492   0.100
 1282SOL    HW2 4746   6.600   2.333   0.101
 1283SOL     OW 4747   6.656   3.505   5.270
 1283SOL    HW1 4748   6.563   3.483   5.243
 1283SOL    HW2 4749   6.721   3.452   5.215
 1284SOL     OW 4750   4.855   2.108   1.336
 1284SOL    HW1 4751   4.771   2.060   1.363
 1284SOL    HW2 4752   4.933   2.047   1.348
 1285SOL     OW 4753   4.180   1.916   6.050
 1285SOL    HW1 4754   4.093   1.942   6.093
 1285SOL    HW2 4755   4.186   1.958   5.960
 1286SOL     OW 4756   4.294   3.907   1.568
 1286SOL    HW1 4757   4.283   3.849   1.649
 1286SOL    HW2 4758   4.386   3.945   1.567
 1287SOL     OW 4759   5.902   4.847   5.031
 1287SOL    HW1 4760   5.822   4.894   5.069
 1287SOL    HW2 4761   5.981   4.861   5.091
 1288SOL     OW 4762   4.097   3.233   6.967
 1288SOL    HW1 4763   4.119   3.314   7.022
 1288SOL    HW2 4764   3.998   3.229   6.952
 1289SOL     OW 4765   6.673   6.819   1.246
 1289SOL    HW1 4766   6.574   6.833   1.243
 1289SOL    HW2 4767   6.712   6.839   1.156
 1290SOL     OW 4768   0.926   6.782   6.875
 1290SOL    HW1 4769   0.974   6.695   6.882
 1290SOL    HW2 4770   0.830   6.770   6.899
 1291SOL     OW 4771   0.773   4.343   4.344
 1291SOL    HW1 4772   0.730   4.264   4.388
 1291SOL    HW2 4773   0.856   4.313   4.295
 1292SOL     OW 4774   0.381   6.201   2.319
 1292SOL    HW1 4775   0.440   6.235   2.392
 1292SOL    HW2 4776   0.427   6.126   2.272
 1293SOL     OW 4777   1.481   1.972   0.432
 1293SOL    HW1 4778   1.572   1.995   0.398
 1293SOL    HW2 4779   1.481   1.880   0.469
 1294SOL     OW 4780   0.589   3.050   6.544
 1294SOL    HW1 4781   0.564   3.105   6.623
 1294SOL    HW2 4782   0.543   3.086   6.462
 1295SOL     OW 4783   0.395   3.825   1.505
 1295SOL    HW1 4784   0.470   3.878   1.546
 1295SOL    HW2 4785   0.430   3.771   1.429
 1296SOL     OW 4786   3.784   6.414   5.230
 1296SOL    HW1 4787   3.864   6.403   5.290
 1296SOL    HW2 4788   3.779   6.337   5.167
 1297SOL     OW 4789   6.735   0.256   1.778
 1297SOL    HW1 4790   6.680   0.174   1.758
 1297SOL    HW2 4791   6.802   0.270   1.706
 1298SOL     OW 4792   5.565   5.403   3.562
 1298SOL    HW1 4793   5.619   5.413   3.479
 1298SOL    HW2 4794   5.505   5.482   3.572
 1299SOL     OW 4795   2.226   3.045   3.684
 1299SOL    HW1 4796   2.131   3.040   3.654
 1299SOL    HW2 4797   2.278   2.971   3.642
 1300SOL     OW 4798   1.502   3.197   0.676
 1300SOL    HW1 4799   1.515   3.176   0.579
 1300SOL    HW2 4800   1.578   3.160   0.729
 1301SOL     OW 4801   0.344   6.514   0.984
 1301SOL    HW1 4802   0.444   6.502   0.981
 1301SOL    HW2 4803   0.300   6.433   0.946
 1302SOL     OW 4804   4.541   0.324   5.841
 1302SOL    HW1 4805   4.607   0.263   5.799
 1302SOL    HW2 4806   4.467   0.342   5.776
 1303SOL     OW 4807   3.677   2.096   1.709
 1303SOL    HW1 4808   3.696   2.176   1.766
 1303SOL    HW2 4809   3.640   2.023   1.766
 1304SOL     OW 4810   1.779   0.732   0.027
 1304SOL    HW1 4811   1.753   0.640   7.025
 1304SOL    HW2 4812   1.746   0.747   0.121
 1305SOL     OW 4813   5.286   3.407   0.824
 1305SOL    HW1 4814   5.321   3.476   0.887
 1305SOL    HW2 4815   5.360   3.376   0.764
 1306SOL     OW 4816   0.973   5.346   3.906
 1306SOL    HW1 4817   0.976   5.409   3.984
 1306SOL    HW2 4818   0.915   5.267   3.930
 1307SOL     OW 4819   1.789   4.060   4.067
 1307SOL    HW1 4820   1.714   4.126   4.081
 1307SOL    HW2 4821   1.761   3.992   3.999
 1308SOL     OW 4822   6.677   0.214   5.152
 1308SOL    HW1 4823   6.693   0.137   5.213
 1308SOL    HW2 4824   6.741   0.288   5.173
 1309SOL     OW 4825   6.075   4.866   5.237
 1309SOL    HW1 4826   6.044   4.894   5.328
 1309SOL    HW2 4827   6.127   4.781   5.244
 1310SOL     OW 4828   6.732   3.881   4.354
 1310SOL    HW1 4829   6.687   3.797   4.322
 1310SOL    HW2 4830   6.779   3.863   4.440
 1311SOL     OW 4831   0.407   5.795   5.801
 1311SOL    HW1 4832   0.453   5.850   5.871
 1311SOL    HW2 4833   0.466   5.787   5.721
 1312SOL     OW 4834   0.771   6.620   6.613
 1312SOL    HW1 4835   0.793   6.529   6.578
 1312SOL    HW2 4836   0.853   6.677   6.612
 1313SOL     OW 4837   0.292   4.826   3.001
 1313SOL    HW1 4838   0.236   4.799   2.922
 1313SOL    HW2 4839   0.359   4.754   3.020
 1314SOL     OW 4840   4.241   1.335   5.197
 1314SOL    HW1 4841   4.205   1.242   5.193
 1314SOL    HW2 4842   4.202   1.382   5.276
 1315SOL     OW 4843   0.163   1.614   2.755
 1315SOL    HW1 4844   0.111   1.529   2.750
 1315SOL    HW2 4845   0.195   1.628   2.849
 1316SOL     OW 4846   2.881   6.525   6.152
 1316SOL    HW1 4847   2.826   6.516   6.069
 1316SOL    HW2 4848   2.927   6.614   6.153
 1317SOL     OW 4849   2.315   4.418   5.971
 1317SOL    HW1 4850   2.346   4.394   6.063
 1317SOL    HW2 4851   2.217   4.403   5.964
 1318SOL     OW 4852   0.975   2.319   1.026
 1318SOL    HW1 4853   1.018   2.371   0.953
 1318SOL    HW2 4854   1.037   2.311   1.103
 1319SOL     OW 4855   6.650   6.290   0.332
 1319SOL    HW1 4856   6.700   6.227   0.392
 1319SOL    HW2 4857   6.707   6.369   0.312
 1320SOL     OW 4858   3.778   4.522   6.835
 1320SOL    HW1 4859   3.808   4.431   6.808
 1320SOL    HW2 4860   3.733   4.567   6.758
 1321SOL     OW 4861   6.004   2.087   6.367
 1321SOL    HW1 4862   6.091   2.038   6.361
 1321SOL    HW2 4863   6.019   2.184   6.351
 1322SOL     OW 4864   3.646   1.524   3.623
 1322SOL    HW1 4865   3.566   1.551   3.676
 1322SOL    HW2 4866   3.702   1.605   3.603
 1323SOL     OW 4867   4.050   0.285   6.005
 1323SOL    HW1 4868   3.994   0.234   6.071
 1323SOL    HW2 4869   4.054   0.234   5.919
 1324SOL     OW 4870   1.028   3.954   6.957
 1324SOL    HW1 4871   1.009   3.925   6.863
 1324SOL    HW2 4872   1.093   4.030   6.957
 1325SOL     OW 4873   2.564   6.609   4.106
 1325SOL    HW1 4874   2.635   6.540   4.091
 1325SOL    HW2 4875   2.485   6.589   4.048
 1326SOL     OW 4876   4.779   3.367   5.338
 1326SOL    HW1 4877   4.745   3.273   5.329
 1326SOL    HW2 4878   4.703   3.431   5.330
 1327SOL     OW 4879   1.143   6.197   1.105
 1327SOL    HW1 4880   1.091   6.272   1.147
 1327SOL    HW2 4881   1.160   6.126   1.173
 1328SOL     OW 4882   2.310   3.387   1.219
 1328SOL    HW1 4883   2.272   3.404   1.310
 1328SOL    HW2 4884   2.272   3.303   1.182
 1329SOL     OW 4885   0.645   2.215   2.236
 1329SOL    HW1 4886   0.550   2.228   2.207
 1329SOL    HW2 4887   0.688   2.304   2.252
 1330SOL     OW 4888   0.841   1.341   2.002
 1330SOL    HW1 4889   0.781   1.394   2.062
 1330SOL    HW2 4890   0.801   1.251   1.986
 1331SOL     OW 4891   4.957   3.458   2.683
 1331SOL    HW1 4892   4.916   3.546   2.709
 1331SOL    HW2 4893   4.895   3.409   2.623
 1332SOL     OW 4894   2.797   6.893   6.884
 1332SOL    HW1 4895   2.843   6.827   6.825
 1332SOL    HW2 4896   2.698   6.880   6.877
 1333SOL     OW 4897   3.686   3.402   3.747
 1333SOL    HW1 4898   3.685   3.313   3.792
 1333SOL    HW2 4899   3.721   3.471   3.810
 1334SOL     OW 4900   6.039   1.835   4.203
 1334SOL    HW1 4901   6.100   1.762   4.233
 1334SOL    HW2 4902   6.039   1.839   4.103
 1335SOL     OW 4903   2.406   2.038   2.106
 1335SOL    HW1 4904   2.444   2.104   2.041
 1335SOL    HW2 4905   2.380   1.955   2.057
 1336SOL     OW 4906   2.331   2.431   5.325
 1336SOL    HW1 4907   2.308   2.458   5.419
 1336SOL    HW2 4908   2.283   2.491   5.260
 1337SOL     OW 4909   1.781   1.482   3.609
 1337SOL    HW1 4910   1.760   1.409   3.675
 1337SOL    HW2 4911   1.753   1.453   3.518
 1338SOL     OW 4912   5.807   2.544   5.021
 1338SOL    HW1 4913   5.843   2.620   5.075
 1338SOL    HW2 4914   5.791   2.465   5.080
 1339SOL     OW 4915   6.430   2.079   6.748
 1339SOL    HW1 4916   6.412   2.104   6.653
 1339SOL    HW2 4917   6.395   2.151   6.809
 1340SOL     OW 4918   6.152   2.014   3.081
 1340SOL    HW1 4919   6.061   2.053   3.100
 1340SOL    HW2 4920   6.222   2.079   3.111
 1341SOL     OW 4921   5.426   6.808   6.711
 1341SOL    HW1 4922   5.522   6.783   6.711
 1341SOL    HW2 4923   5.370   6.730   6.739
 1342SOL     OW 4924   3.026   6.117   5.886
 1342SOL    HW1 4925   3.029   6.188   5.956
 1342SOL    HW2 4926   2.954   6.051   5.907
 1343SOL     OW 4927   5.806   5.744   2.213
 1343SOL    HW1 4928   5.875   5.692   2.263
 1343SOL    HW2 4929   5.779   5.692   2.132
 1344SOL     OW 4930   0.426   6.020   4.468
 1344SOL    HW1 4931   0.433   5.954   4.542
 1344SOL    HW2 4932   0.471   6.105   4.494
 1345SOL     OW 4933   1.077   6.617   3.273
 1345SOL    HW1 4934   0.978   6.621   3.285
 1345SOL    HW2 4935   1.100   6.551   3.202
 1346SOL     OW 4936   0.874   5.481   4.541
 1346SOL    HW1 4937   0.916   5.549   4.602
 1346SOL    HW2 4938   0.906   5.390   4.567
 1347SOL     OW 4939   0.431   6.738   6.079
 1347SOL    HW1 4940   0.482   6.787   6.009
 1347SOL    HW2 4941   0.492   6.714   6.154
 1348SOL     OW 4942   5.843   6.372   3.953
 1348SOL    HW1 4943   5.746   6.347   3.948
 1348SOL    HW2 4944   5.899   6.290   3.952
 1349SOL     OW 4945   4.729   2.756   5.386
 1349SOL    HW1 4946   4.682   2.833   5.342
 1349SOL    HW2 4947   4.787   2.790   5.460
 1350SOL     OW 4948   5.528   5.260   5.912
 1350SOL    HW1 4949   5.443   5.212   5.891
 1350SOL    HW2 4950   5.548   5.251   6.010
 1351SOL     OW 4951   5.398   1.690   3.057
 1351SOL    HW1 4952   5.356   1.768   3.102
 1351SOL    HW2 4953   5.379   1.693   2.959
 1352SOL     OW 4954   6.778   6.528   3.116
 1352SOL    HW1 4955   6.824   6.439   3.120
 1352SOL    HW2 4956   6.704   6.524   3.049
 1353SOL     OW 4957   0.136   2.533   0.264
 1353SOL    HW1 4958   0.072   2.531   0.340
 1353SOL    HW2 4959   0.212   2.471   0.283
 1354SOL     OW 4960   1.165   4.379   1.728
 1354SOL    HW1 4961   1.257   4.367   1.689
 1354SOL    HW2 4962   1.164   4.462   1.784
 1355SOL     OW 4963   5.501   2.433   4.085
 1355SOL    HW1 4964   5.439   2.450   4.162
 1355SOL    HW2 4965   5.538   2.520   4.053
 1356SOL     OW 4966   3.486   3.415   2.377
 1356SOL    HW1 4967   3.542   3.333   2.368
 1356SOL    HW2 4968   3.545   3.494   2.394
 1357SOL     OW 4969   0.734   3.683   6.345
 1357SOL    HW1 4970   0.715   3.618   6.418
 1357SOL    HW2 4971   0.652   3.736   6.325
 1358SOL     OW 4972   3.994   6.490   6.196
 1358SOL    HW1 4973   4.080   6.533   6.168
 1358SOL    HW2 4974   3.932   6.560   6.231
 1359SOL     OW 4975   5.984   4.844   2.458
 1359SOL    HW1 4976   6.027   4.909   2.396
 1359SOL    HW2 4977   5.886   4.840   2.439
 1360SOL     OW 4978   3.321   3.167   0.072
 1360SOL    HW1 4979   3.306   3.210   7.010
 1360SOL    HW2 4980   3.412   3.125   0.074
 1361SOL     OW 4981   6.463   4.838   6.399
 1361SOL    HW1 4982   6.457   4.747   6.440
 1361SOL    HW2 4983   6.379   4.857   6.347
 1362SOL     OW 4984   2.990   3.905   3.733
 1362SOL    HW1 4985   3.075   3.939   3.693
 1362SOL    HW2 4986   2.913   3.961   3.700
 1363SOL     OW 4987   6.967   5.376   2.815
 1363SOL    HW1 4988   6.907   5.384   2.895
 1363SOL    HW2 4989   7.001   5.282   2.808
 1364SOL     OW 4990   6.625   4.098   1.011
 1364SOL    HW1 4991   6.644   4.191   1.042
 1364SOL    HW2 4992   6.529   4.091   0.982
 1365SOL     OW 4993   0.940   4.080   6.369
 1365SOL    HW1 4994   0.897   4.096   6.280
 1365SOL    HW2 4995   0.872   4.093   6.442
 1366SOL     OW 4996   1.315   4.920   0.191
 1366SOL    HW1 4997   1.298   5.006   0.142
 1366SOL    HW2 4998   1.411   4.893   0.179
 1367SOL     OW 4999   1.345   0.239   3.376
 1367SOL    HW1 5000   1.333   0.157   3.320
 1367SOL    HW2 5001   1.438   0.242   3.413
 1368SOL     OW 5002   5.958   0.445   3.269
 1368SOL    HW1 5003   5.866   0.461   3.304
 1368SOL    HW2 5004   6.010   0.389   3.334
 1369SOL     OW 5005   2.587   6.922   1.481
 1369SOL    HW1 5006   2.546   7.002   1.526
 1369SOL    HW2 5007   2.686   6.925   1.494
 1370SOL     OW 5008   3.745   0.418   0.910
 1370SOL    HW1 5009   3.659   0.405   0.860
 1370SOL    HW2 5010   3.783   0.509   0.889
 1371SOL     OW 5011   5.887   2.089   4.521
 1371SOL    HW1 5012   5.888   2.115   4.617
 1371SOL    HW2 5013   5.928   2.162   4.466
 1372SOL     OW 5014   1.540   3.289   0.213
 1372SOL    HW1 5015   1.440   3.291   0.203
 1372SOL    HW2 5016   1.564   3.226   0.286
 1373SOL     OW 5017   5.493   3.257   0.245
 1373SOL    HW1 5018   5.471   3.279   0.150
 1373SOL    HW2 5019   5.527   3.163   0.251
 1374SOL     OW 5020   4.691   2.326   0.246
 1374SOL    HW1 5021   4.702   2.288   0.338
 1374SOL    HW2 5022   4.599   2.365   0.237
 1375SOL     OW 5023   6.971   3.515   6.088
 1375SOL    HW1 5024   6.983   3.422   6.051
 1375SOL    HW2 5025   0.024   3.540   6.141
 1376SOL     OW 5026   4.879   4.383   4.561
 1376SOL    HW1 5027   4.790   4.414   4.594
 1376SOL    HW2 5028   4.951   4.440   4.601
 1377SOL     OW 5029   6.844   3.799   5.843
 1377SOL    HW1 5030   6.849   3.870   5.913
 1377SOL    HW2 5031   6.748   3.781   5.820
 1378SOL     OW 5032   6.364   1.057   4.683
 1378SOL    HW1 5033   6.429   1.131   4.699
 1378SOL    HW2 5034   6.289   1.089   4.625
 1379SOL     OW 5035   3.122   6.700   2.401
 1379SOL    HW1 5036   3.061   6.708   2.481
 1379SOL    HW2 5037   3.213   6.734   2.425
 1380SOL     OW 5038   0.268   0.057   2.760
 1380SOL    HW1 5039   0.277   0.055   2.860
 1380SOL    HW2 5040   0.171   0.064   2.735
 1381SOL     OW 5041   5.756   2.088   6.793
 1381SOL    HW1 5042   5.754   2.040   6.706
 1381SOL    HW2 5043   5.798   2.178   6.780
 1382SOL     OW 5044   4.802   4.342   0.321
 1382SOL    HW1 5045   4.797   4.242   0.327
 1382SOL    HW2 5046   4.897   4.370   0.312
 1383SOL     OW 5047   0.753   6.985   1.006
 1383SOL    HW1 5048   0.833   7.027   1.049
 1383SOL    HW2 5049   0.754   6.887   1.023
 1384SOL     OW 5050   3.740   0.440   2.408
 1384SOL    HW1 5051   3.736   0.483   2.498
 1384SOL    HW2 5052   3.818   0.477   2.357
 1385SOL     OW 5053   1.348   3.101   3.304
 1385SOL    HW1 5054   1.276   3.169   3.288
 1385SOL    HW2 5055   1.313   3.029   3.365
 1386SOL     OW 5056   2.418   0.995   4.721
 1386SOL    HW1 5057   2.429   1.011   4.819
 1386SOL    HW2 5058   2.322   0.974   4.701
 1387SOL     OW 5059   3.686   6.364   2.899
 1387SOL    HW1 5060   3.662   6.450   2.944
 1387SOL    HW2 5061   3.786   6.356   2.893
 1388SOL     OW 5062   0.135   6.285   3.356
 1388SOL    HW1 5063   0.145   6.384   3.371
 1388SOL    HW2 5064   0.194   6.257   3.281
 1389SOL     OW 5065   0.253   1.019   4.107
 1389SOL    HW1 5066   0.256   1.113   4.075
 1389SOL    HW2 5067   0.340   0.974   4.086
 1390SOL     OW 5068   4.820   2.362   6.066
 1390SOL    HW1 5069   4.788   2.376   5.972
 1390SOL    HW2 5070   4.744   2.378   6.130
 1391SOL     OW 5071   6.281   0.611   5.550
 1391SOL    HW1 5072   6.226   0.574   5.475
 1391SOL    HW2 5073   6.371   0.636   5.516
 1392SOL     OW 5074   5.582   5.610   6.335
 1392SOL    HW1 5075   5.571   5.603   6.235
 1392SOL    HW2 5076   5.624   5.698   6.357
 1393SOL     OW 5077   5.852   3.504   6.547
 1393SOL    HW1 5078   5.858   3.533   6.452
 1393SOL    HW2 5079   5.764   3.459   6.563
 1394SOL     OW 5080   3.791   6.543   3.403
 1394SOL    HW1 5081   3.886   6.522   3.429
 1394SOL    HW2 5082   3.787   6.635   3.364
 1395SOL     OW 5083   1.498   4.268   3.503
 1395SOL    HW1 5084   1.592   4.261   3.536
 1395SOL    HW2 5085   1.462   4.359   3.523
 1396SOL     OW 5086   1.382   6.712   3.861
 1396SOL    HW1 5087   1.292   6.703   3.904
 1396SOL    HW2 5088   1.376   6.777   3.785
 1397SOL     OW 5089   0.529   6.160   4.207
 1397SOL    HW1 5090   0.523   6.094   4.281
 1397SOL    HW2 5091   0.439   6.203   4.192
 1398SOL     OW 5092   1.057   1.754   6.506
 1398SOL    HW1 5093   1.049   1.845   6.546
 1398SOL    HW2 5094   1.053   1.761   6.406
 1399SOL     OW 5095   4.383   0.244   0.089
 1399SOL    HW1 5096   4.407   0.156   0.049
 1399SOL    HW2 5097   4.412   0.246   0.185
 1400SOL     OW 5098   6.554   1.695   4.366
 1400SOL    HW1 5099   6.564   1.596   4.370
 1400SOL    HW2 5100   6.465   1.718   4.328
 1401SOL     OW 5101   6.494   6.535   4.720
 1401SOL    HW1 5102   6.514   6.561   4.626
 1401SOL    HW2 5103   6.405   6.491   4.725
 1402SOL     OW 5104   5.529   4.382   0.120
 1402SOL    HW1 5105   5.521   4.384   0.020
 1402SOL    HW2 5106   5.437   4.383   0.160
 1403SOL     OW 5107   2.099   2.050   1.074
 1403SOL    HW1 5108   2.140   2.130   1.032
 1403SOL    HW2 5109   2.166   1.976   1.079
 1404SOL     OW 5110   5.579   7.011   0.432
 1404SOL    HW1 5111   5.567   7.017   0.333
 1404SOL    HW2 5112   5.519   0.050   0.476
 1405SOL     OW 5113   2.772   3.439   0.281
 1405SOL    HW1 5114   2.753   3.464   0.376
 1405SOL    HW2 5115   2.788   3.341   0.275
 1406SOL     OW 5116   2.190   5.381   0.713
 1406SOL    HW1 5117   2.268   5.415   0.766
 1406SOL    HW2 5118   2.184   5.282   0.724
 1407SOL     OW 5119   1.762   3.785   3.315
 1407SOL    HW1 5120   1.845   3.750   3.272
 1407SOL    HW2 5121   1.692   3.714   3.318
 1408SOL     OW 5122   5.269   6.595   6.785
 1408SOL    HW1 5123   5.191   6.655   6.804
 1408SOL    HW2 5124   5.238   6.517   6.730
 1409SOL     OW 5125   0.382   0.981   5.187
 1409SOL    HW1 5126   0.428   1.009   5.272
 1409SOL    HW2 5127   0.301   0.927   5.210
 1410SOL     OW 5128   3.445   3.944   0.314
 1410SOL    HW1 5129   3.501   4.012   0.361
 1410SOL    HW2 5130   3.365   3.922   0.370
 1411SOL     OW 5131   3.774   6.305   6.269
 1411SOL    HW1 5132   3.696   6.367   6.278
 1411SOL    HW2 5133   3.855   6.357   6.242
 1412SOL     OW 5134   0.492   4.425   1.930
 1412SOL    HW1 5135   0.458   4.511   1.967
 1412SOL    HW2 5136   0.456   4.412   1.837
 1413SOL     OW 5137   1.973   1.735   4.380
 1413SOL    HW1 5138   1.900   1.721   4.447
 1413SOL    HW2 5139   1.941   1.799   4.310
 1414SOL     OW 5140   1.364   2.739   1.578
 1414SOL    HW1 5141   1.376   2.650   1.623
 1414SOL    HW2 5142   1.427   2.745   1.500
 1415SOL     OW 5143   3.038   1.927   4.305
 1415SOL    HW1 5144   3.087   1.887   4.228
 1415SOL    HW2 5145   3.065   2.023   4.315
 1416SOL     OW 5146   4.056   0.266   4.228
 1416SOL    HW1 5147   4.027   0.361   4.213
 1416SOL    HW2 5148   4.156   0.264   4.239
 1417SOL     OW 5149   3.435   3.043   6.233
 1417SOL    HW1 5150   3.508   3.016   6.171
 1417SOL    HW2 5151   3.395   3.129   6.202
 1418SOL     OW 5152   3.138   3.724   6.947
 1418SOL    HW1 5153   3.232   3.751   6.967
 1418SOL    HW2 5154   3.081   3.736   0.001
 1419SOL     OW 5155   1.978   5.664   4.338
 1419SOL    HW1 5156   2.031   5.587   4.373
 1419SOL    HW2 5157   1.946   5.643   4.246
 1420SOL     OW 5158   3.495   5.460   2.586
 1420SOL    HW1 5159   3.442   5.424   2.663
 1420SOL    HW2 5160   3.455   5.427   2.500
 1421SOL     OW 5161   1.560   4.448   4.294
 1421SOL    HW1 5162   1.620   4.514   4.249
 1421SOL    HW2 5163   1.602   4.417   4.379
 1422SOL     OW 5164   3.016   4.636   5.576
 1422SOL    HW1 5165   3.058   4.707   5.520
 1422SOL    HW2 5166   3.036   4.546   5.536
 1423SOL     OW 5167   3.665   1.631   5.035
 1423SOL    HW1 5168   3.737   1.677   4.983
 1423SOL    HW2 5169   3.606   1.700   5.078
 1424SOL     OW 5170   6.369   3.525   0.328
 1424SOL    HW1 5171   6.288   3.582   0.319
 1424SOL    HW2 5172   6.419   3.551   0.411
 1425SOL     OW 5173   2.501   5.817   4.949
 1425SOL    HW1 5174   2.486   5.723   4.919
 1425SOL    HW2 5175   2.531   5.817   5.045
 1426SOL     OW 5176   1.765   1.946   6.294
 1426SOL    HW1 5177   1.849   1.920   6.248
 1426SOL    HW2 5178   1.777   2.035   6.338
 1427SOL     OW 5179   0.185   0.573   3.858
 1427SOL    HW1 5180   0.189   0.596   3.761
 1427SOL    HW2 5181   0.216   0.479   3.871
 1428SOL     OW 5182   6.812   2.203   1.999
 1428SOL    HW1 5183   6.864   2.166   1.922
 1428SOL    HW2 5184   6.722   2.159   2.002
 1429SOL     OW 5185   5.670   1.850   6.969
 1429SOL    HW1 5186   5.603   1.912   6.931
 1429SOL    HW2 5187   5.642   1.823   0.034
 1430SOL     OW 5188   1.803   4.058   4.352
 1430SOL    HW1 5189   1.816   4.049   4.254
 1430SOL    HW2 5190   1.890   4.038   4.399
 1431SOL     OW 5191   2.400   2.370   6.549
 1431SOL    HW1 5192   2.394   2.443   6.479
 1431SOL    HW2 5193   2.308   2.334   6.566
 1432SOL     OW 5194   2.169   0.763   1.610
 1432SOL    HW1 5195   2.091   0.824   1.626
 1432SOL    HW2 5196   2.240   0.813   1.561
 1433SOL     OW 5197   3.707   6.432   4.139
 1433SOL    HW1 5198   3.739   6.479   4.057
 1433SOL    HW2 5199   3.728   6.488   4.220
 1434SOL     OW 5200   6.556   1.354   6.617
 1434SOL    HW1 5201   6.470   1.307   6.639
 1434SOL    HW2 5202   6.593   1.396   6.700
 1435SOL     OW 5203   6.876   0.815   4.341
 1435SOL    HW1 5204   6.968   0.854   4.331
 1435SOL    HW2 5205   6.808   0.884   4.317
 1436SOL     OW 5206   5.793   3.381   0.572
 1436SOL    HW1 5207   5.776   3.373   0.670
 1436SOL    HW2 5208   5.821   3.292   0.536
 1437SOL     OW 5209   3.274   0.419   5.490
 1437SOL    HW1 5210   3.283   0.445   5.586
 1437SOL    HW2 5211   3.315   0.489   5.432
 1438SOL     OW 5212   3.055   0.620   1.745
 1438SOL    HW1 5213   3.141   0.570   1.751
 1438SOL    HW2 5214   3.074   0.717   1.729
 1439SOL     OW 5215   0.695   5.278   1.148
 1439SOL    HW1 5216   0.676   5.289   1.051
 1439SOL    HW2 5217   0.713   5.367   1.189
 1440SOL     OW 5218   3.691   3.411   5.172
 1440SOL    HW1 5219   3.790   3.412   5.186
 1440SOL    HW2 5220   3.649   3.482   5.228
 1441SOL     OW 5221   6.245   3.471   4.033
 1441SOL    HW1 5222   6.323   3.510   4.081
 1441SOL    HW2 5223   6.261   3.373   4.017
 1442SOL     OW 5224   6.699   4.703   0.117
 1442SOL    HW1 5225   6.665   4.688   0.025
 1442SOL    HW2 5226   6.634   4.666   0.184
 1443SOL     OW 5227   1.306   2.265   4.279
 1443SOL    HW1 5228   1.251   2.235   4.201
 1443SOL    HW2 5229   1.252   2.327   4.336
 1444SOL     OW 5230   4.215   6.307   1.940
 1444SOL    HW1 5231   4.149   6.233   1.930
 1444SOL    HW2 5232   4.260   6.324   1.852
 1445SOL     OW 5233   0.530   2.911   2.673
 1445SOL    HW1 5234   0.585   2.982   2.630
 1445SOL    HW2 5235   0.589   2.837   2.705
 1446SOL     OW 5236   5.569   2.722   6.630
 1446SOL    HW1 5237   5.519   2.809   6.633
 1446SOL    HW2 5238   5.504   2.647   6.641
 1447SOL     OW 5239   6.532   6.921   4.582
 1447SOL    HW1 5240   6.631   6.923   4.599
 1447SOL    HW2 5241   6.512   6.858   4.507
 1448SOL     OW 5242   5.840   2.107   0.397
 1448SOL    HW1 5243   5.916   2.110   0.332
 1448SOL    HW2 5244   5.812   2.012   0.411
 1449SOL     OW 5245   6.127   0.082   6.716
 1449SOL    HW1 5246   6.132   0.177   6.748
 1449SOL    HW2 5247   6.121   0.021   6.794
 1450SOL     OW 5248   0.082   2.454   2.451
 1450SOL    HW1 5249   0.028   2.504   2.384
 1450SOL    HW2 5250   0.060   2.487   2.543
 1451SOL     OW 5251   3.305   0.567   2.062
 1451SOL    HW1 5252   3.248   0.611   2.131
 1451SOL    HW2 5253   3.263   0.480   2.035
 1452SOL     OW 5254   4.988   2.136   4.461
 1452SOL    HW1 5255   4.903   2.090   4.485
 1452SOL    HW2 5256   5.065   2.075   4.477
 1453SOL     OW 5257   6.508   3.987   5.024
 1453SOL    HW1 5258   6.477   4.058   4.960
 1453SOL    HW2 5259   6.502   4.022   5.117
 1454SOL     OW 5260   6.323   2.684   2.344
 1454SOL    HW1 5261   6.357   2.591   2.333
 1454SOL    HW2 5262   6.254   2.703   2.275
 1455SOL     OW 5263   1.970   0.632   1.749
 1455SOL    HW1 5264   1.903   0.585   1.690
 1455SOL    HW2 5265   2.033   0.684   1.691
 1456SOL     OW 5266   6.434   6.948   5.375
 1456SOL    HW1 5267   6.353   6.904   5.414
 1456SOL    HW2 5268   6.405   7.027   5.319
 1457SOL     OW 5269   1.411   0.141   1.440
 1457SOL    HW1 5270   1.359   0.057   1.425
 1457SOL    HW2 5271   1.395   0.175   1.533
 1458SOL     OW 5272   4.891   6.279   4.152
 1458SOL    HW1 5273   4.814   6.231   4.193
 1458SOL    HW2 5274   4.955   6.307   4.223
 1459SOL     OW 5275   3.205   4.709   6.496
 1459SOL    HW1 5276   3.271   4.687   6.568
 1459SOL    HW2 5277   3.119   4.660   6.514
 1460SOL     OW 5278   0.340   5.196   6.221
 1460SOL    HW1 5279   0.389   5.112   6.199
 1460SOL    HW2 5280   0.367   5.227   6.313
 1461SOL     OW 5281   0.443   4.796   3.240
 1461SOL    HW1 5282   0.403   4.793   3.331
 1461SOL    HW2 5283   0.473   4.889   3.219
 1462SOL     OW 5284   6.602   1.099   6.223
 1462SOL    HW1 5285   6.672   1.043   6.266
 1462SOL    HW2 5286   6.514   1.082   6.267
 1463SOL     OW 5287   0.034   5.820   6.515
 1463SOL    HW1 5288   6.963   5.816   6.535
 1463SOL    HW2 5289   0.048   5.826   6.416
 1464SOL     OW 5290   6.487   6.677   1.034
 1464SOL    HW1 5291   6.436   6.591   1.027
 1464SOL    HW2 5292   6.452   6.730   1.111
 1465SOL     OW 5293   1.477   1.814   2.543
 1465SOL    HW1 5294   1.474   1.913   2.530
 1465SOL    HW2 5295   1.386   1.779   2.563
 1466SOL     OW 5296   1.162   0.771   2.739
 1466SOL    HW1 5297   1.186   0.674   2.735
 1466SOL    HW2 5298   1.223   0.823   2.679
 1467SOL     OW 5299   2.414   1.140   1.849
 1467SOL    HW1 5300   2.491   1.109   1.906
 1467SOL    HW2 5301   2.376   1.224   1.887
 1468SOL     OW 5302   4.934   5.948   2.828
 1468SOL    HW1 5303   4.885   5.864   2.850
 1468SOL    HW2 5304   4.869   6.018   2.800
 1469SOL     OW 5305   1.070   0.557   2.300
 1469SOL    HW1 5306   1.151   0.558   2.359
 1469SOL    HW2 5307   0.991   0.594   2.349
 1470SOL     OW 5308   1.503   1.072   2.725
 1470SOL    HW1 5309   1.599   1.068   2.699
 1470SOL    HW2 5310   1.459   1.150   2.680
 1471SOL     OW 5311   0.551   0.841   0.657
 1471SOL    HW1 5312   0.544   0.904   0.734
 1471SOL    HW2 5313   0.462   0.798   0.641
 1472SOL     OW 5314   4.189   5.490   4.753
 1472SOL    HW1 5315   4.271   5.452   4.709
 1472SOL    HW2 5316   4.214   5.573   4.802
 1473SOL     OW 5317   5.910   6.058   4.048
 1473SOL    HW1 5318   5.876   6.005   3.971
 1473SOL    HW2 5319   5.898   6.005   4.132
 1474SOL     OW 5320   6.443   6.430   4.103
 1474SOL    HW1 5321   6.488   6.426   4.013
 1474SOL    HW2 5322   6.372   6.359   4.107
 1475SOL     OW 5323   6.655   0.222   1.231
 1475SOL    HW1 5324   6.681   0.311   1.268
 1475SOL    HW2 5325   6.557   0.221   1.212
 1476SOL     OW 5326   0.874   1.213   1.071
 1476SOL    HW1 5327   0.802   1.281   1.084
 1476SOL    HW2 5328   0.948   1.253   1.017
 1477SOL     OW 5329   2.628   0.293   6.579
 1477SOL    HW1 5330   2.574   0.374   6.555
 1477SOL    HW2 5331   2.607   0.219   6.516
 1478SOL     OW 5332   5.745   4.478   0.286
 1478SOL    HW1 5333   5.678   4.435   0.226
 1478SOL    HW2 5334   5.825   4.419   0.294
 1479SOL     OW 5335   1.750   3.551   0.002
 1479SOL    HW1 5336   1.826   3.568   6.966
 1479SOL    HW2 5337   1.721   3.638   0.043
 1480SOL     OW 5338   2.495   0.011   0.012
 1480SOL    HW1 5339   2.448   0.099   0.011
 1480SOL    HW2 5340   2.592   0.025   0.032
 1481SOL     OW 5341   6.771   2.210   4.691
 1481SOL    HW1 5342   6.813   2.129   4.731
 1481SOL    HW2 5343   6.677   2.219   4.726
 1482SOL     OW 5344   5.449   2.091   1.212
 1482SOL    HW1 5345   5.426   2.012   1.269
 1482SOL    HW2 5346   5.370   2.115   1.155
 1483SOL     OW 5347   6.732   2.608   6.439
 1483SOL    HW1 5348   6.788   2.539   6.392
 1483SOL    HW2 5349   6.729   2.691   6.383
 1484SOL     OW 5350   6.135   4.313   4.056
 1484SOL    HW1 5351   6.209   4.365   4.014
 1484SOL    HW2 5352   6.124   4.341   4.152
 1485SOL     OW 5353   4.341   1.791   2.759
 1485SOL    HW1 5354   4.341   1.786   2.659
 1485SOL    HW2 5355   4.337   1.887   2.787
 1486SOL     OW 5356   4.719   2.729   2.751
 1486SOL    HW1 5357   4.665   2.645   2.741
 1486SOL    HW2 5358   4.745   2.763   2.661
 1487SOL     OW 5359   6.408   2.790   6.881
 1487SOL    HW1 5360   6.398   2.704   6.931
 1487SOL    HW2 5361   6.455   2.773   6.795
 1488SOL     OW 5362   6.024   1.764   2.975
 1488SOL    HW1 5363   5.929   1.752   3.004
 1488SOL    HW2 5364   6.066   1.838   3.029
 1489SOL     OW 5365   4.107   5.317   4.073
 1489SOL    HW1 5366   4.133   5.345   4.165
 1489SOL    HW2 5367   4.020   5.361   4.048
 1490SOL     OW 5368   1.587   3.166   1.601
 1490SOL    HW1 5369   1.667   3.114   1.571
 1490SOL    HW2 5370   1.564   3.141   1.695
 1491SOL     OW 5371   6.144   3.648   3.854
 1491SOL    HW1 5372   6.173   3.570   3.909
 1491SOL    HW2 5373   6.224   3.701   3.827
 1492SOL     OW 5374   6.032   1.859   1.865
 1492SOL    HW1 5375   6.047   1.764   1.891
 1492SOL    HW2 5376   6.074   1.920   1.932
 1493SOL     OW 5377   4.944   0.279   4.341
 1493SOL    HW1 5378   4.998   0.261   4.423
 1493SOL    HW2 5379   4.872   0.345   4.362
 1494SOL     OW 5380   4.391   2.285   6.138
 1494SOL    HW1 5381   4.372   2.379   6.112
 1494SOL    HW2 5382   4.366   2.224   6.062
 1495SOL     OW 5383   0.609   2.753   4.162
 1495SOL    HW1 5384   0.556   2.733   4.245
 1495SOL    HW2 5385   0.704   2.771   4.188
 1496SOL     OW 5386   1.388   1.301   2.622
 1496SOL    HW1 5387   1.316   1.324   2.688
 1496SOL    HW2 5388   1.459   1.372   2.625
 1497SOL     OW 5389   0.673   3.539   2.767
 1497SOL    HW1 5390   0.653   3.455   2.817
 1497SOL    HW2 5391   0.646   3.619   2.822
 1498SOL     OW 5392   1.783   4.738   6.310
 1498SOL    HW1 5393   1.738   4.804   6.371
 1498SOL    HW2 5394   1.845   4.680   6.364
 1499SOL     OW 5395   1.224   3.370   5.606
 1499SOL    HW1 5396   1.315   3.329   5.596
 1499SOL    HW2 5397   1.187   3.390   5.515
 1500SOL     OW 5398   5.742   6.504   6.905
 1500SOL    HW1 5399   5.658   6.541   6.945
 1500SOL    HW2 5400   5.752   6.408   6.931
 1501SOL     OW 5401   4.388   1.763   6.848
 1501SOL    HW1 5402   4.470   1.744   6.902
 1501SOL    HW2 5403   4.306   1.740   6.901
 1502SOL     OW 5404   5.659   7.007   1.388
 1502SOL    HW1 5405   5.602   0.051   1.429
 1502SOL    HW2 5406   5.702   0.015   1.305
 1503SOL     OW 5407   2.657   1.636   1.717
 1503SOL    HW1 5408   2.644   1.648   1.816
 1503SOL    HW2 5409   2.755   1.633   1.697
 1504SOL     OW 5410   1.443   1.196   4.987
 1504SOL    HW1 5411   1.509   1.233   4.922
 1504SOL    HW2 5412   1.373   1.265   5.006
 1505SOL     OW 5413   5.706   1.009   6.656
 1505SOL    HW1 5414   5.768   1.030   6.731
 1505SOL    HW2 5415   5.662   0.921   6.673
 1506SOL     OW 5416   2.021   5.593   1.922
 1506SOL    HW1 5417   1.966   5.517   1.886
 1506SOL    HW2 5418   1.973   5.679   1.906
 1507SOL     OW 5419   1.091   2.138   5.692
 1507SOL    HW1 5420   1.017   2.070   5.691
 1507SOL    HW2 5421   1.179   2.091   5.679
 1508SOL     OW 5422   5.787   0.874   0.994
 1508SOL    HW1 5423   5.782   0.794   0.936
 1508SOL    HW2 5424   5.864   0.865   1.058
 1509SOL     OW 5425   3.971   2.528   6.481
 1509SOL    HW1 5426   3.884   2.556   6.521
 1509SOL    HW2 5427   4.005   2.601   6.421
 1510SOL     OW 5428   5.776   2.250   3.792
 1510SOL    HW1 5429   5.770   2.237   3.891
 1510SOL    HW2 5430   5.685   2.265   3.755
 1511SOL     OW 5431   2.817   2.669   0.687
 1511SOL    HW1 5432   2.815   2.759   0.643
 1511SOL    HW2 5433   2.728   2.650   0.728
 1512SOL     OW 5434   7.011   6.273   1.477
 1512SOL    HW1 5435   0.061   6.278   1.414
 1512SOL    HW2 5436   0.006   6.322   1.561
 1513SOL     OW 5437   4.374   0.571   3.797
 1513SOL    HW1 5438   4.386   0.526   3.709
 1513SOL    HW2 5439   4.278   0.565   3.825
 1514SOL     OW 5440   5.452   2.932   5.060
 1514SOL    HW1 5441   5.458   2.901   4.966
 1514SOL    HW2 5442   5.538   2.911   5.108
 1515SOL     OW 5443   6.475   3.349   5.698
 1515SOL    HW1 5444   6.410   3.321   5.627
 1515SOL    HW2 5445   6.561   3.300   5.685
 1516SOL     OW 5446   0.747   0.193   1.222
 1516SOL    HW1 5447   0.657   0.205   1.179
 1516SOL    HW2 5448   0.813   0.252   1.175
 1517SOL     OW 5449   4.530   5.974   3.491
 1517SOL    HW1 5450   4.485   6.014   3.412
 1517SOL    HW2 5451   4.471   5.904   3.531
 1518SOL     OW 5452   0.661   3.252   0.126
 1518SOL    HW1 5453   0.653   3.293   0.217
 1518SOL    HW2 5454   0.590   3.183   0.114
 1519SOL     OW 5455   6.876   4.458   1.893
 1519SOL    HW1 5456   6.918   4.496   1.811
 1519SOL    HW2 5457   6.879   4.526   1.966
 1520SOL     OW 5458   1.423   3.478   2.526
 1520SOL    HW1 5459   1.494   3.415   2.492
 1520SOL    HW2 5460   1.425   3.562   2.472
 1521SOL     OW 5461   2.628   3.561   6.818
 1521SOL    HW1 5462   2.590   3.618   6.891
 1521SOL    HW2 5463   2.645   3.469   6.853
 1522SOL     OW 5464   6.488   1.469   5.376
 1522SOL    HW1 5465   6.469   1.562   5.345
 1522SOL    HW2 5466   6.447   1.403   5.313
 1523SOL     OW 5467   5.071   3.918   0.114
 1523SOL    HW1 5468   5.096   3.890   0.021
 1523SOL    HW2 5469   5.033   4.011   0.112
 1524SOL     OW 5470   0.968   1.944   1.599
 1524SOL    HW1 5471   1.022   1.862   1.619
 1524SOL    HW2 5472   0.872   1.926   1.620
 1525SOL     OW 5473   5.733   2.331   6.514
 1525SOL    HW1 5474   5.638   2.302   6.521
 1525SOL    HW2 5475   5.780   2.277   6.445
 1526SOL     OW 5476   1.763   1.278   0.028
 1526SOL    HW1 5477   1.777   1.372   0.059
 1526SOL    HW2 5478   1.830   1.255   6.985
 1527SOL     OW 5479   3.811   0.604   5.405
 1527SOL    HW1 5480   3.770   0.514   5.393
 1527SOL    HW2 5481   3.888   0.597   5.469
 1528SOL     OW 5482   5.245   6.320   2.730
 1528SOL    HW1 5483   5.211   6.356   2.816
 1528SOL    HW2 5484   5.176   6.331   2.659
 1529SOL     OW 5485   3.854   1.139   0.389
 1529SOL    HW1 5486   3.929   1.126   0.454
 1529SOL    HW2 5487   3.842   1.055   0.335
 1530SOL     OW 5488   2.775   0.831   1.712
 1530SOL    HW1 5489   2.822   0.916   1.688
 1530SOL    HW2 5490   2.835   0.754   1.691
 1531SOL     OW 5491   5.688   1.591   4.906
 1531SOL    HW1 5492   5.714   1.498   4.878
 1531SOL    HW2 5493   5.760   1.630   4.963
 1532SOL     OW 5494   2.188   3.041   5.900
 1532SOL    HW1 5495   2.166   2.950   5.865
 1532SOL    HW2 5496   2.192   3.106   5.824
 1533SOL     OW 5497   0.268   3.265   6.375
 1533SOL    HW1 5498   0.287   3.254   6.473
 1533SOL    HW2 5499   0.353   3.287   6.327
 1534SOL     OW 5500   1.527   5.050   6.879
 1534SOL    HW1 5501   1.485   4.964   6.850
 1534SOL    HW2 5502   1.625   5.037   6.891
 1535SOL     OW 5503   5.380   6.099   4.056
 1535SOL    HW1 5504   5.390   6.186   4.104
 1535SOL    HW2 5505   5.299   6.101   3.997
 1536SOL     OW 5506   4.238   4.707   5.501
 1536SOL    HW1 5507   4.147   4.666   5.504
 1536SOL    HW2 5508   4.281   4.698   5.591
 1537SOL     OW 5509   4.254   5.570   2.544
 1537SOL    HW1 5510   4.241   5.635   2.469
 1537SOL    HW2 5511   4.202   5.486   2.525
 1538SOL     OW 5512   2.931   5.552   5.694
 1538SOL    HW1 5513   2.934   5.637   5.746
 1538SOL    HW2 5514   2.937   5.474   5.757
 1539SOL     OW 5515   4.195   4.363   1.251
 1539SOL    HW1 5516   4.179   4.265   1.259
 1539SOL    HW2 5517   4.231   4.383   1.160
 1540SOL     OW 5518   1.086   0.113   5.359
 1540SOL    HW1 5519   1.121   0.159   5.277
 1540SOL    HW2 5520   1.007   0.162   5.393
 1541SOL     OW 5521   3.424   3.111   1.597
 1541SOL    HW1 5522   3.394   3.157   1.680
 1541SOL    HW2 5523   3.344   3.070   1.551
 1542SOL     OW 5524   0.096   5.614   1.345
 1542SOL    HW1 5525   0.003   5.643   1.325
 1542SOL    HW2 5526   0.131   5.665   1.423
 1543SOL     OW 5527   2.948   3.379   4.327
 1543SOL    HW1 5528   2.955   3.317   4.249
 1543SOL    HW2 5529   2.995   3.339   4.405
 1544SOL     OW 5530   3.075   3.831   2.514
 1544SOL    HW1 5531   3.036   3.739   2.508
 1544SOL    HW2 5532   3.135   3.848   2.436
 1545SOL     OW 5533   5.360   0.843   4.674
 1545SOL    HW1 5534   5.312   0.841   4.586
 1545SOL    HW2 5535   5.315   0.908   4.735
 1546SOL     OW 5536   5.233   0.063   6.175
 1546SOL    HW1 5537   5.205   0.041   6.081
 1546SOL    HW2 5538   5.277   0.152   6.178
 1547SOL     OW 5539   2.517   4.645   2.966
 1547SOL    HW1 5540   2.424   4.680   2.976
 1547SOL    HW2 5541   2.580   4.722   2.957
 1548SOL     OW 5542   4.991   3.667   5.909
 1548SOL    HW1 5543   5.034   3.705   5.991
 1548SOL    HW2 5544   4.910   3.614   5.935
 1549SOL     OW 5545   5.320   1.056   2.061
 1549SOL    HW1 5546   5.388   1.116   2.102
 1549SOL    HW2 5547   5.230   1.100   2.064
 1550SOL     OW 5548   3.499   6.153   5.990
 1550SOL    HW1 5549   3.446   6.137   6.073
 1550SOL    HW2 5550   3.542   6.067   5.961
 1551SOL     OW 5551   1.972   3.306   0.813
 1551SOL    HW1 5552   1.942   3.402   0.818
 1551SOL    HW2 5553   2.014   3.280   0.900
 1552SOL     OW 5554   0.503   0.247   1.124
 1552SOL    HW1 5555   0.409   0.234   1.092
 1552SOL    HW2 5556   0.502   0.283   1.217
 1553SOL     OW 5557   6.520   1.951   6.271
 1553SOL    HW1 5558   6.539   1.949   6.173
 1553SOL    HW2 5559   6.510   1.857   6.304
 1554SOL     OW 5560   3.601   2.055   2.483
 1554SOL    HW1 5561   3.543   2.107   2.546
 1554SOL    HW2 5562   3.616   1.964   2.519
 1555SOL     OW 5563   4.513   2.488   5.639
 1555SOL    HW1 5564   4.544   2.537   5.720
 1555SOL    HW2 5565   4.442   2.423   5.665
 1556SOL     OW 5566   3.863   0.983   0.080
 1556SOL    HW1 5567   3.941   1.026   0.035
 1556SOL    HW2 5568   3.887   0.890   0.107
 1557SOL     OW 5569   2.960   1.661   0.456
 1557SOL    HW1 5570   3.034   1.609   0.413
 1557SOL    HW2 5571   2.988   1.756   0.468
 1558SOL     OW 5572   5.658   1.742   4.326
 1558SOL    HW1 5573   5.639   1.677   4.399
 1558SOL    HW2 5574   5.743   1.791   4.346
 1559SOL     OW 5575   0.468   2.803   0.924
 1559SOL    HW1 5576   0.559   2.774   0.952
 1559SOL    HW2 5577   0.475   2.887   0.870
 1560SOL     OW 5578   2.743   1.252   6.497
 1560SOL    HW1 5579   2.701   1.189   6.562
 1560SOL    HW2 5580   2.814   1.306   6.543
 1561SOL     OW 5581   5.283   5.718   3.197
 1561SOL    HW1 5582   5.246   5.625   3.206
 1561SOL    HW2 5583   5.303   5.737   3.101
 1562SOL     OW 5584   4.030   6.547   1.491
 1562SOL    HW1 5585   4.015   6.544   1.392
 1562SOL    HW2 5586   4.082   6.629   1.515
 1563SOL     OW 5587   2.354   1.764   5.620
 1563SOL    HW1 5588   2.290   1.841   5.622
 1563SOL    HW2 5589   2.338   1.705   5.700
 1564SOL     OW 5590   1.615   2.639   2.453
 1564SOL    HW1 5591   1.709   2.672   2.462
 1564SOL    HW2 5592   1.615   2.539   2.441
 1565SOL     OW 5593   4.026   5.266   4.568
 1565SOL    HW1 5594   4.074   5.326   4.503
 1565SOL    HW2 5595   4.073   5.268   4.656
 1566SOL     OW 5596   6.378   5.307   4.874
 1566SOL    HW1 5597   6.451   5.342   4.815
 1566SOL    HW2 5598   6.335   5.383   4.923
 1567SOL     OW 5599   6.380   5.411   0.319
 1567SOL    HW1 5600   6.363   5.393   0.416
 1567SOL    HW2 5601   6.301   5.459   0.280
 1568SOL     OW 5602   2.083   6.730   2.824
 1568SOL    HW1 5603   2.126   6.642   2.806
 1568SOL    HW2 5604   2.058   6.774   2.738
 1569SOL     OW 5605   3.419   6.626   3.269
 1569SOL    HW1 5606   3.504   6.678   3.278
 1569SOL    HW2 5607   3.440   6.528   3.278
 1570SOL     OW 5608   1.523   6.620   0.145
 1570SOL    HW1 5609   1.535   6.528   0.182
 1570SOL    HW2 5610   1.581   6.632   0.065
 1571SOL     OW 5611   6.718   1.963   3.054
 1571SOL    HW1 5612   6.667   2.040   3.015
 1571SOL    HW2 5613   6.658   1.885   3.066
 1572SOL     OW 5614   2.240   5.501   1.782
 1572SOL    HW1 5615   2.155   5.541   1.816
 1572SOL    HW2 5616   2.254   5.411   1.822
 1573SOL     OW 5617   5.960   5.334   2.093
 1573SOL    HW1 5618   6.003   5.269   2.031
 1573SOL    HW2 5619   5.881   5.376   2.048
 1574SOL     OW 5620   6.609   2.601   3.192
 1574SOL    HW1 5621   6.586   2.561   3.281
 1574SOL    HW2 5622   6.629   2.698   3.204
 1575SOL     OW 5623   2.877   1.225   1.706
 1575SOL    HW1 5624   2.932   1.301   1.670
 1575SOL    HW2 5625   2.910   1.201   1.797
 1576SOL     OW 5626   0.788   0.069   3.501
 1576SOL    HW1 5627   0.711   0.080   3.438
 1576SOL    HW2 5628   0.862   0.019   3.455
 1577SOL     OW 5629   1.961   0.738   5.613
 1577SOL    HW1 5630   2.043   0.708   5.662
 1577SOL    HW2 5631   1.913   0.807   5.667
 1578SOL     OW 5632   4.905   1.379   5.836
 1578SOL    HW1 5633   4.926   1.474   5.814
 1578SOL    HW2 5634   4.921   1.364   5.934
 1579SOL     OW 5635   6.951   1.886   2.157
 1579SOL    HW1 5636   6.983   1.972   2.197
 1579SOL    HW2 5637   6.928   1.822   2.230
 1580SOL     OW 5638   3.362   4.178   3.759
 1580SOL    HW1 5639   3.450   4.197   3.716
 1580SOL    HW2 5640   3.331   4.086   3.732
 1581SOL     OW 5641   6.643   4.225   5.900
 1581SOL    HW1 5642   6.741   4.209   5.887
 1581SOL    HW2 5643   6.630   4.300   5.966
 1582SOL     OW 5644   3.045   6.229   4.768
 1582SOL    HW1 5645   2.971   6.268   4.824
 1582SOL    HW2 5646   3.059   6.288   4.688
 1583SOL     OW 5647   0.568   5.745   3.786
 1583SOL    HW1 5648   0.532   5.787   3.703
 1583SOL    HW2 5649   0.555   5.806   3.863
 1584SOL     OW 5650   0.461   5.065   5.902
 1584SOL    HW1 5651   0.395   5.111   5.842
 1584SOL    HW2 5652   0.440   4.967   5.907
 1585SOL     OW 5653   4.343   2.319   2.580
 1585SOL    HW1 5654   4.328   2.340   2.676
 1585SOL    HW2 5655   4.296   2.233   2.556
 1586SOL     OW 5656   2.921   5.234   2.423
 1586SOL    HW1 5657   2.950   5.139   2.410
 1586SOL    HW2 5658   2.989   5.295   2.384
 1587SOL     OW 5659   2.521   5.544   4.952
 1587SOL    HW1 5660   2.574   5.559   5.035
 1587SOL    HW2 5661   2.480   5.453   4.956
 1588SOL     OW 5662   4.714   1.046   1.989
 1588SOL    HW1 5663   4.683   0.960   2.029
 1588SOL    HW2 5664   4.696   1.121   2.053
 1589SOL     OW 5665   0.190   3.602   2.212
 1589SOL    HW1 5666   0.197   3.615   2.113
 1589SOL    HW2 5667   0.225   3.511   2.236
 1590SOL     OW 5668   5.076   0.808   3.617
 1590SOL    HW1 5669   5.139   0.863   3.563
 1590SOL    HW2 5670   5.100   0.816   3.714
 1591SOL     OW 5671   6.893   6.271   1.161
 1591SOL    HW1 5672   6.838   6.279   1.244
 1591SOL    HW2 5673   6.959   6.347   1.157
 1592SOL     OW 5674   2.278   3.664   6.523
 1592SOL    HW1 5675   2.335   3.585   6.548
 1592SOL    HW2 5676   2.189   3.631   6.491
 1593SOL     OW 5677   0.644   0.035   5.350
 1593SOL    HW1 5678   0.633   0.075   5.441
 1593SOL    HW2 5679   0.735   7.021   5.343
 1594SOL     OW 5680   0.377   6.222   2.058
 1594SOL    HW1 5681   0.383   6.235   2.157
 1594SOL    HW2 5682   0.378   6.124   2.038
 1595SOL     OW 5683   0.936   5.043   1.052
 1595SOL    HW1 5684   0.892   4.967   1.003
 1595SOL    HW2 5685   0.867   5.110   1.078
 1596SOL     OW 5686   6.469   3.775   3.137
 1596SOL    HW1 5687   6.530   3.846   3.173
 1596SOL    HW2 5688   6.460   3.702   3.205
 1597SOL     OW 5689   1.541   6.018   0.933
 1597SOL    HW1 5690   1.452   5.996   0.894
 1597SOL    HW2 5691   1.613   5.992   0.868
 1598SOL     OW 5692   1.417   4.812   6.492
 1598SOL    HW1 5693   1.349   4.782   6.425
 1598SOL    HW2 5694   1.444   4.906   6.471
 1599SOL     OW 5695   5.333   5.207   5.273
 1599SOL    HW1 5696   5.327   5.161   5.184
 1599SOL    HW2 5697   5.248   5.192   5.324
 1600SOL     OW 5698   2.714   1.653   2.970
 1600SOL    HW1 5699   2.650   1.621   3.040
 1600SOL    HW2 5700   2.696   1.605   2.885
 1601SOL     OW 5701   6.942   0.330   4.321
 1601SOL    HW1 5702   6.901   0.413   4.285
 1601SOL    HW2 5703   6.904   0.310   4.411
 1602SOL     OW 5704   4.442   4.478   3.864
 1602SOL    HW1 5705   4.364   4.415   3.865
 1602SOL    HW2 5706   4.412   4.568   3.894
 1603SOL     OW 5707   3.030   5.226   2.986
 1603SOL    HW1 5708   2.933   5.241   2.968
 1603SOL    HW2 5709   3.051   5.129   2.977
 1604SOL     OW 5710   4.841   4.967   1.689
 1604SOL    HW1 5711   4.888   5.025   1.623
 1604SOL    HW2 5712   4.774   4.910   1.642
 1605SOL     OW 5713   6.880   5.547   1.910
 1605SOL    HW1 5714   6.813   5.485   1.950
 1605SOL    HW2 5715   6.949   5.493   1.860
 1606SOL     OW 5716   3.941   6.031   5.655
 1606SOL    HW1 5717   3.919   5.935   5.636
 1606SOL    HW2 5718   4.030   6.053   5.614
 1607SOL     OW 5719   4.032   0.019   0.319
 1607SOL    HW1 5720   4.064   0.077   0.244
 1607SOL    HW2 5721   3.974   0.074   0.380
 1608SOL     OW 5722   6.547   1.207   2.944
 1608SOL    HW1 5723   6.575   1.153   3.023
 1608SOL    HW2 5724   6.621   1.269   2.918
 1609SOL     OW 5725   3.579   6.847   0.268
 1609SOL    HW1 5726   3.492   6.881   0.302
 1609SOL    HW2 5727   3.637   6.924   0.241
 1610SOL     OW 5728   5.299   5.847   0.779
 1610SOL    HW1 5729   5.331   5.842   0.685
 1610SOL    HW2 5730   5.257   5.936   0.796
 1611SOL     OW 5731   2.763   3.165   0.268
 1611SOL    HW1 5732   2.673   3.140   0.305
 1611SOL    HW2 5733   2.828   3.092   0.287
 1612SOL     OW 5734   3.548   6.800   1.189
 1612SOL    HW1 5735   3.563   6.849   1.103
 1612SOL    HW2 5736   3.565   6.862   1.266
 1613SOL     OW 5737   1.604   5.787   2.232
 1613SOL    HW1 5738   1.683   5.764   2.289
 1613SOL    HW2 5739   1.575   5.881   2.251
 1614SOL     OW 5740   5.736   1.654   6.237
 1614SOL    HW1 5741   5.798   1.732   6.238
 1614SOL    HW2 5742   5.703   1.639   6.144
 1615SOL     OW 5743   5.843   5.628   0.248
 1615SOL    HW1 5744   5.844   5.540   0.294
 1615SOL    HW2 5745   5.888   5.696   0.307
 1616SOL     OW 5746   3.995   1.051   4.595
 1616SOL    HW1 5747   3.941   0.971   4.569
 1616SOL    HW2 5748   3.933   1.126   4.619
 1617SOL     OW 5749   5.202   6.304   3.181
 1617SOL    HW1 5750   5.241   6.376   3.237
 1617SOL    HW2 5751   5.276   6.250   3.140
 1618SOL     OW 5752   1.749   6.547   3.379
 1618SOL    HW1 5753   1.698   6.462   3.366
 1618SOL    HW2 5754   1.703   6.603   3.448
 1619SOL     OW 5755   0.270   4.793   0.829
 1619SOL    HW1 5756   0.354   4.841   0.854
 1619SOL    HW2 5757   0.279   4.758   0.735
 1620SOL     OW 5758   3.279   4.692   1.424
 1620SOL    HW1 5759   3.324   4.733   1.503
 1620SOL    HW2 5760   3.260   4.596   1.442
 1621SOL     OW 5761   6.049   0.485   1.125
 1621SOL    HW1 5762   6.069   0.560   1.063
 1621SOL    HW2 5763   6.111   0.489   1.203
 1622SOL     OW 5764   1.001   3.382   5.437
 1622SOL    HW1 5765   1.015   3.283   5.432
 1622SOL    HW2 5766   0.903   3.401   5.446
 1623SOL     OW 5767   0.592   2.863   4.801
 1623SOL    HW1 5768   0.626   2.858   4.895
 1623SOL    HW2 5769   0.544   2.779   4.778
 1624SOL     OW 5770   3.953   0.783   5.208
 1624SOL    HW1 5771   3.980   0.784   5.304
 1624SOL    HW2 5772   3.916   0.872   5.183
 1625SOL     OW 5773   1.595   4.854   0.194
 1625SOL    HW1 5774   1.631   4.833   0.103
 1625SOL    HW2 5775   1.662   4.908   0.245
 1626SOL     OW 5776   3.489   0.708   0.858
 1626SOL    HW1 5777   3.475   0.638   0.929
 1626SOL    HW2 5778   3.400   0.737   0.823
 1627SOL     OW 5779   5.622   2.934   3.812
 1627SOL    HW1 5780   5.643   3.032   3.809
 1627SOL    HW2 5781   5.567   2.908   3.733
 1628SOL     OW 5782   4.427   5.650   0.380
 1628SOL    HW1 5783   4.382   5.586   0.318
 1628SOL    HW2 5784   4.367   5.729   0.395
 1629SOL     OW 5785   2.397   0.968   3.572
 1629SOL    HW1 5786   2.308   0.973   3.616
 1629SOL    HW2 5787   2.427   0.873   3.567
 1630SOL     OW 5788   0.700   4.738   5.964
 1630SOL    HW1 5789   0.674   4.793   6.044
 1630SOL    HW2 5790   0.664   4.782   5.881
 1631SOL     OW 5791   0.636   3.035   0.361
 1631SOL    HW1 5792   0.543   3.004   0.379
 1631SOL    HW2 5793   0.640   3.134   0.371
 1632SOL     OW 5794   5.054   2.841   1.856
 1632SOL    HW1 5795   5.049   2.940   1.843
 1632SOL    HW2 5796   4.969   2.808   1.897
 1633SOL     OW 5797   4.950   3.901   4.709
 1633SOL    HW1 5798   5.045   3.883   4.683
 1633SOL    HW2 5799   4.907   3.815   4.738
 1634SOL     OW 5800   4.762   6.146   4.385
 1634SOL    HW1 5801   4.857   6.149   4.416
 1634SOL    HW2 5802   4.716   6.230   4.411
 1635SOL     OW 5803   0.864   5.009   0.121
 1635SOL    HW1 5804   0.799   4.958   0.064
 1635SOL    HW2 5805   0.956   4.972   0.109
 1636SOL     OW 5806   2.794   5.313   1.312
 1636SOL    HW1 5807   2.711   5.337   1.263
 1636SOL    HW2 5808   2.865   5.286   1.247
 1637SOL     OW 5809   6.990   0.419   3.558
 1637SOL    HW1 5810   6.919   0.393   3.492
 1637SOL    HW2 5811   6.972   0.372   3.645
 1638SOL     OW 5812   1.103   3.322   2.504
 1638SOL    HW1 5813   1.194   3.335   2.545
 1638SOL    HW2 5814   1.051   3.407   2.511
 1639SOL     OW 5815   5.494   5.020   1.478
 1639SOL    HW1 5816   5.417   5.073   1.512
 1639SOL    HW2 5817   5.578   5.047   1.525
 1640SOL     OW 5818   5.697   0.705   6.991
 1640SOL    HW1 5819   5.655   0.727   0.052
 1640SOL    HW2 5820   5.794   0.729   6.993
 1641SOL     OW 5821   5.645   1.909   3.559
 1641SOL    HW1 5822   5.639   1.820   3.605
 1641SOL    HW2 5823   5.722   1.961   3.596
 1642SOL     OW 5824   6.312   3.215   0.073
 1642SOL    HW1 5825   6.234   3.176   0.024
 1642SOL    HW2 5826   6.358   3.282   0.014
 1643SOL     OW 5827   2.930   4.756   3.891
 1643SOL    HW1 5828   2.925   4.789   3.797
 1643SOL    HW2 5829   2.904   4.830   3.953
 1644SOL     OW 5830   5.724   3.746   0.319
 1644SOL    HW1 5831   5.696   3.651   0.331
 1644SOL    HW2 5832   5.770   3.757   0.231
 1645SOL     OW 5833   2.436   5.561   6.229
 1645SOL    HW1 5834   2.438   5.480   6.170
 1645SOL    HW2 5835   2.459   5.535   6.322
 1646SOL     OW 5836   3.081   6.912   0.964
 1646SOL    HW1 5837   3.014   6.939   0.895
 1646SOL    HW2 5838   3.041   6.924   1.055
 1647SOL     OW 5839   6.009   2.597   3.847
 1647SOL    HW1 5840   6.002   2.497   3.850
 1647SOL    HW2 5841   5.920   2.636   3.824
 1648SOL     OW 5842   5.120   5.708   0.126
 1648SOL    HW1 5843   5.066   5.791   0.109
 1648SOL    HW2 5844   5.147   5.705   0.222
 1649SOL     OW 5845   3.540   1.920   4.067
 1649SOL    HW1 5846   3.629   1.885   4.039
 1649SOL    HW2 5847   3.494   1.852   4.124
 1650SOL     OW 5848   0.546   6.040   5.411
 1650SOL    HW1 5849   0.624   5.986   5.381
 1650SOL    HW2 5850   0.461   5.997   5.379
 1651SOL     OW 5851   0.360   2.234   2.150
 1651SOL    HW1 5852   0.367   2.306   2.081
 1651SOL    HW2 5853   0.289   2.258   2.216
 1652SOL     OW 5854   1.445   3.027   2.588
 1652SOL    HW1 5855   1.416   2.936   2.558
 1652SOL    HW2 5856   1.402   3.048   2.676
 1653SOL     OW 5857   0.839   6.662   0.207
 1653SOL    HW1 5858   0.820   6.646   0.304
 1653SOL    HW2 5859   0.872   6.578   0.165
 1654SOL     OW 5860   6.906   3.237   1.586
 1654SOL    HW1 5861   6.857   3.305   1.640
 1654SOL    HW2 5862   6.939   3.280   1.502
 1655SOL     OW 5863   0.269   2.352   3.990
 1655SOL    HW1 5864   0.243   2.448   3.983
 1655SOL    HW2 5865   0.294   2.331   4.084
 1656SOL     OW 5866   1.957   5.177   3.027
 1656SOL    HW1 5867   1.906   5.102   3.070
 1656SOL    HW2 5868   2.039   5.140   2.983
 1657SOL     OW 5869   5.821   0.990   4.078
 1657SOL    HW1 5870   5.828   0.995   3.979
 1657SOL    HW2 5871   5.872   0.910   4.111
 1658SOL     OW 5872   6.090   1.192   1.132
 1658SOL    HW1 5873   6.024   1.117   1.138
 1658SOL    HW2 5874   6.168   1.164   1.075
 1659SOL     OW 5875   2.987   0.484   0.247
 1659SOL    HW1 5876   3.075   0.529   0.236
 1659SOL    HW2 5877   2.935   0.491   0.162
 1660SOL     OW 5878   1.869   5.794   2.376
 1660SOL    HW1 5879   1.933   5.765   2.448
 1660SOL    HW2 5880   1.920   5.835   2.301
 1661SOL     OW 5881   2.104   6.681   1.672
 1661SOL    HW1 5882   2.102   6.769   1.624
 1661SOL    HW2 5883   2.104   6.606   1.606
 1662SOL     OW 5884   0.261   1.316   4.499
 1662SOL    HW1 5885   0.222   1.258   4.569
 1662SOL    HW2 5886   0.347   1.276   4.466
 1663SOL     OW 5887   4.501   5.344   3.341
 1663SOL    HW1 5888   4.416   5.379   3.378
 1663SOL    HW2 5889   4.548   5.417   3.291
 1664SOL     OW 5890   2.126   6.094   5.060
 1664SOL    HW1 5891   2.100   6.026   4.992
 1664SOL    HW2 5892   2.054   6.163   5.067
 1665SOL     OW 5893   6.250   3.372   2.615
 1665SOL    HW1 5894   6.162   3.367   2.567
 1665SOL    HW2 5895   6.254   3.455   2.670
 1666SOL     OW 5896   5.375   1.099   6.502
 1666SOL    HW1 5897   5.394   1.001   6.496
 1666SOL    HW2 5898   5.425   1.148   6.431
 1667SOL     OW 5899   0.217   6.302   1.350
 1667SOL    HW1 5900   0.176   6.378   1.301
 1667SOL    HW2 5901   0.263   6.241   1.285
 1668SOL     OW 5902   4.729   5.435   3.811
 1668SOL    HW1 5903   4.662   5.485   3.865
 1668SOL    HW2 5904   4.801   5.400   3.870
 1669SOL     OW 5905   7.013   4.392   6.123
 1669SOL    HW1 5906   6.995   4.486   6.094
 1669SOL    HW2 5907   0.084   4.374   6.119
 1670SOL     OW 5908   6.960   4.528   5.482
 1670SOL    HW1 5909   7.025   4.478   5.540
 1670SOL    HW2 5910   6.867   4.503   5.509
 1671SOL     OW 5911   5.257   1.673   3.349
 1671SOL    HW1 5912   5.240   1.595   3.289
 1671SOL    HW2 5913   5.169   1.713   3.376
 1672SOL     OW 5914   2.455   3.509   1.024
 1672SOL    HW1 5915   2.411   3.463   1.101
 1672SOL    HW2 5916   2.462   3.445   0.947
 1673SOL     OW 5917   1.286   1.822   4.889
 1673SOL    HW1 5918   1.363   1.886   4.892
 1673SOL    HW2 5919   1.271   1.792   4.794
 1674SOL     OW 5920   0.636   3.203   2.344
 1674SOL    HW1 5921   0.680   3.284   2.305
 1674SOL    HW2 5922   0.658   3.197   2.441
 1675SOL     OW 5923   4.654   6.970   6.844
 1675SOL    HW1 5924   4.663   6.871   6.833
 1675SOL    HW2 5925   4.738   7.015   6.813
 1676SOL     OW 5926   2.507   2.660   1.783
 1676SOL    HW1 5927   2.457   2.628   1.864
 1676SOL    HW2 5928   2.567   2.587   1.750
 1677SOL     OW 5929   3.727   3.687   3.874
 1677SOL    HW1 5930   3.801   3.730   3.822
 1677SOL    HW2 5931   3.652   3.753   3.886
 1678SOL     OW 5932   6.680   4.762   2.653
 1678SOL    HW1 5933   6.701   4.750   2.556
 1678SOL    HW2 5934   6.708   4.681   2.704
 1679SOL     OW 5935   2.430   1.227   4.562
 1679SOL    HW1 5936   2.481   1.294   4.616
 1679SOL    HW2 5937   2.419   1.143   4.616
 1680SOL     OW 5938   0.722   3.332   5.437
 1680SOL    HW1 5939   0.666   3.255   5.408
 1680SOL    HW2 5940   0.663   3.411   5.454
 1681SOL     OW 5941   0.599   5.235   6.991
 1681SOL    HW1 5942   0.656   5.283   6.925
 1681SOL    HW2 5943   0.576   5.144   6.956
 1682SOL     OW 5944   1.178   0.568   5.653
 1682SOL    HW1 5945   1.191   0.487   5.596
 1682SOL    HW2 5946   1.100   0.554   5.714
 1683SOL     OW 5947   5.845   5.638   2.693
 1683SOL    HW1 5948   5.802   5.717   2.738
 1683SOL    HW2 5949   5.793   5.614   2.611
 1684SOL     OW 5950   0.483   5.999   2.192
 1684SOL    HW1 5951   0.501   5.917   2.246
 1684SOL    HW2 5952   0.502   5.980   2.096
 1685SOL     OW 5953   1.453   1.161   5.374
 1685SOL    HW1 5954   1.506   1.227   5.321
 1685SOL    HW2 5955   1.468   1.176   5.471
 1686SOL     OW 5956   2.354   6.254   4.231
 1686SOL    HW1 5957   2.402   6.197   4.165
 1686SOL    HW2 5958   2.420   6.298   4.292
 1687SOL     OW 5959   1.544   2.787   1.835
 1687SOL    HW1 5960   1.478   2.722   1.873
 1687SOL    HW2 5961   1.619   2.737   1.792
 1688SOL     OW 5962   2.426   1.890   3.742
 1688SOL    HW1 5963   2.391   1.811   3.792
 1688SOL    HW2 5964   2.518   1.912   3.776
 1689SOL     OW 5965   6.273   0.512   2.851
 1689SOL    HW1 5966   6.370   0.494   2.865
 1689SOL    HW2 5967   6.242   0.580   2.918
 1690SOL     OW 5968   1.582   2.343   4.876
 1690SOL    HW1 5969   1.586   2.285   4.794
 1690SOL    HW2 5970   1.489   2.377   4.888
 1691SOL     OW 5971   5.348   3.042   3.947
 1691SOL    HW1 5972   5.308   2.956   3.977
 1691SOL    HW2 5973   5.326   3.114   4.012
 1692SOL     OW 5974   4.535   6.325   1.175
 1692SOL    HW1 5975   4.595   6.255   1.137
 1692SOL    HW2 5976   4.564   6.347   1.268
 1693SOL     OW 5977   6.745   2.521   2.966
 1693SOL    HW1 5978   6.712   2.533   3.060
 1693SOL    HW2 5979   6.823   2.458   2.967
 1694SOL     OW 5980   6.223   1.926   3.743
 1694SOL    HW1 5981   6.231   1.976   3.829
 1694SOL    HW2 5982   6.190   1.987   3.671
 1695SOL     OW 5983   3.967   0.984   6.309
 1695SOL    HW1 5984   3.878   1.028   6.319
 1695SOL    HW2 5985   3.996   0.946   6.397
 1696SOL     OW 5986   4.106   6.104   1.467
 1696SOL    HW1 5987   4.186   6.069   1.419
 1696SOL    HW2 5988   4.080   6.041   1.540
 1697SOL     OW 5989   6.857   1.531   0.368
 1697SOL    HW1 5990   6.933   1.466   0.368
 1697SOL    HW2 5991   6.893   1.624   0.376
 1698SOL     OW 5992   3.750   6.775   0.704
 1698SOL    HW1 5993   3.660   6.796   0.667
 1698SOL    HW2 5994   3.741   6.713   0.781
 1699SOL     OW 5995   2.633   1.135   6.731
 1699SOL    HW1 5996   2.566   1.069   6.763
 1699SOL    HW2 5997   2.599   1.228   6.747
 1700SOL     OW 5998   5.972   4.420   3.657
 1700SOL    HW1 5999   6.013   4.452   3.742
 1700SOL    HW2 6000   6.045   4.398   3.591
 1701SOL     OW 6001   5.708   5.432   6.499
 1701SOL    HW1 6002   5.662   5.487   6.429
 1701SOL    HW2 6003   5.743   5.348   6.458
 1702SOL     OW 6004   6.542   1.489   0.833
 1702SOL    HW1 6005   6.545   1.549   0.913
 1702SOL    HW2 6006   6.611   1.518   0.767
 1703SOL     OW 6007   3.569   2.213   0.539
 1703SOL    HW1 6008   3.490   2.155   0.520
 1703SOL    HW2 6009   3.604   2.251   0.454
 1704SOL     OW 6010   1.045   2.289   0.301
 1704SOL    HW1 6011   1.121   2.250   0.352
 1704SOL    HW2 6012   1.074   2.308   0.207
 1705SOL     OW 6013   3.215   2.075   1.882
 1705SOL    HW1 6014   3.137   2.062   1.944
 1705SOL    HW2 6015   3.190   2.144   1.813
 1706SOL     OW 6016   5.013   1.592   1.548
 1706SOL    HW1 6017   5.053   1.554   1.464
 1706SOL    HW2 6018   5.065   1.561   1.627
 1707SOL     OW 6019   4.194   1.692   2.983
 1707SOL    HW1 6020   4.237   1.702   2.893
 1707SOL    HW2 6021   4.226   1.764   3.044
 1708SOL     OW 6022   4.883   6.001   1.996
 1708SOL    HW1 6023   4.925   5.998   2.087
 1708SOL    HW2 6024   4.876   6.097   1.967
 1709SOL     OW 6025   3.213   6.693   2.678
 1709SOL    HW1 6026   3.307   6.729   2.679
 1709SOL    HW2 6027   3.160   6.737   2.750
 1710SOL     OW 6028   4.159   4.757   3.000
 1710SOL    HW1 6029   4.137   4.778   3.096
 1710SOL    HW2 6030   4.252   4.723   2.993
 1711SOL     OW 6031   1.753   5.012   4.294
 1711SOL    HW1 6032   1.812   5.081   4.250
 1711SOL    HW2 6033   1.810   4.937   4.329
 1712SOL     OW 6034   6.445   2.342   4.441
 1712SOL    HW1 6035   6.450   2.344   4.341
 1712SOL    HW2 6036   6.464   2.249   4.473
 1713SOL     OW 6037   4.622   2.558   2.061
 1713SOL    HW1 6038   4.658   2.633   2.005
 1713SOL    HW2 6039   4.611   2.589   2.155
 1714SOL     OW 6040   3.611   1.540   6.306
 1714SOL    HW1 6041   3.666   1.480   6.249
 1714SOL    HW2 6042   3.591   1.624   6.257
 1715SOL     OW 6043   2.281   6.133   3.445
 1715SOL    HW1 6044   2.261   6.037   3.423
 1715SOL    HW2 6045   2.348   6.136   3.519
 1716SOL     OW 6046   3.793   6.979   3.575
 1716SOL    HW1 6047   3.839   0.025   3.625
 1716SOL    HW2 6048   3.769   6.906   3.638
 1717SOL     OW 6049   3.635   5.843   4.831
 1717SOL    HW1 6050   3.664   5.794   4.749
 1717SOL    HW2 6051   3.604   5.935   4.806
 1718SOL     OW 6052   3.158   1.663   2.087
 1718SOL    HW1 6053   3.232   1.670   2.154
 1718SOL    HW2 6054   3.196   1.634   1.999
 1719SOL     OW 6055   1.767   3.108   0.777
 1719SOL    HW1 6056   1.817   3.194   0.789
 1719SOL    HW2 6057   1.811   3.036   0.832
 1720SOL     OW 6058   6.895   3.050   6.752
 1720SOL    HW1 6059   6.891   2.951   6.735
 1720SOL    HW2 6060   6.843   3.071   6.835
 1721SOL     OW 6061   2.072   6.735   1.290
 1721SOL    HW1 6062   2.165   6.699   1.302
 1721SOL    HW2 6063   2.062   6.771   1.197
 1722SOL     OW 6064   3.260   1.561   3.882
 1722SOL    HW1 6065   3.303   1.532   3.968
 1722SOL    HW2 6066   3.322   1.622   3.833
 1723SOL     OW 6067   5.868   2.332   6.741
 1723SOL    HW1 6068   5.826   2.322   6.651
 1723SOL    HW2 6069   5.846   2.421   6.779
 1724SOL     OW 6070   0.530   2.932   2.289
 1724SOL    HW1 6071   0.530   3.032   2.296
 1724SOL    HW2 6072   0.573   2.904   2.203
 1725SOL     OW 6073   1.627   5.134   6.136
 1725SOL    HW1 6074   1.582   5.220   6.113
 1725SOL    HW2 6075   1.608   5.066   6.065
 1726SOL     OW 6076   5.708   4.027   4.612
 1726SOL    HW1 6077   5.806   4.007   4.609
 1726SOL    HW2 6078   5.689   4.082   4.694
 1727SOL     OW 6079   3.992   3.141   3.926
 1727SOL    HW1 6080   3.910   3.099   3.887
 1727SOL    HW2 6081   4.027   3.210   3.863
 1728SOL     OW 6082   5.838   5.264   5.226
 1728SOL    HW1 6083   5.878   5.243   5.315
 1728SOL    HW2 6084   5.744   5.296   5.238
 1729SOL     OW 6085   2.092   3.692   2.793
 1729SOL    HW1 6086   2.131   3.781   2.817
 1729SOL    HW2 6087   2.105   3.675   2.695
 1730SOL     OW 6088   2.292   0.551   5.459
 1730SOL    HW1 6089   2.269   0.642   5.424
 1730SOL    HW2 6090   2.208   0.502   5.482
 1731SOL     OW 6091   0.343   4.346   3.834
 1731SOL    HW1 6092   0.436   4.348   3.797
 1731SOL    HW2 6093   0.346   4.358   3.933
 1732SOL     OW 6094   2.511   5.036   6.047
 1732SOL    HW1 6095   2.459   4.992   5.974
 1732SOL    HW2 6096   2.545   4.967   6.111
 1733SOL     OW 6097   1.656   4.033   1.211
 1733SOL    HW1 6098   1.693   3.941   1.196
 1733SOL    HW2 6099   1.684   4.093   1.136
 1734SOL     OW 6100   4.840   2.870   1.018
 1734SOL    HW1 6101   4.908   2.940   0.997
 1734SOL    HW2 6102   4.757   2.886   0.965
 1735SOL     OW 6103   4.467   5.709   6.546
 1735SOL    HW1 6104   4.498   5.674   6.457
 1735SOL    HW2 6105   4.368   5.718   6.546
 1736SOL     OW 6106   3.736   3.981   1.226
 1736SOL    HW1 6107   3.766   3.904   1.171
 1736SOL    HW2 6108   3.768   3.969   1.320
 1737SOL     OW 6109   4.580   0.309   4.588
 1737SOL    HW1 6110   4.521   0.367   4.532
 1737SOL    HW2 6111   4.597   0.354   4.676
 1738SOL     OW 6112   2.286   2.576   4.704
 1738SOL    HW1 6113   2.205   2.614   4.749
 1738SOL    HW2 6114   2.352   2.545   4.773
 1739SOL     OW 6115   6.779   1.936   4.800
 1739SOL    HW1 6116   6.722   1.926   4.881
 1739SOL    HW2 6117   6.772   1.853   4.744
 1740SOL     OW 6118   0.092   2.373   4.823
 1740SOL    HW1 6119   0.169   2.319   4.790
 1740SOL    HW2 6120   0.120   2.469   4.830
 1741SOL     OW 6121   2.754   0.409   4.536
 1741SOL    HW1 6122   2.786   0.415   4.630
 1741SOL    HW2 6123   2.686   0.336   4.529
 1742SOL     OW 6124   6.126   0.578   5.300
 1742SOL    HW1 6125   6.059   0.529   5.243
 1742SOL    HW2 6126   6.217   0.565   5.261
 1743SOL     OW 6127   0.634   1.789   2.338
 1743SOL    HW1 6128   0.601   1.761   2.247
 1743SOL    HW2 6129   0.677   1.879   2.331
 1744SOL     OW 6130   6.683   3.444   3.547
 1744SOL    HW1 6131   6.677   3.540   3.572
 1744SOL    HW2 6132   6.591   3.405   3.542
 1745SOL     OW 6133   5.449   5.974   2.652
 1745SOL    HW1 6134   5.430   6.065   2.616
 1745SOL    HW2 6135   5.364   5.922   2.658
 1746SOL     OW 6136   1.406   4.421   3.978
 1746SOL    HW1 6137   1.309   4.429   3.999
 1746SOL    HW2 6138   1.418   4.420   3.879
 1747SOL     OW 6139   4.555   1.432   2.854
 1747SOL    HW1 6140   4.573   1.374   2.934
 1747SOL    HW2 6141   4.474   1.398   2.806
 1748SOL     OW 6142   6.941   2.026   4.499
 1748SOL    HW1 6143   6.855   2.052   4.543
 1748SOL    HW2 6144   6.924   2.005   4.403
 1749SOL     OW 6145   2.297   6.828   5.778
 1749SOL    HW1 6146   2.335   6.913   5.814
 1749SOL    HW2 6147   2.369   6.759   5.771
 1750SOL     OW 6148   5.357   6.977   3.693
 1750SOL    HW1 6149   5.269   7.024   3.692
 1750SOL    HW2 6150   5.349   6.893   3.746
 1751SOL     OW 6151   4.750   2.016   4.558
 1751SOL    HW1 6152   4.699   2.091   4.600
 1751SOL    HW2 6153   4.728   1.931   4.605
 1752SOL     OW 6154   6.068   1.037   2.051
 1752SOL    HW1 6155   6.156   1.048   2.004
 1752SOL    HW2 6156   6.081   1.050   2.149
 1753SOL     OW 6157   6.699   0.603   1.623
 1753SOL    HW1 6158   6.617   0.546   1.620
 1753SOL    HW2 6159   6.709   0.642   1.714
 1754SOL     OW 6160   1.843   4.922   6.592
 1754SOL    HW1 6161   1.843   4.958   6.499
 1754SOL    HW2 6162   1.927   4.870   6.607
 1755SOL     OW 6163   0.157   5.186   0.157
 1755SOL    HW1 6164   0.221   5.115   0.129
 1755SOL    HW2 6165   0.150   5.255   0.085
 1756SOL     OW 6166   4.195   5.634   5.245
 1756SOL    HW1 6167   4.161   5.647   5.338
 1756SOL    HW2 6168   4.123   5.591   5.189
 1757SOL     OW 6169   3.290   5.337   5.025
 1757SOL    HW1 6170   3.289   5.364   5.122
 1757SOL    HW2 6171   3.346   5.402   4.973
 1758SOL     OW 6172   1.956   1.211   4.432
 1758SOL    HW1 6173   1.909   1.261   4.360
 1758SOL    HW2 6174   2.033   1.266   4.465
 1759SOL     OW 6175   2.629   6.165   5.494
 1759SOL    HW1 6176   2.643   6.156   5.593
 1759SOL    HW2 6177   2.577   6.248   5.475
 1760SOL     OW 6178   6.006   1.039   3.833
 1760SOL    HW1 6179   6.078   1.097   3.793
 1760SOL    HW2 6180   5.926   1.095   3.854
 1761SOL     OW 6181   0.531   1.404   1.757
 1761SOL    HW1 6182   0.495   1.360   1.839
 1761SOL    HW2 6183   0.505   1.500   1.756
 1762SOL     OW 6184   0.086   1.252   4.685
 1762SOL    HW1 6185   0.083   1.236   4.784
 1762SOL    HW2 6186   0.048   1.173   4.637
 1763SOL     OW 6187   0.864   4.790   4.031
 1763SOL    HW1 6188   0.899   4.775   4.124
 1763SOL    HW2 6189   0.764   4.783   4.032
 1764SOL     OW 6190   1.942   3.125   1.882
 1764SOL    HW1 6191   1.875   3.131   1.956
 1764SOL    HW2 6192   1.973   3.217   1.858
 1765SOL     OW 6193   3.659   0.757   1.645
 1765SOL    HW1 6194   3.562   0.780   1.645
 1765SOL    HW2 6195   3.671   0.664   1.680
 1766SOL     OW 6196   5.831   4.716   3.863
 1766SOL    HW1 6197   5.822   4.799   3.808
 1766SOL    HW2 6198   5.766   4.718   3.938
 1767SOL     OW 6199   0.773   4.151   3.688
 1767SOL    HW1 6200   0.709   4.078   3.710
 1767SOL    HW2 6201   0.729   4.240   3.704
 1768SOL     OW 6202   3.021   0.859   6.982
 1768SOL    HW1 6203   3.102   0.807   6.956
 1768SOL    HW2 6204   2.940   0.802   6.972
 1769SOL     OW 6205   5.489   1.484   6.615
 1769SOL    HW1 6206   5.498   1.414   6.545
 1769SOL    HW2 6207   5.553   1.559   6.596
 1770SOL     OW 6208   6.830   4.810   4.928
 1770SOL    HW1 6209   6.786   4.848   5.009
 1770SOL    HW2 6210   6.854   4.885   4.865
 1771SOL     OW 6211   1.699   5.146   0.642
 1771SOL    HW1 6212   1.758   5.153   0.561
 1771SOL    HW2 6213   1.640   5.066   0.634
 1772SOL     OW 6214   3.927   5.878   3.555
 1772SOL    HW1 6215   3.974   5.799   3.516
 1772SOL    HW2 6216   3.829   5.857   3.566
 1773SOL     OW 6217   2.392   2.274   5.956
 1773SOL    HW1 6218   2.378   2.282   5.857
 1773SOL    HW2 6219   2.312   2.231   5.997
 1774SOL     OW 6220   5.506   6.745   1.331
 1774SOL    HW1 6221   5.474   6.651   1.314
 1774SOL    HW2 6222   5.606   6.745   1.338
 1775SOL     OW 6223   1.759   5.451   6.088
 1775SOL    HW1 6224   1.805   5.440   6.000
 1775SOL    HW2 6225   1.663   5.426   6.079
 1776SOL     OW 6226   5.180   0.572   6.130
 1776SOL    HW1 6227   5.213   0.574   6.224
 1776SOL    HW2 6228   5.083   0.550   6.129
 1777SOL     OW 6229   2.879   6.756   6.648
 1777SOL    HW1 6230   2.973   6.727   6.667
 1777SOL    HW2 6231   2.870   6.773   6.549
 1778SOL     OW 6232   4.844   2.262   4.283
 1778SOL    HW1 6233   4.867   2.359   4.282
 1778SOL    HW2 6234   4.913   2.211   4.334
 1779SOL     OW 6235   5.278   1.036   5.641
 1779SOL    HW1 6236   5.217   1.114   5.657
 1779SOL    HW2 6237   5.223   0.955   5.618
 1780SOL     OW 6238   1.663   3.401   6.001
 1780SOL    HW1 6239   1.746   3.417   6.055
 1780SOL    HW2 6240   1.588   3.453   6.040
 1781SOL     OW 6241   5.524   6.477   4.864
 1781SOL    HW1 6242   5.566   6.402   4.811
 1781SOL    HW2 6243   5.433   6.496   4.826
 1782SOL     OW 6244   2.196   1.007   2.957
 1782SOL    HW1 6245   2.142   0.929   2.925
 1782SOL    HW2 6246   2.258   1.036   2.884
 1783SOL     OW 6247   3.301   3.731   6.404
 1783SOL    HW1 6248   3.295   3.635   6.432
 1783SOL    HW2 6249   3.394   3.764   6.417
 1784SOL     OW 6250   2.368   1.446   1.149
 1784SOL    HW1 6251   2.339   1.489   1.064
 1784SOL    HW2 6252   2.439   1.378   1.130
 1785SOL     OW 6253   6.086   6.735   3.938
 1785SOL    HW1 6254   6.155   6.663   3.946
 1785SOL    HW2 6255   5.995   6.693   3.933
 1786SOL     OW 6256   2.437   4.820   0.103
 1786SOL    HW1 6257   2.403   4.788   0.014
 1786SOL    HW2 6258   2.391   4.905   0.127
 1787SOL     OW 6259   2.728   1.848   6.337
 1787SOL    HW1 6260   2.646   1.791   6.325
 1787SOL    HW2 6261   2.699   1.943   6.355
 1788SOL     OW 6262   4.653   3.976   6.672
 1788SOL    HW1 6263   4.612   4.066   6.657
 1788SOL    HW2 6264   4.660   3.927   6.585
 1789SOL     OW 6265   5.878   2.949   1.602
 1789SOL    HW1 6266   5.874   2.884   1.526
 1789SOL    HW2 6267   5.787   2.957   1.643
 1790SOL     OW 6268   2.948   1.091   4.586
 1790SOL    HW1 6269   2.931   1.077   4.684
 1790SOL    HW2 6270   3.022   1.032   4.556
 1791SOL     OW 6271   6.432   1.458   3.245
 1791SOL    HW1 6272   6.530   1.472   3.229
 1791SOL    HW2 6273   6.379   1.508   3.176
 1792SOL     OW 6274   0.042   1.492   4.558
 1792SOL    HW1 6275   0.075   1.398   4.564
 1792SOL    HW2 6276   0.044   1.533   4.650
 1793SOL     OW 6277   6.772   2.034   4.262
 1793SOL    HW1 6278   6.789   2.057   4.166
 1793SOL    HW2 6279   6.674   2.035   4.280
 1794SOL     OW 6280   5.327   6.821   5.321
 1794SOL    HW1 6281   5.300   6.735   5.279
 1794SOL    HW2 6282   5.260   6.848   5.390
 1795SOL     OW 6283   6.881   5.125   1.961
 1795SOL    HW1 6284   6.787   5.094   1.973
 1795SOL    HW2 6285   6.917   5.159   2.048
 1796SOL     OW 6286   2.550   1.721   5.983
 1796SOL    HW1 6287   2.616   1.789   6.016
 1796SOL    HW2 6288   2.559   1.638   6.037
 1797SOL     OW 6289   1.089   6.829   5.713
 1797SOL    HW1 6290   1.087   6.751   5.776
 1797SOL    HW2 6291   1.107   6.796   5.620
 1798SOL     OW 6292   3.498   3.247   5.093
 1798SOL    HW1 6293   3.498   3.235   4.994
 1798SOL    HW2 6294   3.579   3.300   5.120
 1799SOL     OW 6295   4.814   2.888   6.594
 1799SOL    HW1 6296   4.908   2.899   6.625
 1799SOL    HW2 6297   4.751   2.901   6.671
 1800SOL     OW 6298   4.892   5.050   3.814
 1800SOL    HW1 6299   4.861   5.094   3.730
 1800SOL    HW2 6300   4.969   5.102   3.851
 1801SOL     OW 6301   0.872   1.655   2.475
 1801SOL    HW1 6302   0.801   1.725   2.464
 1801SOL    HW2 6303   0.851   1.576   2.418
 1802SOL     OW 6304   6.247   6.248   3.496
 1802SOL    HW1 6305   6.167   6.198   3.464
 1802SOL    HW2 6306   6.318   6.183   3.522
 1803SOL     OW 6307   0.282   6.969   1.941
 1803SOL    HW1 6308   0.342   0.001   1.994
 1803SOL    HW2 6309   0.337   6.907   1.886
 1804SOL     OW 6310   3.984   3.236   4.923
 1804SOL    HW1 6311   3.890   3.272   4.918
 1804SOL    HW2 6312   4.042   3.302   4.971
 1805SOL     OW 6313   0.267   5.390   6.046
 1805SOL    HW1 6314   0.295   5.325   6.116
 1805SOL    HW2 6315   0.344   5.409   5.986
 1806SOL     OW 6316   0.622   2.566   1.678
 1806SOL    HW1 6317   0.571   2.652   1.667
 1806SOL    HW2 6318   0.707   2.584   1.727
 1807SOL     OW 6319   6.275   2.580   6.275
 1807SOL    HW1 6320   6.315   2.603   6.187
 1807SOL    HW2 6321   6.347   2.581   6.345
 1808SOL     OW 6322   5.993   4.136   4.383
 1808SOL    HW1 6323   6.009   4.062   4.449
 1808SOL    HW2 6324   5.931   4.104   4.311
 1809SOL     OW 6325   3.060   2.098   5.501
 1809SOL    HW1 6326   2.981   2.075   5.558
 1809SOL    HW2 6327   3.067   2.198   5.493
 1810SOL     OW 6328   0.782   0.560   5.123
 1810SOL    HW1 6329   0.761   0.466   5.096
 1810SOL    HW2 6330   0.880   0.578   5.108
 1811SOL     OW 6331   5.506   4.769   2.021
 1811SOL    HW1 6332   5.408   4.752   2.035
 1811SOL    HW2 6333   5.536   4.725   1.937
 1812SOL     OW 6334   4.188   6.625   6.508
 1812SOL    HW1 6335   4.196   6.658   6.414
 1812SOL    HW2 6336   4.092   6.606   6.528
 1813SOL     OW 6337   5.412   5.125   2.344
 1813SOL    HW1 6338   5.377   5.216   2.369
 1813SOL    HW2 6339   5.370   5.056   2.403
 1814SOL     OW 6340   5.785   0.474   0.373
 1814SOL    HW1 6341   5.700   0.525   0.371
 1814SOL    HW2 6342   5.767   0.377   0.358
 1815SOL     OW 6343   6.399   0.158   2.911
 1815SOL    HW1 6344   6.318   0.148   2.969
 1815SOL    HW2 6345   6.395   0.245   2.862
 1816SOL     OW 6346   3.478   4.944   6.467
 1816SOL    HW1 6347   3.401   4.935   6.404
 1816SOL    HW2 6348   3.548   4.875   6.445
 1817SOL     OW 6349   3.197   0.749   3.106
 1817SOL    HW1 6350   3.148   0.782   3.187
 1817SOL    HW2 6351   3.166   0.801   3.026
 1818SOL     OW 6352   1.786   0.273   0.153
 1818SOL    HW1 6353   1.749   0.288   0.245
 1818SOL    HW2 6354   1.782   0.358   0.102
 1819SOL     OW 6355   1.692   5.307   2.092
 1819SOL    HW1 6356   1.629   5.332   2.019
 1819SOL    HW2 6357   1.754   5.235   2.060
 1820SOL     OW 6358   2.885   0.240   2.360
 1820SOL    HW1 6359   2.890   0.147   2.325
 1820SOL    HW2 6360   2.866   0.303   2.284
 1821SOL     OW 6361   2.657   1.059   1.969
 1821SOL    HW1 6362   2.729   1.009   2.019
 1821SOL    HW2 6363   2.667   1.157   1.986
 1822SOL     OW 6364   0.993   3.473   1.743
 1822SOL    HW1 6365   1.071   3.511   1.791
 1822SOL    HW2 6366   1.010   3.376   1.722
 1823SOL     OW 6367   2.816   5.989   3.090
 1823SOL    HW1 6368   2.736   5.971   3.033
 1823SOL    HW2 6369   2.895   6.009   3.032
 1824SOL     OW 6370   4.132   4.282   0.254
 1824SOL    HW1 6371   4.232   4.271   0.253
 1824SOL    HW2 6372   4.109   4.379   0.258
 1825SOL     OW 6373   0.656   3.114   4.407
 1825SOL    HW1 6374   0.740   3.158   4.376
 1825SOL    HW2 6375   0.677   3.047   4.477
 1826SOL     OW 6376   3.249   0.954   0.987
 1826SOL    HW1 6377   3.157   0.990   1.004
 1826SOL    HW2 6378   3.268   0.958   0.889
 1827SOL     OW 6379   5.614   5.288   1.092
 1827SOL    HW1 6380   5.557   5.370   1.089
 1827SOL    HW2 6381   5.568   5.217   1.145
 1828SOL     OW 6382   1.609   2.695   6.488
 1828SOL    HW1 6383   1.606   2.777   6.431
 1828SOL    HW2 6384   1.516   2.667   6.511
 1829SOL     OW 6385   3.528   6.980   3.432
 1829SOL    HW1 6386   3.627   6.983   3.446
 1829SOL    HW2 6387   3.507   6.917   3.357
 1830SOL     OW 6388   5.744   6.708   4.548
 1830SOL    HW1 6389   5.767   6.752   4.461
 1830SOL    HW2 6390   5.721   6.777   4.616
 1831SOL     OW 6391   5.004   6.175   3.007
 1831SOL    HW1 6392   5.088   6.174   3.062
 1831SOL    HW2 6393   4.995   6.087   2.960
 1832SOL     OW 6394   3.888   2.571   0.180
 1832SOL    HW1 6395   3.813   2.579   0.114
 1832SOL    HW2 6396   3.941   2.656   0.181
 1833SOL     OW 6397   5.078   0.412   1.402
 1833SOL    HW1 6398   5.045   0.483   1.339
 1833SOL    HW2 6399   5.095   0.328   1.351
 1834SOL     OW 6400   2.169   3.780   1.117
 1834SOL    HW1 6401   2.261   3.760   1.150
 1834SOL    HW2 6402   2.113   3.698   1.125
 1835SOL     OW 6403   0.889   4.537   1.734
 1835SOL    HW1 6404   0.827   4.493   1.668
 1835SOL    HW2 6405   0.921   4.468   1.799
 1836SOL     OW 6406   5.684   2.451   2.128
 1836SOL    HW1 6407   5.683   2.469   2.030
 1836SOL    HW2 6408   5.639   2.527   2.177
 1837SOL     OW 6409   1.358   7.002   5.971
 1837SOL    HW1 6410   1.442   0.004   5.924
 1837SOL    HW2 6411   1.353   6.902   5.971
 1838SOL     OW 6412   5.584   0.322   6.350
 1838SOL    HW1 6413   5.658   0.347   6.288
 1838SOL    HW2 6414   5.599   0.363   6.439
 1839SOL     OW 6415   6.049   0.746   5.923
 1839SOL    HW1 6416   6.093   0.791   5.845
 1839SOL    HW2 6417   6.103   0.760   6.005
 1840SOL     OW 6418   3.823   0.178   2.446
 1840SOL    HW1 6419   3.809   0.161   2.543
 1840SOL    HW2 6420   3.772   0.259   2.418
 1841SOL     OW 6421   2.001   0.346   2.948
 1841SOL    HW1 6422   2.081   0.286   2.945
 1841SOL    HW2 6423   1.972   0.367   2.855
 1842SOL     OW 6424   0.823   5.544   0.865
 1842SOL    HW1 6425   0.758   5.468   0.861
 1842SOL    HW2 6426   0.870   5.544   0.954
 1843SOL     OW 6427   5.332   0.333   4.201
 1843SOL    HW1 6428   5.369   0.379   4.282
 1843SOL    HW2 6429   5.261   0.390   4.160
 1844SOL     OW 6430   3.876   1.041   5.208
 1844SOL    HW1 6431   3.896   1.105   5.282
 1844SOL    HW2 6432   3.935   1.061   5.130
 1845SOL     OW 6433   2.993   6.947   3.993
 1845SOL    HW1 6434   2.933   7.022   4.020
 1845SOL    HW2 6435   3.059   6.929   4.066
 1846SOL     OW 6436   4.475   1.232   3.406
 1846SOL    HW1 6437   4.500   1.275   3.319
 1846SOL    HW2 6438   4.451   1.136   3.390
 1847SOL     OW 6439   1.317   7.020   5.455
 1847SOL    HW1 6440   1.295   0.012   5.551
 1847SOL    HW2 6441   1.241   0.021   5.397
 1848SOL     OW 6442   1.574   6.112   4.130
 1848SOL    HW1 6443   1.522   6.152   4.055
 1848SOL    HW2 6444   1.672   6.121   4.112
 1849SOL     OW 6445   4.305   2.546   1.005
 1849SOL    HW1 6446   4.275   2.457   1.041
 1849SOL    HW2 6447   4.399   2.563   1.033
 1850SOL     OW 6448   5.872   1.724   2.686
 1850SOL    HW1 6449   5.778   1.737   2.715
 1850SOL    HW2 6450   5.880   1.638   2.636
 1851SOL     OW 6451   1.375   3.745   6.989
 1851SOL    HW1 6452   1.280   3.748   7.018
 1851SOL    HW2 6453   1.399   3.651   6.961
 1852SOL     OW 6454   0.441   4.878   2.515
 1852SOL    HW1 6455   0.477   4.800   2.464
 1852SOL    HW2 6456   0.368   4.922   2.463
 1853SOL     OW 6457   0.042   2.743   3.207
 1853SOL    HW1 6458   0.019   2.826   3.155
 1853SOL    HW2 6459   0.109   2.689   3.155
 1854SOL     OW 6460   1.972   4.737   2.533
 1854SOL    HW1 6461   1.996   4.746   2.629
 1854SOL    HW2 6462   1.961   4.641   2.509
 1855SOL     OW 6463   4.871   3.165   5.710
 1855SOL    HW1 6464   4.968   3.174   5.731
 1855SOL    HW2 6465   4.823   3.127   5.790
 1856SOL     OW 6466   3.858   3.080   6.402
 1856SOL    HW1 6467   3.822   2.991   6.429
 1856SOL    HW2 6468   3.934   3.106   6.462
 1857SOL     OW 6469   4.345   1.498   0.393
 1857SOL    HW1 6470   4.437   1.461   0.408
 1857SOL    HW2 6471   4.278   1.437   0.434
 1858SOL     OW 6472   5.475   2.517   3.456
 1858SOL    HW1 6473   5.435   2.425   3.460
 1858SOL    HW2 6474   5.426   2.571   3.388
 1859SOL     OW 6475   4.740   1.831   3.470
 1859SOL    HW1 6476   4.790   1.751   3.502
 1859SOL    HW2 6477   4.697   1.811   3.382
 1860SOL     OW 6478   0.321   1.703   5.917
 1860SOL    HW1 6479   0.376   1.702   5.833
 1860SOL    HW2 6480   0.233   1.658   5.900
 1861SOL     OW 6481   4.707   1.086   3.093
 1861SOL    HW1 6482   4.720   1.059   2.997
 1861SOL    HW2 6483   4.727   1.183   3.103
 1862SOL     OW 6484   1.603   6.646   6.803
 1862SOL    HW1 6485   1.632   6.566   6.856
 1862SOL    HW2 6486   1.517   6.626   6.756
 1863SOL     OW 6487   6.801   2.975   1.615
 1863SOL    HW1 6488   6.785   2.965   1.713
 1863SOL    HW2 6489   6.840   3.066   1.597
 1864SOL     OW 6490   3.877   5.916   4.113
 1864SOL    HW1 6491   3.888   6.011   4.144
 1864SOL    HW2 6492   3.921   5.854   4.178
 1865SOL     OW 6493   3.472   1.034   1.149
 1865SOL    HW1 6494   3.538   0.967   1.113
 1865SOL    HW2 6495   3.391   1.036   1.090
 1866SOL     OW 6496   6.658   4.875   3.941
 1866SOL    HW1 6497   6.638   4.940   4.014
 1866SOL    HW2 6498   6.671   4.925   3.855
 1867SOL     OW 6499   2.310   3.377   1.623
 1867SOL    HW1 6500   2.234   3.417   1.571
 1867SOL    HW2 6501   2.314   3.418   1.714
 1868SOL     OW 6502   5.106   3.544   6.180
 1868SOL    HW1 6503   5.123   3.509   6.272
 1868SOL    HW2 6504   5.058   3.474   6.126
 1869SOL     OW 6505   6.282   3.555   4.414
 1869SOL    HW1 6506   6.322   3.580   4.326
 1869SOL    HW2 6507   6.315   3.465   4.441
 1870SOL     OW 6508   1.189   2.839   4.883
 1870SOL    HW1 6509   1.266   2.830   4.819
 1870SOL    HW2 6510   1.159   2.747   4.911
 1871SOL     OW 6511   6.183   6.769   0.312
 1871SOL    HW1 6512   6.197   6.865   0.337
 1871SOL    HW2 6513   6.260   6.738   0.257
 1872SOL     OW 6514   4.112   2.101   0.573
 1872SOL    HW1 6515   4.021   2.115   0.612
 1872SOL    HW2 6516   4.178   2.160   0.620
 1873SOL     OW 6517   6.518   0.639   5.444
 1873SOL    HW1 6518   6.571   0.567   5.489
 1873SOL    HW2 6519   6.581   0.700   5.396
 1874SOL     OW 6520   0.969   0.500   6.793
 1874SOL    HW1 6521   1.052   0.543   6.830
 1874SOL    HW2 6522   0.919   0.566   6.738
 1875SOL     OW 6523   6.341   6.591   0.666
 1875SOL    HW1 6524   6.313   6.569   0.573
 1875SOL    HW2 6525   6.441   6.589   0.672
 1876SOL     OW 6526   4.883   6.269   6.394
 1876SOL    HW1 6527   4.811   6.300   6.456
 1876SOL    HW2 6528   4.934   6.348   6.359
 1877SOL     OW 6529   0.789   1.551   3.448
 1877SOL    HW1 6530   0.776   1.499   3.533
 1877SOL    HW2 6531   0.774   1.648   3.466
 1878SOL     OW 6532   0.015   4.246   3.841
 1878SOL    HW1 6533   7.010   4.202   3.757
 1878SOL    HW2 6534   0.113   4.265   3.832
 1879SOL     OW 6535   2.620   5.672   3.645
 1879SOL    HW1 6536   2.580   5.712   3.728
 1879SOL    HW2 6537   2.576   5.584   3.626
 1880SOL     OW 6538   0.825   2.495   3.328
 1880SOL    HW1 6539   0.835   2.594   3.328
 1880SOL    HW2 6540   0.884   2.455   3.257
 1881SOL     OW 6541   1.102   1.678   3.418
 1881SOL    HW1 6542   1.086   1.718   3.508
 1881SOL    HW2 6543   1.027   1.617   3.395
 1882SOL     OW 6544   0.976   5.260   0.025
 1882SOL    HW1 6545   0.975   5.271   6.953
 1882SOL    HW2 6546   0.930   5.175   0.049
 1883SOL     OW 6547   0.808   3.560   3.699
 1883SOL    HW1 6548   0.738   3.592   3.635
 1883SOL    HW2 6549   0.785   3.468   3.731
 1884SOL     OW 6550   5.578   1.672   1.136
 1884SOL    HW1 6551   5.623   1.733   1.202
 1884SOL    HW2 6552   5.617   1.581   1.144
 1885SOL     OW 6553   0.032   2.137   0.538
 1885SOL    HW1 6554   0.051   2.234   0.527
 1885SOL    HW2 6555   6.972   2.125   0.586
 1886SOL     OW 6556   1.734   1.875   0.096
 1886SOL    HW1 6557   1.656   1.933   0.122
 1886SOL    HW2 6558   1.811   1.895   0.156
 1887SOL     OW 6559   0.713   4.028   5.979
 1887SOL    HW1 6560   0.735   3.960   5.909
 1887SOL    HW2 6561   0.614   4.042   5.982
 1888SOL     OW 6562   2.086   1.823   6.347
 1888SOL    HW1 6563   2.070   1.783   6.438
 1888SOL    HW2 6564   2.168   1.879   6.349
 1889SOL     OW 6565   4.469   3.691   6.434
 1889SOL    HW1 6566   4.483   3.602   6.391
 1889SOL    HW2 6567   4.371   3.711   6.438
 1890SOL     OW 6568   1.428   5.796   5.967
 1890SOL    HW1 6569   1.409   5.825   5.873
 1890SOL    HW2 6570   1.523   5.816   5.990
 1891SOL     OW 6571   5.309   3.151   4.195
 1891SOL    HW1 6572   5.388   3.089   4.198
 1891SOL    HW2 6573   5.235   3.112   4.249
 1892SOL     OW 6574   3.659   6.614   0.923
 1892SOL    HW1 6575   3.595   6.629   0.998
 1892SOL    HW2 6576   3.622   6.547   0.860
 1893SOL     OW 6577   3.749   2.091   5.048
 1893SOL    HW1 6578   3.752   2.142   5.133
 1893SOL    HW2 6579   3.654   2.081   5.018
 1894SOL     OW 6580   4.490   3.515   1.267
 1894SOL    HW1 6581   4.546   3.434   1.279
 1894SOL    HW2 6582   4.398   3.498   1.303
 1895SOL     OW 6583   5.885   0.735   2.835
 1895SOL    HW1 6584   5.876   0.654   2.893
 1895SOL    HW2 6585   5.956   0.719   2.767
 1896SOL     OW 6586   0.054   0.986   3.125
 1896SOL    HW1 6587   0.044   0.964   3.222
 1896SOL    HW2 6588   6.993   0.977   3.079
 1897SOL     OW 6589   6.994   5.497   3.177
 1897SOL    HW1 6590   6.900   5.498   3.142
 1897SOL    HW2 6591   0.007   5.406   3.163
 1898SOL     OW 6592   3.700   6.129   1.769
 1898SOL    HW1 6593   3.630   6.193   1.802
 1898SOL    HW2 6594   3.730   6.156   1.678
 1899SOL     OW 6595   1.220   2.688   2.705
 1899SOL    HW1 6596   1.242   2.707   2.609
 1899SOL    HW2 6597   1.298   2.712   2.763
 1900SOL     OW 6598   0.958   0.382   5.756
 1900SOL    HW1 6599   1.021   0.365   5.680
 1900SOL    HW2 6600   0.894   0.305   5.765
 1901SOL     OW 6601   2.174   1.437   1.337
 1901SOL    HW1 6602   2.107   1.364   1.325
 1901SOL    HW2 6603   2.243   1.431   1.264
 1902SOL     OW 6604   2.157   2.279   4.907
 1902SOL    HW1 6605   2.222   2.291   4.833
 1902SOL    HW2 6606   2.166   2.187   4.945
 1903SOL     OW 6607   0.017   3.878   3.861
 1903SOL    HW1 6608   0.090   3.903   3.924
 1903SOL    HW2 6609   0.026   3.931   3.776
 1904SOL     OW 6610   6.485   0.456   4.173
 1904SOL    HW1 6611   6.447   0.489   4.087
 1904SOL    HW2 6612   6.506   0.535   4.232
 1905SOL     OW 6613   0.414   1.996   3.954
 1905SOL    HW1 6614   0.466   2.077   3.981
 1905SOL    HW2 6615   0.449   1.917   4.005
 1906SOL     OW 6616   2.468   6.636   5.777
 1906SOL    HW1 6617   2.430   6.544   5.773
 1906SOL    HW2 6618   2.515   6.656   5.691
 1907SOL     OW 6619   3.020   6.588   3.159
 1907SOL    HW1 6620   3.051   6.498   3.190
 1907SOL    HW2 6621   3.076   6.617   3.081
 1908SOL     OW 6622   4.695   0.967   4.798
 1908SOL    HW1 6623   4.700   1.040   4.730
 1908SOL    HW2 6624   4.711   0.879   4.753
 1909SOL     OW 6625   1.852   3.883   2.859
 1909SOL    HW1 6626   1.948   3.859   2.844
 1909SOL    HW2 6627   1.807   3.811   2.912
 1910SOL     OW 6628   6.099   2.395   6.601
 1910SOL    HW1 6629   6.044   2.392   6.517
 1910SOL    HW2 6630   6.044   2.368   6.679
 1911SOL     OW 6631   5.794   2.020   5.938
 1911SOL    HW1 6632   5.742   2.105   5.951
 1911SOL    HW2 6633   5.737   1.952   5.894
 1912SOL     OW 6634   4.109   6.558   1.937
 1912SOL    HW1 6635   4.126   6.605   1.851
 1912SOL    HW2 6636   4.168   6.478   1.945
 1913SOL     OW 6637   1.706   6.316   5.670
 1913SOL    HW1 6638   1.761   6.260   5.608
 1913SOL    HW2 6639   1.629   6.262   5.704
 1914SOL     OW 6640   2.954   2.996   0.016
 1914SOL    HW1 6641   3.027   3.051   7.003
 1914SOL    HW2 6642   2.951   3.010   0.115
 1915SOL     OW 6643   3.522   1.508   5.629
 1915SOL    HW1 6644   3.568   1.509   5.717
 1915SOL    HW2 6645   3.569   1.444   5.567
 1916SOL     OW 6646   3.371   5.584   0.646
 1916SOL    HW1 6647   3.362   5.675   0.687
 1916SOL    HW2 6648   3.468   5.562   0.637
 1917SOL     OW 6649   3.845   3.191   4.632
 1917SOL    HW1 6650   3.792   3.199   4.548
 1917SOL    HW2 6651   3.927   3.248   4.625
 1918SOL     OW 6652   6.596   6.947   6.840
 1918SOL    HW1 6653   6.663   7.019   6.858
 1918SOL    HW2 6654   6.642   6.858   6.844
 1919SOL     OW 6655   1.389   6.829   2.312
 1919SOL    HW1 6656   1.467   6.798   2.256
 1919SOL    HW2 6657   1.359   6.919   2.280
 1920SOL     OW 6658   0.808   4.928   3.719
 1920SOL    HW1 6659   0.726   4.871   3.710
 1920SOL    HW2 6660   0.782   5.024   3.723
 1921SOL     OW 6661   1.296   4.155   0.181
 1921SOL    HW1 6662   1.250   4.148   0.269
 1921SOL    HW2 6663   1.280   4.071   0.128
 1922SOL     OW 6664   3.943   4.225   1.152
 1922SOL    HW1 6665   3.853   4.245   1.113
 1922SOL    HW2 6666   3.995   4.309   1.162
 1923SOL     OW 6667   3.225   0.642   0.179
 1923SOL    HW1 6668   3.247   0.716   0.116
 1923SOL    HW2 6669   3.251   0.554   0.138
 1924SOL     OW 6670   5.987   5.539   2.354
 1924SOL    HW1 6671   5.902   5.508   2.396
 1924SOL    HW2 6672   5.993   5.503   2.260
 1925SOL     OW 6673   2.978   3.656   2.064
 1925SOL    HW1 6674   2.894   3.625   2.020
 1925SOL    HW2 6675   3.053   3.656   1.998
 1926SOL     OW 6676   0.926   6.734   4.049
 1926SOL    HW1 6677   0.872   6.666   4.098
 1926SOL    HW2 6678   0.992   6.689   3.990
 1927SOL     OW 6679   3.487   5.269   6.251
 1927SOL    HW1 6680   3.583   5.279   6.277
 1927SOL    HW2 6681   3.441   5.209   6.316
 1928SOL     OW 6682   6.779   3.205   6.123
 1928SOL    HW1 6683   6.830   3.200   6.209
 1928SOL    HW2 6684   6.689   3.163   6.135
 1929SOL     OW 6685   0.881   6.054   1.056
 1929SOL    HW1 6686   0.837   6.047   1.146
 1929SOL    HW2 6687   0.973   6.015   1.061
 1930SOL     OW 6688   4.094   4.018   7.024
 1930SOL    HW1 6689   4.134   3.950   0.058
 1930SOL    HW2 6690   3.995   4.005   7.021
 1931SOL     OW 6691   0.318   3.321   3.812
 1931SOL    HW1 6692   0.276   3.327   3.903
 1931SOL    HW2 6693   0.251   3.346   3.743
 1932SOL     OW 6694   5.015   4.157   2.137
 1932SOL    HW1 6695   5.035   4.238   2.081
 1932SOL    HW2 6696   5.084   4.149   2.209
 1933SOL     OW 6697   3.170   4.284   0.181
 1933SOL    HW1 6698   3.185   4.188   0.161
 1933SOL    HW2 6699   3.258   4.329   0.194
 1934SOL     OW 6700   0.415   0.614   5.162
 1934SOL    HW1 6701   0.468   0.691   5.126
 1934SOL    HW2 6702   0.402   0.547   5.089
 1935SOL     OW 6703   3.445   0.489   4.886
 1935SOL    HW1 6704   3.357   0.484   4.840
 1935SOL    HW2 6705   3.484   0.580   4.876
 1936SOL     OW 6706   5.889   4.155   4.014
 1936SOL    HW1 6707   5.956   4.225   4.038
 1936SOL    HW2 6708   5.803   4.200   3.987
 1937SOL     OW 6709   4.702   6.577   1.136
 1937SOL    HW1 6710   4.647   6.494   1.145
 1937SOL    HW2 6711   4.647   6.649   1.094
 1938SOL     OW 6712   4.116   1.146   2.687
 1938SOL    HW1 6713   4.124   1.132   2.588
 1938SOL    HW2 6714   4.020   1.152   2.713
 1939SOL     OW 6715   0.108   6.455   4.710
 1939SOL    HW1 6716   0.078   6.436   4.804
 1939SOL    HW2 6717   0.035   6.501   4.661
 1940SOL     OW 6718   5.093   4.975   6.361
 1940SOL    HW1 6719   5.052   5.055   6.406
 1940SOL    HW2 6720   5.044   4.955   6.277
 1941SOL     OW 6721   0.230   3.915   3.054
 1941SOL    HW1 6722   0.246   3.936   3.150
 1941SOL    HW2 6723   0.304   3.858   3.019
 1942SOL     OW 6724   6.235   0.730   3.020
 1942SOL    HW1 6725   6.277   0.759   2.934
 1942SOL    HW2 6726   6.275   0.783   3.096
 1943SOL     OW 6727   2.522   6.436   2.757
 1943SOL    HW1 6728   2.425   6.457   2.767
 1943SOL    HW2 6729   2.533   6.362   2.690
 1944SOL     OW 6730   5.328   2.285   6.741
 1944SOL    HW1 6731   5.288   2.216   6.681
 1944SOL    HW2 6732   5.352   2.243   6.829
 1945SOL     OW 6733   4.001   5.887   2.310
 1945SOL    HW1 6734   3.985   5.918   2.404
 1945SOL    HW2 6735   4.087   5.836   2.306
 1946SOL     OW 6736   5.783   0.613   0.887
 1946SOL    HW1 6737   5.857   0.561   0.844
 1946SOL    HW2 6738   5.772   0.583   0.982
 1947SOL     OW 6739   4.833   6.726   3.989
 1947SOL    HW1 6740   4.889   6.643   3.988
 1947SOL    HW2 6741   4.887   6.804   3.956
 1948SOL     OW 6742   6.277   6.180   4.168
 1948SOL    HW1 6743   6.190   6.179   4.218
 1948SOL    HW2 6744   6.342   6.118   4.213
 1949SOL     OW 6745   4.256   4.362   5.898
 1949SOL    HW1 6746   4.212   4.282   5.859
 1949SOL    HW2 6747   4.338   4.385   5.845
 1950SOL     OW 6748   3.454   4.715   1.033
 1950SOL    HW1 6749   3.538   4.765   1.012
 1950SOL    HW2 6750   3.389   4.726   0.957
 1951SOL     OW 6751   6.228   3.794   0.896
 1951SOL    HW1 6752   6.177   3.825   0.976
 1951SOL    HW2 6753   6.313   3.751   0.924
 1952SOL     OW 6754   3.860   1.990   0.389
 1952SOL    HW1 6755   3.917   2.002   0.470
 1952SOL    HW2 6756   3.835   2.080   0.353
 1953SOL     OW 6757   6.224   2.849   0.076
 1953SOL    HW1 6758   6.288   2.896   0.015
 1953SOL    HW2 6759   6.202   2.907   0.154
 1954SOL     OW 6760   5.494   0.841   4.030
 1954SOL    HW1 6761   5.526   0.769   4.092
 1954SOL    HW2 6762   5.504   0.810   3.936
 1955SOL     OW 6763   1.116   1.174   2.587
 1955SOL    HW1 6764   1.126   1.244   2.515
 1955SOL    HW2 6765   1.129   1.216   2.676
 1956SOL     OW 6766   5.477   0.172   2.510
 1956SOL    HW1 6767   5.551   0.211   2.454
 1956SOL    HW2 6768   5.465   0.076   2.487
 1957SOL     OW 6769   6.337   5.692   5.270
 1957SOL    HW1 6770   6.392   5.616   5.306
 1957SOL    HW2 6771   6.251   5.696   5.320
 1958SOL     OW 6772   5.763   2.728   2.911
 1958SOL    HW1 6773   5.731   2.634   2.923
 1958SOL    HW2 6774   5.796   2.740   2.817
 1959SOL     OW 6775   0.212   1.285   6.210
 1959SOL    HW1 6776   0.163   1.372   6.218
 1959SOL    HW2 6777   0.309   1.303   6.195
 1960SOL     OW 6778   0.111   4.127   1.074
 1960SOL    HW1 6779   0.033   4.069   1.052
 1960SOL    HW2 6780   0.089   4.185   1.152
 1961SOL     OW 6781   5.849   4.869   4.212
 1961SOL    HW1 6782   5.849   4.770   4.224
 1961SOL    HW2 6783   5.869   4.914   4.299
 1962SOL     OW 6784   2.310   6.706   3.542
 1962SOL    HW1 6785   2.235   6.753   3.496
 1962SOL    HW2 6786   2.371   6.666   3.474
 1963SOL     OW 6787   0.677   1.321   1.329
 1963SOL    HW1 6788   0.679   1.304   1.231
 1963SOL    HW2 6789   0.724   1.407   1.350
 1964SOL     OW 6790   4.488   3.241   1.727
 1964SOL    HW1 6791   4.528   3.171   1.786
 1964SOL    HW2 6792   4.556   3.272   1.660
 1965SOL     OW 6793   1.071   3.542   3.773
 1965SOL    HW1 6794   1.047   3.527   3.869
 1965SOL    HW2 6795   0.987   3.560   3.721
 1966SOL     OW 6796   6.705   5.841   5.837
 1966SOL    HW1 6797   6.785   5.798   5.879
 1966SOL    HW2 6798   6.731   5.930   5.799
 1967SOL     OW 6799   4.806   2.490   4.820
 1967SOL    HW1 6800   4.745   2.531   4.752
 1967SOL    HW2 6801   4.875   2.435   4.773
 1968SOL     OW 6802   3.470   6.187   0.399
 1968SOL    HW1 6803   3.536   6.255   0.369
 1968SOL    HW2 6804   3.489   6.162   0.494
 1969SOL     OW 6805   0.838   1.981   1.854
 1969SOL    HW1 6806   0.928   2.021   1.841
 1969SOL    HW2 6807   0.848   1.885   1.882
 1970SOL     OW 6808   2.504   0.019   6.152
 1970SOL    HW1 6809   2.464   7.000   6.231
 1970SOL    HW2 6810   2.526   0.114   6.177
 1971SOL     OW 6811   6.941   0.318   6.250
 1971SOL    HW1 6812   6.948   0.273   6.339
 1971SOL    HW2 6813   6.863   0.380   6.250
 1972SOL     OW 6814   5.402   2.727   2.830
 1972SOL    HW1 6815   5.436   2.818   2.855
 1972SOL    HW2 6816   5.351   2.689   2.907
 1973SOL     OW 6817   2.488   3.332   0.537
 1973SOL    HW1 6818   2.538   3.337   0.450
 1973SOL    HW2 6819   2.427   3.410   0.544
 1974SOL     OW 6820   5.669   6.453   4.231
 1974SOL    HW1 6821   5.675   6.456   4.131
 1974SOL    HW2 6822   5.756   6.481   4.270
 1975SOL     OW 6823   2.595   1.490   3.181
 1975SOL    HW1 6824   2.509   1.465   3.136
 1975SOL    HW2 6825   2.578   1.570   3.240
 1976SOL     OW 6826   0.477   5.799   0.269
 1976SOL    HW1 6827   0.398   5.833   0.218
 1976SOL    HW2 6828   0.550   5.773   0.206
 1977SOL     OW 6829   1.192   2.967   3.737
 1977SOL    HW1 6830   1.194   3.056   3.783
 1977SOL    HW2 6831   1.251   2.903   3.786
 1978SOL     OW 6832   0.697   0.985   3.516
 1978SOL    HW1 6833   0.680   1.070   3.466
 1978SOL    HW2 6834   0.725   1.007   3.609
 1979SOL     OW 6835   6.364   4.173   5.562
 1979SOL    HW1 6836   6.446   4.139   5.609
 1979SOL    HW2 6837   6.382   4.263   5.524
 1980SOL     OW 6838   2.836   0.746   6.056
 1980SOL    HW1 6839   2.868   0.705   5.971
 1980SOL    HW2 6840   2.843   0.679   6.130
 1981SOL     OW 6841   6.565   2.326   2.635
 1981SOL    HW1 6842   6.506   2.397   2.672
 1981SOL    HW2 6843   6.514   2.270   2.570
 1982SOL     OW 6844   0.081   3.683   5.288
 1982SOL    HW1 6845   0.028   3.672   5.204
 1982SOL    HW2 6846   0.154   3.750   5.272
 1983SOL     OW 6847   0.596   1.262   3.011
 1983SOL    HW1 6848   0.535   1.260   2.932
 1983SOL    HW2 6849   0.567   1.335   3.073
 1984SOL     OW 6850   5.692   1.721   4.608
 1984SOL    HW1 6851   5.754   1.774   4.550
 1984SOL    HW2 6852   5.744   1.671   4.676
 1985SOL     OW 6853   0.815   0.061   2.751
 1985SOL    HW1 6854   0.813   0.069   2.850
 1985SOL    HW2 6855   0.727   0.027   2.718
 1986SOL     OW 6856   1.763   0.458   6.997
 1986SOL    HW1 6857   1.684   0.458   6.935
 1986SOL    HW2 6858   1.841   0.414   6.952
 1987SOL     OW 6859   1.092   2.867   1.079
 1987SOL    HW1 6860   1.132   2.818   1.003
 1987SOL    HW2 6861   1.097   2.811   1.162
 1988SOL     OW 6862   5.567   4.872   1.015
 1988SOL    HW1 6863   5.517   4.907   0.936
 1988SOL    HW2 6864   5.571   4.943   1.086
 1989SOL     OW 6865   2.251   6.634   4.615
 1989SOL    HW1 6866   2.349   6.616   4.627
 1989SOL    HW2 6867   2.198   6.572   4.673
 1990SOL     OW 6868   3.195   6.159   0.405
 1990SOL    HW1 6869   3.170   6.129   0.497
 1990SOL    HW2 6870   3.295   6.162   0.397
 1991SOL     OW 6871   4.191   4.721   6.315
 1991SOL    HW1 6872   4.247   4.647   6.278
 1991SOL    HW2 6873   4.243   4.806   6.316
 1992SOL     OW 6874   0.504   0.304   6.630
 1992SOL    HW1 6875   0.541   0.246   6.702
 1992SOL    HW2 6876   0.559   0.294   6.547
 1993SOL     OW 6877   3.659   3.495   4.588
 1993SOL    HW1 6878   3.745   3.526   4.548
 1993SOL    HW2 6879   3.678   3.434   4.665
 1994SOL     OW 6880   1.258   1.473   0.177
 1994SOL    HW1 6881   1.283   1.566   0.203
 1994SOL    HW2 6882   1.307   1.408   0.235
 1995SOL     OW 6883   5.848   2.016   2.403
 1995SOL    HW1 6884   5.790   2.078   2.350
 1995SOL    HW2 6885   5.921   1.981   2.344
 1996SOL     OW 6886   2.552   3.738   0.637
 1996SOL    HW1 6887   2.508   3.827   0.621
 1996SOL    HW2 6888   2.493   3.682   0.695
 1997SOL     OW 6889   4.438   0.711   4.727
 1997SOL    HW1 6890   4.370   0.665   4.671
 1997SOL    HW2 6891   4.484   0.781   4.673
 1998SOL     OW 6892   3.243   3.760   5.787
 1998SOL    HW1 6893   3.257   3.684   5.723
 1998SOL    HW2 6894   3.225   3.725   5.878
 1999SOL     OW 6895   3.698   6.491   1.471
 1999SOL    HW1 6896   3.626   6.424   1.489
 1999SOL    HW2 6897   3.754   6.503   1.553
 2000SOL     OW 6898   4.363   2.123   5.161
 2000SOL    HW1 6899   4.453   2.143   5.200
 2000SOL    HW2 6900   4.347   2.024   5.161
 2001SOL     OW 6901   3.373   1.361   1.826
 2001SOL    HW1 6902   3.427   1.299   1.883
 2001SOL    HW2 6903   3.377   1.330   1.731
 2002SOL     OW 6904   0.679   4.955   5.747
 2002SOL    HW1 6905   0.605   5.005   5.792
 2002SOL    HW2 6906   0.767   4.992   5.778
 2003SOL     OW 6907   5.841   6.584   3.537
 2003SOL    HW1 6908   5.815   6.599   3.632
 2003SOL    HW2 6909   5.831   6.669   3.486
 2004SOL     OW 6910   4.103   1.650   5.157
 2004SOL    HW1 6911   4.103   1.590   5.236
 2004SOL    HW2 6912   4.103   1.596   5.073
 2005SOL     OW 6913   1.126   4.262   6.975
 2005SOL    HW1 6914   1.199   4.201   7.006
 2005SOL    HW2 6915   1.070   4.290   0.025
 2006SOL     OW 6916   5.283   5.141   4.280
 2006SOL    HW1 6917   5.288   5.233   4.319
 2006SOL    HW2 6918   5.371   5.095   4.291
 2007SOL     OW 6919   4.259   4.895   1.112
 2007SOL    HW1 6920   4.307   4.951   1.045
 2007SOL    HW2 6921   4.248   4.947   1.197
 2008SOL     OW 6922   1.546   5.328   3.145
 2008SOL    HW1 6923   1.564   5.371   3.057
 2008SOL    HW2 6924   1.497   5.241   3.131
 2009SOL     OW 6925   6.068   0.156   1.608
 2009SOL    HW1 6926   6.071   0.066   1.565
 2009SOL    HW2 6927   6.097   0.225   1.542
 2010SOL     OW 6928   1.910   1.704   1.035
 2010SOL    HW1 6929   1.904   1.802   1.013
 2010SOL    HW2 6930   1.957   1.693   1.123
 2011SOL     OW 6931   6.612   1.413   5.096
 2011SOL    HW1 6932   6.572   1.430   5.006
 2011SOL    HW2 6933   6.691   1.353   5.087
 2012SOL     OW 6934   1.499   3.046   1.868
 2012SOL    HW1 6935   1.518   2.948   1.863
 2012SOL    HW2 6936   1.401   3.060   1.883
 2013SOL     OW 6937   6.173   1.079   3.163
 2013SOL    HW1 6938   6.205   1.086   3.069
 2013SOL    HW2 6939   6.103   1.007   3.169
 2014SOL     OW 6940   2.044   5.515   2.732
 2014SOL    HW1 6941   2.134   5.477   2.754
 2014SOL    HW2 6942   1.976   5.441   2.729
 2015SOL     OW 6943   2.199   1.576   0.543
 2015SOL    HW1 6944   2.199   1.484   0.582
 2015SOL    HW2 6945   2.166   1.573   0.449
 2016SOL     OW 6946   0.813   5.210   5.085
 2016SOL    HW1 6947   0.889   5.182   5.143
 2016SOL    HW2 6948   0.762   5.129   5.057
 2017SOL     OW 6949   2.421   6.911   4.360
 2017SOL    HW1 6950   2.326   6.882   4.348
 2017SOL    HW2 6951   2.476   6.834   4.392
 2018SOL     OW 6952   5.713   7.005   5.645
 2018SOL    HW1 6953   5.704   6.983   5.548
 2018SOL    HW2 6954   5.622   7.014   5.685
 2019SOL     OW 6955   4.816   2.312   2.195
 2019SOL    HW1 6956   4.782   2.398   2.155
 2019SOL    HW2 6957   4.910   2.296   2.165
 2020SOL     OW 6958   0.799   5.612   5.429
 2020SOL    HW1 6959   0.898   5.608   5.443
 2020SOL    HW2 6960   0.770   5.533   5.374
 2021SOL     OW 6961   2.180   5.312   3.130
 2021SOL    HW1 6962   2.201   5.409   3.143
 2021SOL    HW2 6963   2.096   5.303   3.077
 2022SOL     OW 6964   1.962   3.367   3.493
 2022SOL    HW1 6965   2.004   3.340   3.579
 2022SOL    HW2 6966   1.974   3.295   3.426
 2023SOL     OW 6967   6.360   0.740   6.420
 2023SOL    HW1 6968   6.313   0.749   6.508
 2023SOL    HW2 6969   6.327   0.659   6.372
 2024SOL     OW 6970   0.118   0.034   3.450
 2024SOL    HW1 6971   0.079   0.017   3.541
 2024SOL    HW2 6972   0.057   0.094   3.398
 2025SOL     OW 6973   2.604   2.357   2.405
 2025SOL    HW1 6974   2.612   2.264   2.441
 2025SOL    HW2 6975   2.622   2.357   2.306
 2026SOL     OW 6976   0.702   2.832   5.882
 2026SOL    HW1 6977   0.771   2.795   5.820
 2026SOL    HW2 6978   0.729   2.924   5.911
 2027SOL     OW 6979   0.775   1.383   0.306
 2027SOL    HW1 6980   0.725   1.310   0.352
 2027SOL    HW2 6981   0.872   1.374   0.325
 2028SOL     OW 6982   2.884   1.006   5.936
 2028SOL    HW1 6983   2.932   1.017   5.849
 2028SOL    HW2 6984   2.855   0.911   5.946
 2029SOL     OW 6985   6.162   0.687   0.912
 2029SOL    HW1 6986   6.155   0.786   0.916
 2029SOL    HW2 6987   6.258   0.659   0.921
 2030SOL     OW 6988   2.194   0.272   3.409
 2030SOL    HW1 6989   2.250   0.195   3.376
 2030SOL    HW2 6990   2.189   0.342   3.339
 2031SOL     OW 6991   5.975   6.090   2.128
 2031SOL    HW1 6992   5.924   6.052   2.205
 2031SOL    HW2 6993   5.984   6.189   2.138
 2032SOL     OW 6994   4.331   6.503   1.699
 2032SOL    HW1 6995   4.300   6.598   1.707
 2032SOL    HW2 6996   4.302   6.466   1.611
 2033SOL     OW 6997   3.830   4.040   7.004
 2033SOL    HW1 6998   3.771   4.084   0.045
 2033SOL    HW2 6999   3.793   4.057   6.913
 2034SOL     OW 7000   3.411   6.475   4.636
 2034SOL    HW1 7001   3.424   6.392   4.582
 2034SOL    HW2 7002   3.316   6.505   4.631
 2035SOL     OW 7003   6.954   0.425   1.955
 2035SOL    HW1 7004   6.916   0.425   2.047
 2035SOL    HW2 7005   6.884   0.394   1.890
 2036SOL     OW 7006   1.008   5.291   2.663
 2036SOL    HW1 7007   1.100   5.276   2.699
 2036SOL    HW2 7008   1.011   5.294   2.563
 2037SOL     OW 7009   0.479   2.727   5.776
 2037SOL    HW1 7010   0.553   2.766   5.830
 2037SOL    HW2 7011   0.514   2.652   5.720
 2038SOL     OW 7012   1.731   2.024   6.871
 2038SOL    HW1 7013   1.655   2.089   6.865
 2038SOL    HW2 7014   1.730   1.978   6.959
 2039SOL     OW 7015   0.613   5.499   3.326
 2039SOL    HW1 7016   0.529   5.448   3.342
 2039SOL    HW2 7017   0.669   5.499   3.409
 2040SOL     OW 7018   3.955   3.051   5.272
 2040SOL    HW1 7019   3.978   2.958   5.303
 2040SOL    HW2 7020   3.914   3.046   5.181
 2041SOL     OW 7021   0.167   5.874   5.864
 2041SOL    HW1 7022   0.245   5.814   5.850
 2041SOL    HW2 7023   0.187   5.965   5.827
 2042SOL     OW 7024   5.869   4.368   6.877
 2042SOL    HW1 7025   5.797   4.359   6.945
 2042SOL    HW2 7026   5.856   4.453   6.825
 2043SOL     OW 7027   6.444   4.264   2.843
 2043SOL    HW1 7028   6.462   4.278   2.746
 2043SOL    HW2 7029   6.352   4.297   2.865
 2044SOL     OW 7030   5.081   6.934   1.386
 2044SOL    HW1 7031   5.025   6.852   1.376
 2044SOL    HW2 7032   5.177   6.911   1.366
 2045SOL     OW 7033   3.212   4.920   3.843
 2045SOL    HW1 7034   3.186   5.003   3.794
 2045SOL    HW2 7035   3.164   4.842   3.804
 2046SOL     OW 7036   0.117   1.502   4.068
 2046SOL    HW1 7037   0.116   1.439   4.146
 2046SOL    HW2 7038   0.087   1.592   4.098
 2047SOL     OW 7039   5.403   2.345   0.349
 2047SOL    HW1 7040   5.496   2.319   0.323
 2047SOL    HW2 7041   5.359   2.392   0.273
 2048SOL     OW 7042   1.245   5.818   0.370
 2048SOL    HW1 7043   1.275   5.789   0.461
 2048SOL    HW2 7044   1.270   5.914   0.356
 2049SOL     OW 7045   4.988   1.957   6.142
 2049SOL    HW1 7046   4.956   2.014   6.218
 2049SOL    HW2 7047   5.088   1.953   6.143
 2050SOL     OW 7048   0.429   2.892   2.992
 2050SOL    HW1 7049   0.479   2.939   2.919
 2050SOL    HW2 7050   0.365   2.955   3.035
 2051SOL     OW 7051   1.256   6.038   0.895
 2051SOL    HW1 7052   1.243   6.092   0.978
 2051SOL    HW2 7053   1.199   6.075   0.822
 2052SOL     OW 7054   0.879   4.318   1.123
 2052SOL    HW1 7055   0.923   4.229   1.138
 2052SOL    HW2 7056   0.800   4.327   1.183
 2053SOL     OW 7057   5.639   6.909   5.006
 2053SOL    HW1 7058   5.567   6.959   5.054
 2053SOL    HW2 7059   5.632   6.811   5.028
 2054SOL     OW 7060   4.095   3.166   1.948
 2054SOL    HW1 7061   4.081   3.116   2.034
 2054SOL    HW2 7062   4.013   3.218   1.926
 2055SOL     OW 7063   6.380   3.352   3.509
 2055SOL    HW1 7064   6.443   3.284   3.545
 2055SOL    HW2 7065   6.312   3.375   3.579
 2056SOL     OW 7066   2.349   0.451   2.972
 2056SOL    HW1 7067   2.279   0.504   2.925
 2056SOL    HW2 7068   2.327   0.447   3.070
 2057SOL     OW 7069   5.506   3.194   3.780
 2057SOL    HW1 7070   5.469   3.276   3.823
 2057SOL    HW2 7071   5.452   3.115   3.807
 2058SOL     OW 7072   0.858   1.897   3.291
 2058SOL    HW1 7073   0.770   1.881   3.335
 2058SOL    HW2 7074   0.889   1.812   3.247
 2059SOL     OW 7075   2.799   6.032   6.064
 2059SOL    HW1 7076   2.732   5.973   6.110
 2059SOL    HW2 7077   2.796   6.123   6.105
 2060SOL     OW 7078   6.012   4.738   0.754
 2060SOL    HW1 7079   6.079   4.671   0.720
 2060SOL    HW2 7080   5.972   4.786   0.676
 2061SOL     OW 7081   0.356   1.695   3.328
 2061SOL    HW1 7082   0.392   1.675   3.237
 2061SOL    HW2 7083   0.428   1.681   3.396
 2062SOL     OW 7084   6.051   0.328   3.565
 2062SOL    HW1 7085   6.006   0.247   3.528
 2062SOL    HW2 7086   6.150   0.314   3.564
 2063SOL     OW 7087   1.836   6.999   6.505
 2063SOL    HW1 7088   1.830   0.045   6.573
 2063SOL    HW2 7089   1.822   0.009   6.414
 2064SOL     OW 7090   0.603   2.584   5.591
 2064SOL    HW1 7091   0.540   2.604   5.516
 2064SOL    HW2 7092   0.605   2.486   5.607
 2065SOL     OW 7093   6.573   2.685   4.461
 2065SOL    HW1 7094   6.651   2.737   4.496
 2065SOL    HW2 7095   6.607   2.606   4.409
 2066SOL     OW 7096   1.015   5.278   3.632
 2066SOL    HW1 7097   1.052   5.187   3.615
 2066SOL    HW2 7098   1.029   5.302   3.728
 2067SOL     OW 7099   6.786   5.529   1.058
 2067SOL    HW1 7100   6.825   5.621   1.054
 2067SOL    HW2 7101   6.842   5.467   1.002
 2068SOL     OW 7102   1.398   1.472   5.159
 2068SOL    HW1 7103   1.461   1.412   5.209
 2068SOL    HW2 7104   1.304   1.446   5.182
 2069SOL     OW 7105   0.682   3.231   3.108
 2069SOL    HW1 7106   0.778   3.226   3.082
 2069SOL    HW2 7107   0.666   3.171   3.187
 2070SOL     OW 7108   1.390   1.124   1.933
 2070SOL    HW1 7109   1.290   1.129   1.929
 2070SOL    HW2 7110   1.418   1.032   1.962
 2071SOL     OW 7111   5.568   5.798   5.530
 2071SOL    HW1 7112   5.472   5.825   5.531
 2071SOL    HW2 7113   5.581   5.722   5.466
 2072SOL     OW 7114   4.129   7.014   3.076
 2072SOL    HW1 7115   4.139   6.923   3.115
 2072SOL    HW2 7116   4.086   0.048   3.142
 2073SOL     OW 7117   3.877   6.855   4.171
 2073SOL    HW1 7118   3.933   6.822   4.246
 2073SOL    HW2 7119   3.792   6.802   4.167
 2074SOL     OW 7120   1.527   3.118   0.411
 2074SOL    HW1 7121   1.562   3.026   0.426
 2074SOL    HW2 7122   1.428   3.115   0.396
 2075SOL     OW 7123   5.351   3.220   1.301
 2075SOL    HW1 7124   5.344   3.214   1.400
 2075SOL    HW2 7125   5.316   3.136   1.260
 2076SOL     OW 7126   5.221   0.163   6.497
 2076SOL    HW1 7127   5.267   0.250   6.511
 2076SOL    HW2 7128   5.286   0.088   6.510
 2077SOL     OW 7129   5.581   2.597   2.641
 2077SOL    HW1 7130   5.540   2.649   2.716
 2077SOL    HW2 7131   5.525   2.606   2.559
 2078SOL     OW 7132   1.176   5.290   5.655
 2078SOL    HW1 7133   1.175   5.211   5.717
 2078SOL    HW2 7134   1.087   5.298   5.609
 2079SOL     OW 7135   5.100   2.392   3.784
 2079SOL    HW1 7136   5.025   2.402   3.850
 2079SOL    HW2 7137   5.150   2.307   3.803
 2080SOL     OW 7138   1.627   0.753   4.830
 2080SOL    HW1 7139   1.590   0.818   4.896
 2080SOL    HW2 7140   1.719   0.726   4.857
 2081SOL     OW 7141   1.275   5.257   3.807
 2081SOL    HW1 7142   1.289   5.305   3.721
 2081SOL    HW2 7143   1.309   5.163   3.799
 2082SOL     OW 7144   0.402   0.020   3.448
 2082SOL    HW1 7145   0.304   0.033   3.433
 2082SOL    HW2 7146   0.450   0.029   3.361
 2083SOL     OW 7147   6.123   4.862   6.461
 2083SOL    HW1 7148   6.074   4.928   6.518
 2083SOL    HW2 7149   6.214   4.847   6.498
 2084SOL     OW 7150   1.721   3.501   3.576
 2084SOL    HW1 7151   1.658   3.428   3.600
 2084SOL    HW2 7152   1.809   3.463   3.548
 2085SOL     OW 7153   4.408   0.524   0.109
 2085SOL    HW1 7154   4.387   0.427   0.095
 2085SOL    HW2 7155   4.494   0.533   0.159
 2086SOL     OW 7156   3.872   6.782   5.538
 2086SOL    HW1 7157   3.783   6.736   5.539
 2086SOL    HW2 7158   3.863   6.869   5.489
 2087SOL     OW 7159   4.923   0.127   1.451
 2087SOL    HW1 7160   4.984   0.049   1.442
 2087SOL    HW2 7161   4.970   0.210   1.421
 2088SOL     OW 7162   2.194   5.792   7.020
 2088SOL    HW1 7163   2.266   5.839   0.043
 2088SOL    HW2 7164   2.227   5.766   6.930
 2089SOL     OW 7165   5.470   2.484   6.288
 2089SOL    HW1 7166   5.404   2.532   6.347
 2089SOL    HW2 7167   5.557   2.533   6.289
 2090SOL     OW 7168   3.574   3.331   6.215
 2090SOL    HW1 7169   3.503   3.291   6.157
 2090SOL    HW2 7170   3.660   3.280   6.203
 2091SOL     OW 7171   0.097   5.615   0.443
 2091SOL    HW1 7172   0.058   5.553   0.511
 2091SOL    HW2 7173   0.194   5.595   0.432
 2092SOL     OW 7174   5.471   4.351   6.858
 2092SOL    HW1 7175   5.523   4.289   6.800
 2092SOL    HW2 7176   5.404   4.400   6.803
 2093SOL     OW 7177   2.659   2.300   1.014
 2093SOL    HW1 7178   2.734   2.367   1.020
 2093SOL    HW2 7179   2.641   2.279   0.918
 2094SOL     OW 7180   6.134   2.038   1.656
 2094SOL    HW1 7181   6.103   1.971   1.723
 2094SOL    HW2 7182   6.233   2.047   1.661
 2095SOL     OW 7183   5.293   6.851   4.968
 2095SOL    HW1 7184   5.345   6.907   5.032
 2095SOL    HW2 7185   5.289   6.757   5.002
 2096SOL     OW 7186   4.733   4.203   2.717
 2096SOL    HW1 7187   4.718   4.122   2.660
 2096SOL    HW2 7188   4.763   4.174   2.808
 2097SOL     OW 7189   2.760   2.866   6.707
 2097SOL    HW1 7190   2.856   2.857   6.680
 2097SOL    HW2 7191   2.754   2.913   6.795
 2098SOL     OW 7192   4.305   5.780   2.336
 2098SOL    HW1 7193   4.376   5.830   2.386
 2098SOL    HW2 7194   4.349   5.720   2.268
 2099SOL     OW 7195   2.683   3.076   6.208
 2099SOL    HW1 7196   2.702   3.174   6.201
 2099SOL    HW2 7197   2.760   3.024   6.170
 2100SOL     OW 7198   4.625   2.400   6.254
 2100SOL    HW1 7199   4.536   2.364   6.223
 2100SOL    HW2 7200   4.646   2.363   6.344
 2101SOL     OW 7201   1.104   6.601   2.616
 2101SOL    HW1 7202   1.197   6.606   2.578
 2101SOL    HW2 7203   1.084   6.685   2.666
 2102SOL     OW 7204   6.416   4.542   2.413
 2102SOL    HW1 7205   6.422   4.568   2.316
 2102SOL    HW2 7206   6.333   4.582   2.453
 2103SOL     OW 7207   3.985   4.622   5.483
 2103SOL    HW1 7208   4.036   4.570   5.551
 2103SOL    HW2 7209   3.887   4.609   5.498
 2104SOL     OW 7210   2.079   3.976   1.273
 2104SOL    HW1 7211   2.127   3.908   1.216
 2104SOL    HW2 7212   1.990   3.939   1.299
 2105SOL     OW 7213   4.957   5.734   5.430
 2105SOL    HW1 7214   4.945   5.643   5.468
 2105SOL    HW2 7215   5.043   5.738   5.379
 2106SOL     OW 7216   4.699   4.636   1.409
 2106SOL    HW1 7217   4.631   4.653   1.480
 2106SOL    HW2 7218   4.787   4.676   1.436
 2107SOL     OW 7219   4.932   2.454   5.536
 2107SOL    HW1 7220   4.966   2.516   5.606
 2107SOL    HW2 7221   4.963   2.361   5.556
 2108SOL     OW 7222   6.194   5.455   5.102
 2108SOL    HW1 7223   6.158   5.477   5.193
 2108SOL    HW2 7224   6.154   5.518   5.034
 2109SOL     OW 7225   4.325   6.134   2.552
 2109SOL    HW1 7226   4.247   6.145   2.490
 2109SOL    HW2 7227   4.317   6.047   2.601
 2110SOL     OW 7228   2.460   1.356   6.969
 2110SOL    HW1 7229   2.449   1.435   0.002
 2110SOL    HW2 7230   2.513   1.384   6.889
 2111SOL     OW 7231   1.284   2.322   6.747
 2111SOL    HW1 7232   1.186   2.306   6.760
 2111SOL    HW2 7233   1.337   2.254   6.796
 2112SOL     OW 7234   5.346   3.367   0.442
 2112SOL    HW1 7235   5.382   3.346   0.533
 2112SOL    HW2 7236   5.404   3.323   0.373
 2113SOL     OW 7237   2.249   2.020   5.516
 2113SOL    HW1 7238   2.150   2.031   5.528
 2113SOL    HW2 7239   2.274   2.043   5.422
 2114SOL     OW 7240   1.526   2.064   0.134
 2114SOL    HW1 7241   1.483   2.023   0.215
 2114SOL    HW2 7242   1.481   2.150   0.112
 2115SOL     OW 7243   1.971   3.299   2.383
 2115SOL    HW1 7244   2.010   3.207   2.384
 2115SOL    HW2 7245   1.936   3.319   2.291
 2116SOL     OW 7246   0.230   5.137   3.309
 2116SOL    HW1 7247   0.152   5.131   3.372
 2116SOL    HW2 7248   0.197   5.131   3.215
 2117SOL     OW 7249   7.015   4.926   1.541
 2117SOL    HW1 7250   0.070   4.878   1.571
 2117SOL    HW2 7251   0.001   5.025   1.552
 2118SOL     OW 7252   6.159   3.608   1.945
 2118SOL    HW1 7253   6.193   3.646   1.859
 2118SOL    HW2 7254   6.093   3.671   1.986
 2119SOL     OW 7255   1.775   6.203   0.942
 2119SOL    HW1 7256   1.823   6.243   1.020
 2119SOL    HW2 7257   1.723   6.124   0.972
 2120SOL     OW 7258   6.706   5.255   4.321
 2120SOL    HW1 7259   6.697   5.350   4.290
 2120SOL    HW2 7260   6.803   5.229   4.319
 2121SOL     OW 7261   1.581   4.094   5.838
 2121SOL    HW1 7262   1.608   4.189   5.848
 2121SOL    HW2 7263   1.662   4.036   5.841
 2122SOL     OW 7264   5.816   3.864   6.046
 2122SOL    HW1 7265   5.906   3.903   6.026
 2122SOL    HW2 7266   5.803   3.780   5.994
 2123SOL     OW 7267   6.710   6.187   2.435
 2123SOL    HW1 7268   6.767   6.217   2.359
 2123SOL    HW2 7269   6.701   6.087   2.432
 2124SOL     OW 7270   3.057   1.677   1.401
 2124SOL    HW1 7271   3.090   1.771   1.390
 2124SOL    HW2 7272   3.125   1.613   1.363
 2125SOL     OW 7273   2.116   0.867   2.021
 2125SOL    HW1 7274   2.200   0.813   2.025
 2125SOL    HW2 7275   2.119   0.929   1.943
 2126SOL     OW 7276   3.568   1.592   6.580
 2126SOL    HW1 7277   3.543   1.509   6.630
 2126SOL    HW2 7278   3.574   1.571   6.483
 2127SOL     OW 7279   0.250   3.693   4.796
 2127SOL    HW1 7280   0.234   3.623   4.866
 2127SOL    HW2 7281   0.305   3.654   4.722
 2128SOL     OW 7282   6.872   3.261   3.588
 2128SOL    HW1 7283   6.813   3.341   3.593
 2128SOL    HW2 7284   6.832   3.194   3.525
 2129SOL     OW 7285   4.252   3.415   5.433
 2129SOL    HW1 7286   4.187   3.485   5.464
 2129SOL    HW2 7287   4.288   3.365   5.512
 2130SOL     OW 7288   3.341   0.719   2.369
 2130SOL    HW1 7289   3.281   0.736   2.291
 2130SOL    HW2 7290   3.306   0.642   2.422
 2131SOL     OW 7291   5.430   1.077   0.836
 2131SOL    HW1 7292   5.345   1.128   0.851
 2131SOL    HW2 7293   5.409   0.987   0.796
 2132SOL     OW 7294   3.316   0.493   1.745
 2132SOL    HW1 7295   3.347   0.403   1.775
 2132SOL    HW2 7296   3.393   0.556   1.742
 2133SOL     OW 7297   3.463   3.078   0.557
 2133SOL    HW1 7298   3.422   2.987   0.563
 2133SOL    HW2 7299   3.414   3.133   0.491
 2134SOL     OW 7300   6.749   1.358   6.413
 2134SOL    HW1 7301   6.819   1.288   6.422
 2134SOL    HW2 7302   6.677   1.343   6.481
 2135SOL     OW 7303   1.301   3.356   4.847
 2135SOL    HW1 7304   1.305   3.422   4.922
 2135SOL    HW2 7305   1.312   3.403   4.760
 2136SOL     OW 7306   1.853   3.446   3.247
 2136SOL    HW1 7307   1.908   3.450   3.330
 2136SOL    HW2 7308   1.759   3.471   3.268
 2137SOL     OW 7309   2.818   5.323   4.950
 2137SOL    HW1 7310   2.907   5.364   4.933
 2137SOL    HW2 7311   2.771   5.307   4.864
 2138SOL     OW 7312   6.546   0.468   2.867
 2138SOL    HW1 7313   6.623   0.405   2.875
 2138SOL    HW2 7314   6.540   0.524   2.950
 2139SOL     OW 7315   3.546   0.497   3.611
 2139SOL    HW1 7316   3.540   0.542   3.700
 2139SOL    HW2 7317   3.520   0.562   3.539
 2140SOL     OW 7318   3.781   6.495   3.890
 2140SOL    HW1 7319   3.801   6.414   3.835
 2140SOL    HW2 7320   3.863   6.551   3.898
 2141SOL     OW 7321   6.715   3.650   2.371
 2141SOL    HW1 7322   6.741   3.704   2.291
 2141SOL    HW2 7323   6.794   3.599   2.405
 2142SOL     OW 7324   2.253   1.769   2.897
 2142SOL    HW1 7325   2.234   1.841   2.965
 2142SOL    HW2 7326   2.223   1.801   2.807
 2143SOL     OW 7327   3.002   4.922   1.246
 2143SOL    HW1 7328   2.982   4.824   1.241
 2143SOL    HW2 7329   3.101   4.935   1.255
 2144SOL     OW 7330   1.318   5.446   3.595
 2144SOL    HW1 7331   1.356   5.451   3.502
 2144SOL    HW2 7332   1.242   5.510   3.604
 2145SOL     OW 7333   4.594   5.992   3.964
 2145SOL    HW1 7334   4.584   6.083   3.925
 2145SOL    HW2 7335   4.679   5.951   3.931
 2146SOL     OW 7336   2.473   3.860   1.596
 2146SOL    HW1 7337   2.553   3.919   1.607
 2146SOL    HW2 7338   2.390   3.912   1.617
 2147SOL     OW 7339   6.560   1.524   6.015
 2147SOL    HW1 7340   6.485   1.538   6.080
 2147SOL    HW2 7341   6.529   1.546   5.923
 2148SOL     OW 7342   6.236   3.286   5.264
 2148SOL    HW1 7343   6.293   3.363   5.236
 2148SOL    HW2 7344   6.260   3.205   5.210
 2149SOL     OW 7345   3.295   1.685   0.939
 2149SOL    HW1 7346   3.344   1.652   0.859
 2149SOL    HW2 7347   3.247   1.609   0.983
 2150SOL     OW 7348   2.546   2.289   1.831
 2150SOL    HW1 7349   2.595   2.224   1.772
 2150SOL    HW2 7350   2.452   2.259   1.843
 2151SOL     OW 7351   1.163   0.293   5.596
 2151SOL    HW1 7352   1.247   0.280   5.648
 2151SOL    HW2 7353   1.142   0.210   5.544
 2152SOL     OW 7354   3.487   5.715   1.924
 2152SOL    HW1 7355   3.519   5.785   1.988
 2152SOL    HW2 7356   3.514   5.625   1.956
 2153SOL     OW 7357   3.847   1.127   2.770
 2153SOL    HW1 7358   3.753   1.159   2.778
 2153SOL    HW2 7359   3.848   1.027   2.764
 2154SOL     OW 7360   5.079   0.864   5.087
 2154SOL    HW1 7361   5.032   0.808   5.018
 2154SOL    HW2 7362   5.073   0.960   5.061
 2155SOL     OW 7363   2.870   5.913   0.282
 2155SOL    HW1 7364   2.809   5.833   0.278
 2155SOL    HW2 7365   2.859   5.967   0.199
 2156SOL     OW 7366   1.491   1.726   5.222
 2156SOL    HW1 7367   1.533   1.762   5.139
 2156SOL    HW2 7368   1.466   1.630   5.207
 2157SOL     OW 7369   5.661   0.675   3.131
 2157SOL    HW1 7370   5.630   0.769   3.145
 2157SOL    HW2 7371   5.741   0.676   3.070
 2158SOL     OW 7372   3.836   6.159   1.498
 2158SOL    HW1 7373   3.925   6.141   1.457
 2158SOL    HW2 7374   3.775   6.198   1.429
 2159SOL     OW 7375   1.152   6.230   5.329
 2159SOL    HW1 7376   1.143   6.223   5.229
 2159SOL    HW2 7377   1.248   6.223   5.354
 2160SOL     OW 7378   4.381   4.063   0.292
 2160SOL    HW1 7379   4.344   3.977   0.256
 2160SOL    HW2 7380   4.381   4.060   0.392
 2161SOL     OW 7381   5.551   4.999   2.608
 2161SOL    HW1 7382   5.580   4.942   2.684
 2161SOL    HW2 7383   5.451   5.001   2.604
 2162SOL     OW 7384   2.164   1.023   1.805
 2162SOL    HW1 7385   2.244   1.083   1.810
 2162SOL    HW2 7386   2.129   1.022   1.711
 2163SOL     OW 7387   1.366   4.789   6.011
 2163SOL    HW1 7388   1.465   4.784   5.995
 2163SOL    HW2 7389   1.327   4.697   6.006
 2164SOL     OW 7390   1.589   2.834   0.212
 2164SOL    HW1 7391   1.496   2.809   0.188
 2164SOL    HW2 7392   1.647   2.828   0.131
 2165SOL     OW 7393   0.190   1.849   2.624
 2165SOL    HW1 7394   0.176   1.931   2.680
 2165SOL    HW2 7395   0.200   1.769   2.683
 2166SOL     OW 7396   1.311   2.321   5.311
 2166SOL    HW1 7397   1.304   2.419   5.294
 2166SOL    HW2 7398   1.234   2.274   5.268
 2167SOL     OW 7399   1.895   1.962   3.153
 2167SOL    HW1 7400   1.843   1.898   3.210
 2167SOL    HW2 7401   1.866   2.056   3.173
 2168SOL     OW 7402   0.873   2.138   3.871
 2168SOL    HW1 7403   0.868   2.079   3.790
 2168SOL    HW2 7404   0.962   2.127   3.914
 2169SOL     OW 7405   5.335   1.357   6.789
 2169SOL    HW1 7406   5.382   1.418   6.725
 2169SOL    HW2 7407   5.391   1.277   6.807
 2170SOL     OW 7408   6.546   4.007   6.038
 2170SOL    HW1 7409   6.488   3.952   5.977
 2170SOL    HW2 7410   6.582   4.085   5.987
 2171SOL     OW 7411   0.194   5.368   1.336
 2171SOL    HW1 7412   0.256   5.336   1.264
 2171SOL    HW2 7413   0.162   5.460   1.314
 2172SOL     OW 7414   1.881   2.324   0.552
 2172SOL    HW1 7415   1.913   2.352   0.462
 2172SOL    HW2 7416   1.809   2.387   0.582
 2173SOL     OW 7417   3.505   0.888   5.320
 2173SOL    HW1 7418   3.532   0.867   5.413
 2173SOL    HW2 7419   3.499   0.988   5.309
 2174SOL     OW 7420   5.347   5.981   5.533
 2174SOL    HW1 7421   5.401   6.065   5.527
 2174SOL    HW2 7422   5.298   5.980   5.621
 2175SOL     OW 7423   2.284   2.809   4.444
 2175SOL    HW1 7424   2.286   2.863   4.360
 2175SOL    HW2 7425   2.214   2.847   4.506
 2176SOL     OW 7426   6.544   2.138   0.880
 2176SOL    HW1 7427   6.532   2.050   0.834
 2176SOL    HW2 7428   6.578   2.205   0.815
 2177SOL     OW 7429   6.798   1.982   3.306
 2177SOL    HW1 7430   6.761   2.069   3.339
 2177SOL    HW2 7431   6.807   1.986   3.206
 2178SOL     OW 7432   1.891   2.103   1.273
 2178SOL    HW1 7433   1.897   2.167   1.349
 2178SOL    HW2 7434   1.979   2.099   1.226
 2179SOL     OW 7435   1.790   5.434   4.519
 2179SOL    HW1 7436   1.862   5.368   4.497
 2179SOL    HW2 7437   1.721   5.433   4.447
 2180SOL     OW 7438   1.799   2.398   1.773
 2180SOL    HW1 7439   1.891   2.363   1.757
 2180SOL    HW2 7440   1.745   2.392   1.689
 2181SOL     OW 7441   4.743   4.918   4.452
 2181SOL    HW1 7442   4.649   4.944   4.433
 2181SOL    HW2 7443   4.748   4.820   4.467
 2182SOL     OW 7444   1.644   3.854   3.942
 2182SOL    HW1 7445   1.589   3.937   3.932
 2182SOL    HW2 7446   1.636   3.799   3.859
 2183SOL     OW 7447   2.740   4.034   5.754
 2183SOL    HW1 7448   2.831   4.035   5.712
 2183SOL    HW2 7449   2.672   4.064   5.687
 2184SOL     OW 7450   4.035   1.635   6.383
 2184SOL    HW1 7451   4.120   1.592   6.354
 2184SOL    HW2 7452   3.970   1.565   6.410
 2185SOL     OW 7453   0.335   1.137   1.168
 2185SOL    HW1 7454   0.330   1.079   1.249
 2185SOL    HW2 7455   0.318   1.083   1.086
 2186SOL     OW 7456   0.304   5.968   1.932
 2186SOL    HW1 7457   0.391   5.921   1.946
 2186SOL    HW2 7458   0.295   5.994   1.835
 2187SOL     OW 7459   6.782   6.908   2.780
 2187SOL    HW1 7460   6.758   6.983   2.841
 2187SOL    HW2 7461   6.840   6.843   2.828
 2188SOL     OW 7462   0.140   6.154   4.671
 2188SOL    HW1 7463   0.182   6.244   4.660
 2188SOL    HW2 7464   0.050   6.164   4.714
 2189SOL     OW 7465   1.477   6.568   0.598
 2189SOL    HW1 7466   1.406   6.573   0.667
 2189SOL    HW2 7467   1.518   6.476   0.598
 2190SOL     OW 7468   0.238   3.633   1.918
 2190SOL    HW1 7469   0.331   3.658   1.944
 2190SOL    HW2 7470   0.187   3.715   1.893
 2191SOL     OW 7471   3.194   2.189   6.722
 2191SOL    HW1 7472   3.135   2.124   6.673
 2191SOL    HW2 7473   3.246   2.141   6.792
 2192SOL     OW 7474   5.003   1.186   2.287
 2192SOL    HW1 7475   5.035   1.208   2.195
 2192SOL    HW2 7476   4.996   1.270   2.341
 2193SOL     OW 7477   5.612   5.455   6.753
 2193SOL    HW1 7478   5.641   5.427   6.662
 2193SOL    HW2 7479   5.530   5.512   6.747
 2194SOL     OW 7480   2.683   4.384   5.618
 2194SOL    HW1 7481   2.691   4.425   5.527
 2194SOL    HW2 7482   2.649   4.290   5.610
 2195SOL     OW 7483   0.131   0.583   4.851
 2195SOL    HW1 7484   0.074   0.598   4.770
 2195SOL    HW2 7485   0.217   0.632   4.841
 2196SOL     OW 7486   2.799   6.736   5.325
 2196SOL    HW1 7487   2.798   6.832   5.351
 2196SOL    HW2 7488   2.893   6.703   5.320
 2197SOL     OW 7489   3.238   3.957   0.506
 2197SOL    HW1 7490   3.210   3.894   0.578
 2197SOL    HW2 7491   3.256   4.047   0.546
 2198SOL     OW 7492   5.355   1.294   0.081
 2198SOL    HW1 7493   5.324   1.228   0.149
 2198SOL    HW2 7494   5.440   1.263   0.040
 2199SOL     OW 7495   4.763   0.944   3.565
 2199SOL    HW1 7496   4.785   0.848   3.549
 2199SOL    HW2 7497   4.803   1.000   3.493
 2200SOL     OW 7498   2.731   1.479   5.323
 2200SOL    HW1 7499   2.650   1.522   5.363
 2200SOL    HW2 7500   2.812   1.533   5.347
 2201SOL     OW 7501   6.679   2.926   2.939
 2201SOL    HW1 7502   6.671   2.847   2.878
 2201SOL    HW2 7503   6.682   3.010   2.884
 2202SOL     OW 7504   2.956   5.714   2.228
 2202SOL    HW1 7505   2.871   5.671   2.198
 2202SOL    HW2 7506   3.022   5.713   2.153
 2203SOL     OW 7507   1.624   2.187   1.166
 2203SOL    HW1 7508   1.719   2.155   1.177
 2203SOL    HW2 7509   1.609   2.266   1.224
 2204SOL     OW 7510   3.779   1.344   1.547
 2204SOL    HW1 7511   3.835   1.406   1.492
 2204SOL    HW2 7512   3.838   1.275   1.590
 2205SOL     OW 7513   0.267   0.095   6.145
 2205SOL    HW1 7514   0.189   0.078   6.086
 2205SOL    HW2 7515   0.266   0.029   6.221
 2206SOL     OW 7516   3.639   4.717   6.665
 2206SOL    HW1 7517   3.701   4.777   6.715
 2206SOL    HW2 7518   3.649   4.733   6.567
 2207SOL     OW 7519   2.829   4.746   6.404
 2207SOL    HW1 7520   2.863   4.677   6.468
 2207SOL    HW2 7521   2.894   4.757   6.329
 2208SOL     OW 7522   1.475   6.399   2.840
 2208SOL    HW1 7523   1.501   6.313   2.884
 2208SOL    HW2 7524   1.535   6.472   2.873
 2209SOL     OW 7525   1.426   6.259   5.396
 2209SOL    HW1 7526   1.427   6.288   5.492
 2209SOL    HW2 7527   1.429   6.339   5.337
 2210SOL     OW 7528   6.649   4.873   4.382
 2210SOL    HW1 7529   6.739   4.837   4.407
 2210SOL    HW2 7530   6.595   4.801   4.339
 2211SOL     OW 7531   5.785   0.440   1.102
 2211SOL    HW1 7532   5.885   0.434   1.102
 2211SOL    HW2 7533   5.746   0.354   1.071
 2212SOL     OW 7534   2.208   6.054   6.838
 2212SOL    HW1 7535   2.175   6.000   6.916
 2212SOL    HW2 7536   2.175   6.148   6.847
 2213SOL     OW 7537   3.497   2.386   5.586
 2213SOL    HW1 7538   3.556   2.387   5.666
 2213SOL    HW2 7539   3.405   2.357   5.613
 2214SOL     OW 7540   3.615   2.975   5.165
 2214SOL    HW1 7541   3.657   3.061   5.140
 2214SOL    HW2 7542   3.573   2.933   5.084
 2215SOL     OW 7543   6.089   1.121   0.347
 2215SOL    HW1 7544   6.039   1.191   0.296
 2215SOL    HW2 7545   6.087   1.143   0.444
 2216SOL     OW 7546   1.580   0.541   6.068
 2216SOL    HW1 7547   1.626   0.504   6.149
 2216SOL    HW2 7548   1.600   0.484   5.989
 2217SOL     OW 7549   4.178   6.869   1.496
 2217SOL    HW1 7550   4.138   6.960   1.491
 2217SOL    HW2 7551   4.267   6.873   1.541
 2218SOL     OW 7552   0.241   5.835   0.135
 2218SOL    HW1 7553   0.157   5.887   0.116
 2218SOL    HW2 7554   0.225   5.739   0.116
 2219SOL     OW 7555   5.434   1.957   1.653
 2219SOL    HW1 7556   5.352   1.986   1.703
 2219SOL    HW2 7557   5.498   2.034   1.647
 2220SOL     OW 7558   1.761   0.325   4.906
 2220SOL    HW1 7559   1.714   0.364   4.827
 2220SOL    HW2 7560   1.753   0.388   4.984
 2221SOL     OW 7561   6.068   1.065   5.387
 2221SOL    HW1 7562   6.103   1.000   5.319
 2221SOL    HW2 7563   6.141   1.087   5.452
 2222SOL     OW 7564   5.088   0.956   0.318
 2222SOL    HW1 7565   5.079   0.860   0.347
 2222SOL    HW2 7566   5.016   1.010   0.362
 2223SOL     OW 7567   5.801   0.909   5.124
 2223SOL    HW1 7568   5.896   0.878   5.132
 2223SOL    HW2 7569   5.796   1.006   5.148
 2224SOL     OW 7570   0.647   3.621   0.325
 2224SOL    HW1 7571   0.567   3.681   0.323
 2224SOL    HW2 7572   0.700   3.633   0.241
 2225SOL     OW 7573   6.388   6.635   3.097
 2225SOL    HW1 7574   6.303   6.586   3.077
 2225SOL    HW2 7575   6.461   6.601   3.037
 2226SOL     OW 7576   3.667   4.888   0.873
 2226SOL    HW1 7577   3.762   4.862   0.858
 2226SOL    HW2 7578   3.631   4.934   0.792
 2227SOL     OW 7579   5.321   3.583   6.876
 2227SOL    HW1 7580   5.233   3.536   6.885
 2227SOL    HW2 7581   5.385   3.548   6.945
 2228SOL     OW 7582   3.313   4.724   0.812
 2228SOL    HW1 7583   3.274   4.636   0.785
 2228SOL    HW2 7584   3.298   4.791   0.740
 2229SOL     OW 7585   4.476   2.580   4.797
 2229SOL    HW1 7586   4.509   2.574   4.891
 2229SOL    HW2 7587   4.522   2.655   4.750
 2230SOL     OW 7588   5.863   5.987   0.052
 2230SOL    HW1 7589   5.938   5.922   0.043
 2230SOL    HW2 7590   5.776   5.939   0.043
 2231SOL     OW 7591   0.153   0.789   2.055
 2231SOL    HW1 7592   0.077   0.753   2.001
 2231SOL    HW2 7593   0.147   0.889   2.059
 2232SOL     OW 7594   0.737   2.708   5.003
 2232SOL    HW1 7595   0.777   2.788   5.048
 2232SOL    HW2 7596   0.799   2.630   5.012
 2233SOL     OW 7597   2.124   3.718   0.218
 2233SOL    HW1 7598   2.082   3.636   0.179
 2233SOL    HW2 7599   2.077   3.799   0.182
 2234SOL     OW 7600   3.939   1.723   1.776
 2234SOL    HW1 7601   3.967   1.632   1.804
 2234SOL    HW2 7602   3.902   1.772   1.855
 2235SOL     OW 7603   2.957   7.003   1.201
 2235SOL    HW1 7604   2.990   0.069   1.187
 2235SOL    HW2 7605   2.858   7.001   1.195
 2236SOL     OW 7606   1.928   4.648   5.945
 2236SOL    HW1 7607   1.967   4.557   5.957
 2236SOL    HW2 7608   1.829   4.644   5.963
 2237SOL     OW 7609   5.998   4.952   4.001
 2237SOL    HW1 7610   5.938   4.953   3.921
 2237SOL    HW2 7611   5.945   4.920   4.081
 2238SOL     OW 7612   5.241   4.710   1.584
 2238SOL    HW1 7613   5.224   4.807   1.564
 2238SOL    HW2 7614   5.292   4.669   1.508
 2239SOL     OW 7615   4.124   4.977   3.540
 2239SOL    HW1 7616   4.078   4.901   3.584
 2239SOL    HW2 7617   4.221   4.956   3.530
 2240SOL     OW 7618   5.002   5.620   3.517
 2240SOL    HW1 7619   4.947   5.647   3.437
 2240SOL    HW2 7620   5.083   5.678   3.522
 2241SOL     OW 7621   0.376   6.017   3.271
 2241SOL    HW1 7622   0.419   5.929   3.253
 2241SOL    HW2 7623   0.396   6.045   3.365
 2242SOL     OW 7624   5.255   2.315   2.938
 2242SOL    HW1 7625   5.275   2.264   2.854
 2242SOL    HW2 7626   5.157   2.316   2.955
 2243SOL     OW 7627   1.503   6.666   6.275
 2243SOL    HW1 7628   1.466   6.742   6.328
 2243SOL    HW2 7629   1.585   6.630   6.320
 2244SOL     OW 7630   1.718   6.900   1.807
 2244SOL    HW1 7631   1.649   6.850   1.860
 2244SOL    HW2 7632   1.687   6.909   1.713
 2245SOL     OW 7633   0.393   1.850   1.147
 2245SOL    HW1 7634   0.342   1.922   1.100
 2245SOL    HW2 7635   0.490   1.861   1.129
 2246SOL     OW 7636   0.843   2.293   5.156
 2246SOL    HW1 7637   0.813   2.295   5.252
 2246SOL    HW2 7638   0.763   2.288   5.097
 2247SOL     OW 7639   3.282   3.238   4.171
 2247SOL    HW1 7640   3.224   3.297   4.228
 2247SOL    HW2 7641   3.244   3.145   4.169
 2248SOL     OW 7642   4.946   3.694   5.377
 2248SOL    HW1 7643   4.956   3.599   5.346
 2248SOL    HW2 7644   4.882   3.742   5.317
 2249SOL     OW 7645   6.220   6.238   3.132
 2249SOL    HW1 7646   6.199   6.312   3.196
 2249SOL    HW2 7647   6.265   6.276   3.051
 2250SOL     OW 7648   4.600   3.778   6.012
 2250SOL    HW1 7649   4.667   3.843   6.048
 2250SOL    HW2 7650   4.571   3.806   5.920
 2251SOL     OW 7651   5.273   0.784   6.797
 2251SOL    HW1 7652   5.291   0.699   6.847
 2251SOL    HW2 7653   5.257   0.858   6.862
 2252SOL     OW 7654   4.819   3.063   2.715
 2252SOL    HW1 7655   4.782   3.070   2.808
 2252SOL    HW2 7656   4.821   2.968   2.687
 2253SOL     OW 7657   1.166   3.657   6.504
 2253SOL    HW1 7658   1.182   3.694   6.596
 2253SOL    HW2 7659   1.106   3.718   6.453
 2254SOL     OW 7660   3.692   3.026   5.503
 2254SOL    HW1 7661   3.745   2.947   5.471
 2254SOL    HW2 7662   3.672   3.086   5.426
 2255SOL     OW 7663   4.529   2.698   6.441
 2255SOL    HW1 7664   4.490   2.628   6.501
 2255SOL    HW2 7665   4.572   2.769   6.496
 2256SOL     OW 7666   5.368   5.668   1.312
 2256SOL    HW1 7667   5.273   5.655   1.343
 2256SOL    HW2 7668   5.398   5.761   1.334
 2257SOL     OW 7669   6.968   2.193   3.971
 2257SOL    HW1 7670   6.997   2.288   3.980
 2257SOL    HW2 7671   0.009   2.133   4.012
 2258SOL     OW 7672   0.751   5.270   5.723
 2258SOL    HW1 7673   0.727   5.235   5.633
 2258SOL    HW2 7674   0.810   5.204   5.769
 2259SOL     OW 7675   5.431   3.609   6.611
 2259SOL    HW1 7676   5.385   3.584   6.696
 2259SOL    HW2 7677   5.521   3.647   6.631
 2260SOL     OW 7678   6.237   4.193   2.227
 2260SOL    HW1 7679   6.310   4.191   2.295
 2260SOL    HW2 7680   6.183   4.276   2.238
 2261SOL     OW 7681   6.663   6.178   6.932
 2261SOL    HW1 7682   6.691   6.118   6.856
 2261SOL    HW2 7683   6.701   6.269   6.918
 2262SOL     OW 7684   5.903   1.374   2.764
 2262SOL    HW1 7685   5.847   1.405   2.688
 2262SOL    HW2 7686   5.874   1.421   2.848
 2263SOL     OW 7687   3.660   5.580   6.788
 2263SOL    HW1 7688   3.603   5.502   6.765
 2263SOL    HW2 7689   3.703   5.616   6.706
 2264SOL     OW 7690   2.473   4.425   0.262
 2264SOL    HW1 7691   2.516   4.352   0.208
 2264SOL    HW2 7692   2.540   4.463   0.325
 2265SOL     OW 7693   0.633   1.304   4.641
 2265SOL    HW1 7694   0.639   1.235   4.569
 2265SOL    HW2 7695   0.709   1.292   4.705
 2266SOL     OW 7696   5.373   2.035   0.387
 2266SOL    HW1 7697   5.380   2.134   0.373
 2266SOL    HW2 7698   5.344   1.991   0.302
 2267SOL     OW 7699   5.298   2.748   5.172
 2267SOL    HW1 7700   5.344   2.829   5.134
 2267SOL    HW2 7701   5.318   2.669   5.114
 2268SOL     OW 7702   6.357   3.434   6.884
 2268SOL    HW1 7703   6.284   3.397   6.827
 2268SOL    HW2 7704   6.359   3.534   6.875
 2269SOL     OW 7705   5.684   5.489   4.751
 2269SOL    HW1 7706   5.733   5.550   4.814
 2269SOL    HW2 7707   5.749   5.451   4.685
 2270SOL     OW 7708   2.836   2.546   5.962
 2270SOL    HW1 7709   2.903   2.620   5.966
 2270SOL    HW2 7710   2.829   2.512   5.869
 2271SOL     OW 7711   5.887   3.969   0.722
 2271SOL    HW1 7712   5.861   3.901   0.791
 2271SOL    HW2 7713   5.949   3.927   0.656
 2272SOL     OW 7714   6.317   2.341   5.924
 2272SOL    HW1 7715   6.394   2.369   5.982
 2272SOL    HW2 7716   6.239   2.317   5.982
 2273SOL     OW 7717   1.839   0.722   1.975
 2273SOL    HW1 7718   1.852   0.698   1.879
 2273SOL    HW2 7719   1.908   0.789   2.003
 2274SOL     OW 7720   6.752   2.530   6.739
 2274SOL    HW1 7721   6.740   2.555   6.642
 2274SOL    HW2 7722   6.785   2.436   6.746
 2275SOL     OW 7723   5.870   0.568   4.398
 2275SOL    HW1 7724   5.866   0.496   4.467
 2275SOL    HW2 7725   5.965   0.591   4.378
 2276SOL     OW 7726   2.773   5.174   0.640
 2276SOL    HW1 7727   2.687   5.137   0.607
 2276SOL    HW2 7728   2.824   5.103   0.688
 2277SOL     OW 7729   4.125   3.667   4.909
 2277SOL    HW1 7730   4.163   3.582   4.947
 2277SOL    HW2 7731   4.117   3.735   4.982
 2278SOL     OW 7732   6.693   5.026   4.182
 2278SOL    HW1 7733   6.691   5.114   4.228
 2278SOL    HW2 7734   6.672   4.953   4.248
 2279SOL     OW 7735   5.217   6.203   4.770
 2279SOL    HW1 7736   5.235   6.301   4.761
 2279SOL    HW2 7737   5.287   6.162   4.828
 2280SOL     OW 7738   6.802   6.854   4.243
 2280SOL    HW1 7739   6.743   6.833   4.165
 2280SOL    HW2 7740   6.769   6.936   4.288
 2281SOL     OW 7741   3.421   1.842   2.288
 2281SOL    HW1 7742   3.508   1.794   2.296
 2281SOL    HW2 7743   3.427   1.913   2.218
 2282SOL     OW 7744   5.063   0.479   4.757
 2282SOL    HW1 7745   5.156   0.516   4.761
 2282SOL    HW2 7746   5.022   0.504   4.669
 2283SOL     OW 7747   0.441   4.438   1.669
 2283SOL    HW1 7748   0.359   4.401   1.626
 2283SOL    HW2 7749   0.449   4.535   1.649
 2284SOL     OW 7750   1.619   2.391   6.494
 2284SOL    HW1 7751   1.549   2.321   6.484
 2284SOL    HW2 7752   1.586   2.477   6.456
 2285SOL     OW 7753   2.361   2.211   0.594
 2285SOL    HW1 7754   2.459   2.219   0.609
 2285SOL    HW2 7755   2.340   2.237   0.499
 2286SOL     OW 7756   6.874   0.581   4.216
 2286SOL    HW1 7757   6.889   0.600   4.119
 2286SOL    HW2 7758   6.867   0.667   4.267
 2287SOL     OW 7759   1.402   1.532   3.153
 2287SOL    HW1 7760   1.464   1.611   3.149
 2287SOL    HW2 7761   1.345   1.538   3.235
 2288SOL     OW 7762   6.217   5.371   4.461
 2288SOL    HW1 7763   6.183   5.307   4.529
 2288SOL    HW2 7764   6.317   5.364   4.456
 2289SOL     OW 7765   0.458   4.705   2.056
 2289SOL    HW1 7766   0.553   4.688   2.080
 2289SOL    HW2 7767   0.422   4.780   2.111
 2290SOL     OW 7768   1.419   4.430   1.640
 2290SOL    HW1 7769   1.490   4.470   1.581
 2290SOL    HW2 7770   1.438   4.452   1.735
 2291SOL     OW 7771   2.645   2.483   6.720
 2291SOL    HW1 7772   2.725   2.501   6.663
 2291SOL    HW2 7773   2.580   2.427   6.669
 2292SOL     OW 7774   5.932   2.091   4.830
 2292SOL    HW1 7775   5.847   2.094   4.882
 2292SOL    HW2 7776   5.960   2.184   4.805
 2293SOL     OW 7777   5.349   6.951   1.348
 2293SOL    HW1 7778   5.413   6.877   1.327
 2293SOL    HW2 7779   5.399   0.001   1.387
 2294SOL     OW 7780   3.006   1.031   6.496
 2294SOL    HW1 7781   2.944   1.009   6.420
 2294SOL    HW2 7782   3.080   0.964   6.498
 2295SOL     OW 7783   0.569   1.954   3.041
 2295SOL    HW1 7784   0.577   1.854   3.046
 2295SOL    HW2 7785   0.596   1.994   3.128
 2296SOL     OW 7786   3.913   5.685   1.709
 2296SOL    HW1 7787   3.879   5.666   1.617
 2296SOL    HW2 7788   4.006   5.650   1.718
 2297SOL     OW 7789   4.802   4.809   5.588
 2297SOL    HW1 7790   4.817   4.870   5.510
 2297SOL    HW2 7791   4.729   4.845   5.645
 2298SOL     OW 7792   4.091   3.361   1.580
 2298SOL    HW1 7793   4.053   3.270   1.564
 2298SOL    HW2 7794   4.142   3.361   1.666
 2299SOL     OW 7795   4.557   4.922   5.204
 2299SOL    HW1 7796   4.608   4.882   5.128
 2299SOL    HW2 7797   4.468   4.955   5.172
 2300SOL     OW 7798   2.253   6.101   1.877
 2300SOL    HW1 7799   2.332   6.043   1.895
 2300SOL    HW2 7800   2.170   6.056   1.910
 2301SOL     OW 7801   3.427   2.846   2.648
 2301SOL    HW1 7802   3.471   2.756   2.648
 2301SOL    HW2 7803   3.380   2.860   2.735
 2302SOL     OW 7804   3.839   6.838   1.031
 2302SOL    HW1 7805   3.804   6.929   1.051
 2302SOL    HW2 7806   3.764   6.779   1.001
 2303SOL     OW 7807   2.449   3.334   6.341
 2303SOL    HW1 7808   2.432   3.306   6.436
 2303SOL    HW2 7809   2.390   3.411   6.318
 2304SOL     OW 7810   4.834   0.022   3.572
 2304SOL    HW1 7811   4.824   0.090   3.499
 2304SOL    HW2 7812   4.744   7.016   3.600
 2305SOL     OW 7813   2.382   6.957   2.323
 2305SOL    HW1 7814   2.306   6.974   2.260
 2305SOL    HW2 7815   2.378   7.022   2.398
 2306SOL     OW 7816   2.796   5.120   1.791
 2306SOL    HW1 7817   2.764   5.107   1.697
 2306SOL    HW2 7818   2.717   5.130   1.852
 2307SOL     OW 7819   6.623   3.992   3.286
 2307SOL    HW1 7820   6.601   4.069   3.225
 2307SOL    HW2 7821   6.571   4.001   3.371
 2308SOL     OW 7822   1.481   5.359   1.595
 2308SOL    HW1 7823   1.459   5.262   1.596
 2308SOL    HW2 7824   1.502   5.390   1.687
 2309SOL     OW 7825   1.767   0.830   6.495
 2309SOL    HW1 7826   1.674   0.847   6.461
 2309SOL    HW2 7827   1.830   0.891   6.447
 2310SOL     OW 7828   5.069   6.436   0.698
 2310SOL    HW1 7829   5.132   6.426   0.620
 2310SOL    HW2 7830   5.050   6.533   0.713
 2311SOL     OW 7831   1.893   6.472   1.168
 2311SOL    HW1 7832   1.809   6.454   1.117
 2311SOL    HW2 7833   1.922   6.566   1.151
 2312SOL     OW 7834   4.281   6.347   2.743
 2312SOL    HW1 7835   4.309   6.278   2.676
 2312SOL    HW2 7836   4.271   6.436   2.698
 2313SOL     OW 7837   6.245   5.995   1.296
 2313SOL    HW1 7838   6.254   5.968   1.392
 2313SOL    HW2 7839   6.223   5.915   1.240
 2314SOL     OW 7840   5.969   6.884   4.162
 2314SOL    HW1 7841   6.000   6.810   4.103
 2314SOL    HW2 7842   5.927   6.956   4.106
 2315SOL     OW 7843   4.838   3.408   6.478
 2315SOL    HW1 7844   4.786   3.427   6.561
 2315SOL    HW2 7845   4.826   3.312   6.452
 2316SOL     OW 7846   3.570   1.262   4.239
 2316SOL    HW1 7847   3.628   1.339   4.264
 2316SOL    HW2 7848   3.622   1.177   4.246
 2317SOL     OW 7849   0.498   6.443   3.377
 2317SOL    HW1 7850   0.442   6.462   3.297
 2317SOL    HW2 7851   0.510   6.527   3.430
 2318SOL     OW 7852   1.839   2.932   4.422
 2318SOL    HW1 7853   1.843   3.024   4.383
 2318SOL    HW2 7854   1.922   2.914   4.474
 2319SOL     OW 7855   2.453   4.731   3.944
 2319SOL    HW1 7856   2.388   4.780   3.887
 2319SOL    HW2 7857   2.412   4.646   3.977
 2320SOL     OW 7858   1.112   2.247   4.733
 2320SOL    HW1 7859   1.129   2.202   4.646
 2320SOL    HW2 7860   1.199   2.263   4.780
 2321SOL     OW 7861   2.354   0.261   7.016
 2321SOL    HW1 7862   2.385   0.288   0.080
 2321SOL    HW2 7863   2.332   0.343   6.963
 2322SOL     OW 7864   2.677   1.370   4.164
 2322SOL    HW1 7865   2.733   1.348   4.243
 2322SOL    HW2 7866   2.688   1.299   4.094
 2323SOL     OW 7867   3.021   5.263   1.693
 2323SOL    HW1 7868   3.015   5.269   1.593
 2323SOL    HW2 7869   2.965   5.186   1.724
 2324SOL     OW 7870   6.372   6.913   1.565
 2324SOL    HW1 7871   6.441   6.985   1.557
 2324SOL    HW2 7872   6.281   6.953   1.556
 2325SOL     OW 7873   1.333   4.956   1.983
 2325SOL    HW1 7874   1.388   4.998   1.910
 2325SOL    HW2 7875   1.239   4.945   1.951
 2326SOL     OW 7876   3.028   5.989   5.644
 2326SOL    HW1 7877   3.024   6.033   5.734
 2326SOL    HW2 7878   3.093   5.912   5.647
 2327SOL     OW 7879   6.904   2.607   3.860
 2327SOL    HW1 7880   6.839   2.676   3.828
 2327SOL    HW2 7881   6.953   2.568   3.782
 2328SOL     OW 7882   3.386   2.131   2.652
 2328SOL    HW1 7883   3.324   2.092   2.584
 2328SOL    HW2 7884   3.333   2.170   2.727
 2329SOL     OW 7885   1.260   3.760   5.219
 2329SOL    HW1 7886   1.162   3.777   5.229
 2329SOL    HW2 7887   1.311   3.831   5.267
 2330SOL     OW 7888   0.957   4.178   1.375
 2330SOL    HW1 7889   0.995   4.087   1.392
 2330SOL    HW2 7890   0.858   4.174   1.377
 2331SOL     OW 7891   5.893   4.423   1.277
 2331SOL    HW1 7892   5.812   4.369   1.253
 2331SOL    HW2 7893   5.952   4.431   1.197
 2332SOL     OW 7894   4.984   1.921   5.016
 2332SOL    HW1 7895   4.924   1.987   4.971
 2332SOL    HW2 7896   4.929   1.842   5.045
 2333SOL     OW 7897   0.610   5.260   2.992
 2333SOL    HW1 7898   0.666   5.235   3.071
 2333SOL    HW2 7899   0.518   5.224   3.003
 2334SOL     OW 7900   2.627   6.886   0.232
 2334SOL    HW1 7901   2.563   6.890   0.156
 2334SOL    HW2 7902   2.719   6.867   0.197
 2335SOL     OW 7903   5.995   1.127   2.804
 2335SOL    HW1 7904   5.963   1.221   2.816
 2335SOL    HW2 7905   5.943   1.067   2.865
 2336SOL     OW 7906   4.480   2.282   4.863
 2336SOL    HW1 7907   4.380   2.284   4.860
 2336SOL    HW2 7908   4.512   2.341   4.937
 2337SOL     OW 7909   4.485   0.977   3.217
 2337SOL    HW1 7910   4.482   0.886   3.259
 2337SOL    HW2 7911   4.564   0.982   3.156
 2338SOL     OW 7912   1.226   2.040   6.053
 2338SOL    HW1 7913   1.291   1.999   6.118
 2338SOL    HW2 7914   1.133   2.019   6.082
 2339SOL     OW 7915   3.998   3.889   4.778
 2339SOL    HW1 7916   3.958   3.890   4.687
 2339SOL    HW2 7917   4.090   3.850   4.774
 2340SOL     OW 7918   5.418   4.639   6.933
 2340SOL    HW1 7919   5.323   4.633   6.965
 2340SOL    HW2 7920   5.480   4.633   7.011
 2341SOL     OW 7921   5.204   4.223   0.976
 2341SOL    HW1 7922   5.129   4.167   1.011
 2341SOL    HW2 7923   5.270   4.240   1.049
 2342SOL     OW 7924   0.226   6.625   5.001
 2342SOL    HW1 7925   0.233   6.527   5.019
 2342SOL    HW2 7926   0.309   6.656   4.952
 2343SOL     OW 7927   2.270   6.249   2.644
 2343SOL    HW1 7928   2.222   6.315   2.702
 2343SOL    HW2 7929   2.214   6.167   2.634
 2344SOL     OW 7930   1.564   1.009   1.127
 2344SOL    HW1 7931   1.537   1.100   1.159
 2344SOL    HW2 7932   1.485   0.948   1.129
 2345SOL     OW 7933   3.632   5.612   5.790
 2345SOL    HW1 7934   3.665   5.560   5.869
 2345SOL    HW2 7935   3.692   5.595   5.711
 2346SOL     OW 7936   4.710   2.785   4.883
 2346SOL    HW1 7937   4.769   2.704   4.889
 2346SOL    HW2 7938   4.671   2.790   4.791
 2347SOL     OW 7939   2.559   3.570   1.691
 2347SOL    HW1 7940   2.534   3.657   1.648
 2347SOL    HW2 7941   2.493   3.549   1.764
 2348SOL     OW 7942   3.471   6.297   3.326
 2348SOL    HW1 7943   3.397   6.288   3.260
 2348SOL    HW2 7944   3.557   6.312   3.278
 2349SOL     OW 7945   0.401   4.808   5.869
 2349SOL    HW1 7946   0.311   4.814   5.827
 2349SOL    HW2 7947   0.437   4.715   5.859
 2350SOL     OW 7948   5.056   6.874   6.329
 2350SOL    HW1 7949   5.152   6.859   6.349
 2350SOL    HW2 7950   5.033   6.970   6.347
 2351SOL     OW 7951   3.346   5.063   2.722
 2351SOL    HW1 7952   3.399   5.044   2.639
 2351SOL    HW2 7953   3.404   5.049   2.802
 2352SOL     OW 7954   1.318   4.008   2.036
 2352SOL    HW1 7955   1.269   3.922   2.049
 2352SOL    HW2 7956   1.253   4.080   2.010
 2353SOL     OW 7957   3.091   4.780   5.136
 2353SOL    HW1 7958   3.043   4.693   5.148
 2353SOL    HW2 7959   3.088   4.806   5.040
 2354SOL     OW 7960   2.833   1.710   6.131
 2354SOL    HW1 7961   2.851   1.612   6.134
 2354SOL    HW2 7962   2.843   1.749   6.222
 2355SOL     OW 7963   1.289   5.434   6.799
 2355SOL    HW1 7964   1.345   5.451   6.718
 2355SOL    HW2 7965   1.233   5.353   6.786
 2356SOL     OW 7966   2.406   3.932   0.581
 2356SOL    HW1 7967   2.424   3.996   0.507
 2356SOL    HW2 7968   2.327   3.875   0.557
 2357SOL     OW 7969   4.323   5.396   3.611
 2357SOL    HW1 7970   4.234   5.415   3.570
 2357SOL    HW2 7971   4.310   5.353   3.700
 2358SOL     OW 7972   2.741   5.263   5.403
 2358SOL    HW1 7973   2.693   5.269   5.315
 2358SOL    HW2 7974   2.714   5.340   5.461
 2359SOL     OW 7975   6.905   0.810   5.995
 2359SOL    HW1 7976   6.902   0.883   5.927
 2359SOL    HW2 7977   6.998   0.774   6.003
 2360SOL     OW 7978   5.188   6.298   5.549
 2360SOL    HW1 7979   5.168   6.211   5.594
 2360SOL    HW2 7980   5.171   6.374   5.613
 2361SOL     OW 7981   2.808   0.802   5.472
 2361SOL    HW1 7982   2.908   0.807   5.483
 2361SOL    HW2 7983   2.768   0.892   5.490
 2362SOL     OW 7984   2.815   0.622   5.264
 2362SOL    HW1 7985   2.888   0.649   5.202
 2362SOL    HW2 7986   2.802   0.693   5.333
 2363SOL     OW 7987   3.842   2.526   5.562
 2363SOL    HW1 7988   3.908   2.600   5.547
 2363SOL    HW2 7989   3.773   2.556   5.628
 2364SOL     OW 7990   0.526   2.434   2.969
 2364SOL    HW1 7991   0.603   2.395   2.917
 2364SOL    HW2 7992   0.475   2.497   2.910
 2365SOL     OW 7993   6.204   2.307   5.689
 2365SOL    HW1 7994   6.260   2.311   5.771
 2365SOL    HW2 7995   6.262   2.287   5.609
 2366SOL     OW 7996   1.708   4.366   5.846
 2366SOL    HW1 7997   1.798   4.366   5.801
 2366SOL    HW2 7998   1.664   4.454   5.832
 2367SOL     OW 7999   3.786   3.644   0.027
 2367SOL    HW1 8000   3.812   3.661   6.959
 2367SOL    HW2 8001   3.703   3.695   0.049
 2368SOL     OW 8002   5.176   0.201   3.444
 2368SOL    HW1 8003   5.235   0.270   3.485
 2368SOL    HW2 8004   5.081   0.223   3.463
 2369SOL     OW 8005   1.843   2.648   5.170
 2369SOL    HW1 8006   1.844   2.559   5.123
 2369SOL    HW2 8007   1.865   2.720   5.104
 2370SOL     OW 8008   4.901   3.905   6.822
 2370SOL    HW1 8009   4.964   3.978   6.796
 2370SOL    HW2 8010   4.810   3.925   6.785
 2371SOL     OW 8011   1.074   6.121   1.621
 2371SOL    HW1 8012   1.071   6.102   1.523
 2371SOL    HW2 8013   1.053   6.037   1.672
 2372SOL     OW 8014   0.645   2.108   1.551
 2372SOL    HW1 8015   0.638   2.011   1.574
 2372SOL    HW2 8016   0.701   2.155   1.619
 2373SOL     OW 8017   6.802   7.013   0.151
 2373SOL    HW1 8018   6.716   0.031   0.175
 2373SOL    HW2 8019   6.871   0.007   0.220
 2374SOL     OW 8020   6.014   0.786   4.130
 2374SOL    HW1 8021   6.050   0.701   4.169
 2374SOL    HW2 8022   6.031   0.862   4.193
 2375SOL     OW 8023   1.960   6.704   4.716
 2375SOL    HW1 8024   1.875   6.757   4.723
 2375SOL    HW2 8025   2.035   6.764   4.688
 2376SOL     OW 8026   5.559   1.918   4.132
 2376SOL    HW1 8027   5.569   1.867   4.217
 2376SOL    HW2 8028   5.487   1.876   4.076
 2377SOL     OW 8029   3.609   4.145   2.714
 2377SOL    HW1 8030   3.658   4.060   2.733
 2377SOL    HW2 8031   3.609   4.203   2.795
 2378SOL     OW 8032   5.136   2.302   0.001
 2378SOL    HW1 8033   5.225   2.261   7.012
 2378SOL    HW2 8034   5.101   2.342   6.944
 2379SOL     OW 8035   6.917   1.651   6.677
 2379SOL    HW1 8036   6.926   1.551   6.678
 2379SOL    HW2 8037   7.008   1.692   6.684
 2380SOL     OW 8038   0.049   6.739   5.658
 2380SOL    HW1 8039   7.020   6.722   5.740
 2380SOL    HW2 8040   7.018   6.738   5.577
 2381SOL     OW 8041   2.226   4.116   4.214
 2381SOL    HW1 8042   2.307   4.143   4.162
 2381SOL    HW2 8043   2.175   4.047   4.162
 2382SOL     OW 8044   2.425   5.069   3.404
 2382SOL    HW1 8045   2.338   5.077   3.354
 2382SOL    HW2 8046   2.436   5.148   3.464
 2383SOL     OW 8047   5.235   5.999   7.006
 2383SOL    HW1 8048   5.192   6.057   0.047
 2383SOL    HW2 8049   5.274   6.056   6.934
 2384SOL     OW 8050   6.832   6.843   1.983
 2384SOL    HW1 8051   6.837   6.852   2.083
 2384SOL    HW2 8052   6.828   6.934   1.942
 2385SOL     OW 8053   6.112   6.913   1.550
 2385SOL    HW1 8054   6.104   6.854   1.631
 2385SOL    HW2 8055   6.055   6.876   1.476
 2386SOL     OW 8056   5.233   4.448   4.362
 2386SOL    HW1 8057   5.296   4.375   4.389
 2386SOL    HW2 8058   5.195   4.427   4.272
 2387SOL     OW 8059   0.320   2.105   3.354
 2387SOL    HW1 8060   0.320   2.202   3.331
 2387SOL    HW2 8061   0.350   2.094   3.449
 2388SOL     OW 8062   1.320   1.734   3.846
 2388SOL    HW1 8063   1.368   1.652   3.814
 2388SOL    HW2 8064   1.247   1.757   3.782
 2389SOL     OW 8065   5.760   3.529   3.581
 2389SOL    HW1 8066   5.747   3.558   3.676
 2389SOL    HW2 8067   5.727   3.436   3.570
 2390SOL     OW 8068   3.177   3.709   4.289
 2390SOL    HW1 8069   3.080   3.701   4.314
 2390SOL    HW2 8070   3.230   3.641   4.339
 2391SOL     OW 8071   4.421   4.069   5.711
 2391SOL    HW1 8072   4.444   3.974   5.730
 2391SOL    HW2 8073   4.497   4.112   5.661
 2392SOL     OW 8074   3.544   6.572   4.965
 2392SOL    HW1 8075   3.467   6.618   4.921
 2392SOL    HW2 8076   3.562   6.614   5.054
 2393SOL     OW 8077   4.492   4.721   0.304
 2393SOL    HW1 8078   4.486   4.814   0.268
 2393SOL    HW2 8079   4.582   4.683   0.282
 2394SOL     OW 8080   1.591   2.985   4.522
 2394SOL    HW1 8081   1.634   3.011   4.610
 2394SOL    HW2 8082   1.656   2.932   4.468
 2395SOL     OW 8083   6.043   2.364   0.330
 2395SOL    HW1 8084   6.053   2.271   0.293
 2395SOL    HW2 8085   6.090   2.429   0.270
 2396SOL     OW 8086   3.972   5.578   0.671
 2396SOL    HW1 8087   3.912   5.635   0.614
 2396SOL    HW2 8088   3.958   5.601   0.767
 2397SOL     OW 8089   0.426   3.848   0.248
 2397SOL    HW1 8090   0.345   3.789   0.239
 2397SOL    HW2 8091   0.399   3.944   0.236
 2398SOL     OW 8092   3.300   4.527   6.154
 2398SOL    HW1 8093   3.343   4.611   6.121
 2398SOL    HW2 8094   3.201   4.534   6.140
 2399SOL     OW 8095   5.347   1.482   2.623
 2399SOL    HW1 8096   5.313   1.388   2.622
 2399SOL    HW2 8097   5.374   1.508   2.530
 2400SOL     OW 8098   4.429   4.971   0.160
 2400SOL    HW1 8099   4.340   4.969   0.115
 2400SOL    HW2 8100   4.441   5.059   0.207
 2401SOL     OW 8101   4.087   0.829   6.520
 2401SOL    HW1 8102   4.037   0.875   6.593
 2401SOL    HW2 8103   4.059   0.733   6.516
 2402SOL     OW 8104   0.898   2.025   4.585
 2402SOL    HW1 8105   0.833   1.949   4.583
 2402SOL    HW2 8106   0.897   2.067   4.676
 2403SOL     OW 8107   2.974   2.449   0.209
 2403SOL    HW1 8108   3.059   2.499   0.225
 2403SOL    HW2 8109   2.983   2.356   0.243
 2404SOL     OW 8110   6.012   0.968   1.642
 2404SOL    HW1 8111   5.956   1.051   1.641
 2404SOL    HW2 8112   6.108   0.993   1.627
 2405SOL     OW 8113   3.204   3.485   3.689
 2405SOL    HW1 8114   3.201   3.395   3.646
 2405SOL    HW2 8115   3.112   3.525   3.689
 2406SOL     OW 8116   1.634   6.556   3.798
 2406SOL    HW1 8117   1.611   6.459   3.791
 2406SOL    HW2 8118   1.568   6.601   3.858
 2407SOL     OW 8119   5.364   2.320   2.686
 2407SOL    HW1 8120   5.368   2.335   2.587
 2407SOL    HW2 8121   5.356   2.408   2.732
 2408SOL     OW 8122   2.887   4.968   2.679
 2408SOL    HW1 8123   2.936   4.943   2.595
 2408SOL    HW2 8124   2.851   5.061   2.671
 2409SOL     OW 8125   1.827   2.968   1.518
 2409SOL    HW1 8126   1.856   2.935   1.607
 2409SOL    HW2 8127   1.811   2.890   1.457
 2410SOL     OW 8128   4.992   2.429   6.249
 2410SOL    HW1 8129   4.974   2.519   6.290
 2410SOL    HW2 8130   4.937   2.419   6.166
 2411SOL     OW 8131   4.865   5.223   5.541
 2411SOL    HW1 8132   4.772   5.217   5.578
 2411SOL    HW2 8133   4.861   5.226   5.441
 2412SOL     OW 8134   3.103   4.586   6.930
 2412SOL    HW1 8135   3.091   4.489   6.951
 2412SOL    HW2 8136   3.197   4.613   6.951
 2413SOL     OW 8137   6.344   2.096   0.259
 2413SOL    HW1 8138   6.406   2.174   0.253
 2413SOL    HW2 8139   6.305   2.092   0.352
 2414SOL     OW 8140   5.429   4.293   2.026
 2414SOL    HW1 8141   5.377   4.276   1.942
 2414SOL    HW2 8142   5.485   4.375   2.014
 2415SOL     OW 8143   1.041   6.571   1.083
 2415SOL    HW1 8144   1.126   6.529   1.051
 2415SOL    HW2 8145   0.977   6.500   1.111
 2416SOL     OW 8146   3.120   2.055   5.227
 2416SOL    HW1 8147   3.100   2.066   5.324
 2416SOL    HW2 8148   3.114   2.145   5.182
 2417SOL     OW 8149   4.302   2.851   6.349
 2417SOL    HW1 8150   4.316   2.927   6.412
 2417SOL    HW2 8151   4.382   2.790   6.351
 2418SOL     OW 8152   2.936   3.651   3.630
 2418SOL    HW1 8153   2.971   3.743   3.648
 2418SOL    HW2 8154   2.914   3.607   3.717
 2419SOL     OW 8155   0.669   6.534   3.821
 2419SOL    HW1 8156   0.570   6.546   3.821
 2419SOL    HW2 8157   0.702   6.531   3.727
 2420SOL     OW 8158   3.511   1.199   2.009
 2420SOL    HW1 8159   3.530   1.152   2.095
 2420SOL    HW2 8160   3.541   1.141   1.933
 2421SOL     OW 8161   2.852   1.040   5.252
 2421SOL    HW1 8162   2.897   1.105   5.314
 2421SOL    HW2 8163   2.922   0.985   5.205
 2422SOL     OW 8164   5.694   0.590   2.000
 2422SOL    HW1 8165   5.698   0.584   1.900
 2422SOL    HW2 8166   5.604   0.560   2.032
 2423SOL     OW 8167   1.439   6.005   3.644
 2423SOL    HW1 8168   1.355   6.004   3.698
 2423SOL    HW2 8169   1.518   5.999   3.706
 2424SOL     OW 8170   5.962   6.152   6.218
 2424SOL    HW1 8171   5.863   6.166   6.229
 2424SOL    HW2 8172   5.994   6.200   6.137
 2425SOL     OW 8173   6.194   0.137   4.246
 2425SOL    HW1 8174   6.248   0.210   4.287
 2425SOL    HW2 8175   6.176   0.066   4.315
 2426SOL     OW 8176   0.866   4.516   3.653
 2426SOL    HW1 8177   0.924   4.574   3.710
 2426SOL    HW2 8178   0.905   4.510   3.561
 2427SOL     OW 8179   5.936   5.237   6.757
 2427SOL    HW1 8180   5.854   5.203   6.711
 2427SOL    HW2 8181   5.909   5.297   6.833
 2428SOL     OW 8182   7.012   0.099   3.730
 2428SOL    HW1 8183   0.058   0.108   3.798
 2428SOL    HW2 8184   6.946   0.174   3.741
 2429SOL     OW 8185   6.677   6.132   4.603
 2429SOL    HW1 8186   6.726   6.208   4.646
 2429SOL    HW2 8187   6.740   6.058   4.584
 2430SOL     OW 8188   6.522   2.383   1.331
 2430SOL    HW1 8189   6.607   2.368   1.383
 2430SOL    HW2 8190   6.542   2.381   1.233
 2431SOL     OW 8191   3.455   0.234   1.842
 2431SOL    HW1 8192   3.471   0.236   1.941
 2431SOL    HW2 8193   3.384   0.166   1.821
 2432SOL     OW 8194   3.364   6.574   2.943
 2432SOL    HW1 8195   3.371   6.553   2.845
 2432SOL    HW2 8196   3.455   6.593   2.980
 2433SOL     OW 8197   3.489   6.401   0.831
 2433SOL    HW1 8198   3.390   6.396   0.827
 2433SOL    HW2 8199   3.524   6.330   0.892
 2434SOL     OW 8200   4.340   1.586   3.552
 2434SOL    HW1 8201   4.351   1.657   3.482
 2434SOL    HW2 8202   4.424   1.532   3.559
 2435SOL     OW 8203   4.730   5.595   5.742
 2435SOL    HW1 8204   4.782   5.629   5.820
 2435SOL    HW2 8205   4.665   5.665   5.712
 2436SOL     OW 8206   1.569   6.651   1.254
 2436SOL    HW1 8207   1.554   6.609   1.165
 2436SOL    HW2 8208   1.510   6.731   1.264
 2437SOL     OW 8209   3.721   5.926   0.972
 2437SOL    HW1 8210   3.730   6.009   0.916
 2437SOL    HW2 8211   3.653   5.865   0.930
 2438SOL     OW 8212   3.714   1.433   5.836
 2438SOL    HW1 8213   3.777   1.503   5.802
 2438SOL    HW2 8214   3.732   1.417   5.933
 2439SOL     OW 8215   1.586   4.512   7.003
 2439SOL    HW1 8216   1.618   4.433   6.950
 2439SOL    HW2 8217   1.587   4.490   0.073
 2440SOL     OW 8218   3.482   6.281   4.898
 2440SOL    HW1 8219   3.406   6.274   4.964
 2440SOL    HW2 8220   3.496   6.378   4.875
 2441SOL     OW 8221   6.481   0.534   0.315
 2441SOL    HW1 8222   6.429   0.615   0.286
 2441SOL    HW2 8223   6.454   0.455   0.260
 2442SOL     OW 8224   6.592   6.064   4.055
 2442SOL    HW1 8225   6.553   6.056   3.963
 2442SOL    HW2 8226   6.523   6.037   4.123
 2443SOL     OW 8227   3.424   6.789   6.262
 2443SOL    HW1 8228   3.519   6.778   6.233
 2443SOL    HW2 8229   3.420   6.800   6.361
 2444SOL     OW 8230   3.783   4.390   6.102
 2444SOL    HW1 8231   3.769   4.420   6.008
 2444SOL    HW2 8232   3.881   4.389   6.122
 2445SOL     OW 8233   6.937   0.773   2.309
 2445SOL    HW1 8234   6.971   0.853   2.358
 2445SOL    HW2 8235   6.990   0.759   2.226
 2446SOL     OW 8236   0.576   3.314   4.171
 2446SOL    HW1 8237   0.605   3.247   4.103
 2446SOL    HW2 8238   0.577   3.272   4.262
 2447SOL     OW 8239   2.527   1.216   1.012
 2447SOL    HW1 8240   2.449   1.161   1.040
 2447SOL    HW2 8241   2.531   1.219   0.912
 2448SOL     OW 8242   1.002   0.341   4.956
 2448SOL    HW1 8243   0.957   0.305   5.037
 2448SOL    HW2 8244   1.049   0.267   4.908
 2449SOL     OW 8245   0.496   4.183   2.481
 2449SOL    HW1 8246   0.424   4.164   2.548
 2449SOL    HW2 8247   0.458   4.180   2.389
 2450SOL     OW 8248   2.815   4.815   4.292
 2450SOL    HW1 8249   2.789   4.734   4.240
 2450SOL    HW2 8250   2.811   4.895   4.233
 2451SOL     OW 8251   0.517   0.351   3.914
 2451SOL    HW1 8252   0.572   0.394   3.843
 2451SOL    HW2 8253   0.464   0.276   3.875
 2452SOL     OW 8254   2.502   2.219   3.226
 2452SOL    HW1 8255   2.522   2.314   3.205
 2452SOL    HW2 8256   2.585   2.173   3.257
 2453SOL     OW 8257   6.872   3.742   0.848
 2453SOL    HW1 8258   6.951   3.725   0.790
 2453SOL    HW2 8259   6.804   3.670   0.833
 2454SOL     OW 8260   3.400   1.344   0.250
 2454SOL    HW1 8261   3.357   1.345   0.160
 2454SOL    HW2 8262   3.499   1.330   0.240
 2455SOL     OW 8263   5.156   0.293   0.839
 2455SOL    HW1 8264   5.119   0.281   0.931
 2455SOL    HW2 8265   5.253   0.314   0.845
 2456SOL     OW 8266   5.499   1.140   6.850
 2456SOL    HW1 8267   5.531   1.087   6.929
 2456SOL    HW2 8268   5.524   1.094   6.766
 2457SOL     OW 8269   6.141   6.055   6.880
 2457SOL    HW1 8270   6.190   6.036   6.965
 2457SOL    HW2 8271   6.104   5.970   6.843
 2458SOL     OW 8272   2.553   5.764   4.437
 2458SOL    HW1 8273   2.457   5.754   4.410
 2458SOL    HW2 8274   2.559   5.771   4.536
 2459SOL     OW 8275   2.775   6.219   0.374
 2459SOL    HW1 8276   2.868   6.224   0.410
 2459SOL    HW2 8277   2.720   6.159   0.432
 2460SOL     OW 8278   1.995   1.686   1.726
 2460SOL    HW1 8279   1.917   1.634   1.761
 2460SOL    HW2 8280   2.046   1.630   1.661
 2461SOL     OW 8281   4.066   0.159   3.265
 2461SOL    HW1 8282   4.080   0.224   3.340
 2461SOL    HW2 8283   4.020   0.205   3.189
 2462SOL     OW 8284   2.609   5.182   0.069
 2462SOL    HW1 8285   2.622   5.238   0.151
 2462SOL    HW2 8286   2.634   5.235   7.016
 2463SOL     OW 8287   6.486   2.662   4.025
 2463SOL    HW1 8288   6.514   2.712   3.944
 2463SOL    HW2 8289   6.558   2.598   4.052
 2464SOL     OW 8290   1.813   4.429   1.746
 2464SOL    HW1 8291   1.757   4.346   1.748
 2464SOL    HW2 8292   1.877   4.428   1.823
 2465SOL     OW 8293   0.358   6.605   1.510
 2465SOL    HW1 8294   0.453   6.574   1.505
 2465SOL    HW2 8295   0.322   6.621   1.418
 2466SOL     OW 8296   3.535   1.589   1.918
 2466SOL    HW1 8297   3.479   1.530   1.859
 2466SOL    HW2 8298   3.585   1.654   1.861
 2467SOL     OW 8299   5.459   1.960   4.900
 2467SOL    HW1 8300   5.376   1.958   4.957
 2467SOL    HW2 8301   5.540   1.950   4.959
 2468SOL     OW 8302   5.659   6.235   2.341
 2468SOL    HW1 8303   5.662   6.143   2.379
 2468SOL    HW2 8304   5.744   6.283   2.364
 2469SOL     OW 8305   3.692   4.586   5.509
 2469SOL    HW1 8306   3.608   4.555   5.464
 2469SOL    HW2 8307   3.681   4.682   5.536
 2470SOL     OW 8308   3.743   4.532   5.844
 2470SOL    HW1 8309   3.817   4.484   5.798
 2470SOL    HW2 8310   3.657   4.516   5.796
 2471SOL     OW 8311   2.624   6.645   1.118
 2471SOL    HW1 8312   2.723   6.652   1.110
 2471SOL    HW2 8313   2.587   6.596   1.039
 2472SOL     OW 8314   4.247   1.701   3.785
 2472SOL    HW1 8315   4.292   1.660   3.705
 2472SOL    HW2 8316   4.304   1.686   3.866
 2473SOL     OW 8317   1.984   4.127   5.160
 2473SOL    HW1 8318   1.947   4.055   5.101
 2473SOL    HW2 8319   2.079   4.146   5.133
 2474SOL     OW 8320   0.788   5.604   0.589
 2474SOL    HW1 8321   0.738   5.536   0.536
 2474SOL    HW2 8322   0.811   5.566   0.679
 2475SOL     OW 8323   4.939   1.513   1.093
 2475SOL    HW1 8324   4.958   1.534   0.997
 2475SOL    HW2 8325   4.857   1.562   1.123
 2476SOL     OW 8326   0.883   2.852   3.841
 2476SOL    HW1 8327   0.791   2.815   3.856
 2476SOL    HW2 8328   0.885   2.907   3.758
 2477SOL     OW 8329   5.727   0.579   2.518
 2477SOL    HW1 8330   5.806   0.630   2.486
 2477SOL    HW2 8331   5.741   0.482   2.501
 2478SOL     OW 8332   5.428   0.336   2.288
 2478SOL    HW1 8333   5.345   0.364   2.240
 2478SOL    HW2 8334   5.403   0.293   2.375
 2479SOL     OW 8335   1.545   3.613   1.353
 2479SOL    HW1 8336   1.631   3.575   1.388
 2479SOL    HW2 8337   1.504   3.672   1.422
 2480SOL     OW 8338   6.014   4.307   0.907
 2480SOL    HW1 8339   5.928   4.310   0.857
 2480SOL    HW2 8340   6.022   4.389   0.965
 2481SOL     OW 8341   2.630   6.578   0.378
 2481SOL    HW1 8342   2.605   6.496   0.430
 2481SOL    HW2 8343   2.687   6.638   0.435
 2482SOL     OW 8344   4.872   2.878   5.611
 2482SOL    HW1 8345   4.869   2.978   5.615
 2482SOL    HW2 8346   4.954   2.845   5.657
 2483SOL     OW 8347   2.364   0.867   6.595
 2483SOL    HW1 8348   2.348   0.956   6.638
 2483SOL    HW2 8349   2.280   0.836   6.551
 2484SOL     OW 8350   2.208   0.500   0.444
 2484SOL    HW1 8351   2.148   0.491   0.524
 2484SOL    HW2 8352   2.246   0.592   0.442
 2485SOL     OW 8353   4.817   4.505   2.096
 2485SOL    HW1 8354   4.797   4.415   2.059
 2485SOL    HW2 8355   4.794   4.506   2.194
 2486SOL     OW 8356   3.488   5.452   2.904
 2486SOL    HW1 8357   3.506   5.542   2.864
 2486SOL    HW2 8358   3.403   5.415   2.867
 2487SOL     OW 8359   3.770   5.285   6.820
 2487SOL    HW1 8360   3.699   5.353   6.835
 2487SOL    HW2 8361   3.805   5.293   6.727
 2488SOL     OW 8362   2.251   4.150   2.460
 2488SOL    HW1 8363   2.305   4.146   2.544
 2488SOL    HW2 8364   2.169   4.094   2.470
 2489SOL     OW 8365   2.333   5.603   3.468
 2489SOL    HW1 8366   2.277   5.624   3.548
 2489SOL    HW2 8367   2.342   5.685   3.411
 2490SOL     OW 8368   6.564   5.679   1.179
 2490SOL    HW1 8369   6.547   5.760   1.122
 2490SOL    HW2 8370   6.626   5.617   1.130
 2491SOL     OW 8371   2.705   6.254   1.823
 2491SOL    HW1 8372   2.628   6.317   1.832
 2491SOL    HW2 8373   2.739   6.255   1.729
 2492SOL     OW 8374   4.516   3.316   7.005
 2492SOL    HW1 8375   4.484   3.322   0.073
 2492SOL    HW2 8376   4.563   3.401   6.980
 2493SOL     OW 8377   5.376   6.988   3.002
 2493SOL    HW1 8378   5.456   0.014   2.974
 2493SOL    HW2 8379   5.360   7.000   3.099
 2494SOL     OW 8380   5.663   3.401   2.558
 2494SOL    HW1 8381   5.587   3.466   2.553
 2494SOL    HW2 8382   5.716   3.406   2.474
 2495SOL     OW 8383   4.905   7.026   4.750
 2495SOL    HW1 8384   4.844   0.036   4.820
 2495SOL    HW2 8385   4.859   6.951   4.703
 2496SOL     OW 8386   0.952   4.717   6.498
 2496SOL    HW1 8387   1.021   4.651   6.527
 2496SOL    HW2 8388   0.874   4.714   6.561
 2497SOL     OW 8389   0.146   1.151   0.664
 2497SOL    HW1 8390   0.146   1.070   0.723
 2497SOL    HW2 8391   0.127   1.232   0.720
 2498SOL     OW 8392   2.933   2.284   3.341
 2498SOL    HW1 8393   2.865   2.315   3.408
 2498SOL    HW2 8394   3.008   2.237   3.388
 2499SOL     OW 8395   5.276   1.517   4.451
 2499SOL    HW1 8396   5.205   1.558   4.509
 2499SOL    HW2 8397   5.232   1.465   4.378
 2500SOL     OW 8398   4.165   3.243   5.791
 2500SOL    HW1 8399   4.175   3.173   5.720
 2500SOL    HW2 8400   4.235   3.231   5.861
 2501SOL     OW 8401   0.050   5.954   6.762
 2501SOL    HW1 8402   0.044   5.912   6.671
 2501SOL    HW2 8403   6.993   6.003   6.782
 2502SOL     OW 8404   2.715   6.198   3.278
 2502SOL    HW1 8405   2.739   6.271   3.214
 2502SOL    HW2 8406   2.763   6.114   3.253
 2503SOL     OW 8407   3.543   5.834   5.915
 2503SOL    HW1 8408   3.563   5.750   5.866
 2503SOL    HW2 8409   3.628   5.877   5.944
 2504SOL     OW 8410   3.434   5.723   5.249
 2504SOL    HW1 8411   3.532   5.727   5.231
 2504SOL    HW2 8412   3.414   5.773   5.333
 2505SOL     OW 8413   1.539   6.393   4.150
 2505SOL    HW1 8414   1.570   6.471   4.205
 2505SOL    HW2 8415   1.535   6.311   4.208
 2506SOL     OW 8416   6.539   3.106   6.227
 2506SOL    HW1 8417   6.445   3.124   6.200
 2506SOL    HW2 8418   6.545   3.102   6.327
 2507SOL     OW 8419   6.977   4.116   0.168
 2507SOL    HW1 8420   6.907   4.176   0.206
 2507SOL    HW2 8421   6.999   4.146   0.074
 2508SOL     OW 8422   2.780   1.594   2.415
 2508SOL    HW1 8423   2.788   1.677   2.359
 2508SOL    HW2 8424   2.849   1.528   2.386
 2509SOL     OW 8425   5.424   2.979   2.960
 2509SOL    HW1 8426   5.448   3.076   2.963
 2509SOL    HW2 8427   5.330   2.968   2.993
 2510SOL     OW 8428   3.456   4.419   1.071
 2510SOL    HW1 8429   3.390   4.396   0.999
 2510SOL    HW2 8430   3.480   4.516   1.064
 2511SOL     OW 8431   2.338   2.257   4.521
 2511SOL    HW1 8432   2.386   2.200   4.453
 2511SOL    HW2 8433   2.375   2.237   4.612
 2512SOL     OW 8434   5.383   5.311   5.562
 2512SOL    HW1 8435   5.447   5.383   5.535
 2512SOL    HW2 8436   5.306   5.309   5.498
 2513SOL     OW 8437   1.286   2.778   5.742
 2513SOL    HW1 8438   1.317   2.835   5.666
 2513SOL    HW2 8439   1.360   2.766   5.808
 2514SOL     OW 8440   6.867   3.612   4.383
 2514SOL    HW1 8441   6.919   3.675   4.326
 2514SOL    HW2 8442   6.887   3.629   4.479
 2515SOL     OW 8443   1.272   6.607   0.759
 2515SOL    HW1 8444   1.241   6.521   0.800
 2515SOL    HW2 8445   1.346   6.645   0.814
 2516SOL     OW 8446   5.907   6.354   2.981
 2516SOL    HW1 8447   5.928   6.452   2.979
 2516SOL    HW2 8448   5.846   6.335   3.057
 2517SOL     OW 8449   1.718   5.406   5.485
 2517SOL    HW1 8450   1.799   5.356   5.513
 2517SOL    HW2 8451   1.680   5.455   5.564
 2518SOL     OW 8452   2.244   2.909   0.431
 2518SOL    HW1 8453   2.158   2.863   0.406
 2518SOL    HW2 8454   2.318   2.842   0.429
 2519SOL     OW 8455   4.985   5.513   4.253
 2519SOL    HW1 8456   4.926   5.525   4.333
 2519SOL    HW2 8457   5.076   5.551   4.274
 2520SOL     OW 8458   1.135   3.321   0.864
 2520SOL    HW1 8459   1.183   3.234   0.858
 2520SOL    HW2 8460   1.086   3.339   0.778
 2521SOL     OW 8461   1.077   6.469   5.462
 2521SOL    HW1 8462   1.120   6.389   5.419
 2521SOL    HW2 8463   1.074   6.455   5.561
 2522SOL     OW 8464   0.982   2.911   6.051
 2522SOL    HW1 8465   0.924   2.976   6.002
 2522SOL    HW2 8466   1.049   2.961   6.105
 2523SOL     OW 8467   0.670   3.295   0.897
 2523SOL    HW1 8468   0.724   3.288   0.980
 2523SOL    HW2 8469   0.664   3.205   0.853
 2524SOL     OW 8470   0.532   5.912   4.001
 2524SOL    HW1 8471   0.483   5.888   4.085
 2524SOL    HW2 8472   0.607   5.974   4.023
 2525SOL     OW 8473   1.313   2.306   4.915
 2525SOL    HW1 8474   1.304   2.245   4.994
 2525SOL    HW2 8475   1.270   2.394   4.935
 2526SOL     OW 8476   0.978   4.049   5.741
 2526SOL    HW1 8477   0.978   4.026   5.838
 2526SOL    HW2 8478   1.064   4.021   5.699
 2527SOL     OW 8479   4.722   0.174   4.917
 2527SOL    HW1 8480   4.740   0.262   4.963
 2527SOL    HW2 8481   4.640   0.133   4.957
 2528SOL     OW 8482   6.304   4.106   1.063
 2528SOL    HW1 8483   6.362   4.161   1.123
 2528SOL    HW2 8484   6.215   4.093   1.106
 2529SOL     OW 8485   6.116   5.442   6.196
 2529SOL    HW1 8486   6.159   5.505   6.131
 2529SOL    HW2 8487   6.081   5.362   6.146
 2530SOL     OW 8488   1.302   5.816   5.080
 2530SOL    HW1 8489   1.342   5.877   5.149
 2530SOL    HW2 8490   1.224   5.861   5.037
 2531SOL     OW 8491   5.541   5.781   4.520
 2531SOL    HW1 8492   5.462   5.813   4.467
 2531SOL    HW2 8493   5.578   5.699   4.477
 2532SOL     OW 8494   0.650   6.102   0.504
 2532SOL    HW1 8495   0.624   6.005   0.507
 2532SOL    HW2 8496   0.632   6.143   0.594
 2533SOL     OW 8497   5.006   6.516   4.036
 2533SOL    HW1 8498   4.980   6.424   4.065
 2533SOL    HW2 8499   5.022   6.574   4.116
 2534SOL     OW 8500   2.030   0.248   3.615
 2534SOL    HW1 8501   2.085   0.281   3.538
 2534SOL    HW2 8502   2.053   0.152   3.633
 2535SOL     OW 8503   2.557   2.289   6.976
 2535SOL    HW1 8504   2.585   2.281   0.044
 2535SOL    HW2 8505   2.549   2.386   6.951
 2536SOL     OW 8506   0.488   1.640   3.555
 2536SOL    HW1 8507   0.426   1.697   3.608
 2536SOL    HW2 8508   0.509   1.557   3.607
 2537SOL     OW 8509   5.096   6.025   0.388
 2537SOL    HW1 8510   5.133   6.071   0.468
 2537SOL    HW2 8511   5.083   5.928   0.408
 2538SOL     OW 8512   1.571   4.599   4.866
 2538SOL    HW1 8513   1.497   4.539   4.894
 2538SOL    HW2 8514   1.627   4.553   4.797
 2539SOL     OW 8515   4.027   0.229   5.728
 2539SOL    HW1 8516   4.100   0.178   5.682
 2539SOL    HW2 8517   4.035   0.326   5.704
 2540SOL     OW 8518   4.800   0.876   0.709
 2540SOL    HW1 8519   4.749   0.890   0.624
 2540SOL    HW2 8520   4.738   0.841   0.780
 2541SOL     OW 8521   2.011   0.186   5.786
 2541SOL    HW1 8522   1.958   0.148   5.710
 2541SOL    HW2 8523   1.991   0.284   5.795
 2542SOL     OW 8524   3.849   1.744   4.869
 2542SOL    HW1 8525   3.816   1.765   4.777
 2542SOL    HW2 8526   3.917   1.811   4.897
 2543SOL     OW 8527   1.946   0.908   2.696
 2543SOL    HW1 8528   1.905   0.999   2.685
 2543SOL    HW2 8529   1.960   0.866   2.606
 2544SOL     OW 8530   0.226   4.746   2.701
 2544SOL    HW1 8531   0.145   4.802   2.682
 2544SOL    HW2 8532   0.308   4.795   2.672
 2545SOL     OW 8533   1.590   0.901   1.435
 2545SOL    HW1 8534   1.646   0.975   1.399
 2545SOL    HW2 8535   1.494   0.930   1.436
 2546SOL     OW 8536   5.983   3.288   1.675
 2546SOL    HW1 8537   6.067   3.342   1.670
 2546SOL    HW2 8538   5.996   3.213   1.740
 2547SOL     OW 8539   5.277   5.465   6.520
 2547SOL    HW1 8540   5.297   5.492   6.614
 2547SOL    HW2 8541   5.332   5.386   6.495
 2548SOL     OW 8542   2.236   0.900   5.178
 2548SOL    HW1 8543   2.153   0.898   5.123
 2548SOL    HW2 8544   2.306   0.954   5.131
 2549SOL     OW 8545   2.293   2.211   1.854
 2549SOL    HW1 8546   2.320   2.133   1.796
 2549SOL    HW2 8547   2.257   2.177   1.940
 2550SOL     OW 8548   6.020   0.926   6.719
 2550SOL    HW1 8549   5.983   0.968   6.636
 2550SOL    HW2 8550   6.062   0.839   6.696
 2551SOL     OW 8551   3.433   5.399   0.004
 2551SOL    HW1 8552   3.350   5.453   7.017
 2551SOL    HW2 8553   3.496   5.449   0.063
 2552SOL     OW 8554   1.893   5.717   6.122
 2552SOL    HW1 8555   1.877   5.620   6.142
 2552SOL    HW2 8556   1.987   5.730   6.093
 2553SOL     OW 8557   3.046   3.429   6.493
 2553SOL    HW1 8558   2.951   3.398   6.491
 2553SOL    HW2 8559   3.054   3.510   6.550
 2554SOL     OW 8560   1.481   5.452   6.610
 2554SOL    HW1 8561   1.505   5.512   6.686
 2554SOL    HW2 8562   1.564   5.406   6.576
 2555SOL     OW 8563   6.373   6.065   6.716
 2555SOL    HW1 8564   6.402   5.978   6.756
 2555SOL    HW2 8565   6.287   6.094   6.758
 2556SOL     OW 8566   4.001   6.051   1.071
 2556SOL    HW1 8567   3.971   6.146   1.059
 2556SOL    HW2 8568   3.929   5.989   1.043
 2557SOL     OW 8569   2.352   1.507   6.258
 2557SOL    HW1 8570   2.274   1.532   6.201
 2557SOL    HW2 8571   2.319   1.477   6.347
 2558SOL     OW 8572   3.998   3.831   5.139
 2558SOL    HW1 8573   3.979   3.919   5.096
 2558SOL    HW2 8574   4.096   3.823   5.156
 2559SOL     OW 8575   6.299   3.222   3.993
 2559SOL    HW1 8576   6.365   3.211   3.918
 2559SOL    HW2 8577   6.208   3.193   3.961
 2560SOL     OW 8578   4.889   3.606   3.852
 2560SOL    HW1 8579   4.848   3.547   3.782
 2560SOL    HW2 8580   4.979   3.636   3.823
 2561SOL     OW 8581   3.074   0.677   3.780
 2561SOL    HW1 8582   3.123   0.617   3.844
 2561SOL    HW2 8583   3.080   0.637   3.688
 2562SOL     OW 8584   2.428   5.361   2.984
 2562SOL    HW1 8585   2.487   5.408   3.050
 2562SOL    HW2 8586   2.364   5.302   3.032
 2563SOL     OW 8587   4.326   1.379   6.570
 2563SOL    HW1 8588   4.323   1.398   6.471
 2563SOL    HW2 8589   4.270   1.298   6.589
 2564SOL     OW 8590   1.363   6.332   6.552
 2564SOL    HW1 8591   1.412   6.282   6.480
 2564SOL    HW2 8592   1.366   6.279   6.637
 2565SOL     OW 8593   0.394   0.505   0.980
 2565SOL    HW1 8594   0.427   0.433   1.041
 2565SOL    HW2 8595   0.461   0.518   0.907
 2566SOL     OW 8596   1.427   6.857   0.558
 2566SOL    HW1 8597   1.446   6.852   0.460
 2566SOL    HW2 8598   1.432   6.765   0.598
 2567SOL     OW 8599   1.151   1.249   1.747
 2567SOL    HW1 8600   1.089   1.324   1.725
 2567SOL    HW2 8601   1.147   1.230   1.845
 2568SOL     OW 8602   3.052   0.360   0.494
 2568SOL    HW1 8603   3.097   0.425   0.554
 2568SOL    HW2 8604   3.032   0.403   0.406
 2569SOL     OW 8605   1.869   1.507   2.251
 2569SOL    HW1 8606   1.911   1.468   2.333
 2569SOL    HW2 8607   1.866   1.438   2.179
 2570SOL     OW 8608   5.480   6.619   6.388
 2570SOL    HW1 8609   5.578   6.622   6.368
 2570SOL    HW2 8610   5.435   6.699   6.348
 2571SOL     OW 8611   3.061   3.259   4.554
 2571SOL    HW1 8612   2.999   3.262   4.633
 2571SOL    HW2 8613   3.130   3.189   4.568
 2572SOL     OW 8614   1.608   6.489   1.006
 2572SOL    HW1 8615   1.636   6.554   0.935
 2572SOL    HW2 8616   1.594   6.399   0.965
 2573SOL     OW 8617   6.282   1.085   1.903
 2573SOL    HW1 8618   6.273   1.049   1.810
 2573SOL    HW2 8619   6.378   1.097   1.925
 2574SOL     OW 8620   6.415   3.235   0.333
 2574SOL    HW1 8621   6.389   3.330   0.351
 2574SOL    HW2 8622   6.379   3.207   0.244
 2575SOL     OW 8623   4.841   4.158   1.270
 2575SOL    HW1 8624   4.839   4.083   1.335
 2575SOL    HW2 8625   4.908   4.138   1.198
 2576SOL     OW 8626   4.112   6.806   3.619
 2576SOL    HW1 8627   4.139   6.901   3.604
 2576SOL    HW2 8628   4.045   6.802   3.693
 2577SOL     OW 8629   4.666   0.497   2.913
 2577SOL    HW1 8630   4.717   0.430   2.967
 2577SOL    HW2 8631   4.572   0.467   2.903
 2578SOL     OW 8632   4.174   3.061   5.564
 2578SOL    HW1 8633   4.236   3.079   5.487
 2578SOL    HW2 8634   4.159   2.962   5.572
 2579SOL     OW 8635   1.311   1.645   4.602
 2579SOL    HW1 8636   1.409   1.654   4.589
 2579SOL    HW2 8637   1.290   1.553   4.636
 2580SOL     OW 8638   1.439   2.979   6.624
 2580SOL    HW1 8639   1.434   2.970   6.723
 2580SOL    HW2 8640   1.523   3.028   6.599
 2581SOL     OW 8641   6.075   4.800   1.896
 2581SOL    HW1 8642   6.042   4.857   1.821
 2581SOL    HW2 8643   6.055   4.704   1.877
 2582SOL     OW 8644   1.484   4.742   2.731
 2582SOL    HW1 8645   1.468   4.771   2.637
 2582SOL    HW2 8646   1.421   4.668   2.754
 2583SOL     OW 8647   1.452   1.227   1.292
 2583SOL    HW1 8648   1.379   1.168   1.258
 2583SOL    HW2 8649   1.413   1.291   1.359
 2584SOL     OW 8650   3.933   5.669   6.877
 2584SOL    HW1 8651   3.847   5.625   6.850
 2584SOL    HW2 8652   3.992   5.602   6.922
 2585SOL     OW 8653   3.478   0.656   0.293
 2585SOL    HW1 8654   3.525   0.707   0.221
 2585SOL    HW2 8655   3.383   0.639   0.266
 2586SOL     OW 8656   4.710   2.140   4.088
 2586SOL    HW1 8657   4.765   2.176   4.164
 2586SOL    HW2 8658   4.615   2.130   4.118
 2587SOL     OW 8659   6.529   1.418   4.423
 2587SOL    HW1 8660   6.522   1.363   4.339
 2587SOL    HW2 8661   6.537   1.356   4.502
 2588SOL     OW 8662   4.670   0.220   0.587
 2588SOL    HW1 8663   4.596   0.163   0.624
 2588SOL    HW2 8664   4.735   0.162   0.538
 2589SOL     OW 8665   0.311   6.468   5.921
 2589SOL    HW1 8666   0.364   6.535   5.973
 2589SOL    HW2 8667   0.352   6.377   5.932
 2590SOL     OW 8668   3.655   6.584   2.502
 2590SOL    HW1 8669   3.599   6.654   2.460
 2590SOL    HW2 8670   3.597   6.522   2.555
 2591SOL     OW 8671   6.105   5.881   2.681
 2591SOL    HW1 8672   6.020   5.874   2.734
 2591SOL    HW2 8673   6.089   5.846   2.589
 2592SOL     OW 8674   2.650   0.363   1.070
 2592SOL    HW1 8675   2.600   0.392   0.988
 2592SOL    HW2 8676   2.603   0.400   1.151
 2593SOL     OW 8677   3.343   6.588   1.987
 2593SOL    HW1 8678   3.252   6.567   2.021
 2593SOL    HW2 8679   3.380   6.666   2.037
 2594SOL     OW 8680   6.910   6.224   5.940
 2594SOL    HW1 8681   6.973   6.293   5.905
 2594SOL    HW2 8682   6.839   6.268   5.995
 2595SOL     OW 8683   6.144   1.654   5.837
 2595SOL    HW1 8684   6.116   1.745   5.867
 2595SOL    HW2 8685   6.068   1.608   5.792
 2596SOL     OW 8686   3.953   2.299   1.804
 2596SOL    HW1 8687   3.975   2.202   1.813
 2596SOL    HW2 8688   3.864   2.317   1.846
 2597SOL     OW 8689   2.039   4.171   0.576
 2597SOL    HW1 8690   2.096   4.155   0.657
 2597SOL    HW2 8691   2.093   4.153   0.494
 2598SOL     OW 8692   6.239   1.425   4.724
 2598SOL    HW1 8693   6.167   1.356   4.716
 2598SOL    HW2 8694   6.215   1.505   4.669
 2599SOL     OW 8695   3.146   0.108   0.713
 2599SOL    HW1 8696   3.246   0.097   0.713
 2599SOL    HW2 8697   3.115   0.129   0.620
 2600SOL     OW 8698   4.977   3.542   4.832
 2600SOL    HW1 8699   4.917   3.492   4.770
 2600SOL    HW2 8700   4.923   3.578   4.909
 2601SOL     OW 8701   3.267   1.670   6.745
 2601SOL    HW1 8702   3.342   1.713   6.695
 2601SOL    HW2 8703   3.222   1.738   6.803
 2602SOL     OW 8704   6.683   5.062   3.766
 2602SOL    HW1 8705   6.743   5.102   3.835
 2602SOL    HW2 8706   6.588   5.091   3.784
 2603SOL     OW 8707   2.060   2.561   1.642
 2603SOL    HW1 8708   2.026   2.469   1.660
 2603SOL    HW2 8709   2.043   2.619   1.722
 2604SOL     OW 8710   5.256   1.306   2.967
 2604SOL    HW1 8711   5.260   1.360   2.883
 2604SOL    HW2 8712   5.181   1.240   2.961
 2605SOL     OW 8713   3.223   5.128   3.517
 2605SOL    HW1 8714   3.320   5.120   3.495
 2605SOL    HW2 8715   3.212   5.158   3.611
 2606SOL     OW 8716   0.108   4.924   0.367
 2606SOL    HW1 8717   0.205   4.949   0.360
 2606SOL    HW2 8718   0.098   4.846   0.428
 2607SOL     OW 8719   0.572   1.528   5.964
 2607SOL    HW1 8720   0.484   1.556   6.003
 2607SOL    HW2 8721   0.556   1.470   5.884
 2608SOL     OW 8722   3.784   5.507   2.579
 2608SOL    HW1 8723   3.685   5.507   2.563
 2608SOL    HW2 8724   3.805   5.445   2.655
 2609SOL     OW 8725   0.378   2.491   1.588
 2609SOL    HW1 8726   0.477   2.502   1.588
 2609SOL    HW2 8727   0.335   2.573   1.548
 2610SOL     OW 8728   6.928   4.854   4.476
 2610SOL    HW1 8729   7.000   4.908   4.521
 2610SOL    HW2 8730   6.934   4.866   4.377
 2611SOL     OW 8731   5.558   6.941   1.089
 2611SOL    HW1 8732   5.610   6.860   1.062
 2611SOL    HW2 8733   5.500   6.919   1.167
 2612SOL     OW 8734   0.235   6.924   5.629
 2612SOL    HW1 8735   0.155   6.864   5.630
 2612SOL    HW2 8736   0.307   6.883   5.573
 2613SOL     OW 8737   2.903   6.663   1.203
 2613SOL    HW1 8738   2.919   6.579   1.255
 2613SOL    HW2 8739   2.946   6.740   1.250
 2614SOL     OW 8740   6.869   0.239   6.524
 2614SOL    HW1 8741   6.895   0.144   6.542
 2614SOL    HW2 8742   6.942   0.299   6.556
 2615SOL     OW 8743   5.985   3.997   2.711
 2615SOL    HW1 8744   6.025   4.027   2.625
 2615SOL    HW2 8745   5.887   4.017   2.711
 2616SOL     OW 8746   4.071   3.198   3.621
 2616SOL    HW1 8747   4.058   3.261   3.544
 2616SOL    HW2 8748   4.107   3.248   3.699
 2617SOL     OW 8749   3.987   6.640   0.888
 2617SOL    HW1 8750   3.936   6.682   0.963
 2617SOL    HW2 8751   4.057   6.704   0.856
 2618SOL     OW 8752   0.341   6.696   4.055
 2618SOL    HW1 8753   0.384   6.621   4.106
 2618SOL    HW2 8754   0.391   6.780   4.071
 2619SOL     OW 8755   2.939   1.504   3.232
 2619SOL    HW1 8756   2.963   1.477   3.139
 2619SOL    HW2 8757   2.869   1.442   3.267
 2620SOL     OW 8758   0.932   6.343   3.274
 2620SOL    HW1 8759   0.903   6.281   3.347
 2620SOL    HW2 8760   0.859   6.408   3.254
 2621SOL     OW 8761   2.093   5.770   2.847
 2621SOL    HW1 8762   2.038   5.702   2.798
 2621SOL    HW2 8763   2.055   5.784   2.939
 2622SOL     OW 8764   2.765   1.910   6.879
 2622SOL    HW1 8765   2.750   1.856   6.796
 2622SOL    HW2 8766   2.820   1.991   6.857
 2623SOL     OW 8767   3.650   2.113   4.705
 2623SOL    HW1 8768   3.581   2.123   4.634
 2623SOL    HW2 8769   3.650   2.194   4.764
 2624SOL     OW 8770   6.609   3.299   4.804
 2624SOL    HW1 8771   6.594   3.204   4.833
 2624SOL    HW2 8772   6.528   3.332   4.755
 2625SOL     OW 8773   2.480   2.961   6.039
 2625SOL    HW1 8774   2.413   2.932   6.108
 2625SOL    HW2 8775   2.552   3.013   6.083
 2626SOL     OW 8776   0.841   0.286   5.155
 2626SOL    HW1 8777   0.834   0.304   5.253
 2626SOL    HW2 8778   0.758   0.239   5.124
 2627SOL     OW 8779   0.461   0.192   4.794
 2627SOL    HW1 8780   0.489   0.142   4.712
 2627SOL    HW2 8781   0.504   0.152   4.874
 2628SOL     OW 8782   2.499   5.119   6.693
 2628SOL    HW1 8783   2.559   5.113   6.612
 2628SOL    HW2 8784   2.545   5.075   6.771
 2629SOL     OW 8785   3.299   4.222   1.739
 2629SOL    HW1 8786   3.253   4.311   1.738
 2629SOL    HW2 8787   3.302   4.187   1.832
 2630SOL     OW 8788   2.887   1.652   3.468
 2630SOL    HW1 8789   2.826   1.640   3.391
 2630SOL    HW2 8790   2.976   1.610   3.448
 2631SOL     OW 8791   4.739   0.373   4.089
 2631SOL    HW1 8792   4.830   0.337   4.069
 2631SOL    HW2 8793   4.743   0.436   4.166
 2632SOL     OW 8794   2.869   2.122   6.701
 2632SOL    HW1 8795   2.885   2.219   6.688
 2632SOL    HW2 8796   2.934   2.069   6.646
 2633SOL     OW 8797   6.429   1.670   5.811
 2633SOL    HW1 8798   6.470   1.753   5.849
 2633SOL    HW2 8799   6.331   1.685   5.797
 2634SOL     OW 8800   2.036   4.193   2.801
 2634SOL    HW1 8801   2.033   4.119   2.733
 2634SOL    HW2 8802   1.947   4.197   2.848
 2635SOL     OW 8803   5.618   6.257   4.678
 2635SOL    HW1 8804   5.544   6.269   4.612
 2635SOL    HW2 8805   5.706   6.264   4.631
 2636SOL     OW 8806   4.408   0.616   5.198
 2636SOL    HW1 8807   4.402   0.690   5.131
 2636SOL    HW2 8808   4.502   0.609   5.231
 2637SOL     OW 8809   5.920   1.409   3.657
 2637SOL    HW1 8810   5.967   1.438   3.573
 2637SOL    HW2 8811   5.891   1.490   3.708
 2638SOL     OW 8812   0.186   0.032   3.032
 2638SOL    HW1 8813   0.125   0.088   2.976
 2638SOL    HW2 8814   0.159   6.964   3.025
 2639SOL     OW 8815   1.172   0.162   1.845
 2639SOL    HW1 8816   1.202   0.076   1.888
 2639SOL    HW2 8817   1.245   0.197   1.786
 2640SOL     OW 8818   7.025   5.926   4.542
 2640SOL    HW1 8819   0.077   5.987   4.544
 2640SOL    HW2 8820   6.976   5.932   4.629
 2641SOL     OW 8821   4.880   3.186   2.234
 2641SOL    HW1 8822   4.810   3.118   2.215
 2641SOL    HW2 8823   4.925   3.213   2.149
 2642SOL     OW 8824   4.532   6.964   4.275
 2642SOL    HW1 8825   4.600   7.027   4.311
 2642SOL    HW2 8826   4.533   6.879   4.327
 2643SOL     OW 8827   1.263   4.586   2.698
 2643SOL    HW1 8828   1.275   4.593   2.599
 2643SOL    HW2 8829   1.194   4.653   2.728
 2644SOL     OW 8830   6.611   5.153   5.948
 2644SOL    HW1 8831   6.531   5.147   5.888
 2644SOL    HW2 8832   6.694   5.164   5.892
 2645SOL     OW 8833   4.508   5.523   3.951
 2645SOL    HW1 8834   4.458   5.609   3.939
 2645SOL    HW2 8835   4.448   5.447   3.926
 2646SOL     OW 8836   5.750   0.051   6.427
 2646SOL    HW1 8837   5.670   0.091   6.383
 2646SOL    HW2 8838   5.833   0.077   6.377
 2647SOL     OW 8839   6.116   0.472   1.990
 2647SOL    HW1 8840   6.107   0.393   1.930
 2647SOL    HW2 8841   6.144   0.552   1.936
 2648SOL     OW 8842   0.135   0.429   3.352
 2648SOL    HW1 8843   0.227   0.430   3.391
 2648SOL    HW2 8844   0.067   0.437   3.425
 2649SOL     OW 8845   5.701   3.208   6.416
 2649SOL    HW1 8846   5.619   3.237   6.366
 2649SOL    HW2 8847   5.717   3.111   6.399
 2650SOL     OW 8848   0.914   3.631   4.227
 2650SOL    HW1 8849   0.877   3.570   4.296
 2650SOL    HW2 8850   0.840   3.687   4.188
 2651SOL     OW 8851   0.219   2.085   6.969
 2651SOL    HW1 8852   0.273   2.138   0.006
 2651SOL    HW2 8853   0.152   2.029   7.019
 2652SOL     OW 8854   3.352   3.702   3.835
 2652SOL    HW1 8855   3.365   3.671   3.929
 2652SOL    HW2 8856   3.349   3.623   3.774
 2653SOL     OW 8857   4.845   0.151   5.436
 2653SOL    HW1 8858   4.836   0.248   5.413
 2653SOL    HW2 8859   4.868   0.099   5.354
 2654SOL     OW 8860   5.052   4.793   1.231
 2654SOL    HW1 8861   4.978   4.828   1.288
 2654SOL    HW2 8862   5.140   4.815   1.273
 2655SOL     OW 8863   5.204   4.914   4.470
 2655SOL    HW1 8864   5.210   4.977   4.392
 2655SOL    HW2 8865   5.267   4.838   4.456
 2656SOL     OW 8866   3.750   5.036   4.108
 2656SOL    HW1 8867   3.711   5.068   4.021
 2656SOL    HW2 8868   3.842   5.002   4.093
 2657SOL     OW 8869   2.426   4.320   6.542
 2657SOL    HW1 8870   2.449   4.396   6.603
 2657SOL    HW2 8871   2.509   4.287   6.497
 2658SOL     OW 8872   5.191   4.231   0.508
 2658SOL    HW1 8873   5.153   4.145   0.543
 2658SOL    HW2 8874   5.177   4.303   0.576
 2659SOL     OW 8875   6.249   2.972   4.820
 2659SOL    HW1 8876   6.245   3.065   4.781
 2659SOL    HW2 8877   6.199   2.909   4.760
 2660SOL     OW 8878   0.247   1.582   1.138
 2660SOL    HW1 8879   0.306   1.660   1.160
 2660SOL    HW2 8880   0.198   1.600   1.053
 2661SOL     OW 8881   2.413   6.425   1.032
 2661SOL    HW1 8882   2.385   6.477   1.112
 2661SOL    HW2 8883   2.332   6.388   0.986
 2662SOL     OW 8884   4.203   0.299   5.411
 2662SOL    HW1 8885   4.134   0.371   5.416
 2662SOL    HW2 8886   4.255   0.308   5.326
 2663SOL     OW 8887   2.639   4.195   1.225
 2663SOL    HW1 8888   2.592   4.283   1.223
 2663SOL    HW2 8889   2.588   4.129   1.171
 2664SOL     OW 8890   3.877   3.608   4.833
 2664SOL    HW1 8891   3.806   3.679   4.828
 2664SOL    HW2 8892   3.958   3.645   4.878
 2665SOL     OW 8893   2.706   2.577   5.225
 2665SOL    HW1 8894   2.623   2.630   5.244
 2665SOL    HW2 8895   2.781   2.611   5.282
 2666SOL     OW 8896   4.762   3.852   1.751
 2666SOL    HW1 8897   4.848   3.824   1.709
 2666SOL    HW2 8898   4.781   3.903   1.835
 2667SOL     OW 8899   1.413   5.937   4.328
 2667SOL    HW1 8900   1.417   5.974   4.235
 2667SOL    HW2 8901   1.436   6.009   4.394
 2668SOL     OW 8902   6.161   3.442   3.665
 2668SOL    HW1 8903   6.182   3.523   3.720
 2668SOL    HW2 8904   6.070   3.409   3.687
 2669SOL     OW 8905   3.058   5.112   5.147
 2669SOL    HW1 8906   3.009   5.031   5.115
 2669SOL    HW2 8907   3.152   5.110   5.114
 2670SOL     OW 8908   5.496   2.231   6.535
 2670SOL    HW1 8909   5.438   2.276   6.603
 2670SOL    HW2 8910   5.441   2.211   6.454
 2671SOL     OW 8911   3.497   5.376   6.783
 2671SOL    HW1 8912   3.468   5.296   6.731
 2671SOL    HW2 8913   3.454   5.375   6.873
 2672SOL     OW 8914   6.936   5.085   0.257
 2672SOL    HW1 8915   6.985   5.016   0.310
 2672SOL    HW2 8916   7.002   5.138   0.204
 2673SOL     OW 8917   6.420   1.732   3.802
 2673SOL    HW1 8918   6.356   1.796   3.758
 2673SOL    HW2 8919   6.404   1.640   3.766
 2674SOL     OW 8920   1.695   4.169   3.671
 2674SOL    HW1 8921   1.692   4.086   3.615
 2674SOL    HW2 8922   1.790   4.197   3.684
 2675SOL     OW 8923   6.424   4.999   4.504
 2675SOL    HW1 8924   6.370   4.932   4.555
 2675SOL    HW2 8925   6.507   4.955   4.469
 2676SOL     OW 8926   4.711   1.367   1.857
 2676SOL    HW1 8927   4.619   1.385   1.821
 2676SOL    HW2 8928   4.704   1.312   1.941
 2677SOL     OW 8929   2.983   4.290   6.988
 2677SOL    HW1 8930   3.010   4.298   0.056
 2677SOL    HW2 8931   2.902   4.230   6.981
 2678SOL     OW 8932   6.596   4.370   1.409
 2678SOL    HW1 8933   6.618   4.454   1.459
 2678SOL    HW2 8934   6.681   4.322   1.386
 2679SOL     OW 8935   3.640   5.573   0.655
 2679SOL    HW1 8936   3.667   5.493   0.708
 2679SOL    HW2 8937   3.707   5.589   0.583
 2680SOL     OW 8938   0.828   1.748   0.681
 2680SOL    HW1 8939   0.821   1.707   0.590
 2680SOL    HW2 8940   0.885   1.830   0.677
 2681SOL     OW 8941   1.547   2.228   4.200
 2681SOL    HW1 8942   1.591   2.154   4.251
 2681SOL    HW2 8943   1.458   2.248   4.240
 2682SOL     OW 8944   5.414   3.794   2.948
 2682SOL    HW1 8945   5.482   3.765   2.881
 2682SOL    HW2 8946   5.445   3.767   3.040
 2683SOL     OW 8947   2.183   3.830   0.451
 2683SOL    HW1 8948   2.163   3.785   0.364
 2683SOL    HW2 8949   2.116   3.803   0.520
 2684SOL     OW 8950   4.743   5.837   1.420
 2684SOL    HW1 8951   4.757   5.849   1.518
 2684SOL    HW2 8952   4.825   5.866   1.370
 2685SOL     OW 8953   6.291   6.012   0.076
 2685SOL    HW1 8954   6.374   6.059   0.047
 2685SOL    HW2 8955   6.301   5.982   0.171
 2686SOL     OW 8956   1.503   1.679   5.501
 2686SOL    HW1 8957   1.411   1.658   5.536
 2686SOL    HW2 8958   1.497   1.704   5.404
 2687SOL     OW 8959   4.476   4.482   2.489
 2687SOL    HW1 8960   4.496   4.422   2.412
 2687SOL    HW2 8961   4.547   4.472   2.559
 2688SOL     OW 8962   4.803   5.294   6.977
 2688SOL    HW1 8963   4.879   5.335   0.000
 2688SOL    HW2 8964   4.766   5.217   0.002
 2689SOL     OW 8965   1.959   3.004   3.587
 2689SOL    HW1 8966   1.924   2.952   3.509
 2689SOL    HW2 8967   1.925   3.098   3.582
 2690SOL     OW 8968   3.358   3.641   4.099
 2690SOL    HW1 8969   3.287   3.689   4.151
 2690SOL    HW2 8970   3.415   3.588   4.161
 2691SOL     OW 8971   0.947   5.500   2.299
 2691SOL    HW1 8972   0.901   5.429   2.352
 2691SOL    HW2 8973   0.951   5.585   2.353
 2692SOL     OW 8974   3.882   4.807   3.434
 2692SOL    HW1 8975   3.890   4.901   3.468
 2692SOL    HW2 8976   3.887   4.743   3.511
 2693SOL     OW 8977   1.607   4.165   2.725
 2693SOL    HW1 8978   1.511   4.174   2.698
 2693SOL    HW2 8979   1.643   4.077   2.694
 2694SOL     OW 8980   4.331   6.665   2.951
 2694SOL    HW1 8981   4.401   6.597   2.928
 2694SOL    HW2 8982   4.348   6.700   3.043
 2695SOL     OW 8983   5.089   0.902   2.700
 2695SOL    HW1 8984   5.076   0.814   2.745
 2695SOL    HW2 8985   5.035   0.905   2.616
 2696SOL     OW 8986   3.943   3.444   5.315
 2696SOL    HW1 8987   3.999   3.512   5.362
 2696SOL    HW2 8988   3.931   3.364   5.374
 2697SOL     OW 8989   3.256   1.458   3.110
 2697SOL    HW1 8990   3.267   1.432   3.206
 2697SOL    HW2 8991   3.176   1.410   3.071
 2698SOL     OW 8992   2.074   5.927   0.473
 2698SOL    HW1 8993   2.164   5.897   0.442
 2698SOL    HW2 8994   2.005   5.862   0.444
 2699SOL     OW 8995   3.090   6.281   0.175
 2699SOL    HW1 8996   3.065   6.369   0.215
 2699SOL    HW2 8997   3.115   6.217   0.247
 2700SOL     OW 8998   1.990   4.015   0.968
 2700SOL    HW1 8999   1.963   3.944   1.033
 2700SOL    HW2 9000   1.934   4.007   0.885
 2701SOL     OW 9001   3.734   0.470   6.719
 2701SOL    HW1 9002   3.682   0.499   6.639
 2701SOL    HW2 9003   3.812   0.414   6.690
 2702SOL     OW 9004   0.962   2.909   3.565
 2702SOL    HW1 9005   0.956   2.877   3.470
 2702SOL    HW2 9006   1.054   2.892   3.600
 2703SOL     OW 9007   1.994   0.768   2.462
 2703SOL    HW1 9008   2.029   0.676   2.442
 2703SOL    HW2 9009   2.027   0.832   2.393
 2704SOL     OW 9010   0.212   6.290   0.841
 2704SOL    HW1 9011   0.216   6.204   0.893
 2704SOL    HW2 9012   0.260   6.278   0.754
 2705SOL     OW 9013   1.459   5.218   4.055
 2705SOL    HW1 9014   1.397   5.236   3.979
 2705SOL    HW2 9015   1.450   5.122   4.083
 2706SOL     OW 9016   0.169   0.710   1.333
 2706SOL    HW1 9017   0.247   0.729   1.394
 2706SOL    HW2 9018   0.095   0.774   1.354
 2707SOL     OW 9019   2.016   0.891   5.021
 2707SOL    HW1 9020   1.977   0.820   4.963
 2707SOL    HW2 9021   1.989   0.981   4.986
 2708SOL     OW 9022   1.029   1.993   0.643
 2708SOL    HW1 9023   0.997   2.052   0.569
 2708SOL    HW2 9024   1.024   2.043   0.730
 2709SOL     OW 9025   5.549   6.416   0.611
 2709SOL    HW1 9026   5.635   6.410   0.661
 2709SOL    HW2 9027   5.552   6.494   0.548
 2710SOL     OW 9028   0.633   3.115   3.357
 2710SOL    HW1 9029   0.655   3.018   3.351
 2710SOL    HW2 9030   0.695   3.160   3.421
 2711SOL     OW 9031   2.581   1.200   3.558
 2711SOL    HW1 9032   2.498   1.145   3.566
 2711SOL    HW2 9033   2.588   1.261   3.637
 2712SOL     OW 9034   3.486   4.778   0.573
 2712SOL    HW1 9035   3.466   4.874   0.593
 2712SOL    HW2 9036   3.530   4.736   0.652
 2713SOL     OW 9037   2.222   2.007   4.992
 2713SOL    HW1 9038   2.321   1.992   4.983
 2713SOL    HW2 9039   2.176   1.919   5.004
 2714SOL     OW 9040   4.976   2.310   0.440
 2714SOL    HW1 9041   4.999   2.213   0.449
 2714SOL    HW2 9042   5.019   2.362   0.513
 2715SOL     OW 9043   5.314   1.101   0.297
 2715SOL    HW1 9044   5.322   1.157   0.380
 2715SOL    HW2 9045   5.235   1.040   0.307
 2716SOL     OW 9046   5.349   4.868   2.901
 2716SOL    HW1 9047   5.317   4.951   2.855
 2716SOL    HW2 9048   5.437   4.841   2.862
 2717SOL     OW 9049   2.654   4.969   1.989
 2717SOL    HW1 9050   2.692   4.899   2.049
 2717SOL    HW2 9051   2.632   4.928   1.900
 2718SOL     OW 9052   1.512   3.458   5.781
 2718SOL    HW1 9053   1.515   3.558   5.781
 2718SOL    HW2 9054   1.579   3.422   5.846
 2719SOL     OW 9055   6.505   5.799   1.418
 2719SOL    HW1 9056   6.504   5.780   1.320
 2719SOL    HW2 9057   6.472   5.720   1.468
 2720SOL     OW 9058   2.058   6.242   2.395
 2720SOL    HW1 9059   2.106   6.158   2.370
 2720SOL    HW2 9060   2.116   6.321   2.374
 2721SOL     OW 9061   3.161   0.478   4.213
 2721SOL    HW1 9062   3.072   0.438   4.236
 2721SOL    HW2 9063   3.225   0.463   4.288
 2722SOL     OW 9064   6.844   5.778   1.772
 2722SOL    HW1 9065   6.853   5.713   1.847
 2722SOL    HW2 9066   6.883   5.739   1.688
 2723SOL     OW 9067   0.850   6.526   5.751
 2723SOL    HW1 9068   0.804   6.438   5.762
 2723SOL    HW2 9069   0.815   6.574   5.671
 2724SOL     OW 9070   2.520   0.036   6.564
 2724SOL    HW1 9071   2.499   6.994   6.496
 2724SOL    HW2 9072   2.453   0.032   6.638
 2725SOL     OW 9073   6.165   4.764   4.178
 2725SOL    HW1 9074   6.127   4.827   4.111
 2725SOL    HW2 9075   6.099   4.692   4.197
 2726SOL     OW 9076   0.170   3.747   1.231
 2726SOL    HW1 9077   0.232   3.671   1.214
 2726SOL    HW2 9078   0.078   3.722   1.201
 2727SOL     OW 9079   0.627   4.744   3.711
 2727SOL    HW1 9080   0.529   4.739   3.734
 2727SOL    HW2 9081   0.645   4.691   3.628
 2728SOL     OW 9082   3.895   6.984   5.915
 2728SOL    HW1 9083   3.952   6.963   5.836
 2728SOL    HW2 9084   3.799   6.991   5.886
 2729SOL     OW 9085   6.395   5.422   1.329
 2729SOL    HW1 9086   6.401   5.507   1.382
 2729SOL    HW2 9087   6.487   5.388   1.311
 2730SOL     OW 9088   1.955   5.337   1.807
 2730SOL    HW1 9089   1.986   5.247   1.840
 2730SOL    HW2 9090   1.983   5.349   1.712
 2731SOL     OW 9091   3.746   3.657   2.060
 2731SOL    HW1 9092   3.738   3.726   2.133
 2731SOL    HW2 9093   3.745   3.703   1.971
 2732SOL     OW 9094   5.233   3.059   2.343
 2732SOL    HW1 9095   5.257   3.073   2.247
 2732SOL    HW2 9096   5.246   3.145   2.394
 2733SOL     OW 9097   0.260   6.803   5.210
 2733SOL    HW1 9098   0.277   6.736   5.139
 2733SOL    HW2 9099   0.163   6.826   5.213
 2734SOL     OW 9100   2.136   5.977   1.650
 2734SOL    HW1 9101   2.100   6.015   1.565
 2734SOL    HW2 9102   2.161   6.052   1.711
 2735SOL     OW 9103   0.942   3.119   2.632
 2735SOL    HW1 9104   0.960   3.023   2.610
 2735SOL    HW2 9105   0.976   3.177   2.558
 2736SOL     OW 9106   3.960   0.018   4.644
 2736SOL    HW1 9107   4.038   7.023   4.703
 2736SOL    HW2 9108   3.887   6.980   4.659
 2737SOL     OW 9109   3.800   3.851   5.794
 2737SOL    HW1 9110   3.712   3.892   5.773
 2737SOL    HW2 9111   3.801   3.820   5.889
 2738SOL     OW 9112   5.667   5.047   4.087
 2738SOL    HW1 9113   5.730   4.987   4.136
 2738SOL    HW2 9114   5.578   5.003   4.080
 2739SOL     OW 9115   6.780   5.373   0.612
 2739SOL    HW1 9116   6.705   5.344   0.554
 2739SOL    HW2 9117   6.775   5.471   0.628
 2740SOL     OW 9118   6.088   3.538   2.290
 2740SOL    HW1 9119   6.153   3.512   2.219
 2740SOL    HW2 9120   6.070   3.460   2.349
 2741SOL     OW 9121   6.414   1.067   5.347
 2741SOL    HW1 9122   6.468   1.008   5.287
 2741SOL    HW2 9123   6.393   1.152   5.300
 2742SOL     OW 9124   1.986   4.741   6.863
 2742SOL    HW1 9125   1.965   4.644   6.875
 2742SOL    HW2 9126   2.049   4.752   6.786
 2743SOL     OW 9127   6.577   5.455   2.600
 2743SOL    HW1 9128   6.650   5.512   2.636
 2743SOL    HW2 9129   6.489   5.499   2.617
 2744SOL     OW 9130   4.538   1.889   0.210
 2744SOL    HW1 9131   4.496   1.948   0.279
 2744SOL    HW2 9132   4.621   1.932   0.175
 2745SOL     OW 9133   0.950   6.891   6.617
 2745SOL    HW1 9134   0.870   6.950   6.619
 2745SOL    HW2 9135   0.954   6.836   6.700
 2746SOL     OW 9136   2.337   2.139   3.674
 2746SOL    HW1 9137   2.350   2.122   3.576
 2746SOL    HW2 9138   2.342   2.053   3.724
 2747SOL     OW 9139   5.646   3.548   6.087
 2747SOL    HW1 9140   5.548   3.549   6.068
 2747SOL    HW2 9141   5.693   3.610   6.024
 2748SOL     OW 9142   4.250   1.877   0.939
 2748SOL    HW1 9143   4.208   1.931   1.012
 2748SOL    HW2 9144   4.231   1.780   0.954
 2749SOL     OW 9145   6.161   4.634   3.579
 2749SOL    HW1 9146   6.178   4.729   3.555
 2749SOL    HW2 9147   6.212   4.574   3.517
 2750SOL     OW 9148   0.838   5.006   1.423
 2750SOL    HW1 9149   0.856   4.911   1.446
 2750SOL    HW2 9150   0.919   5.047   1.382
 2751SOL     OW 9151   0.548   6.451   0.605
 2751SOL    HW1 9152   0.505   6.368   0.642
 2751SOL    HW2 9153   0.588   6.431   0.516
 2752SOL     OW 9154   4.787   4.584   4.977
 2752SOL    HW1 9155   4.756   4.491   5.002
 2752SOL    HW2 9156   4.867   4.578   4.919
 2753SOL     OW 9157   1.102   6.619   5.878
 2753SOL    HW1 9158   1.083   6.641   5.974
 2753SOL    HW2 9159   1.032   6.556   5.844
 2754SOL     OW 9160   6.413   0.698   3.717
 2754SOL    HW1 9161   6.336   0.675   3.657
 2754SOL    HW2 9162   6.436   0.795   3.705
 2755SOL     OW 9163   2.593   6.583   3.701
 2755SOL    HW1 9164   2.606   6.654   3.633
 2755SOL    HW2 9165   2.539   6.619   3.777
 2756SOL     OW 9166   5.934   4.307   5.434
 2756SOL    HW1 9167   5.980   4.224   5.466
 2756SOL    HW2 9168   5.851   4.321   5.489
 2757SOL     OW 9169   2.202   1.830   6.104
 2757SOL    HW1 9170   2.181   1.752   6.045
 2757SOL    HW2 9171   2.142   1.830   6.184
 2758SOL     OW 9172   5.113   6.297   3.482
 2758SOL    HW1 9173   5.130   6.396   3.490
 2758SOL    HW2 9174   5.048   6.281   3.408
 2759SOL     OW 9175   4.321   5.837   5.505
 2759SOL    HW1 9176   4.286   5.882   5.587
 2759SOL    HW2 9177   4.277   5.876   5.424
 2760SOL     OW 9178   7.005   5.457   2.560
 2760SOL    HW1 9179   6.991   5.434   2.656
 2760SOL    HW2 9180   0.072   5.487   2.546
 2761SOL     OW 9181   1.956   4.239   4.583
 2761SOL    HW1 9182   1.996   4.165   4.528
 2761SOL    HW2 9183   1.972   4.220   4.680
 2762SOL     OW 9184   2.038   1.729   6.630
 2762SOL    HW1 9185   2.005   1.823   6.637
 2762SOL    HW2 9186   2.119   1.717   6.688
 2763SOL     OW 9187   4.920   2.088   4.805
 2763SOL    HW1 9188   4.953   2.168   4.856
 2763SOL    HW2 9189   4.842   2.115   4.749
 2764SOL     OW 9190   0.420   6.694   2.011
 2764SOL    HW1 9191   0.474   6.753   2.071
 2764SOL    HW2 9192   0.434   6.722   1.916
 2765SOL     OW 9193   6.641   0.150   0.773
 2765SOL    HW1 9194   6.689   0.078   0.824
 2765SOL    HW2 9195   6.596   0.109   0.694
 2766SOL     OW 9196   4.234   2.425   6.523
 2766SOL    HW1 9197   4.143   2.446   6.487
 2766SOL    HW2 9198   4.227   2.350   6.589
 2767SOL     OW 9199   6.642   5.445   6.618
 2767SOL    HW1 9200   6.544   5.447   6.637
 2767SOL    HW2 9201   6.680   5.356   6.645
 2768SOL     OW 9202   4.437   0.678   1.152
 2768SOL    HW1 9203   4.374   0.621   1.205
 2768SOL    HW2 9204   4.484   0.622   1.084
 2769SOL     OW 9205   2.684   4.231   6.427
 2769SOL    HW1 9206   2.689   4.169   6.349
 2769SOL    HW2 9207   2.762   4.294   6.425
 2770SOL     OW 9208   4.797   5.333   5.294
 2770SOL    HW1 9209   4.703   5.364   5.286
 2770SOL    HW2 9210   4.849   5.361   5.214
 2771SOL     OW 9211   5.636   0.824   4.654
 2771SOL    HW1 9212   5.537   0.815   4.648
 2771SOL    HW2 9213   5.659   0.888   4.727
 2772SOL     OW 9214   3.337   1.107   1.388
 2772SOL    HW1 9215   3.248   1.149   1.375
 2772SOL    HW2 9216   3.374   1.078   1.299
 2773SOL     OW 9217   6.708   2.775   3.797
 2773SOL    HW1 9218   6.729   2.869   3.825
 2773SOL    HW2 9219   6.728   2.765   3.700
 2774SOL     OW 9220   5.028   3.233   2.818
 2774SOL    HW1 9221   5.013   3.151   2.762
 2774SOL    HW2 9222   5.018   3.314   2.760
 2775SOL     OW 9223   6.635   3.389   4.247
 2775SOL    HW1 9224   6.647   3.480   4.207
 2775SOL    HW2 9225   6.538   3.370   4.259
 2776SOL     OW 9226   5.069   4.109   5.667
 2776SOL    HW1 9227   5.014   4.193   5.660
 2776SOL    HW2 9228   5.010   4.030   5.654
 2777SOL     OW 9229   2.436   2.028   1.050
 2777SOL    HW1 9230   2.526   2.062   1.076
 2777SOL    HW2 9231   2.387   1.997   1.131
 2778SOL     OW 9232   0.833   6.072   6.646
 2778SOL    HW1 9233   0.824   6.005   6.572
 2778SOL    HW2 9234   0.919   6.057   6.694
 2779SOL     OW 9235   5.523   6.555   1.784
 2779SOL    HW1 9236   5.575   6.549   1.699
 2779SOL    HW2 9237   5.510   6.650   1.810
 2780SOL     OW 9238   6.914   0.281   5.945
 2780SOL    HW1 9239   6.894   0.379   5.943
 2780SOL    HW2 9240   6.834   0.229   5.915
 2781SOL     OW 9241   6.237   0.539   3.320
 2781SOL    HW1 9242   6.263   0.451   3.281
 2781SOL    HW2 9243   6.222   0.605   3.247
 2782SOL     OW 9244   4.341   1.437   4.951
 2782SOL    HW1 9245   4.299   1.503   4.890
 2782SOL    HW2 9246   4.283   1.423   5.031
 2783SOL     OW 9247   6.632   4.164   2.197
 2783SOL    HW1 9248   6.648   4.201   2.105
 2783SOL    HW2 9249   6.702   4.095   2.216
 2784SOL     OW 9250   3.262   1.388   2.373
 2784SOL    HW1 9251   3.286   1.459   2.439
 2784SOL    HW2 9252   3.338   1.376   2.309
 2785SOL     OW 9253   4.993   2.471   0.668
 2785SOL    HW1 9254   5.084   2.512   0.668
 2785SOL    HW2 9255   4.926   2.536   0.631
 2786SOL     OW 9256   6.368   6.596   1.843
 2786SOL    HW1 9257   6.411   6.521   1.793
 2786SOL    HW2 9258   6.439   6.655   1.882
 2787SOL     OW 9259   5.845   6.762   5.712
 2787SOL    HW1 9260   5.751   6.727   5.704
 2787SOL    HW2 9261   5.843   6.862   5.714
 2788SOL     OW 9262   2.256   6.374   5.928
 2788SOL    HW1 9263   2.171   6.406   5.887
 2788SOL    HW2 9264   2.327   6.370   5.858
 2789SOL     OW 9265   2.055   1.542   3.552
 2789SOL    HW1 9266   2.081   1.635   3.576
 2789SOL    HW2 9267   1.960   1.526   3.580
 2790SOL     OW 9268   3.741   5.577   1.072
 2790SOL    HW1 9269   3.742   5.634   1.154
 2790SOL    HW2 9270   3.647   5.563   1.042
 2791SOL     OW 9271   1.007   3.903   2.043
 2791SOL    HW1 9272   0.929   3.944   2.091
 2791SOL    HW2 9273   1.043   3.827   2.097
 2792SOL     OW 9274   3.072   0.748   4.654
 2792SOL    HW1 9275   3.125   0.781   4.576
 2792SOL    HW2 9276   2.974   0.758   4.634
 2793SOL     OW 9277   5.164   3.718   2.023
 2793SOL    HW1 9278   5.181   3.670   1.937
 2793SOL    HW2 9279   5.114   3.658   2.085
 2794SOL     OW 9280   6.732   2.162   5.879
 2794SOL    HW1 9281   6.794   2.084   5.872
 2794SOL    HW2 9282   6.690   2.179   5.790
 2795SOL     OW 9283   0.621   4.190   1.475
 2795SOL    HW1 9284   0.620   4.217   1.571
 2795SOL    HW2 9285   0.532   4.211   1.433
 2796SOL     OW 9286   0.087   6.072   3.765
 2796SOL    HW1 9287   0.058   6.099   3.673
 2796SOL    HW2 9288   0.172   6.118   3.789
 2797SOL     OW 9289   5.349   5.085   5.811
 2797SOL    HW1 9290   5.288   5.113   5.737
 2797SOL    HW2 9291   5.432   5.044   5.771
 2798SOL     OW 9292   6.351   5.646   2.690
 2798SOL    HW1 9293   6.265   5.624   2.737
 2798SOL    HW2 9294   6.425   5.652   2.756
 2799SOL     OW 9295   5.771   5.852   6.395
 2799SOL    HW1 9296   5.723   5.882   6.313
 2799SOL    HW2 9297   5.870   5.859   6.380
 2800SOL     OW 9298   5.862   6.316   5.626
 2800SOL    HW1 9299   5.932   6.349   5.689
 2800SOL    HW2 9300   5.879   6.220   5.605
 2801SOL     OW 9301   0.637   5.423   6.149
 2801SOL    HW1 9302   0.701   5.499   6.162
 2801SOL    HW2 9303   0.607   5.420   6.054
 2802SOL     OW 9304   6.146   6.572   5.032
 2802SOL    HW1 9305   6.110   6.586   5.125
 2802SOL    HW2 9306   6.135   6.476   5.007
 2803SOL     OW 9307   3.904   5.077   6.154
 2803SOL    HW1 9308   3.885   4.979   6.148
 2803SOL    HW2 9309   3.900   5.117   6.062
 2804SOL     OW 9310   0.518   3.719   5.000
 2804SOL    HW1 9311   0.504   3.755   4.908
 2804SOL    HW2 9312   0.590   3.771   5.046
 2805SOL     OW 9313   5.585   3.323   3.059
 2805SOL    HW1 9314   5.669   3.377   3.059
 2805SOL    HW2 9315   5.563   3.294   2.966
 2806SOL     OW 9316   2.178   3.708   6.027
 2806SOL    HW1 9317   2.127   3.656   5.959
 2806SOL    HW2 9318   2.216   3.791   5.984
 2807SOL     OW 9319   4.209   0.427   3.005
 2807SOL    HW1 9320   4.131   0.364   3.000
 2807SOL    HW2 9321   4.267   0.415   2.925
 2808SOL     OW 9322   6.658   5.215   0.827
 2808SOL    HW1 9323   6.720   5.278   0.781
 2808SOL    HW2 9324   6.677   5.122   0.795
 2809SOL     OW 9325   4.982   2.319   1.723
 2809SOL    HW1 9326   5.030   2.350   1.805
 2809SOL    HW2 9327   5.006   2.377   1.646
 2810SOL     OW 9328   2.351   5.637   2.689
 2810SOL    HW1 9329   2.357   5.643   2.789
 2810SOL    HW2 9330   2.281   5.701   2.657
 2811SOL     OW 9331   0.901   1.668   3.149
 2811SOL    HW1 9332   0.986   1.698   3.108
 2811SOL    HW2 9333   0.842   1.629   3.079
 2812SOL     OW 9334   6.096   3.781   0.649
 2812SOL    HW1 9335   6.124   3.786   0.746
 2812SOL    HW2 9336   6.096   3.686   0.620
 2813SOL     OW 9337   0.911   1.783   6.845
 2813SOL    HW1 9338   0.916   1.853   6.774
 2813SOL    HW2 9339   1.003   1.766   6.882
 2814SOL     OW 9340   3.443   4.206   5.635
 2814SOL    HW1 9341   3.362   4.171   5.683
 2814SOL    HW2 9342   3.469   4.143   5.562
 2815SOL     OW 9343   6.378   5.170   6.629
 2815SOL    HW1 9344   6.373   5.255   6.681
 2815SOL    HW2 9345   6.362   5.190   6.532
 2816SOL     OW 9346   6.507   6.305   4.440
 2816SOL    HW1 9347   6.508   6.404   4.454
 2816SOL    HW2 9348   6.534   6.259   4.524
 2817SOL     OW 9349   3.075   0.750   2.750
 2817SOL    HW1 9350   3.165   0.708   2.739
 2817SOL    HW2 9351   3.078   0.817   2.824
 2818SOL     OW 9352   0.046   0.997   2.456
 2818SOL    HW1 9353   0.143   1.004   2.479
 2818SOL    HW2 9354   7.020   0.999   2.540
 2819SOL     OW 9355   1.433   0.410   1.887
 2819SOL    HW1 9356   1.475   0.500   1.895
 2819SOL    HW2 9357   1.365   0.398   1.960
 2820SOL     OW 9358   1.363   1.976   2.273
 2820SOL    HW1 9359   1.287   2.033   2.304
 2820SOL    HW2 9360   1.444   2.033   2.257
 2821SOL     OW 9361   2.869   5.079   6.168
 2821SOL    HW1 9362   2.915   4.990   6.166
 2821SOL    HW2 9363   2.828   5.096   6.078
 2822SOL     OW 9364   4.432   2.255   0.366
 2822SOL    HW1 9365   4.443   2.168   0.415
 2822SOL    HW2 9366   4.393   2.323   0.429
 2823SOL     OW 9367   5.969   0.761   0.027
 2823SOL    HW1 9368   5.930   0.696   0.092
 2823SOL    HW2 9369   6.069   0.756   0.031
 2824SOL     OW 9370   2.253   2.105   5.262
 2824SOL    HW1 9371   2.252   2.205   5.251
 2824SOL    HW2 9372   2.273   2.062   5.173
 2825SOL     OW 9373   5.536   6.682   5.461
 2825SOL    HW1 9374   5.474   6.760   5.453
 2825SOL    HW2 9375   5.630   6.712   5.441
 2826SOL     OW 9376   3.786   2.852   6.518
 2826SOL    HW1 9377   3.694   2.813   6.522
 2826SOL    HW2 9378   3.820   2.866   6.611
 2827SOL     OW 9379   0.173   0.660   6.516
 2827SOL    HW1 9380   0.232   0.715   6.575
 2827SOL    HW2 9381   0.207   0.665   6.421
 2828SOL     OW 9382   2.087   3.361   0.518
 2828SOL    HW1 9383   2.051   3.273   0.488
 2828SOL    HW2 9384   2.103   3.358   0.617
 2829SOL     OW 9385   3.160   3.202   3.576
 2829SOL    HW1 9386   3.204   3.113   3.582
 2829SOL    HW2 9387   3.151   3.228   3.480
 2830SOL     OW 9388   3.424   4.302   5.246
 2830SOL    HW1 9389   3.336   4.287   5.201
 2830SOL    HW2 9390   3.492   4.239   5.208
 2831SOL     OW 9391   1.336   3.059   2.856
 2831SOL    HW1 9392   1.297   3.146   2.825
 2831SOL    HW2 9393   1.263   2.999   2.888
 2832SOL     OW 9394   0.867   2.998   1.656
 2832SOL    HW1 9395   0.910   3.084   1.686
 2832SOL    HW2 9396   0.935   2.943   1.608
 2833SOL     OW 9397   2.608   1.681   1.970
 2833SOL    HW1 9398   2.674   1.736   2.020
 2833SOL    HW2 9399   2.515   1.712   1.993
 2834SOL     OW 9400   4.104   6.340   4.393
 2834SOL    HW1 9401   4.087   6.356   4.296
 2834SOL    HW2 9402   4.105   6.241   4.410
 2835SOL     OW 9403   0.819   6.836   0.505
 2835SOL    HW1 9404   0.863   6.917   0.466
 2835SOL    HW2 9405   0.721   6.854   0.517
 2836SOL     OW 9406   1.487   6.264   1.481
 2836SOL    HW1 9407   1.405   6.307   1.443
 2836SOL    HW2 9408   1.564   6.278   1.419
 2837SOL     OW 9409   5.456   4.612   2.490
 2837SOL    HW1 9410   5.520   4.670   2.439
 2837SOL    HW2 9411   5.507   4.554   2.553
 2838SOL     OW 9412   4.694   3.823   0.672
 2838SOL    HW1 9413   4.789   3.792   0.663
 2838SOL    HW2 9414   4.664   3.809   0.767
 2839SOL     OW 9415   0.232   2.926   2.684
 2839SOL    HW1 9416   0.322   2.895   2.655
 2839SOL    HW2 9417   0.209   3.011   2.637
 2840SOL     OW 9418   1.476   6.226   2.368
 2840SOL    HW1 9419   1.474   6.299   2.436
 2840SOL    HW2 9420   1.392   6.172   2.375
 2841SOL     OW 9421   6.495   2.466   6.420
 2841SOL    HW1 9422   6.512   2.385   6.364
 2841SOL    HW2 9423   6.583   2.506   6.447
 2842SOL     OW 9424   0.655   5.469   4.879
 2842SOL    HW1 9425   0.691   5.376   4.888
 2842SOL    HW2 9426   0.651   5.512   4.969
 2843SOL     OW 9427   2.355   1.689   2.293
 2843SOL    HW1 9428   2.376   1.770   2.239
 2843SOL    HW2 9429   2.257   1.685   2.311
 2844SOL     OW 9430   6.227   5.290   0.988
 2844SOL    HW1 9431   6.191   5.382   1.004
 2844SOL    HW2 9432   6.321   5.286   1.021
 2845SOL     OW 9433   5.543   3.259   2.777
 2845SOL    HW1 9434   5.604   3.300   2.710
 2845SOL    HW2 9435   5.509   3.171   2.743
 2846SOL     OW 9436   3.812   0.442   0.571
 2846SOL    HW1 9437   3.715   0.425   0.587
 2846SOL    HW2 9438   3.852   0.365   0.523
 2847SOL     OW 9439   5.178   3.973   3.230
 2847SOL    HW1 9440   5.171   3.956   3.329
 2847SOL    HW2 9441   5.098   3.935   3.184
 2848SOL     OW 9442   2.346   2.729   5.890
 2848SOL    HW1 9443   2.252   2.719   5.859
 2848SOL    HW2 9444   2.374   2.825   5.883
 2849SOL     OW 9445   3.405   0.828   1.588
 2849SOL    HW1 9446   3.387   0.775   1.506
 2849SOL    HW2 9447   3.469   0.902   1.566
 2850SOL     OW 9448   1.912   6.937   3.221
 2850SOL    HW1 9449   1.845   6.929   3.294
 2850SOL    HW2 9450   1.928   0.006   3.200
 2851SOL     OW 9451   4.681   3.293   6.716
 2851SOL    HW1 9452   4.671   3.359   6.790
 2851SOL    HW2 9453   4.593   3.283   6.668
 2852SOL     OW 9454   6.183   4.351   6.548
 2852SOL    HW1 9455   6.195   4.326   6.644
 2852SOL    HW2 9456   6.103   4.410   6.539
 2853SOL     OW 9457   0.951   2.732   0.050
 2853SOL    HW1 9458   1.011   2.776   7.011
 2853SOL    HW2 9459   0.897   2.801   0.099
 2854SOL     OW 9460   3.732   0.470   5.842
 2854SOL    HW1 9461   3.810   0.410   5.863
 2854SOL    HW2 9462   3.705   0.520   5.925
 2855SOL     OW 9463   1.648   2.437   5.407
 2855SOL    HW1 9464   1.560   2.483   5.416
 2855SOL    HW2 9465   1.715   2.500   5.367
 2856SOL     OW 9466   1.093   2.809   4.313
 2856SOL    HW1 9467   1.177   2.767   4.349
 2856SOL    HW2 9468   1.100   2.818   4.214
 2857SOL     OW 9469   0.241   2.782   1.459
 2857SOL    HW1 9470   0.171   2.841   1.497
 2857SOL    HW2 9471   0.198   2.710   1.404
 2858SOL     OW 9472   5.682   5.592   2.000
 2858SOL    HW1 9473   5.705   5.502   1.964
 2858SOL    HW2 9474   5.604   5.585   2.061
 2859SOL     OW 9475   5.998   6.553   6.887
 2859SOL    HW1 9476   6.038   6.491   6.953
 2859SOL    HW2 9477   5.899   6.560   6.903
 2860SOL     OW 9478   2.297   0.118   2.520
 2860SOL    HW1 9479   2.320   0.195   2.461
 2860SOL    HW2 9480   2.341   0.131   2.609
 2861SOL     OW 9481   3.706   5.658   5.507
 2861SOL    HW1 9482   3.683   5.746   5.466
 2861SOL    HW2 9483   3.801   5.635   5.485
 2862SOL     OW 9484   4.345   2.060   2.066
 2862SOL    HW1 9485   4.373   2.014   2.150
 2862SOL    HW2 9486   4.424   2.103   2.024
 2863SOL     OW 9487   4.802   1.791   6.339
 2863SOL    HW1 9488   4.799   1.819   6.243
 2863SOL    HW2 9489   4.752   1.706   6.351
 2864SOL     OW 9490   4.691   2.249   0.888
 2864SOL    HW1 9491   4.757   2.305   0.937
 2864SOL    HW2 9492   4.734   2.163   0.860
 2865SOL     OW 9493   4.132   6.516   3.671
 2865SOL    HW1 9494   4.103   6.611   3.683
 2865SOL    HW2 9495   4.220   6.513   3.625
 2866SOL     OW 9496   5.637   4.024   0.361
 2866SOL    HW1 9497   5.555   4.067   0.321
 2866SOL    HW2 9498   5.645   3.930   0.328
 2867SOL     OW 9499   5.751   6.246   2.776
 2867SOL    HW1 9500   5.658   6.226   2.807
 2867SOL    HW2 9501   5.808   6.271   2.854
 2868SOL     OW 9502   1.182   1.288   5.226
 2868SOL    HW1 9503   1.258   1.246   5.275
 2868SOL    HW2 9504   1.098   1.277   5.279
 2869SOL     OW 9505   6.476   0.987   3.559
 2869SOL    HW1 9506   6.561   1.018   3.602
 2869SOL    HW2 9507   6.461   1.038   3.474
 2870SOL     OW 9508   0.760   1.668   6.350
 2870SOL    HW1 9509   0.752   1.731   6.427
 2870SOL    HW2 9510   0.681   1.607   6.349
 2871SOL     OW 9511   6.008   0.552   0.228
 2871SOL    HW1 9512   5.934   0.518   0.286
 2871SOL    HW2 9513   6.072   0.606   0.283
 2872SOL     OW 9514   2.436   1.798   0.863
 2872SOL    HW1 9515   2.516   1.796   0.804
 2872SOL    HW2 9516   2.436   1.883   0.916
 2873SOL     OW 9517   6.903   6.830   2.520
 2873SOL    HW1 9518   6.856   6.747   2.491
 2873SOL    HW2 9519   6.856   6.869   2.599
 2874SOL     OW 9520   3.970   6.399   2.807
 2874SOL    HW1 9521   4.054   6.360   2.769
 2874SOL    HW2 9522   3.994   6.476   2.867
 2875SOL     OW 9523   4.469   6.758   2.300
 2875SOL    HW1 9524   4.394   6.814   2.335
 2875SOL    HW2 9525   4.459   6.664   2.333
 2876SOL     OW 9526   1.509   0.325   2.557
 2876SOL    HW1 9527   1.417   0.342   2.523
 2876SOL    HW2 9528   1.509   0.327   2.657
 2877SOL     OW 9529   2.100   0.932   6.094
 2877SOL    HW1 9530   2.173   0.885   6.044
 2877SOL    HW2 9531   2.104   1.030   6.075
 2878SOL     OW 9532   2.937   3.600   5.181
 2878SOL    HW1 9533   2.853   3.546   5.188
 2878SOL    HW2 9534   2.934   3.674   5.248
 2879SOL     OW 9535   5.245   5.549   5.448
 2879SOL    HW1 9536   5.192   5.551   5.364
 2879SOL    HW2 9537   5.341   5.572   5.428
 2880SOL     OW 9538   6.988   1.526   3.624
 2880SOL    HW1 9539   6.979   1.469   3.706
 2880SOL    HW2 9540   0.046   1.503   3.577
 2881SOL     OW 9541   3.499   5.867   6.637
 2881SOL    HW1 9542   3.447   5.840   6.556
 2881SOL    HW2 9543   3.464   5.819   6.717
 2882SOL     OW 9544   6.680   5.368   1.243
 2882SOL    HW1 9545   6.729   5.409   1.320
 2882SOL    HW2 9546   6.728   5.388   1.158
 2883SOL     OW 9547   5.778   0.062   3.432
 2883SOL    HW1 9548   5.725   0.103   3.506
 2883SOL    HW2 9549   5.733   0.081   3.344
 2884SOL     OW 9550   0.049   5.943   2.513
 2884SOL    HW1 9551   0.026   5.985   2.601
 2884SOL    HW2 9552   0.077   6.013   2.448
 2885SOL     OW 9553   1.566   2.110   4.699
 2885SOL    HW1 9554   1.626   2.073   4.628
 2885SOL    HW2 9555   1.477   2.132   4.660
 2886SOL     OW 9556   1.987   3.784   6.230
 2886SOL    HW1 9557   2.045   3.774   6.149
 2886SOL    HW2 9558   2.040   3.824   6.305
 2887SOL     OW 9559   0.386   6.276   5.008
 2887SOL    HW1 9560   0.289   6.296   4.997
 2887SOL    HW2 9561   0.432   6.285   4.919
 2888SOL     OW 9562   0.277   4.477   0.005
 2888SOL    HW1 9563   0.375   4.468   7.016
 2888SOL    HW2 9564   0.228   4.475   6.946
 2889SOL     OW 9565   3.066   6.460   2.639
 2889SOL    HW1 9566   3.128   6.536   2.652
 2889SOL    HW2 9567   2.976   6.494   2.611
 2890SOL     OW 9568   1.636   5.915   0.676
 2890SOL    HW1 9569   1.617   5.903   0.578
 2890SOL    HW2 9570   1.731   5.890   0.695
 2891SOL     OW 9571   1.218   3.504   3.347
 2891SOL    HW1 9572   1.225   3.544   3.256
 2891SOL    HW2 9573   1.301   3.525   3.399
 2892SOL     OW 9574   6.149   2.911   1.563
 2892SOL    HW1 9575   6.052   2.935   1.563
 2892SOL    HW2 9576   6.167   2.845   1.490
 2893SOL     OW 9577   1.163   5.147   4.091
 2893SOL    HW1 9578   1.187   5.211   4.019
 2893SOL    HW2 9579   1.099   5.190   4.155
 2894SOL     OW 9580   1.423   3.829   1.478
 2894SOL    HW1 9581   1.344   3.818   1.539
 2894SOL    HW2 9582   1.501   3.861   1.531
 2895SOL     OW 9583   4.656   0.698   6.268
 2895SOL    HW1 9584   4.696   0.647   6.192
 2895SOL    HW2 9585   4.685   0.657   6.354
 2896SOL     OW 9586   3.978   0.344   5.173
 2896SOL    HW1 9587   4.011   0.430   5.135
 2896SOL    HW2 9588   4.040   0.269   5.146
 2897SOL     OW 9589   3.811   4.903   2.377
 2897SOL    HW1 9590   3.729   4.873   2.425
 2897SOL    HW2 9591   3.890   4.852   2.411
 2898SOL     OW 9592   4.627   4.429   4.277
 2898SOL    HW1 9593   4.548   4.462   4.327
 2898SOL    HW2 9594   4.700   4.498   4.281
 2899SOL     OW 9595   6.742   1.927   0.396
 2899SOL    HW1 9596   6.823   1.871   0.418
 2899SOL    HW2 9597   6.772   2.013   0.355
 2900SOL     OW 9598   3.850   4.469   6.509
 2900SOL    HW1 9599   3.918   4.402   6.538
 2900SOL    HW2 9600   3.766   4.422   6.483
 2901SOL     OW 9601   1.811   4.783   3.449
 2901SOL    HW1 9602   1.731   4.829   3.488
 2901SOL    HW2 9603   1.785   4.693   3.417
 2902SOL     OW 9604   6.632   5.160   3.350
 2902SOL    HW1 9605   6.671   5.143   3.259
 2902SOL    HW2 9606   6.588   5.076   3.383
 2903SOL     OW 9607   4.083   6.384   0.446
 2903SOL    HW1 9608   4.059   6.474   0.483
 2903SOL    HW2 9609   4.047   6.376   0.353
 2904SOL     OW 9610   3.022   5.169   5.394
 2904SOL    HW1 9611   3.051   5.141   5.302
 2904SOL    HW2 9612   2.942   5.229   5.386
 2905SOL     OW 9613   1.276   3.926   4.102
 2905SOL    HW1 9614   1.197   3.984   4.079
 2905SOL    HW2 9615   1.257   3.832   4.074
 2906SOL     OW 9616   5.364   6.291   2.507
 2906SOL    HW1 9617   5.443   6.340   2.467
 2906SOL    HW2 9618   5.337   6.336   2.592
 2907SOL     OW 9619   0.617   1.589   3.895
 2907SOL    HW1 9620   0.553   1.530   3.846
 2907SOL    HW2 9621   0.706   1.545   3.901
 2908SOL     OW 9622   5.323   6.601   3.519
 2908SOL    HW1 9623   5.405   6.645   3.483
 2908SOL    HW2 9624   5.271   6.666   3.574
 2909SOL     OW 9625   2.070   5.754   3.971
 2909SOL    HW1 9626   2.102   5.834   4.021
 2909SOL    HW2 9627   1.985   5.721   4.013
 2910SOL     OW 9628   6.295   0.396   3.768
 2910SOL    HW1 9629   6.284   0.451   3.685
 2910SOL    HW2 9630   6.283   0.454   3.848
 2911SOL     OW 9631   1.757   5.167   3.642
 2911SOL    HW1 9632   1.723   5.109   3.568
 2911SOL    HW2 9633   1.683   5.224   3.677
 2912SOL     OW 9634   6.325   6.647   0.135
 2912SOL    HW1 9635   6.305   6.566   0.079
 2912SOL    HW2 9636   6.423   6.664   0.134
 2913SOL     OW 9637   3.242   5.189   1.937
 2913SOL    HW1 9638   3.257   5.205   2.035
 2913SOL    HW2 9639   3.173   5.252   1.903
 2914SOL     OW 9640   5.869   6.114   0.734
 2914SOL    HW1 9641   5.909   6.205   0.737
 2914SOL    HW2 9642   5.893   6.069   0.648
 2915SOL     OW 9643   2.912   1.910   3.483
 2915SOL    HW1 9644   2.888   1.815   3.501
 2915SOL    HW2 9645   2.908   1.927   3.384
 2916SOL     OW 9646   1.054   5.239   0.484
 2916SOL    HW1 9647   1.088   5.333   0.491
 2916SOL    HW2 9648   1.117   5.177   0.531
 2917SOL     OW 9649   3.041   0.308   4.612
 2917SOL    HW1 9650   3.116   0.367   4.642
 2917SOL    HW2 9651   3.045   0.296   4.513
 2918SOL     OW 9652   6.147   4.007   5.487
 2918SOL    HW1 9653   6.227   4.067   5.486
 2918SOL    HW2 9654   6.131   3.973   5.580
 2919SOL     OW 9655   6.633   0.351   3.174
 2919SOL    HW1 9656   6.639   0.444   3.138
 2919SOL    HW2 9657   6.545   0.338   3.220
 2920SOL     OW 9658   3.442   0.185   1.375
 2920SOL    HW1 9659   3.397   0.273   1.388
 2920SOL    HW2 9660   3.478   0.179   1.282
 2921SOL     OW 9661   0.216   0.151   5.465
 2921SOL    HW1 9662   0.294   0.207   5.440
 2921SOL    HW2 9663   0.249   0.064   5.504
 2922SOL     OW 9664   4.469   6.016   1.444
 2922SOL    HW1 9665   4.396   5.963   1.401
 2922SOL    HW2 9666   4.471   6.108   1.406
 2923SOL     OW 9667   0.027   5.480   4.166
 2923SOL    HW1 9668   6.987   5.407   4.177
 2923SOL    HW2 9669   0.006   5.554   4.229
 2924SOL     OW 9670   7.020   2.143   5.001
 2924SOL    HW1 9671   0.067   2.077   5.009
 2924SOL    HW2 9672   0.013   2.208   4.927
 2925SOL     OW 9673   5.697   2.344   0.747
 2925SOL    HW1 9674   5.631   2.276   0.715
 2925SOL    HW2 9675   5.790   2.306   0.741
 2926SOL     OW 9676   5.535   1.955   6.250
 2926SOL    HW1 9677   5.627   1.915   6.243
 2926SOL    HW2 9678   5.538   2.050   6.219
 2927SOL     OW 9679   1.802   3.800   1.146
 2927SOL    HW1 9680   1.853   3.746   1.212
 2927SOL    HW2 9681   1.739   3.741   1.096
 2928SOL     OW 9682   6.740   0.961   0.061
 2928SOL    HW1 9683   6.661   0.930   0.114
 2928SOL    HW2 9684   6.737   0.921   6.997
 2929SOL     OW 9685   1.528   2.742   5.870
 2929SOL    HW1 9686   1.544   2.819   5.809
 2929SOL    HW2 9687   1.562   2.658   5.828
 2930SOL     OW 9688   5.288   6.602   5.121
 2930SOL    HW1 9689   5.235   6.543   5.059
 2930SOL    HW2 9690   5.374   6.556   5.144
 2931SOL     OW 9691   5.105   4.973   6.894
 2931SOL    HW1 9692   5.178   5.035   6.867
 2931SOL    HW2 9693   5.017   5.008   6.863
 2932SOL     OW 9694   0.684   5.692   1.738
 2932SOL    HW1 9695   0.734   5.631   1.798
 2932SOL    HW2 9696   0.587   5.669   1.739
 2933SOL     OW 9697   1.513   6.770   1.961
 2933SOL    HW1 9698   1.566   6.762   2.045
 2933SOL    HW2 9699   1.464   6.684   1.944
 2934SOL     OW 9700   5.670   2.580   0.413
 2934SOL    HW1 9701   5.578   2.611   0.390
 2934SOL    HW2 9702   5.689   2.494   0.366
 2935SOL     OW 9703   6.564   2.367   6.037
 2935SOL    HW1 9704   6.637   2.308   6.001
 2935SOL    HW2 9705   6.594   2.462   6.037
 2936SOL     OW 9706   4.113   6.176   0.591
 2936SOL    HW1 9707   4.187   6.211   0.650
 2936SOL    HW2 9708   4.084   6.248   0.529
 2937SOL     OW 9709   5.495   5.093   1.221
 2937SOL    HW1 9710   5.510   5.052   1.311
 2937SOL    HW2 9711   5.399   5.082   1.195
 2938SOL     OW 9712   6.159   4.544   0.562
 2938SOL    HW1 9713   6.125   4.469   0.619
 2938SOL    HW2 9714   6.259   4.541   0.559
 2939SOL     OW 9715   1.930   0.752   1.243
 2939SOL    HW1 9716   1.874   0.806   1.180
 2939SOL    HW2 9717   2.011   0.804   1.270
 2940SOL     OW 9718   5.804   5.280   5.715
 2940SOL    HW1 9719   5.891   5.286   5.763
 2940SOL    HW2 9720   5.746   5.358   5.741
 2941SOL     OW 9721   2.145   1.916   3.884
 2941SOL    HW1 9722   2.137   2.015   3.895
 2941SOL    HW2 9723   2.205   1.879   3.955
 2942SOL     OW 9724   3.933   1.752   1.054
 2942SOL    HW1 9725   3.925   1.783   1.148
 2942SOL    HW2 9726   4.025   1.716   1.038
 2943SOL     OW 9727   5.578   4.302   3.704
 2943SOL    HW1 9728   5.595   4.235   3.631
 2943SOL    HW2 9729   5.664   4.322   3.751
 2944SOL     OW 9730   2.473   5.827   3.831
 2944SOL    HW1 9731   2.384   5.807   3.791
 2944SOL    HW2 9732   2.481   5.925   3.850
 2945SOL     OW 9733   4.668   2.706   1.683
 2945SOL    HW1 9734   4.710   2.794   1.662
 2945SOL    HW2 9735   4.570   2.709   1.663
 2946SOL     OW 9736   1.982   4.897   6.199
 2946SOL    HW1 9737   1.917   4.846   6.255
 2946SOL    HW2 9738   2.075   4.880   6.232
 2947SOL     OW 9739   0.946   5.938   1.430
 2947SOL    HW1 9740   0.886   5.916   1.507
 2947SOL    HW2 9741   0.897   5.994   1.364
 2948SOL     OW 9742   7.003   4.523   4.733
 2948SOL    HW1 9743   0.001   4.581   4.811
 2948SOL    HW2 9744   7.006   4.427   4.761
 2949SOL     OW 9745   0.621   5.370   0.524
 2949SOL    HW1 9746   0.549   5.364   0.593
 2949SOL    HW2 9747   0.584   5.348   0.434
 2950SOL     OW 9748   5.907   5.937   4.330
 2950SOL    HW1 9749   5.930   5.841   4.315
 2950SOL    HW2 9750   5.809   5.945   4.349
 2951SOL     OW 9751   5.620   2.058   2.050
 2951SOL    HW1 9752   5.591   1.974   2.098
 2951SOL    HW2 9753   5.657   2.033   1.961
 2952SOL     OW 9754   0.139   6.145   5.414
 2952SOL    HW1 9755   0.227   6.120   5.375
 2952SOL    HW2 9756   0.116   6.239   5.387
 2953SOL     OW 9757   6.473   4.422   3.324
 2953SOL    HW1 9758   6.389   4.366   3.326
 2953SOL    HW2 9759   6.524   4.407   3.408
 2954SOL     OW 9760   0.177   4.567   1.022
 2954SOL    HW1 9761   0.225   4.487   0.986
 2954SOL    HW2 9762   0.183   4.642   0.956
 2955SOL     OW 9763   0.549   4.180   0.853
 2955SOL    HW1 9764   0.558   4.101   0.793
 2955SOL    HW2 9765   0.549   4.151   0.948
 2956SOL     OW 9766   6.350   5.551   3.316
 2956SOL    HW1 9767   6.395   5.625   3.266
 2956SOL    HW2 9768   6.254   5.547   3.292
 2957SOL     OW 9769   4.960   4.628   1.540
 2957SOL    HW1 9770   5.053   4.659   1.561
 2957SOL    HW2 9771   4.954   4.529   1.552
 2958SOL     OW 9772   1.822   4.477   3.047
 2958SOL    HW1 9773   1.745   4.435   2.999
 2958SOL    HW2 9774   1.904   4.472   2.990
 2959SOL     OW 9775   5.544   3.329   2.031
 2959SOL    HW1 9776   5.570   3.257   2.095
 2959SOL    HW2 9777   5.488   3.397   2.078
 2960SOL     OW 9778   3.304   0.280   6.789
 2960SOL    HW1 9779   3.394   0.266   6.831
 2960SOL    HW2 9780   3.241   0.210   6.822
 2961SOL     OW 9781   6.176   4.924   2.921
 2961SOL    HW1 9782   6.204   5.013   2.884
 2961SOL    HW2 9783   6.094   4.892   2.874
 2962SOL     OW 9784   4.801   6.356   3.676
 2962SOL    HW1 9785   4.834   6.443   3.639
 2962SOL    HW2 9786   4.795   6.289   3.602
 2963SOL     OW 9787   0.731   1.080   0.100
 2963SOL    HW1 9788   0.806   1.135   0.137
 2963SOL    HW2 9789   0.709   1.006   0.164
 2964SOL     OW 9790   0.502   1.703   5.718
 2964SOL    HW1 9791   0.578   1.651   5.756
 2964SOL    HW2 9792   0.529   1.742   5.629
 2965SOL     OW 9793   0.475   1.223   5.011
 2965SOL    HW1 9794   0.570   1.226   5.043
 2965SOL    HW2 9795   0.460   1.140   4.957
 2966SOL     OW 9796   5.056   5.027   3.021
 2966SOL    HW1 9797   4.962   5.057   3.037
 2966SOL    HW2 9798   5.063   4.929   3.037
 2967SOL     OW 9799   6.177   0.516   5.785
 2967SOL    HW1 9800   6.210   0.549   5.697
 2967SOL    HW2 9801   6.086   0.554   5.803
 2968SOL     OW 9802   0.692   2.370   0.531
 2968SOL    HW1 9803   0.610   2.356   0.587
 2968SOL    HW2 9804   0.676   2.445   0.467
 2969SOL     OW 9805   4.693   2.762   3.789
 2969SOL    HW1 9806   4.632   2.835   3.819
 2969SOL    HW2 9807   4.749   2.731   3.865
 2970SOL     OW 9808   2.516   3.360   5.350
 2970SOL    HW1 9809   2.470   3.274   5.325
 2970SOL    HW2 9810   2.467   3.403   5.425
 2971SOL     OW 9811   4.980   3.793   0.655
 2971SOL    HW1 9812   5.023   3.852   0.587
 2971SOL    HW2 9813   5.002   3.697   0.634
 2972SOL     OW 9814   6.384   5.433   6.718
 2972SOL    HW1 9815   6.387   5.436   6.818
 2972SOL    HW2 9816   6.289   5.437   6.687
 2973SOL     OW 9817   5.043   6.580   2.035
 2973SOL    HW1 9818   4.987   6.620   1.962
 2973SOL    HW2 9819   5.131   6.552   1.997
 2974SOL     OW 9820   6.980   4.544   3.857
 2974SOL    HW1 9821   6.979   4.445   3.877
 2974SOL    HW2 9822   7.026   4.560   3.771
 2975SOL     OW 9823   4.767   4.195   3.816
 2975SOL    HW1 9824   4.735   4.264   3.881
 2975SOL    HW2 9825   4.804   4.117   3.866
 2976SOL     OW 9826   5.236   1.746   2.362
 2976SOL    HW1 9827   5.225   1.793   2.274
 2976SOL    HW2 9828   5.226   1.647   2.348
 2977SOL     OW 9829   0.683   0.729   2.666
 2977SOL    HW1 9830   0.731   0.665   2.606
 2977SOL    HW2 9831   0.689   0.821   2.628
 2978SOL     OW 9832   4.011   4.530   0.316
 2978SOL    HW1 9833   3.938   4.591   0.286
 2978SOL    HW2 9834   3.976   4.468   0.386
 2979SOL     OW 9835   3.058   1.633   4.236
 2979SOL    HW1 9836   3.059   1.615   4.334
 2979SOL    HW2 9837   2.964   1.647   4.205
 2980SOL     OW 9838   1.884   5.734   5.766
 2980SOL    HW1 9839   1.934   5.660   5.812
 2980SOL    HW2 9840   1.902   5.730   5.667
 2981SOL     OW 9841   2.014   1.017   0.226
 2981SOL    HW1 9842   1.919   1.017   0.258
 2981SOL    HW2 9843   2.019   0.980   0.134
 2982SOL     OW 9844   2.718   6.071   1.485
 2982SOL    HW1 9845   2.667   6.141   1.435
 2982SOL    HW2 9846   2.655   6.005   1.524
 2983SOL     OW 9847   6.639   2.460   1.962
 2983SOL    HW1 9848   6.735   2.480   1.982
 2983SOL    HW2 9849   6.582   2.537   1.992
 2984SOL     OW 9850   5.713   5.300   7.003
 2984SOL    HW1 9851   5.674   5.364   0.041
 2984SOL    HW2 9852   5.640   5.267   6.942
 2985SOL     OW 9853   1.834   1.380   4.631
 2985SOL    HW1 9854   1.853   1.286   4.600
 2985SOL    HW2 9855   1.883   1.444   4.573
 2986SOL     OW 9856   3.456   4.142   2.466
 2986SOL    HW1 9857   3.415   4.053   2.486
 2986SOL    HW2 9858   3.537   4.155   2.522
 2987SOL     OW 9859   1.410   1.227   4.402
 2987SOL    HW1 9860   1.315   1.257   4.403
 2987SOL    HW2 9861   1.452   1.247   4.490
 2988SOL     OW 9862   1.701   0.175   2.428
 2988SOL    HW1 9863   1.622   0.230   2.457
 2988SOL    HW2 9864   1.670   0.101   2.368
 2989SOL     OW 9865   5.217   4.907   5.555
 2989SOL    HW1 9866   5.284   4.957   5.500
 2989SOL    HW2 9867   5.144   4.968   5.583
 2990SOL     OW 9868   4.458   2.062   4.195
 2990SOL    HW1 9869   4.379   2.006   4.170
 2990SOL    HW2 9870   4.462   2.072   4.294
 2991SOL     OW 9871   6.648   2.899   5.999
 2991SOL    HW1 9872   6.619   2.979   6.052
 2991SOL    HW2 9873   6.731   2.922   5.948
 2992SOL     OW 9874   1.198   4.915   4.229
 2992SOL    HW1 9875   1.297   4.911   4.216
 2992SOL    HW2 9876   1.160   4.989   4.174
 2993SOL     OW 9877   1.125   5.040   1.260
 2993SOL    HW1 9878   1.092   5.120   1.309
 2993SOL    HW2 9879   1.075   5.031   1.173
 2994SOL     OW 9880   4.345   6.306   0.231
 2994SOL    HW1 9881   4.255   6.338   0.202
 2994SOL    HW2 9882   4.351   6.207   0.218
 2995SOL     OW 9883   3.857   0.946   6.707
 2995SOL    HW1 9884   3.800   0.983   6.634
 2995SOL    HW2 9885   3.799   0.893   6.770
 2996SOL     OW 9886   0.579   1.308   5.499
 2996SOL    HW1 9887   0.639   1.386   5.482
 2996SOL    HW2 9888   0.634   1.228   5.520
 2997SOL     OW 9889   4.794   0.312   3.046
 2997SOL    HW1 9890   4.726   0.246   3.013
 2997SOL    HW2 9891   4.885   0.277   3.027
 2998SOL     OW 9892   4.675   6.799   3.227
 2998SOL    HW1 9893   4.599   6.862   3.212
 2998SOL    HW2 9894   4.760   6.850   3.236
 2999SOL     OW 9895   2.387   5.003   5.220
 2999SOL    HW1 9896   2.413   4.951   5.138
 2999SOL    HW2 9897   2.425   5.095   5.215
 3000SOL     OW 9898   3.187   4.056   6.076
 3000SOL    HW1 9899   3.114   4.113   6.040
 3000SOL    HW2 9900   3.185   3.966   6.032
 3001SOL     OW 9901   6.242   1.456   6.952
 3001SOL    HW1 9902   6.298   1.520   7.004
 3001SOL    HW2 9903   6.296   1.375   6.929
 3002SOL     OW 9904   3.637   2.757   0.461
 3002SOL    HW1 9905   3.667   2.662   0.456
 3002SOL    HW2 9906   3.571   2.768   0.535
 3003SOL     OW 9907   0.935   6.750   0.749
 3003SOL    HW1 9908   1.030   6.778   0.736
 3003SOL    HW2 9909   0.889   6.746   0.661
 3004SOL     OW 9910   1.187   4.336   2.742
 3004SOL    HW1 9911   1.252   4.261   2.729
 3004SOL    HW2 9912   1.233   4.423   2.730
 3005SOL     OW 9913   1.776   2.522   0.296
 3005SOL    HW1 9914   1.739   2.503   0.387
 3005SOL    HW2 9915   1.701   2.536   0.232
 3006SOL     OW 9916   5.544   1.915   5.242
 3006SOL    HW1 9917   5.603   1.913   5.323
 3006SOL    HW2 9918   5.597   1.891   5.161
 3007SOL     OW 9919   5.095   4.856   0.958
 3007SOL    HW1 9920   5.095   4.823   1.053
 3007SOL    HW2 9921   5.078   4.954   0.957
 3008SOL     OW 9922   2.832   2.392   6.391
 3008SOL    HW1 9923   2.916   2.437   6.361
 3008SOL    HW2 9924   2.771   2.381   6.313
 3009SOL     OW 9925   6.895   3.038   2.604
 3009SOL    HW1 9926   6.832   2.979   2.554
 3009SOL    HW2 9927   6.857   3.061   2.693
 3010SOL     OW 9928   2.679   5.616   4.219
 3010SOL    HW1 9929   2.705   5.673   4.142
 3010SOL    HW2 9930   2.633   5.672   4.288
 3011SOL     OW 9931   5.815   0.954   2.018
 3011SOL    HW1 9932   5.810   0.855   2.025
 3011SOL    HW2 9933   5.911   0.982   2.018
 3012SOL     OW 9934   2.233   2.841   0.067
 3012SOL    HW1 9935   2.164   2.879   0.005
 3012SOL    HW2 9936   2.275   2.760   0.025
 3013SOL     OW 9937   5.421   5.181   3.519
 3013SOL    HW1 9938   5.424   5.125   3.601
 3013SOL    HW2 9939   5.463   5.270   3.537
 3014SOL     OW 9940   4.771   2.286   5.790
 3014SOL    HW1 9941   4.744   2.362   5.732
 3014SOL    HW2 9942   4.748   2.200   5.745
 3015SOL     OW 9943   1.764   1.528   0.133
 3015SOL    HW1 9944   1.674   1.541   0.092
 3015SOL    HW2 9945   1.765   1.571   0.224
 3016SOL     OW 9946   3.342   6.674   4.429
 3016SOL    HW1 9947   3.409   6.665   4.502
 3016SOL    HW2 9948   3.283   6.753   4.447
 3017SOL     OW 9949   6.072   5.786   2.411
 3017SOL    HW1 9950   6.055   5.687   2.414
 3017SOL    HW2 9951   6.088   5.813   2.316
 3018SOL     OW 9952   3.116   0.288   6.577
 3018SOL    HW1 9953   3.190   0.279   6.644
 3018SOL    HW2 9954   3.046   0.218   6.595
 3019SOL     OW 9955   0.220   0.178   6.667
 3019SOL    HW1 9956   0.230   0.171   6.766
 3019SOL    HW2 9957   0.292   0.237   6.631
 3020SOL     OW 9958   3.928   3.119   1.053
 3020SOL    HW1 9959   3.911   3.185   0.979
 3020SOL    HW2 9960   3.954   3.167   1.136
 3021SOL     OW 9961   2.761   0.407   4.846
 3021SOL    HW1 9962   2.727   0.327   4.796
 3021SOL    HW2 9963   2.687   0.444   4.903
 3022SOL     OW 9964   4.298   4.962   4.498
 3022SOL    HW1 9965   4.337   4.898   4.564
 3022SOL    HW2 9966   4.266   5.044   4.546
 3023SOL     OW 9967   4.073   6.567   3.002
 3023SOL    HW1 9968   4.169   6.594   2.992
 3023SOL    HW2 9969   4.063   6.507   3.082
 3024SOL     OW 9970   5.947   6.271   4.575
 3024SOL    HW1 9971   5.882   6.240   4.505
 3024SOL    HW2 9972   6.025   6.209   4.579
 3025SOL     OW 9973   4.514   6.022   1.710
 3025SOL    HW1 9974   4.496   6.121   1.717
 3025SOL    HW2 9975   4.503   5.993   1.615
 3026SOL     OW 9976   6.959   1.142   6.169
 3026SOL    HW1 9977   6.929   1.191   6.087
 3026SOL    HW2 9978   0.028   1.162   6.186
 3027SOL     OW 9979   3.797   1.809   2.802
 3027SOL    HW1 9980   3.765   1.819   2.707
 3027SOL    HW2 9981   3.759   1.725   2.841
 3028SOL     OW 9982   1.423   3.784   5.650
 3028SOL    HW1 9983   1.325   3.762   5.654
 3028SOL    HW2 9984   1.462   3.781   5.742
 3029SOL     OW 9985   1.348   3.153   4.491
 3029SOL    HW1 9986   1.267   3.115   4.534
 3029SOL    HW2 9987   1.426   3.091   4.505
 3030SOL     OW 9988   1.318   3.520   0.916
 3030SOL    HW1 9989   1.249   3.464   0.869
 3030SOL    HW2 9990   1.288   3.615   0.919
 3031SOL     OW 9991   0.446   4.998   1.137
 3031SOL    HW1 9992   0.442   4.989   1.038
 3031SOL    HW2 9993   0.531   4.958   1.171
 3032SOL     OW 9994   2.418   6.809   1.130
 3032SOL    HW1 9995   2.424   6.909   1.133
 3032SOL    HW2 9996   2.510   6.770   1.138
 3033SOL     OW 9997   5.935   0.758   2.376
 3033SOL    HW1 9998   5.941   0.731   2.280
 3033SOL    HW2 9999   6.026   0.758   2.417
 3034SOL     OW10000   0.850   6.735   3.395
 3034SOL    HW110001   0.927   6.798   3.402
 3034SOL    HW210002   0.782   6.772   3.332
 3035SOL     OW10003   0.592   3.116   6.178
 3035SOL    HW110004   0.662   3.128   6.108
 3035SOL    HW210005   0.598   3.190   6.244
 3036SOL     OW10006   1.322   1.625   5.821
 3036SOL    HW110007   1.402   1.686   5.815
 3036SOL    HW210008   1.298   1.594   5.730
 3037SOL     OW10009   6.282   4.878   5.829
 3037SOL    HW110010   6.323   4.791   5.855
 3037SOL    HW210011   6.297   4.946   5.901
 3038SOL     OW10012   5.006   5.023   5.682
 3038SOL    HW110013   4.951   4.942   5.703
 3038SOL    HW210014   4.950   5.105   5.691
 3039SOL     OW10015   0.700   3.069   0.708
 3039SOL    HW110016   0.793   3.050   0.737
 3039SOL    HW210017   0.684   3.029   0.618
 3040SOL     OW10018   3.361   4.963   5.601
 3040SOL    HW110019   3.366   4.948   5.503
 3040SOL    HW210020   3.301   5.041   5.620
 3041SOL     OW10021   1.946   4.562   5.504
 3041SOL    HW110022   1.982   4.655   5.498
 3041SOL    HW210023   1.984   4.507   5.430
 3042SOL     OW10024   5.949   6.645   2.919
 3042SOL    HW110025   6.039   6.650   2.874
 3042SOL    HW210026   5.884   6.702   2.868
 3043SOL     OW10027   2.884   4.187   1.759
 3043SOL    HW110028   2.917   4.280   1.774
 3043SOL    HW210029   2.955   4.121   1.784
 3044SOL     OW10030   3.448   5.825   5.523
 3044SOL    HW110031   3.364   5.845   5.574
 3044SOL    HW210032   3.527   5.830   5.585
 3045SOL     OW10033   4.926   6.616   2.899
 3045SOL    HW110034   5.008   6.667   2.926
 3045SOL    HW210035   4.884   6.575   2.980
 3046SOL     OW10036   3.566   0.342   6.905
 3046SOL    HW110037   3.614   0.280   6.967
 3046SOL    HW210038   3.632   0.385   6.843
 3047SOL     OW10039   6.126   0.471   1.573
 3047SOL    HW110040   6.051   0.510   1.626
 3047SOL    HW210041   6.202   0.450   1.635
 3048SOL     OW10042   4.434   2.413   0.603
 3048SOL    HW110043   4.374   2.348   0.649
 3048SOL    HW210044   4.529   2.390   0.621
 3049SOL     OW10045   1.625   0.104   3.339
 3049SOL    HW110046   1.668   0.192   3.317
 3049SOL    HW210047   1.541   0.094   3.286
 3050SOL     OW10048   3.521   1.918   1.838
 3050SOL    HW110049   3.452   1.904   1.766
 3050SOL    HW210050   3.475   1.934   1.925
 3051SOL     OW10051   2.229   6.613   6.819
 3051SOL    HW110052   2.210   6.562   6.735
 3051SOL    HW210053   2.278   6.554   6.883
 3052SOL     OW10054   5.435   5.582   2.217
 3052SOL    HW110055   5.475   5.547   2.302
 3052SOL    HW210056   5.351   5.532   2.196
 3053SOL     OW10057   6.947   3.359   1.334
 3053SOL    HW110058   0.009   3.339   1.294
 3053SOL    HW210059   6.921   3.453   1.310
 3054SOL     OW10060   6.087   2.346   1.944
 3054SOL    HW110061   6.138   2.402   1.879
 3054SOL    HW210062   5.992   2.337   1.914
 3055SOL     OW10063   4.775   0.374   5.202
 3055SOL    HW110064   4.865   0.332   5.195
 3055SOL    HW210065   4.705   0.303   5.206
 3056SOL     OW10066   6.605   1.101   5.540
 3056SOL    HW110067   6.566   1.077   5.630
 3056SOL    HW210068   6.543   1.070   5.468
 3057SOL     OW10069   4.292   4.977   4.210
 3057SOL    HW110070   4.388   4.968   4.181
 3057SOL    HW210071   4.285   4.964   4.309
 3058SOL     OW10072   6.585   4.403   0.868
 3058SOL    HW110073   6.651   4.370   0.936
 3058SOL    HW210074   6.610   4.495   0.839
 3059SOL     OW10075   2.870   1.177   3.756
 3059SOL    HW110076   2.825   1.189   3.667
 3059SOL    HW210077   2.800   1.161   3.826
 3060SOL     OW10078   2.045   5.381   0.467
 3060SOL    HW110079   2.080   5.392   0.374
 3060SOL    HW210080   2.121   5.356   0.528
 3061SOL     OW10081   6.102   5.445   5.429
 3061SOL    HW110082   6.184   5.407   5.472
 3061SOL    HW210083   6.032   5.374   5.424
 3062SOL     OW10084   2.055   6.669   0.894
 3062SOL    HW110085   1.959   6.688   0.916
 3062SOL    HW210086   2.103   6.756   0.881
 3063SOL     OW10087   2.176   4.457   1.219
 3063SOL    HW110088   2.180   4.520   1.142
 3063SOL    HW210089   2.148   4.367   1.188
 3064SOL     OW10090   5.084   3.222   0.341
 3064SOL    HW110091   5.137   3.141   0.368
 3064SOL    HW210092   5.146   3.300   0.329
 3065SOL     OW10093   1.387   2.255   6.459
 3065SOL    HW110094   1.324   2.272   6.535
 3065SOL    HW210095   1.348   2.291   6.375
 3066SOL     OW10096   5.175   4.908   0.641
 3066SOL    HW110097   5.077   4.921   0.629
 3066SOL    HW210098   5.200   4.814   0.619
 3067SOL     OW10099   3.543   0.658   6.571
 3067SOL    HW110100   3.509   0.666   6.477
 3067SOL    HW210101   3.608   0.732   6.590
 3068SOL     OW10102   7.006   5.982   1.572
 3068SOL    HW110103   7.009   6.073   1.529
 3068SOL    HW210104   6.957   5.989   1.659
 3069SOL     OW10105   6.732   6.585   2.493
 3069SOL    HW110106   6.640   6.621   2.502
 3069SOL    HW210107   6.750   6.520   2.568
 3070SOL     OW10108   2.741   0.565   6.711
 3070SOL    HW110109   2.718   0.660   6.691
 3070SOL    HW210110   2.689   0.504   6.651
 3071SOL     OW10111   6.783   6.242   3.809
 3071SOL    HW110112   6.773   6.250   3.908
 3071SOL    HW210113   6.880   6.231   3.786
 3072SOL     OW10114   1.981   5.479   5.858
 3072SOL    HW110115   2.027   5.511   5.941
 3072SOL    HW210116   2.039   5.411   5.813
 3073SOL     OW10117   6.686   3.795   2.927
 3073SOL    HW110118   6.771   3.846   2.944
 3073SOL    HW210119   6.633   3.791   3.012
 3074SOL     OW10120   0.205   4.026   0.838
 3074SOL    HW110121   0.119   3.996   0.797
 3074SOL    HW210122   0.186   4.078   0.921
 3075SOL     OW10123   2.597   5.740   3.189
 3075SOL    HW110124   2.609   5.794   3.106
 3075SOL    HW210125   2.561   5.650   3.164
 3076SOL     OW10126   6.694   1.788   3.909
 3076SOL    HW110127   6.757   1.761   3.837
 3076SOL    HW210128   6.605   1.744   3.894
 3077SOL     OW10129   5.648   4.457   1.924
 3077SOL    HW110130   5.664   4.384   1.858
 3077SOL    HW210131   5.685   4.543   1.887
 3078SOL     OW10132   6.836   3.350   2.495
 3078SOL    HW110133   6.891   3.420   2.450
 3078SOL    HW210134   6.739   3.371   2.483
 3079SOL     OW10135   2.765   2.187   2.959
 3079SOL    HW110136   2.771   2.226   2.867
 3079SOL    HW210137   2.756   2.088   2.952
 3080SOL     OW10138   6.117   5.026   2.296
 3080SOL    HW110139   6.031   5.050   2.252
 3080SOL    HW210140   6.159   5.109   2.333
 3081SOL     OW10141   1.118   4.305   5.928
 3081SOL    HW110142   1.197   4.305   5.867
 3081SOL    HW210143   1.116   4.221   5.981
 3082SOL     OW10144   1.692   6.047   3.787
 3082SOL    HW110145   1.735   6.068   3.875
 3082SOL    HW210146   1.732   5.964   3.749
 3083SOL     OW10147   3.081   6.725   3.614
 3083SOL    HW110148   3.137   6.793   3.660
 3083SOL    HW210149   3.119   6.706   3.523
 3084SOL     OW10150   6.446   4.687   3.259
 3084SOL    HW110151   6.447   4.587   3.265
 3084SOL    HW210152   6.442   4.714   3.163
 3085SOL     OW10153   6.513   4.732   0.327
 3085SOL    HW110154   6.468   4.688   0.248
 3085SOL    HW210155   6.448   4.740   0.402
 3086SOL     OW10156   5.341   1.551   0.120
 3086SOL    HW110157   5.324   1.594   0.031
 3086SOL    HW210158   5.341   1.452   0.109
 3087SOL     OW10159   2.129   6.796   3.357
 3087SOL    HW110160   2.140   6.729   3.283
 3087SOL    HW210161   2.039   6.840   3.349
 3088SOL     OW10162   1.744   3.271   5.356
 3088SOL    HW110163   1.699   3.319   5.281
 3088SOL    HW210164   1.784   3.339   5.419
 3089SOL     OW10165   4.175   2.159   4.567
 3089SOL    HW110166   4.266   2.156   4.526
 3089SOL    HW210167   4.182   2.193   4.661
 3090SOL     OW10168   2.579   1.144   1.634
 3090SOL    HW110169   2.668   1.166   1.674
 3090SOL    HW210170   2.510   1.137   1.706
 3091SOL     OW10171   1.290   1.036   0.367
 3091SOL    HW110172   1.213   1.026   0.430
 3091SOL    HW210173   1.327   0.946   0.345
 3092SOL     OW10174   5.522   6.833   0.629
 3092SOL    HW110175   5.423   6.841   0.642
 3092SOL    HW210176   5.554   6.903   0.565
 3093SOL     OW10177   5.328   5.768   6.491
 3093SOL    HW110178   5.389   5.825   6.546
 3093SOL    HW210179   5.356   5.672   6.498
 3094SOL     OW10180   2.545   0.090   4.169
 3094SOL    HW110181   2.623   0.054   4.119
 3094SOL    HW210182   2.496   0.015   4.214
 3095SOL     OW10183   2.372   4.292   5.369
 3095SOL    HW110184   2.351   4.380   5.327
 3095SOL    HW210185   2.372   4.221   5.298
 3096SOL     OW10186   0.585   5.148   5.512
 3096SOL    HW110187   0.507   5.159   5.574
 3096SOL    HW210188   0.627   5.059   5.528
 3097SOL     OW10189   5.693   3.430   6.871
 3097SOL    HW110190   5.677   3.380   6.786
 3097SOL    HW210191   5.699   3.365   6.947
 3098SOL     OW10192   1.854   3.281   1.278
 3098SOL    HW110193   1.871   3.271   1.376
 3098SOL    HW210194   1.758   3.304   1.263
 3099SOL     OW10195   1.031   6.097   4.006
 3099SOL    HW110196   1.011   6.002   4.031
 3099SOL    HW210197   1.042   6.152   4.089
 3100SOL     OW10198   6.569   6.389   3.853
 3100SOL    HW110199   6.628   6.328   3.800
 3100SOL    HW210200   6.475   6.381   3.821
 3101SOL     OW10201   5.456   5.548   6.091
 3101SOL    HW110202   5.443   5.449   6.088
 3101SOL    HW210203   5.381   5.590   6.142
 3102SOL     OW10204   6.407   0.181   1.169
 3102SOL    HW110205   6.404   0.088   1.132
 3102SOL    HW210206   6.325   0.198   1.224
 3103SOL     OW10207   4.342   1.246   1.401
 3103SOL    HW110208   4.316   1.271   1.494
 3103SOL    HW210209   4.432   1.201   1.402
 3104SOL     OW10210   4.333   0.673   6.221
 3104SOL    HW110211   4.424   0.675   6.263
 3104SOL    HW210212   4.323   0.591   6.165
 3105SOL     OW10213   5.390   3.642   1.345
 3105SOL    HW110214   5.438   3.577   1.404
 3105SOL    HW210215   5.354   3.594   1.265
 3106SOL     OW10216   4.870   6.946   5.233
 3106SOL    HW110217   4.779   6.904   5.224
 3106SOL    HW210218   4.916   6.946   5.144
 3107SOL     OW10219   3.654   1.016   4.665
 3107SOL    HW110220   3.693   0.950   4.730
 3107SOL    HW210221   3.706   1.101   4.668
 3108SOL     OW10222   1.950   5.608   4.664
 3108SOL    HW110223   1.885   5.551   4.615
 3108SOL    HW210224   1.901   5.684   4.708
 3109SOL     OW10225   5.986   0.223   3.895
 3109SOL    HW110226   6.025   0.265   3.813
 3109SOL    HW210227   5.892   0.193   3.877
 3110SOL     OW10228   1.266   3.943   3.129
 3110SOL    HW110229   1.343   3.936   3.193
 3110SOL    HW210230   1.182   3.912   3.174
 3111SOL     OW10231   0.089   5.145   3.569
 3111SOL    HW110232   0.063   5.235   3.535
 3111SOL    HW210233   0.007   5.094   3.595
 3112SOL     OW10234   3.435   3.348   0.561
 3112SOL    HW110235   3.445   3.253   0.591
 3112SOL    HW210236   3.517   3.376   0.511
 3113SOL     OW10237   3.492   5.729   2.718
 3113SOL    HW110238   3.440   5.662   2.666
 3113SOL    HW210239   3.505   5.812   2.664
 3114SOL     OW10240   3.848   2.104   0.681
 3114SOL    HW110241   3.781   2.032   0.698
 3114SOL    HW210242   3.801   2.188   0.657
 3115SOL     OW10243   3.918   4.695   6.346
 3115SOL    HW110244   3.894   4.612   6.396
 3115SOL    HW210245   4.014   4.717   6.362
 3116SOL     OW10246   6.643   1.910   7.005
 3116SOL    HW110247   6.601   1.996   6.977
 3116SOL    HW210248   6.590   1.869   0.051
 3117SOL     OW10249   4.327   3.701   5.573
 3117SOL    HW110250   4.391   3.683   5.499
 3117SOL    HW210251   4.340   3.633   5.645
 3118SOL     OW10252   0.697   5.330   2.151
 3118SOL    HW110253   0.702   5.389   2.232
 3118SOL    HW210254   0.786   5.328   2.105
 3119SOL     OW10255   2.065   2.218   0.073
 3119SOL    HW110256   2.138   2.265   0.022
 3119SOL    HW210257   2.103   2.178   0.156
 3120SOL     OW10258   2.523   0.423   5.516
 3120SOL    HW110259   2.444   0.483   5.503
 3120SOL    HW210260   2.539   0.369   5.433
 3121SOL     OW10261   6.138   1.286   5.032
 3121SOL    HW110262   6.094   1.337   5.106
 3121SOL    HW210263   6.104   1.320   4.944
 3122SOL     OW10264   5.121   5.226   5.082
 3122SOL    HW110265   5.049   5.296   5.079
 3122SOL    HW210266   5.083   5.141   5.117
 3123SOL     OW10267   1.940   1.792   2.459
 3123SOL    HW110268   2.007   1.739   2.408
 3123SOL    HW210269   1.878   1.838   2.394
 3124SOL     OW10270   4.749   0.105   4.359
 3124SOL    HW110271   4.702   0.171   4.418
 3124SOL    HW210272   4.828   0.148   4.317
 3125SOL     OW10273   1.422   3.078   5.359
 3125SOL    HW110274   1.442   3.137   5.437
 3125SOL    HW210275   1.411   3.133   5.277
 3126SOL     OW10276   5.302   4.377   5.243
 3126SOL    HW110277   5.257   4.324   5.315
 3126SOL    HW210278   5.234   4.430   5.193
 3127SOL     OW10279   2.298   2.097   6.712
 3127SOL    HW110280   2.393   2.108   6.741
 3127SOL    HW210281   2.238   2.095   6.793
 3128SOL     OW10282   3.488   1.061   6.869
 3128SOL    HW110283   3.500   0.963   6.886
 3128SOL    HW210284   3.406   1.075   6.814
 3129SOL     OW10285   6.187   3.874   0.413
 3129SOL    HW110286   6.157   3.865   0.508
 3129SOL    HW210287   6.122   3.826   0.353
 3130SOL     OW10288   2.190   4.517   2.036
 3130SOL    HW110289   2.108   4.550   2.082
 3130SOL    HW210290   2.210   4.575   1.957
 3131SOL     OW10291   1.263   3.705   2.135
 3131SOL    HW110292   1.358   3.680   2.120
 3131SOL    HW210293   1.254   3.753   2.222
 3132SOL     OW10294   5.084   5.230   6.548
 3132SOL    HW110295   4.993   5.239   6.588
 3132SOL    HW210296   5.135   5.315   6.561
 3133SOL     OW10297   3.310   0.772   3.532
 3133SOL    HW110298   3.231   0.711   3.529
 3133SOL    HW210299   3.283   0.864   3.501
 3134SOL     OW10300   4.471   4.955   0.698
 3134SOL    HW110301   4.467   4.932   0.795
 3134SOL    HW210302   4.553   5.008   0.680
 3135SOL     OW10303   4.337   0.427   5.619
 3135SOL    HW110304   4.427   0.402   5.584
 3135SOL    HW210305   4.267   0.372   5.574
 3136SOL     OW10306   5.347   6.790   2.640
 3136SOL    HW110307   5.253   6.781   2.606
 3136SOL    HW210308   5.370   6.887   2.648
 3137SOL     OW10309   6.903   6.774   3.667
 3137SOL    HW110310   6.869   6.690   3.709
 3137SOL    HW210311   6.826   6.837   3.652
 3138SOL     OW10312   6.473   5.970   3.832
 3138SOL    HW110313   6.540   5.897   3.818
 3138SOL    HW210314   6.447   6.008   3.744
 3139SOL     OW10315   3.670   5.036   0.649
 3139SOL    HW110316   3.587   5.051   0.596
 3139SOL    HW210317   3.717   5.123   0.663
 3140SOL     OW10318   6.314   6.356   6.056
 3140SOL    HW110319   6.287   6.447   6.087
 3140SOL    HW210320   6.274   6.338   5.966
 3141SOL     OW10321   0.744   0.225   6.482
 3141SOL    HW110322   0.728   0.308   6.429
 3141SOL    HW210323   0.811   0.168   6.435
 3142SOL     OW10324   2.754   7.026   2.535
 3142SOL    HW110325   2.702   6.978   2.606
 3142SOL    HW210326   2.750   0.097   2.550
 3143SOL     OW10327   5.971   1.427   0.020
 3143SOL    HW110328   6.065   1.422   7.015
 3143SOL    HW210329   5.908   1.408   6.972
 3144SOL     OW10330   4.583   3.770   0.936
 3144SOL    HW110331   4.575   3.672   0.921
 3144SOL    HW210332   4.541   3.794   1.024
 3145SOL     OW10333   2.019   6.536   2.416
 3145SOL    HW110334   1.976   6.542   2.326
 3145SOL    HW210335   1.958   6.488   2.479
 3146SOL     OW10336   0.776   1.403   4.314
 3146SOL    HW110337   0.866   1.446   4.313
 3146SOL    HW210338   0.716   1.454   4.376
 3147SOL     OW10339   3.278   5.194   0.104
 3147SOL    HW110340   3.183   5.203   0.074
 3147SOL    HW210341   3.329   5.276   0.077
 3148SOL     OW10342   0.073   6.740   4.135
 3148SOL    HW110343   0.012   6.663   4.114
 3148SOL    HW210344   0.164   6.720   4.100
 3149SOL     OW10345   3.186   0.820   6.556
 3149SOL    HW110346   3.202   0.780   6.466
 3149SOL    HW210347   3.192   0.749   6.626
 3150SOL     OW10348   7.015   5.953   5.165
 3150SOL    HW110349   0.060   5.885   5.155
 3150SOL    HW210350   6.926   5.907   5.174
 3151SOL     OW10351   0.397   1.310   5.300
 3151SOL    HW110352   0.434   1.263   5.220
 3151SOL    HW210353   0.462   1.305   5.375
 3152SOL     OW10354   1.025   4.935   0.526
 3152SOL    HW110355   0.951   4.991   0.489
 3152SOL    HW210356   1.038   4.854   0.468
 3153SOL     OW10357   6.132   5.363   0.542
 3153SOL    HW110358   6.076   5.314   0.608
 3153SOL    HW210359   6.229   5.350   0.564
 3154SOL     OW10360   7.020   1.987   0.096
 3154SOL    HW110361   6.972   2.061   0.049
 3154SOL    HW210362   6.978   1.900   0.073
 3155SOL     OW10363   6.538   5.088   0.542
 3155SOL    HW110364   6.467   5.058   0.478
 3155SOL    HW210365   6.624   5.043   0.519
 3156SOL     OW10366   2.810   3.464   1.858
 3156SOL    HW110367   2.739   3.503   1.800
 3156SOL    HW210368   2.900   3.488   1.822
 3157SOL     OW10369   2.112   1.734   5.804
 3157SOL    HW110370   2.191   1.678   5.831
 3157SOL    HW210371   2.133   1.831   5.819
 3158SOL     OW10372   2.685   1.138   3.970
 3158SOL    HW110373   2.585   1.135   3.978
 3158SOL    HW210374   2.726   1.084   4.043
 3159SOL     OW10375   5.338   0.328   6.194
 3159SOL    HW110376   5.327   0.418   6.152
 3159SOL    HW210377   5.408   0.333   6.265
 3160SOL     OW10378   1.402   5.896   5.728
 3160SOL    HW110379   1.308   5.871   5.703
 3160SOL    HW210380   1.460   5.892   5.647
 3161SOL     OW10381   2.481   2.562   2.998
 3161SOL    HW110382   2.389   2.535   3.025
 3161SOL    HW210383   2.519   2.494   2.935
 3162SOL     OW10384   1.494   5.984   1.931
 3162SOL    HW110385   1.442   6.056   1.886
 3162SOL    HW210386   1.548   6.023   2.006
 3163SOL     OW10387   4.693   4.092   6.271
 3163SOL    HW110388   4.620   4.152   6.240
 3163SOL    HW210389   4.764   4.086   6.201
 3164SOL     OW10390   3.828   5.863   1.231
 3164SOL    HW110391   3.916   5.912   1.236
 3164SOL    HW210392   3.783   5.887   1.145
 3165SOL     OW10393   1.647   6.586   1.653
 3165SOL    HW110394   1.720   6.541   1.704
 3165SOL    HW210395   1.686   6.633   1.573
 3166SOL     OW10396   4.254   1.792   3.352
 3166SOL    HW110397   4.221   1.859   3.419
 3166SOL    HW210398   4.176   1.739   3.318
 3167SOL     OW10399   5.700   4.362   1.056
 3167SOL    HW110400   5.705   4.355   0.956
 3167SOL    HW210401   5.656   4.448   1.081
 3168SOL     OW10402   5.360   2.675   0.354
 3168SOL    HW110403   5.282   2.732   0.376
 3168SOL    HW210404   5.331   2.602   0.291
 3169SOL     OW10405   2.319   4.240   3.905
 3169SOL    HW110406   2.328   4.318   3.968
 3169SOL    HW210407   2.348   4.268   3.814
 3170SOL     OW10408   4.276   5.888   1.825
 3170SOL    HW110409   4.369   5.916   1.800
 3170SOL    HW210410   4.215   5.967   1.822
 3171SOL     OW10411   6.950   1.521   2.054
 3171SOL    HW110412   6.856   1.555   2.062
 3171SOL    HW210413   7.009   1.571   2.117
 3172SOL     OW10414   6.801   5.562   6.862
 3172SOL    HW110415   6.732   5.540   6.793
 3172SOL    HW210416   6.821   5.660   6.860
 3173SOL     OW10417   3.607   3.191   0.009
 3173SOL    HW110418   3.585   3.268   6.976
 3173SOL    HW210419   3.696   3.153   7.010
 3174SOL     OW10420   3.407   2.910   0.192
 3174SOL    HW110421   3.376   2.936   0.284
 3174SOL    HW210422   3.328   2.888   0.135
 3175SOL     OW10423   5.862   1.215   1.646
 3175SOL    HW110424   5.878   1.309   1.677
 3175SOL    HW210425   5.838   1.215   1.549
 3176SOL     OW10426   0.829   3.907   5.480
 3176SOL    HW110427   0.832   3.948   5.571
 3176SOL    HW210428   0.870   3.970   5.414
 3177SOL     OW10429   4.952   4.465   3.909
 3177SOL    HW110430   4.983   4.410   3.831
 3177SOL    HW210431   4.860   4.437   3.935
 3178SOL     OW10432   6.497   2.453   1.083
 3178SOL    HW110433   6.423   2.505   1.125
 3178SOL    HW210434   6.468   2.358   1.068
 3179SOL     OW10435   0.938   2.348   2.004
 3179SOL    HW110436   0.945   2.419   1.935
 3179SOL    HW210437   0.872   2.375   2.074
 3180SOL     OW10438   5.444   0.204   0.509
 3180SOL    HW110439   5.475   0.298   0.525
 3180SOL    HW210440   5.353   0.206   0.468
 3181SOL     OW10441   6.234   1.883   3.294
 3181SOL    HW110442   6.323   1.837   3.287
 3181SOL    HW210443   6.224   1.949   3.220
 3182SOL     OW10444   2.619   0.249   6.851
 3182SOL    HW110445   2.567   0.164   6.853
 3182SOL    HW210446   2.631   0.279   6.756
 3183SOL     OW10447   4.773   4.266   1.968
 3183SOL    HW110448   4.677   4.291   1.956
 3183SOL    HW210449   4.780   4.188   2.029
 3184SOL     OW10450   0.966   2.611   2.809
 3184SOL    HW110451   1.059   2.613   2.771
 3184SOL    HW210452   0.963   2.666   2.892
 3185SOL     OW10453   4.852   5.960   6.826
 3185SOL    HW110454   4.947   5.951   6.794
 3185SOL    HW210455   4.794   5.896   6.776
 3186SOL     OW10456   3.290   1.894   0.690
 3186SOL    HW110457   3.340   1.917   0.774
 3186SOL    HW210458   3.308   1.798   0.667
 3187SOL     OW10459   4.804   5.426   1.004
 3187SOL    HW110460   4.732   5.478   1.049
 3187SOL    HW210461   4.820   5.464   0.912
 3188SOL     OW10462   1.272   6.962   4.406
 3188SOL    HW110463   1.255   6.900   4.483
 3188SOL    HW210464   1.327   6.916   4.337
 3189SOL     OW10465   1.073   1.843   1.050
 3189SOL    HW110466   1.120   1.778   0.990
 3189SOL    HW210467   1.035   1.918   0.995
 3190SOL     OW10468   0.422   5.669   0.682
 3190SOL    HW110469   0.492   5.728   0.641
 3190SOL    HW210470   0.418   5.686   0.781
 3191SOL     OW10471   5.001   5.394   1.172
 3191SOL    HW110472   5.059   5.470   1.144
 3191SOL    HW210473   4.924   5.386   1.109
 3192SOL     OW10474   0.481   3.658   1.298
 3192SOL    HW110475   0.545   3.581   1.301
 3192SOL    HW210476   0.417   3.645   1.222
 3193SOL     OW10477   4.411   1.080   6.532
 3193SOL    HW110478   4.441   1.175   6.518
 3193SOL    HW210479   4.320   1.079   6.571
 3194SOL     OW10480   1.691   1.760   6.473
 3194SOL    HW110481   1.608   1.790   6.521
 3194SOL    HW210482   1.718   1.829   6.406
 3195SOL     OW10483   1.889   0.884   3.060
 3195SOL    HW110484   1.979   0.912   3.093
 3195SOL    HW210485   1.818   0.929   3.115
 3196SOL     OW10486   0.549   0.897   6.976
 3196SOL    HW110487   0.595   0.970   7.027
 3196SOL    HW210488   0.450   0.908   6.985
 3197SOL     OW10489   2.971   6.545   4.354
 3197SOL    HW110490   2.921   6.572   4.272
 3197SOL    HW210491   2.986   6.624   4.413
 3198SOL     OW10492   6.447   2.861   3.708
 3198SOL    HW110493   6.461   2.804   3.628
 3198SOL    HW210494   6.526   2.854   3.769
 3199SOL     OW10495   5.312   3.837   2.596
 3199SOL    HW110496   5.226   3.887   2.595
 3199SOL    HW210497   5.332   3.807   2.689
 3200SOL     OW10498   5.477   3.054   2.582
 3200SOL    HW110499   5.408   2.984   2.566
 3200SOL    HW210500   5.568   3.015   2.569
 3201SOL     OW10501   6.538   4.627   3.898
 3201SOL    HW110502   6.606   4.577   3.951
 3201SOL    HW210503   6.547   4.725   3.916
 3202SOL     OW10504   1.792   5.231   1.121
 3202SOL    HW110505   1.891   5.225   1.132
 3202SOL    HW210506   1.757   5.144   1.086
 3203SOL     OW10507   5.669   2.288   0.297
 3203SOL    HW110508   5.679   2.276   0.198
 3203SOL    HW210509   5.727   2.223   0.345
 3204SOL     OW10510   4.543   6.504   2.948
 3204SOL    HW110511   4.597   6.586   2.927
 3204SOL    HW210512   4.592   6.423   2.915
 3205SOL     OW10513   5.603   2.620   5.740
 3205SOL    HW110514   5.676   2.580   5.796
 3205SOL    HW210515   5.642   2.658   5.656
 3206SOL     OW10516   1.905   4.670   0.621
 3206SOL    HW110517   1.953   4.589   0.586
 3206SOL    HW210518   1.955   4.752   0.593
 3207SOL     OW10519   1.206   0.834   6.392
 3207SOL    HW110520   1.136   0.766   6.372
 3207SOL    HW210521   1.251   0.812   6.479
 3208SOL     OW10522   4.354   6.459   6.156
 3208SOL    HW110523   4.327   6.538   6.211
 3208SOL    HW210524   4.364   6.487   6.061
 3209SOL     OW10525   3.464   5.239   3.663
 3209SOL    HW110526   3.559   5.208   3.659
 3209SOL    HW210527   3.442   5.288   3.579
 3210SOL     OW10528   1.371   4.125   0.463
 3210SOL    HW110529   1.396   4.044   0.517
 3210SOL    HW210530   1.454   4.169   0.429
 3211SOL     OW10531   1.646   3.801   0.674
 3211SOL    HW110532   1.561   3.853   0.662
 3211SOL    HW210533   1.674   3.763   0.586
 3212SOL     OW10534   3.066   6.880   1.754
 3212SOL    HW110535   3.059   6.785   1.783
 3212SOL    HW210536   3.146   6.922   1.797
 3213SOL     OW10537   1.680   0.127   0.527
 3213SOL    HW110538   1.587   0.149   0.496
 3213SOL    HW210539   1.686   0.030   0.547
 3214SOL     OW10540   4.254   5.591   0.678
 3214SOL    HW110541   4.289   5.556   0.591
 3214SOL    HW210542   4.154   5.595   0.675
 3215SOL     OW10543   0.539   3.698   0.994
 3215SOL    HW110544   0.488   3.764   0.939
 3215SOL    HW210545   0.491   3.610   0.994
 3216SOL     OW10546   5.864   5.386   0.410
 3216SOL    HW110547   5.958   5.370   0.437
 3216SOL    HW210548   5.806   5.394   0.491
 3217SOL     OW10549   0.307   5.141   2.149
 3217SOL    HW110550   0.406   5.143   2.135
 3217SOL    HW210551   0.262   5.186   2.071
 3218SOL     OW10552   4.749   2.679   3.528
 3218SOL    HW110553   4.828   2.621   3.510
 3218SOL    HW210554   4.734   2.686   3.627
 3219SOL     OW10555   0.647   1.840   3.447
 3219SOL    HW110556   0.586   1.776   3.493
 3219SOL    HW210557   0.632   1.932   3.482
 3220SOL     OW10558   0.103   5.223   5.851
 3220SOL    HW110559   0.090   5.127   5.876
 3220SOL    HW210560   0.142   5.272   5.929
 3221SOL     OW10561   3.845   0.286   1.750
 3221SOL    HW110562   3.765   0.264   1.694
 3221SOL    HW210563   3.816   0.301   1.845
 3222SOL     OW10564   3.127   0.934   2.931
 3222SOL    HW110565   3.198   0.995   2.896
 3222SOL    HW210566   3.049   0.988   2.963
 3223SOL     OW10567   2.293   0.007   6.366
 3223SOL    HW110568   2.279   0.101   6.335
 3223SOL    HW210569   2.231   7.015   6.442
 3224SOL     OW10570   4.957   3.427   5.545
 3224SOL    HW110571   4.893   3.406   5.472
 3224SOL    HW210572   5.030   3.359   5.547
 3225SOL     OW10573   5.360   2.621   5.433
 3225SOL    HW110574   5.329   2.620   5.338
 3225SOL    HW210575   5.406   2.708   5.452
 3226SOL     OW10576   2.403   1.172   2.767
 3226SOL    HW110577   2.352   1.235   2.709
 3226SOL    HW210578   2.485   1.217   2.803
 3227SOL     OW10579   3.197   3.277   6.696
 3227SOL    HW110580   3.166   3.320   6.780
 3227SOL    HW210581   3.148   3.315   6.618
 3228SOL     OW10582   0.015   3.888   1.445
 3228SOL    HW110583   0.054   3.881   1.536
 3228SOL    HW210584   0.068   3.833   1.381
 3229SOL     OW10585   3.781   0.281   4.979
 3229SOL    HW110586   3.851   0.265   4.909
 3229SOL    HW210587   3.824   0.323   5.060
 3230SOL     OW10588   2.304   4.564   5.288
 3230SOL    HW110589   2.394   4.587   5.251
 3230SOL    HW210590   2.234   4.591   5.222
 3231SOL     OW10591   2.891   0.142   1.732
 3231SOL    HW110592   2.863   0.173   1.641
 3231SOL    HW210593   2.814   0.096   1.777
 3232SOL     OW10594   4.993   6.712   4.570
 3232SOL    HW110595   5.092   6.719   4.582
 3232SOL    HW210596   4.969   6.616   4.555
 3233SOL     OW10597   0.121   2.707   1.030
 3233SOL    HW110598   0.206   2.755   1.048
 3233SOL    HW210599   0.058   2.767   0.980
 3234SOL     OW10600   0.651   2.390   6.932
 3234SOL    HW110601   0.585   2.364   6.861
 3234SOL    HW210602   0.673   2.310   6.988
 3235SOL     OW10603   6.488   0.527   2.340
 3235SOL    HW110604   6.428   0.607   2.347
 3235SOL    HW210605   6.499   0.486   2.431
 3236SOL     OW10606   1.729   3.751   0.371
 3236SOL    HW110607   1.695   3.760   0.277
 3236SOL    HW210608   1.797   3.678   0.375
 3237SOL     OW10609   5.751   1.222   3.564
 3237SOL    HW110610   5.696   1.294   3.522
 3237SOL    HW210611   5.830   1.263   3.611
 3238SOL     OW10612   0.153   5.274   0.449
 3238SOL    HW110613   0.241   5.316   0.430
 3238SOL    HW210614   0.107   5.253   0.362
 3239SOL     OW10615   6.483   1.318   2.236
 3239SOL    HW110616   6.487   1.223   2.269
 3239SOL    HW210617   6.567   1.365   2.261
 3240SOL     OW10618   0.067   6.389   5.825
 3240SOL    HW110619   7.023   6.457   5.807
 3240SOL    HW210620   0.146   6.435   5.867
 3241SOL     OW10621   4.694   0.725   4.645
 3241SOL    HW110622   4.671   0.727   4.547
 3241SOL    HW210623   4.689   0.631   4.679
 3242SOL     OW10624   4.542   4.190   6.847
 3242SOL    HW110625   4.527   4.206   6.945
 3242SOL    HW210626   4.569   4.275   6.803
 3243SOL     OW10627   4.617   4.799   0.064
 3243SOL    HW110628   4.552   4.874   0.083
 3243SOL    HW210629   4.566   4.714   0.053
 3244SOL     OW10630   4.767   5.685   0.598
 3244SOL    HW110631   4.746   5.648   0.508
 3244SOL    HW210632   4.825   5.620   0.648
 3245SOL     OW10633   5.717   3.425   4.488
 3245SOL    HW110634   5.640   3.379   4.532
 3245SOL    HW210635   5.730   3.515   4.530
 3246SOL     OW10636   5.895   0.491   3.001
 3246SOL    HW110637   5.799   0.465   2.990
 3246SOL    HW210638   5.923   0.477   3.096
 3247SOL     OW10639   6.144   4.622   2.506
 3247SOL    HW110640   6.087   4.541   2.521
 3247SOL    HW210641   6.088   4.697   2.471
 3248SOL     OW10642   5.514   3.451   1.496
 3248SOL    HW110643   5.507   3.491   1.587
 3248SOL    HW210644   5.599   3.399   1.490
 3249SOL     OW10645   3.764   4.046   3.898
 3249SOL    HW110646   3.685   3.987   3.912
 3249SOL    HW210647   3.832   4.028   3.969
 3250SOL     OW10648   5.799   0.168   2.719
 3250SOL    HW110649   5.859   0.218   2.782
 3250SOL    HW210650   5.803   0.210   2.629
 3251SOL     OW10651   3.038   0.777   4.155
 3251SOL    HW110652   3.073   0.687   4.180
 3251SOL    HW210653   2.938   0.774   4.147
 3252SOL     OW10654   2.436   0.928   2.631
 3252SOL    HW110655   2.430   1.016   2.678
 3252SOL    HW210656   2.388   0.934   2.543
 3253SOL     OW10657   4.563   4.273   1.641
 3253SOL    HW110658   4.497   4.285   1.715
 3253SOL    HW210659   4.576   4.176   1.623
 3254SOL     OW10660   5.330   6.083   5.811
 3254SOL    HW110661   5.427   6.091   5.787
 3254SOL    HW210662   5.317   5.999   5.864
 3255SOL     OW10663   5.036   6.718   0.125
 3255SOL    HW110664   5.111   6.730   0.189
 3255SOL    HW210665   5.072   6.701   0.033
 3256SOL     OW10666   3.822   1.314   0.840
 3256SOL    HW110667   3.912   1.272   0.849
 3256SOL    HW210668   3.752   1.243   0.836
 3257SOL     OW10669   1.278   1.731   2.151
 3257SOL    HW110670   1.288   1.820   2.196
 3257SOL    HW210671   1.355   1.717   2.089
 3258SOL     OW10672   4.586   6.218   2.558
 3258SOL    HW110673   4.662   6.174   2.511
 3258SOL    HW210674   4.499   6.184   2.522
 3259SOL     OW10675   5.061   4.986   5.244
 3259SOL    HW110676   4.966   4.960   5.263
 3259SOL    HW210677   5.111   4.907   5.210
 3260SOL     OW10678   1.332   2.192   0.768
 3260SOL    HW110679   1.299   2.109   0.722
 3260SOL    HW210680   1.350   2.172   0.864
 3261SOL     OW10681   5.243   0.648   1.534
 3261SOL    HW110682   5.182   0.704   1.478
 3261SOL    HW210683   5.190   0.603   1.605
 3262SOL     OW10684   3.128   2.010   2.621
 3262SOL    HW110685   3.141   2.045   2.714
 3262SOL    HW210686   3.031   2.014   2.598
 3263SOL     OW10687   2.197   1.234   3.149
 3263SOL    HW110688   2.200   1.165   3.077
 3263SOL    HW210689   2.246   1.200   3.230
 3264SOL     OW10690   1.102   4.681   0.793
 3264SOL    HW110691   1.092   4.649   0.887
 3264SOL    HW210692   1.157   4.765   0.792
 3265SOL     OW10693   5.061   0.627   6.413
 3265SOL    HW110694   5.035   0.542   6.459
 3265SOL    HW210695   5.016   0.632   6.324
 3266SOL     OW10696   1.815   4.336   0.118
 3266SOL    HW110697   1.898   4.295   0.158
 3266SOL    HW210698   1.737   4.275   0.134
 3267SOL     OW10699   3.318   6.353   1.341
 3267SOL    HW110700   3.408   6.335   1.381
 3267SOL    HW210701   3.322   6.438   1.287
 3268SOL     OW10702   1.969   3.714   1.381
 3268SOL    HW110703   1.947   3.643   1.448
 3268SOL    HW210704   2.063   3.744   1.393
 3269SOL     OW10705   4.941   5.665   2.261
 3269SOL    HW110706   4.944   5.691   2.358
 3269SOL    HW210707   4.859   5.703   2.219
 3270SOL     OW10708   1.472   4.229   6.296
 3270SOL    HW110709   1.477   4.291   6.217
 3270SOL    HW210710   1.383   4.240   6.341
 3271SOL     OW10711   5.873   3.544   2.023
 3271SOL    HW110712   5.899   3.640   2.018
 3271SOL    HW210713   5.833   3.516   1.936
 3272SOL     OW10714   3.027   4.543   6.090
 3272SOL    HW110715   2.965   4.591   6.151
 3272SOL    HW210716   2.981   4.526   6.003
 3273SOL     OW10717   6.277   5.886   0.557
 3273SOL    HW110718   6.271   5.979   0.595
 3273SOL    HW210719   6.247   5.888   0.461
 3274SOL     OW10720   5.671   1.138   0.703
 3274SOL    HW110721   5.603   1.093   0.762
 3274SOL    HW210722   5.655   1.112   0.608
 3275SOL     OW10723   5.570   1.504   6.960
 3275SOL    HW110724   5.509   1.552   6.896
 3275SOL    HW210725   5.539   1.519   0.026
 3276SOL     OW10726   2.887   5.796   6.604
 3276SOL    HW110727   2.841   5.870   6.555
 3276SOL    HW210728   2.871   5.710   6.556
 3277SOL     OW10729   3.958   6.570   6.947
 3277SOL    HW110730   3.917   6.560   0.011
 3277SOL    HW210731   4.033   6.635   6.952
 3278SOL     OW10732   0.612   0.913   5.742
 3278SOL    HW110733   0.637   0.853   5.818
 3278SOL    HW210734   0.554   0.863   5.678
 3279SOL     OW10735   5.093   0.427   0.600
 3279SOL    HW110736   5.115   0.378   0.684
 3279SOL    HW210737   5.063   0.520   0.622
 3280SOL     OW10738   4.390   4.589   4.418
 3280SOL    HW110739   4.349   4.625   4.334
 3280SOL    HW210740   4.388   4.659   4.489
 3281SOL     OW10741   1.541   5.111   1.818
 3281SOL    HW110742   1.612   5.040   1.816
 3281SOL    HW210743   1.484   5.103   1.737
 3282SOL     OW10744   6.902   5.111   5.547
 3282SOL    HW110745   6.900   5.157   5.458
 3282SOL    HW210746   6.941   5.172   5.616
 3283SOL     OW10747   3.953   0.242   0.860
 3283SOL    HW110748   3.874   0.298   0.887
 3283SOL    HW210749   3.920   0.158   0.818
 3284SOL     OW10750   0.512   4.981   6.911
 3284SOL    HW110751   0.510   5.000   6.813
 3284SOL    HW210752   0.516   4.882   6.926
 3285SOL     OW10753   4.476   2.267   3.358
 3285SOL    HW110754   4.481   2.203   3.435
 3285SOL    HW210755   4.546   2.337   3.369
 3286SOL     OW10756   3.402   2.992   2.381
 3286SOL    HW110757   3.385   2.951   2.471
 3286SOL    HW210758   3.462   3.071   2.391
 3287SOL     OW10759   0.941   0.659   0.418
 3287SOL    HW110760   0.880   0.680   0.494
 3287SOL    HW210761   0.959   0.742   0.365
 3288SOL     OW10762   1.095   5.729   6.643
 3288SOL    HW110763   1.095   5.822   6.606
 3288SOL    HW210764   1.002   5.693   6.642
 3289SOL     OW10765   2.588   0.517   5.089
 3289SOL    HW110766   2.666   0.534   5.150
 3289SOL    HW210767   2.522   0.458   5.136
 3290SOL     OW10768   0.301   6.073   1.227
 3290SOL    HW110769   0.212   6.075   1.182
 3290SOL    HW210770   0.372   6.101   1.162
 3291SOL     OW10771   2.016   0.126   0.033
 3291SOL    HW110772   2.106   0.105   0.072
 3291SOL    HW210773   1.964   0.180   0.099
 3292SOL     OW10774   0.073   0.731   0.798
 3292SOL    HW110775   0.035   0.642   0.772
 3292SOL    HW210776   0.097   0.730   0.895
 3293SOL     OW10777   0.368   4.197   1.422
 3293SOL    HW110778   0.342   4.138   1.345
 3293SOL    HW210779   0.294   4.261   1.441
 3294SOL     OW10780   6.081   1.655   6.279
 3294SOL    HW110781   6.096   1.681   6.374
 3294SOL    HW210782   6.018   1.720   6.235
 3295SOL     OW10783   1.396   2.393   2.282
 3295SOL    HW110784   1.347   2.366   2.199
 3295SOL    HW210785   1.339   2.456   2.335
 3296SOL     OW10786   1.231   0.072   2.861
 3296SOL    HW110787   1.174   0.154   2.874
 3296SOL    HW210788   1.322   0.089   2.898
 3297SOL     OW10789   3.197   1.069   5.832
 3297SOL    HW110790   3.226   1.165   5.841
 3297SOL    HW210791   3.135   1.061   5.754
 3298SOL     OW10792   6.072   1.999   5.634
 3298SOL    HW110793   6.052   2.088   5.677
 3298SOL    HW210794   6.104   1.935   5.704
 3299SOL     OW10795   3.526   5.801   3.223
 3299SOL    HW110796   3.540   5.897   3.198
 3299SOL    HW210797   3.428   5.779   3.218
 3300SOL     OW10798   0.252   1.087   5.552
 3300SOL    HW110799   0.204   1.006   5.519
 3300SOL    HW210800   0.190   1.166   5.550
 3301SOL     OW10801   1.884   3.223   3.772
 3301SOL    HW110802   1.875   3.184   3.864
 3301SOL    HW210803   1.794   3.248   3.737
 3302SOL     OW10804   0.719   4.886   5.293
 3302SOL    HW110805   0.785   4.835   5.238
 3302SOL    HW210806   0.753   4.894   5.387
 3303SOL     OW10807   3.797   3.761   1.034
 3303SOL    HW110808   3.807   3.692   1.106
 3303SOL    HW210809   3.887   3.787   1.001
 3304SOL     OW10810   1.022   5.277   4.289
 3304SOL    HW110811   0.929   5.310   4.274
 3304SOL    HW210812   1.029   5.236   4.380
 3305SOL     OW10813   1.953   1.323   2.465
 3305SOL    HW110814   1.898   1.256   2.416
 3305SOL    HW210815   1.905   1.354   2.546
 3306SOL     OW10816   2.144   5.519   4.815
 3306SOL    HW110817   2.085   5.566   4.749
 3306SOL    HW210818   2.149   5.572   4.899
 3307SOL     OW10819   0.035   5.415   6.832
 3307SOL    HW110820   0.086   5.435   6.916
 3307SOL    HW210821   6.989   5.482   6.821
 3308SOL     OW10822   3.220   6.399   0.856
 3308SOL    HW110823   3.163   6.416   0.776
 3308SOL    HW210824   3.194   6.462   0.930
 3309SOL     OW10825   0.190   5.773   3.612
 3309SOL    HW110826   0.164   5.751   3.706
 3309SOL    HW210827   0.107   5.785   3.557
 3310SOL     OW10828   0.225   3.601   5.756
 3310SOL    HW110829   0.205   3.694   5.726
 3310SOL    HW210830   0.140   3.551   5.772
 3311SOL     OW10831   3.367   3.691   1.070
 3311SOL    HW110832   3.304   3.628   1.025
 3311SOL    HW210833   3.383   3.770   1.010
 3312SOL     OW10834   4.284   4.476   6.153
 3312SOL    HW110835   4.277   4.434   6.063
 3312SOL    HW210836   4.332   4.564   6.145
 3313SOL     OW10837   1.074   6.628   3.841
 3313SOL    HW110838   1.042   6.694   3.772
 3313SOL    HW210839   1.113   6.548   3.794
 3314SOL     OW10840   2.689   1.224   2.808
 3314SOL    HW110841   2.739   1.303   2.774
 3314SOL    HW210842   2.696   1.220   2.907
 3315SOL     OW10843   6.479   4.385   4.151
 3315SOL    HW110844   6.555   4.450   4.147
 3315SOL    HW210845   6.404   4.419   4.093
 3316SOL     OW10846   4.660   1.274   5.679
 3316SOL    HW110847   4.719   1.295   5.758
 3316SOL    HW210848   4.606   1.193   5.699
 3317SOL     OW10849   4.428   2.870   1.691
 3317SOL    HW110850   4.400   2.950   1.638
 3317SOL    HW210851   4.493   2.897   1.762
 3318SOL     OW10852   2.270   1.375   0.718
 3318SOL    HW110853   2.341   1.305   0.716
 3318SOL    HW210854   2.276   1.426   0.803
 3319SOL     OW10855   6.438   1.553   4.088
 3319SOL    HW110856   6.527   1.530   4.128
 3319SOL    HW210857   6.425   1.502   4.003
 3320SOL     OW10858   6.537   0.705   5.042
 3320SOL    HW110859   6.568   0.792   5.004
 3320SOL    HW210860   6.608   0.667   5.101
 3321SOL     OW10861   4.893   1.769   0.280
 3321SOL    HW110862   4.862   1.687   0.231
 3321SOL    HW210863   4.857   1.851   0.235
 3322SOL     OW10864   6.542   2.773   1.130
 3322SOL    HW110865   6.521   2.866   1.097
 3322SOL    HW210866   6.641   2.758   1.126
 3323SOL     OW10867   3.263   3.132   0.356
 3323SOL    HW110868   3.282   3.158   0.261
 3323SOL    HW210869   3.202   3.200   0.397
 3324SOL     OW10870   4.300   5.215   6.706
 3324SOL    HW110871   4.350   5.142   6.659
 3324SOL    HW210872   4.227   5.249   6.645
 3325SOL     OW10873   0.614   3.173   6.813
 3325SOL    HW110874   0.646   3.108   6.882
 3325SOL    HW210875   0.530   3.216   6.845
 3326SOL     OW10876   5.528   1.773   2.139
 3326SOL    HW110877   5.522   1.687   2.088
 3326SOL    HW210878   5.441   1.822   2.132
 3327SOL     OW10879   3.353   5.632   1.504
 3327SOL    HW110880   3.314   5.596   1.419
 3327SOL    HW210881   3.452   5.620   1.503
 3328SOL     OW10882   4.275   2.235   0.744
 3328SOL    HW110883   4.338   2.159   0.755
 3328SOL    HW210884   4.251   2.272   0.834
 3329SOL     OW10885   5.094   0.096   4.526
 3329SOL    HW110886   5.048   0.069   4.611
 3329SOL    HW210887   5.172   0.156   4.548
 3330SOL     OW10888   6.608   5.027   1.982
 3330SOL    HW110889   6.593   5.082   2.064
 3330SOL    HW210890   6.608   4.930   2.007
 3331SOL     OW10891   2.646   2.925   1.418
 3331SOL    HW110892   2.600   2.999   1.468
 3331SOL    HW210893   2.745   2.939   1.421
 3332SOL     OW10894   5.646   5.577   7.006
 3332SOL    HW110895   5.658   5.535   6.916
 3332SOL    HW210896   5.553   5.562   0.010
 3333SOL     OW10897   4.484   4.288   6.269
 3333SOL    HW110898   4.531   4.323   6.188
 3333SOL    HW210899   4.414   4.354   6.298
 3334SOL     OW10900   2.732   3.973   1.635
 3334SOL    HW110901   2.778   4.058   1.663
 3334SOL    HW210902   2.795   3.896   1.646
 3335SOL     OW10903   4.640   6.985   5.498
 3335SOL    HW110904   4.691   0.026   5.445
 3335SOL    HW210905   4.547   6.978   5.463
 3336SOL     OW10906   2.486   5.981   4.716
 3336SOL    HW110907   2.395   5.954   4.685
 3336SOL    HW210908   2.499   5.952   4.811
 3337SOL     OW10909   2.970   3.750   2.930
 3337SOL    HW110910   2.950   3.835   2.883
 3337SOL    HW210911   3.044   3.701   2.883
 3338SOL     OW10912   5.766   2.537   1.484
 3338SOL    HW110913   5.776   2.493   1.574
 3338SOL    HW210914   5.792   2.472   1.413
 3339SOL     OW10915   6.483   0.467   6.636
 3339SOL    HW110916   6.540   0.458   6.554
 3339SOL    HW210917   6.531   0.427   6.714
 3340SOL     OW10918   3.600   1.003   2.575
 3340SOL    HW110919   3.597   1.002   2.475
 3340SOL    HW210920   3.655   1.080   2.607
 3341SOL     OW10921   1.092   5.280   3.147
 3341SOL    HW110922   1.023   5.283   3.075
 3341SOL    HW210923   1.051   5.312   3.233
 3342SOL     OW10924   2.050   0.138   4.290
 3342SOL    HW110925   2.105   0.168   4.212
 3342SOL    HW210926   2.070   0.197   4.368
 3343SOL     OW10927   5.494   2.995   0.940
 3343SOL    HW110928   5.553   3.052   0.997
 3343SOL    HW210929   5.417   2.961   0.994
 3344SOL     OW10930   5.900   3.148   4.150
 3344SOL    HW110931   5.946   3.138   4.062
 3344SOL    HW210932   5.857   3.061   4.176
 3345SOL     OW10933   1.582   3.724   5.863
 3345SOL    HW110934   1.551   3.794   5.929
 3345SOL    HW210935   1.667   3.683   5.896
 3346SOL     OW10936   1.532   0.412   0.810
 3346SOL    HW110937   1.622   0.370   0.810
 3346SOL    HW210938   1.462   0.341   0.807
 3347SOL     OW10939   0.639   3.740   4.680
 3347SOL    HW110940   0.698   3.809   4.722
 3347SOL    HW210941   0.689   3.654   4.670
 3348SOL     OW10942   3.269   3.390   3.950
 3348SOL    HW110943   3.303   3.482   3.968
 3348SOL    HW210944   3.282   3.333   4.032
 3349SOL     OW10945   0.984   5.723   2.864
 3349SOL    HW110946   1.081   5.703   2.849
 3349SOL    HW210947   0.954   5.680   2.949
 3350SOL     OW10948   1.025   2.418   5.740
 3350SOL    HW110949   1.050   2.322   5.750
 3350SOL    HW210950   1.106   2.471   5.715
 3351SOL     OW10951   4.927   0.970   2.439
 3351SOL    HW110952   5.004   1.019   2.398
 3351SOL    HW210953   4.842   1.003   2.399
 3352SOL     OW10954   6.892   2.357   0.479
 3352SOL    HW110955   6.971   2.414   0.498
 3352SOL    HW210956   6.808   2.408   0.497
 3353SOL     OW10957   1.454   5.617   2.044
 3353SOL    HW110958   1.495   5.689   2.100
 3353SOL    HW210959   1.437   5.653   1.952
 3354SOL     OW10960   4.687   2.310   5.505
 3354SOL    HW110961   4.777   2.353   5.495
 3354SOL    HW210962   4.630   2.365   5.565
 3355SOL     OW10963   2.185   1.358   6.880
 3355SOL    HW110964   2.270   1.349   6.933
 3355SOL    HW210965   2.161   1.454   6.871
 3356SOL     OW10966   1.665   4.712   6.041
 3356SOL    HW110967   1.700   4.798   6.005
 3356SOL    HW210968   1.683   4.707   6.140
 3357SOL     OW10969   2.886   4.768   1.537
 3357SOL    HW110970   2.938   4.765   1.451
 3357SOL    HW210971   2.945   4.804   1.610
 3358SOL     OW10972   5.201   1.128   1.072
 3358SOL    HW110973   5.139   1.077   1.132
 3358SOL    HW210974   5.284   1.152   1.123
 3359SOL     OW10975   6.848   0.240   4.061
 3359SOL    HW110976   6.840   0.318   4.124
 3359SOL    HW210977   6.757   0.211   4.033
 3360SOL     OW10978   0.268   0.913   6.971
 3360SOL    HW110979   0.240   1.009   6.964
 3360SOL    HW210980   0.234   0.862   6.893
 3361SOL     OW10981   1.039   4.306   3.717
 3361SOL    HW110982   1.004   4.230   3.772
 3361SOL    HW210983   0.963   4.364   3.689
 3362SOL     OW10984   3.692   1.496   3.180
 3362SOL    HW110985   3.692   1.587   3.138
 3362SOL    HW210986   3.620   1.491   3.249
 3363SOL     OW10987   6.133   6.874   1.152
 3363SOL    HW110988   6.140   6.821   1.068
 3363SOL    HW210989   6.054   6.843   1.205
 3364SOL     OW10990   1.586   4.217   4.115
 3364SOL    HW110991   1.568   4.308   4.153
 3364SOL    HW210992   1.531   4.205   4.032
 3365SOL     OW10993   6.796   1.929   5.349
 3365SOL    HW110994   6.831   1.842   5.314
 3365SOL    HW210995   6.800   1.999   5.278
 3366SOL     OW10996   5.818   6.710   5.425
 3366SOL    HW110997   5.894   6.750   5.372
 3366SOL    HW210998   5.831   6.729   5.522
 3367SOL     OW10999   3.517   2.746   1.424
 3367SOL    HW111000   3.535   2.661   1.474
 3367SOL    HW211001   3.504   2.821   1.488
 3368SOL     OW11002   0.281   4.948   5.572
 3368SOL    HW111003   0.232   4.891   5.637
 3368SOL    HW211004   0.344   4.891   5.518
 3369SOL     OW11005   3.760   2.718   6.010
 3369SOL    HW111006   3.855   2.718   6.041
 3369SOL    HW211007   3.722   2.810   6.017
 3370SOL     OW11008   6.897   6.195   6.753
 3370SOL    HW111009   6.913   6.218   6.657
 3370SOL    HW211010   6.922   6.273   6.811
 3371SOL     OW11011   1.823   3.052   2.124
 3371SOL    HW111012   1.726   3.076   2.126
 3371SOL    HW211013   1.853   3.026   2.215
 3372SOL     OW11014   0.787   1.786   0.964
 3372SOL    HW111015   0.849   1.730   1.019
 3372SOL    HW211016   0.797   1.763   0.868
 3373SOL     OW11017   6.925   1.516   2.980
 3373SOL    HW111018   6.992   1.567   3.035
 3373SOL    HW211019   6.881   1.578   2.915
 3374SOL     OW11020   1.128   5.884   4.628
 3374SOL    HW111021   1.130   5.978   4.660
 3374SOL    HW211022   1.123   5.882   4.528
 3375SOL     OW11023   6.274   5.936   6.518
 3375SOL    HW111024   6.344   5.886   6.467
 3375SOL    HW211025   6.318   5.991   6.589
 3376SOL     OW11026   3.852   2.962   3.112
 3376SOL    HW111027   3.823   2.970   3.207
 3376SOL    HW211028   3.896   3.047   3.083
 3377SOL     OW11029   0.150   6.421   5.372
 3377SOL    HW111030   0.088   6.499   5.383
 3377SOL    HW211031   0.245   6.453   5.379
 3378SOL     OW11032   6.882   0.871   0.697
 3378SOL    HW111033   6.835   0.863   0.785
 3378SOL    HW211034   6.977   0.843   0.707
 3379SOL     OW11035   6.670   6.920   6.370
 3379SOL    HW111036   6.714   6.877   6.450
 3379SOL    HW211037   6.733   6.986   6.330
 3380SOL     OW11038   6.036   6.838   5.270
 3380SOL    HW111039   5.991   6.924   5.247
 3380SOL    HW211040   6.124   6.857   5.313
 3381SOL     OW11041   1.223   2.671   1.252
 3381SOL    HW111042   1.288   2.676   1.327
 3381SOL    HW211043   1.189   2.578   1.243
 3382SOL     OW11044   0.574   1.928   0.786
 3382SOL    HW111045   0.527   1.846   0.751
 3382SOL    HW211046   0.628   1.903   0.866
 3383SOL     OW11047   4.617   5.941   1.994
 3383SOL    HW111048   4.715   5.962   1.990
 3383SOL    HW211049   4.572   5.974   1.911
 3384SOL     OW11050   2.619   3.324   6.005
 3384SOL    HW111051   2.617   3.263   5.927
 3384SOL    HW211052   2.692   3.391   5.993
 3385SOL     OW11053   6.875   2.715   4.174
 3385SOL    HW111054   6.910   2.654   4.103
 3385SOL    HW211055   6.853   2.661   4.256
 3386SOL     OW11056   5.938   4.092   6.840
 3386SOL    HW111057   6.026   4.081   6.795
 3386SOL    HW211058   5.932   4.183   6.880
 3387SOL     OW11059   2.806   0.654   3.840
 3387SOL    HW111060   2.756   0.676   3.756
 3387SOL    HW211061   2.904   0.667   3.824
 3388SOL     OW11062   5.165   3.616   1.773
 3388SOL    HW111063   5.205   3.553   1.707
 3388SOL    HW211064   5.120   3.691   1.724
 3389SOL     OW11065   5.627   4.849   5.639
 3389SOL    HW111066   5.623   4.949   5.627
 3389SOL    HW211067   5.637   4.828   5.736
 3390SOL     OW11068   4.987   5.181   5.979
 3390SOL    HW111069   5.014   5.247   6.049
 3390SOL    HW211070   5.013   5.216   5.888
 3391SOL     OW11071   5.337   2.858   4.555
 3391SOL    HW111072   5.315   2.956   4.562
 3391SOL    HW211073   5.252   2.805   4.556
 3392SOL     OW11074   2.952   6.686   3.846
 3392SOL    HW111075   2.955   6.771   3.900
 3392SOL    HW211076   3.001   6.700   3.760
 3393SOL     OW11077   0.469   6.286   0.152
 3393SOL    HW111078   0.454   6.198   0.107
 3393SOL    HW211079   0.471   6.358   0.083
 3394SOL     OW11080   5.870   3.232   1.987
 3394SOL    HW111081   5.818   3.162   1.938
 3394SOL    HW211082   5.828   3.322   1.972
 3395SOL     OW11083   5.482   3.222   3.275
 3395SOL    HW111084   5.392   3.219   3.230
 3395SOL    HW211085   5.551   3.249   3.209
 3396SOL     OW11086   4.705   1.914   3.773
 3396SOL    HW111087   4.699   1.908   3.674
 3396SOL    HW211088   4.651   1.992   3.806
 3397SOL     OW11089   1.957   0.712   5.341
 3397SOL    HW111090   1.939   0.740   5.435
 3397SOL    HW211091   2.055   0.723   5.321
 3398SOL     OW11092   0.565   6.584   4.703
 3398SOL    HW111093   0.492   6.515   4.710
 3398SOL    HW211094   0.548   6.657   4.769
 3399SOL     OW11095   5.310   4.584   3.991
 3399SOL    HW111096   5.300   4.680   4.017
 3399SOL    HW211097   5.221   4.548   3.963
 3400SOL     OW11098   4.794   2.677   5.895
 3400SOL    HW111099   4.820   2.702   5.988
 3400SOL    HW211100   4.875   2.680   5.836
 3401SOL     OW11101   0.052   3.372   0.964
 3401SOL    HW111102   7.025   3.437   1.018
 3401SOL    HW211103   0.148   3.378   0.990
 3402SOL     OW11104   3.912   6.057   6.577
 3402SOL    HW111105   3.868   6.030   6.492
 3402SOL    HW211106   3.850   6.114   6.630
 3403SOL     OW11107   3.850   6.006   4.633
 3403SOL    HW111108   3.809   5.952   4.560
 3403SOL    HW211109   3.786   6.010   4.710
 3404SOL     OW11110   5.004   1.629   7.021
 3404SOL    HW111111   4.950   1.576   0.059
 3404SOL    HW211112   5.059   1.566   6.965
 3405SOL     OW11113   0.152   3.915   4.499
 3405SOL    HW111114   0.246   3.933   4.530
 3405SOL    HW211115   0.097   3.884   4.576
 3406SOL     OW11116   0.618   3.995   1.867
 3406SOL    HW111117   0.592   3.918   1.926
 3406SOL    HW211118   0.601   3.971   1.771
 3407SOL     OW11119   1.321   5.084   6.413
 3407SOL    HW111120   1.233   5.044   6.438
 3407SOL    HW211121   1.329   5.086   6.313
 3408SOL     OW11122   4.559   3.727   5.364
 3408SOL    HW111123   4.610   3.677   5.294
 3408SOL    HW211124   4.595   3.705   5.454
 3409SOL     OW11125   3.378   6.117   6.645
 3409SOL    HW111126   3.290   6.107   6.691
 3409SOL    HW211127   3.421   6.028   6.635
 3410SOL     OW11128   0.194   5.900   0.474
 3410SOL    HW111129   0.217   5.865   0.383
 3410SOL    HW211130   0.189   5.999   0.471
 3411SOL     OW11131   0.613   3.402   1.925
 3411SOL    HW111132   0.669   3.320   1.918
 3411SOL    HW211133   0.519   3.377   1.948
 3412SOL     OW11134   4.312   2.871   6.994
 3412SOL    HW111135   4.219   2.835   7.000
 3412SOL    HW211136   4.310   2.962   6.953
 3413SOL     OW11137   5.766   1.282   0.941
 3413SOL    HW111138   5.759   1.222   0.862
 3413SOL    HW211139   5.811   1.367   0.915
 3414SOL     OW11140   2.426   0.273   5.749
 3414SOL    HW111141   2.337   0.270   5.703
 3414SOL    HW211142   2.495   0.310   5.687
 3415SOL     OW11143   1.925   3.693   5.014
 3415SOL    HW111144   1.957   3.605   4.978
 3415SOL    HW211145   1.910   3.685   5.113
 3416SOL     OW11146   0.228   5.911   0.750
 3416SOL    HW111147   0.226   5.865   0.661
 3416SOL    HW211148   0.140   5.955   0.766
 3417SOL     OW11149   0.384   5.819   2.977
 3417SOL    HW111150   0.464   5.802   2.920
 3417SOL    HW211151   0.382   5.754   3.053
 3418SOL     OW11152   3.784   0.853   4.499
 3418SOL    HW111153   3.754   0.763   4.467
 3418SOL    HW211154   3.714   0.892   4.560
 3419SOL     OW11155   3.615   5.447   4.912
 3419SOL    HW111156   3.625   5.348   4.901
 3419SOL    HW211157   3.650   5.492   4.830
 3420SOL     OW11158   4.994   2.836   4.361
 3420SOL    HW111159   5.076   2.877   4.320
 3420SOL    HW211160   4.915   2.851   4.301
 3421SOL     OW11161   5.144   1.291   5.144
 3421SOL    HW111162   5.118   1.206   5.098
 3421SOL    HW211163   5.223   1.273   5.204
 3422SOL     OW11164   1.742   0.155   0.997
 3422SOL    HW111165   1.689   0.208   1.063
 3422SOL    HW211166   1.833   0.135   1.035
 3423SOL     OW11167   0.984   4.576   6.828
 3423SOL    HW111168   1.023   4.575   6.736
 3423SOL    HW211169   1.055   4.554   6.895
 3424SOL     OW11170   3.115   6.596   1.629
 3424SOL    HW111171   3.117   6.525   1.700
 3424SOL    HW211172   3.027   6.592   1.581
 3425SOL     OW11173   5.285   5.000   2.576
 3425SOL    HW111174   5.256   5.023   2.669
 3425SOL    HW211175   5.261   4.905   2.556
 3426SOL     OW11176   3.925   2.822   0.585
 3426SOL    HW111177   3.960   2.915   0.598
 3426SOL    HW211178   3.856   2.823   0.513
 3427SOL     OW11179   6.403   0.203   6.944
 3427SOL    HW111180   6.391   0.114   6.988
 3427SOL    HW211181   6.418   0.190   6.846
 3428SOL     OW11182   3.094   5.365   0.700
 3428SOL    HW111183   3.081   5.416   0.615
 3428SOL    HW211184   3.082   5.267   0.683
 3429SOL     OW11185   0.371   2.378   0.341
 3429SOL    HW111186   0.365   2.387   0.441
 3429SOL    HW211187   0.428   2.298   0.319
 3430SOL     OW11188   0.609   6.477   5.087
 3430SOL    HW111189   0.648   6.511   5.173
 3430SOL    HW211190   0.564   6.389   5.104
 3431SOL     OW11191   0.731   6.952   1.304
 3431SOL    HW111192   0.683   6.927   1.220
 3431SOL    HW211193   0.764   0.018   1.297
 3432SOL     OW11194   1.547   2.230   6.865
 3432SOL    HW111195   1.575   2.320   6.832
 3432SOL    HW211196   1.488   2.241   6.945
 3433SOL     OW11197   1.026   0.613   6.416
 3433SOL    HW111198   0.932   0.599   6.449
 3433SOL    HW211199   1.090   0.563   6.474
 3434SOL     OW11200   4.865   1.853   1.158
 3434SOL    HW111201   4.770   1.835   1.182
 3434SOL    HW211202   4.922   1.851   1.241
 3435SOL     OW11203   0.754   1.649   0.391
 3435SOL    HW111204   0.759   1.553   0.364
 3435SOL    HW211205   0.729   1.704   0.311
 3436SOL     OW11206   4.091   5.840   6.578
 3436SOL    HW111207   4.031   5.920   6.573
 3436SOL    HW211208   4.137   5.838   6.667
 3437SOL     OW11209   1.849   1.292   5.802
 3437SOL    HW111210   1.763   1.339   5.823
 3437SOL    HW211211   1.912   1.356   5.759
 3438SOL     OW11212   0.992   2.825   6.810
 3438SOL    HW111213   0.905   2.817   6.760
 3438SOL    HW211214   1.062   2.863   6.749
 3439SOL     OW11215   2.071   6.482   5.231
 3439SOL    HW111216   2.007   6.489   5.308
 3439SOL    HW211217   2.067   6.566   5.178
 3440SOL     OW11218   3.612   3.481   1.741
 3440SOL    HW111219   3.618   3.436   1.830
 3440SOL    HW211220   3.650   3.421   1.671
 3441SOL     OW11221   5.080   6.965   4.296
 3441SOL    HW111222   4.992   6.919   4.285
 3441SOL    HW211223   5.073   0.005   4.370
 3442SOL     OW11224   3.245   5.562   1.958
 3442SOL    HW111225   3.255   5.514   1.871
 3442SOL    HW211226   3.188   5.643   1.945
 3443SOL     OW11227   5.114   5.653   1.395
 3443SOL    HW111228   5.096   5.637   1.492
 3443SOL    HW211229   5.041   5.710   1.356
 3444SOL     OW11230   5.322   5.416   0.259
 3444SOL    HW111231   5.421   5.408   0.246
 3444SOL    HW211232   5.275   5.349   0.201
 3445SOL     OW11233   6.457   5.510   4.288
 3445SOL    HW111234   6.430   5.591   4.340
 3445SOL    HW211235   6.526   5.458   4.340
 3446SOL     OW11236   6.177   0.352   2.661
 3446SOL    HW111237   6.140   0.391   2.577
 3446SOL    HW211238   6.197   0.426   2.726
 3447SOL     OW11239   5.511   5.698   0.883
 3447SOL    HW111240   5.429   5.740   0.845
 3447SOL    HW211241   5.592   5.739   0.841
 3448SOL     OW11242   3.308   0.047   1.038
 3448SOL    HW111243   3.228   7.015   1.025
 3448SOL    HW211244   3.279   0.142   1.042
 3449SOL     OW11245   6.202   6.477   3.916
 3449SOL    HW111246   6.131   6.406   3.908
 3449SOL    HW211247   6.257   6.478   3.833
 3450SOL     OW11248   6.925   2.252   6.695
 3450SOL    HW111249   6.922   2.247   6.596
 3450SOL    HW211250   6.878   2.172   6.734
 3451SOL     OW11251   1.983   6.383   1.750
 3451SOL    HW111252   2.010   6.430   1.665
 3451SOL    HW211253   1.902   6.328   1.733
 3452SOL     OW11254   5.805   0.406   6.121
 3452SOL    HW111255   5.756   0.455   6.049
 3452SOL    HW211256   5.821   0.312   6.093
 3453SOL     OW11257   6.194   5.921   6.007
 3453SOL    HW111258   6.274   5.875   5.967
 3453SOL    HW211259   6.224   5.978   6.083
 3454SOL     OW11260   0.855   2.394   5.953
 3454SOL    HW111261   0.902   2.348   6.029
 3454SOL    HW211262   0.921   2.415   5.881
 3455SOL     OW11263   2.598   1.770   4.389
 3455SOL    HW111264   2.577   1.749   4.485
 3455SOL    HW211265   2.567   1.862   4.367
 3456SOL     OW11266   6.096   5.534   2.791
 3456SOL    HW111267   6.026   5.582   2.738
 3456SOL    HW211268   6.112   5.444   2.750
 3457SOL     OW11269   2.771   5.408   3.321
 3457SOL    HW111270   2.846   5.470   3.298
 3457SOL    HW211271   2.805   5.314   3.323
 3458SOL     OW11272   4.453   0.684   1.559
 3458SOL    HW111273   4.467   0.710   1.463
 3458SOL    HW211274   4.483   0.759   1.618
 3459SOL     OW11275   5.865   3.777   2.959
 3459SOL    HW111276   5.798   3.749   3.028
 3459SOL    HW211277   5.944   3.717   2.964
 3460SOL     OW11278   2.714   2.953   6.941
 3460SOL    HW111279   2.802   2.966   6.985
 3460SOL    HW211280   2.641   2.982   7.004
 3461SOL     OW11281   4.374   6.179   4.975
 3461SOL    HW111282   4.402   6.093   4.932
 3461SOL    HW211283   4.278   6.174   5.001
 3462SOL     OW11284   0.775   3.431   2.317
 3462SOL    HW111285   0.755   3.493   2.393
 3462SOL    HW211286   0.837   3.476   2.253
 3463SOL     OW11287   0.634   3.979   3.051
 3463SOL    HW111288   0.652   3.881   3.050
 3463SOL    HW211289   0.697   4.024   3.115
 3464SOL     OW11290   6.336   3.767   6.546
 3464SOL    HW111291   6.319   3.682   6.496
 3464SOL    HW211292   6.429   3.799   6.527
 3465SOL     OW11293   1.787   2.345   2.445
 3465SOL    HW111294   1.707   2.334   2.504
 3465SOL    HW211295   1.757   2.357   2.350
 3466SOL     OW11296   0.374   4.673   0.164
 3466SOL    HW111297   0.438   4.630   0.229
 3466SOL    HW211298   0.328   4.602   0.111
 3467SOL     OW11299   1.870   2.438   0.968
 3467SOL    HW111300   1.870   2.511   0.900
 3467SOL    HW211301   1.912   2.356   0.929
 3468SOL     OW11302   5.553   6.649   2.781
 3468SOL    HW111303   5.596   6.630   2.693
 3468SOL    HW211304   5.455   6.664   2.768
 3469SOL     OW11305   4.713   0.126   3.333
 3469SOL    HW111306   4.671   0.042   3.299
 3469SOL    HW211307   4.681   0.204   3.279
 3470SOL     OW11308   6.265   3.391   1.645
 3470SOL    HW111309   6.266   3.302   1.600
 3470SOL    HW211310   6.338   3.394   1.714
 3471SOL     OW11311   4.190   5.393   4.348
 3471SOL    HW111312   4.268   5.357   4.399
 3471SOL    HW211313   4.211   5.487   4.319
 3472SOL     OW11314   2.797   1.021   3.420
 3472SOL    HW111315   2.743   0.950   3.374
 3472SOL    HW211316   2.745   1.107   3.420
 3473SOL     OW11317   0.104   2.211   1.483
 3473SOL    HW111318   0.200   2.203   1.456
 3473SOL    HW211319   0.067   2.299   1.451
 3474SOL     OW11320   1.122   4.638   2.105
 3474SOL    HW111321   1.099   4.672   2.014
 3474SOL    HW211322   1.128   4.714   2.169
 3475SOL     OW11323   1.304   4.493   4.346
 3475SOL    HW111324   1.401   4.472   4.334
 3475SOL    HW211325   1.295   4.582   4.391
 3476SOL     OW11326   2.355   1.464   3.056
 3476SOL    HW111327   2.296   1.383   3.054
 3476SOL    HW211328   2.299   1.547   3.061
 3477SOL     OW11329   1.533   5.592   1.269
 3477SOL    HW111330   1.567   5.500   1.288
 3477SOL    HW211331   1.605   5.645   1.226
 3478SOL     OW11332   2.503   5.495   5.332
 3478SOL    HW111333   2.566   5.507   5.255
 3478SOL    HW211334   2.556   5.481   5.416
 3479SOL     OW11335   0.998   0.186   3.282
 3479SOL    HW111336   1.069   0.226   3.224
 3479SOL    HW211337   0.923   0.252   3.291
 3480SOL     OW11338   0.385   6.348   4.728
 3480SOL    HW111339   0.438   6.311   4.652
 3480SOL    HW211340   0.318   6.414   4.693
 3481SOL     OW11341   4.703   0.220   0.286
 3481SOL    HW111342   4.691   0.312   0.249
 3481SOL    HW211343   4.617   0.187   0.323
 3482SOL     OW11344   6.112   1.500   1.786
 3482SOL    HW111345   6.115   1.421   1.847
 3482SOL    HW211346   6.018   1.516   1.758
 3483SOL     OW11347   4.756   2.065   2.044
 3483SOL    HW111348   4.794   2.118   2.121
 3483SOL    HW211349   4.660   2.088   2.032
 3484SOL     OW11350   1.177   3.076   6.853
 3484SOL    HW111351   1.174   3.036   6.761
 3484SOL    HW211352   1.123   3.020   6.915
 3485SOL     OW11353   2.133   1.309   4.599
 3485SOL    HW111354   2.131   1.248   4.678
 3485SOL    HW211355   2.224   1.307   4.557
 3486SOL     OW11356   2.640   0.079   3.847
 3486SOL    HW111357   2.543   0.060   3.866
 3486SOL    HW211358   2.693   0.065   3.931
 3487SOL     OW11359   6.087   2.604   5.427
 3487SOL    HW111360   5.999   2.557   5.418
 3487SOL    HW211361   6.123   2.591   5.520
 3488SOL     OW11362   6.206   1.134   4.469
 3488SOL    HW111363   6.277   1.119   4.400
 3488SOL    HW211364   6.116   1.130   4.426
 3489SOL     OW11365   4.215   0.225   1.218
 3489SOL    HW111366   4.207   0.293   1.144
 3489SOL    HW211367   4.149   0.152   1.203
 3490SOL     OW11368   4.356   4.485   0.245
 3490SOL    HW111369   4.308   4.474   0.158
 3490SOL    HW211370   4.420   4.561   0.240
 3491SOL     OW11371   4.602   2.216   5.276
 3491SOL    HW111372   4.656   2.270   5.212
 3491SOL    HW211373   4.631   2.238   5.370
 3492SOL     OW11374   7.000   5.206   1.262
 3492SOL    HW111375   6.975   5.207   1.359
 3492SOL    HW211376   0.061   5.251   1.249
 3493SOL     OW11377   5.494   4.063   5.646
 3493SOL    HW111378   5.465   4.044   5.740
 3493SOL    HW211379   5.452   3.997   5.584
 3494SOL     OW11380   3.541   0.214   1.111
 3494SOL    HW111381   3.456   0.176   1.075
 3494SOL    HW211382   3.542   0.313   1.097
 3495SOL     OW11383   5.649   4.993   2.076
 3495SOL    HW111384   5.592   4.914   2.054
 3495SOL    HW211385   5.597   5.077   2.063
 3496SOL     OW11386   6.024   4.083   1.075
 3496SOL    HW111387   6.039   4.161   1.013
 3496SOL    HW211388   5.928   4.054   1.069
 3497SOL     OW11389   3.004   1.286   3.972
 3497SOL    HW111390   2.993   1.385   3.980
 3497SOL    HW211391   2.974   1.256   3.882
 3498SOL     OW11392   2.946   2.037   0.598
 3498SOL    HW111393   2.902   2.103   0.536
 3498SOL    HW211394   3.008   1.978   0.546
 3499SOL     OW11395   4.892   3.400   4.023
 3499SOL    HW111396   4.879   3.324   3.960
 3499SOL    HW211397   4.911   3.484   3.972
 3500SOL     OW11398   1.852   3.751   5.280
 3500SOL    HW111399   1.907   3.706   5.350
 3500SOL    HW211400   1.774   3.796   5.322
 3501SOL     OW11401   1.594   5.685   4.810
 3501SOL    HW111402   1.659   5.761   4.810
 3501SOL    HW211403   1.605   5.632   4.894
 3502SOL     OW11404   6.273   2.931   2.693
 3502SOL    HW111405   6.294   2.938   2.791
 3502SOL    HW211406   6.358   2.932   2.641
 3503SOL     OW11407   5.872   6.526   4.683
 3503SOL    HW111408   5.909   6.460   4.617
 3503SOL    HW211409   5.832   6.603   4.634
 3504SOL     OW11410   2.338   2.282   1.338
 3504SOL    HW111411   2.348   2.341   1.259
 3504SOL    HW211412   2.246   2.294   1.377
 3505SOL     OW11413   5.786   4.600   4.996
 3505SOL    HW111414   5.842   4.682   5.010
 3505SOL    HW211415   5.715   4.596   5.067
 3506SOL     OW11416   5.074   5.332   5.741
 3506SOL    HW111417   5.028   5.358   5.656
 3506SOL    HW211418   5.165   5.373   5.743
 3507SOL     OW11419   1.496   0.675   0.852
 3507SOL    HW111420   1.586   0.713   0.831
 3507SOL    HW211421   1.496   0.577   0.835
 3508SOL     OW11422   3.028   2.340   5.783
 3508SOL    HW111423   2.994   2.280   5.855
 3508SOL    HW211424   2.952   2.363   5.721
 3509SOL     OW11425   5.556   0.293   5.812
 3509SOL    HW111426   5.582   0.387   5.836
 3509SOL    HW211427   5.622   0.256   5.747
 3510SOL     OW11428   1.402   2.472   1.645
 3510SOL    HW111429   1.486   2.421   1.626
 3510SOL    HW211430   1.324   2.410   1.641
 3511SOL     OW11431   3.660   5.239   0.429
 3511SOL    HW111432   3.650   5.319   0.489
 3511SOL    HW211433   3.574   5.223   0.381
 3512SOL     OW11434   0.618   4.479   0.851
 3512SOL    HW111435   0.630   4.449   0.946
 3512SOL    HW211436   0.539   4.433   0.811
 3513SOL     OW11437   6.410   2.765   0.746
 3513SOL    HW111438   6.320   2.784   0.786
 3513SOL    HW211439   6.478   2.827   0.785
 3514SOL     OW11440   0.580   1.717   2.080
 3514SOL    HW111441   0.635   1.750   2.003
 3514SOL    HW211442   0.483   1.730   2.059
 3515SOL     OW11443   5.339   5.842   2.948
 3515SOL    HW111444   5.401   5.780   2.900
 3515SOL    HW211445   5.267   5.872   2.885
 3516SOL     OW11446   4.824   0.213   0.835
 3516SOL    HW111447   4.774   0.234   0.751
 3516SOL    HW211448   4.905   0.271   0.840
 3517SOL     OW11449   1.516   2.232   0.582
 3517SOL    HW111450   1.460   2.234   0.665
 3517SOL    HW211451   1.551   2.139   0.567
 3518SOL     OW11452   6.108   2.874   4.462
 3518SOL    HW111453   6.125   2.907   4.369
 3518SOL    HW211454   6.190   2.830   4.497
 3519SOL     OW11455   1.815   0.714   6.741
 3519SOL    HW111456   1.804   0.756   6.651
 3519SOL    HW211457   1.745   0.645   6.755
 3520SOL     OW11458   2.995   4.822   6.183
 3520SOL    HW111459   3.090   4.830   6.214
 3520SOL    HW211460   2.990   4.835   6.084
 3521SOL     OW11461   5.052   2.093   0.125
 3521SOL    HW111462   5.061   2.185   0.087
 3521SOL    HW211463   5.068   2.025   0.053
 3522SOL     OW11464   0.192   4.388   2.093
 3522SOL    HW111465   0.239   4.355   2.011
 3522SOL    HW211466   0.164   4.483   2.079
 3523SOL     OW11467   2.095   5.345   6.257
 3523SOL    HW111468   2.013   5.289   6.250
 3523SOL    HW211469   2.169   5.291   6.298
 3524SOL     OW11470   3.706   1.632   1.698
 3524SOL    HW111471   3.794   1.666   1.730
 3524SOL    HW211472   3.721   1.556   1.635
 3525SOL     OW11473   1.120   4.331   3.006
 3525SOL    HW111474   1.136   4.355   2.910
 3525SOL    HW211475   1.197   4.279   3.041
 3526SOL     OW11476   2.520   6.343   4.427
 3526SOL    HW111477   2.619   6.333   4.429
 3526SOL    HW211478   2.479   6.276   4.489
 3527SOL     OW11479   6.094   2.757   6.200
 3527SOL    HW111480   6.096   2.795   6.107
 3527SOL    HW211481   6.179   2.708   6.218
 3528SOL     OW11482   0.591   5.694   4.420
 3528SOL    HW111483   0.656   5.738   4.359
 3528SOL    HW211484   0.636   5.671   4.506
 3529SOL     OW11485   4.100   0.215   0.121
 3529SOL    HW111486   4.200   0.210   0.119
 3529SOL    HW211487   4.066   0.248   0.032
 3530SOL     OW11488   0.489   5.289   2.730
 3530SOL    HW111489   0.544   5.229   2.672
 3530SOL    HW211490   0.544   5.320   2.808
 3531SOL     OW11491   5.286   2.807   0.739
 3531SOL    HW111492   5.348   2.869   0.691
 3531SOL    HW211493   5.307   2.713   0.714
 3532SOL     OW11494   2.966   0.942   1.461
 3532SOL    HW111495   3.028   0.951   1.540
 3532SOL    HW211496   2.987   0.858   1.412
 3533SOL     OW11497   1.808   1.922   2.230
 3533SOL    HW111498   1.710   1.930   2.250
 3533SOL    HW211499   1.821   1.859   2.154
 3534SOL     OW11500   5.650   0.539   5.787
 3534SOL    HW111501   5.745   0.524   5.759
 3534SOL    HW211502   5.623   0.632   5.762
 3535SOL     OW11503   1.399   5.692   0.167
 3535SOL    HW111504   1.385   5.602   0.209
 3535SOL    HW211505   1.337   5.758   0.208
 3536SOL     OW11506   2.634   2.506   3.376
 3536SOL    HW111507   2.662   2.460   3.292
 3536SOL    HW211508   2.699   2.484   3.449
 3537SOL     OW11509   3.238   5.532   1.074
 3537SOL    HW111510   3.267   5.461   1.010
 3537SOL    HW211511   3.154   5.575   1.040
 3538SOL     OW11512   1.353   0.333   6.239
 3538SOL    HW111513   1.356   0.431   6.262
 3538SOL    HW211514   1.263   0.311   6.202
 3539SOL     OW11515   5.783   3.277   6.059
 3539SOL    HW111516   5.711   3.345   6.077
 3539SOL    HW211517   5.848   3.314   5.993
 3540SOL     OW11518   2.164   2.410   6.297
 3540SOL    HW111519   2.066   2.421   6.283
 3540SOL    HW211520   2.205   2.499   6.316
 3541SOL     OW11521   1.877   2.439   6.404
 3541SOL    HW111522   1.921   2.514   6.454
 3541SOL    HW211523   1.784   2.427   6.439
 3542SOL     OW11524   1.365   4.863   2.231
 3542SOL    HW111525   1.365   4.921   2.149
 3542SOL    HW211526   1.400   4.772   2.207
 3543SOL     OW11527   0.704   2.442   4.773
 3543SOL    HW111528   0.767   2.483   4.707
 3543SOL    HW211529   0.613   2.433   4.732
 3544SOL     OW11530   3.035   4.210   5.906
 3544SOL    HW111531   2.980   4.137   5.867
 3544SOL    HW211532   3.002   4.299   5.872
 3545SOL     OW11533   4.275   5.434   0.301
 3545SOL    HW111534   4.279   5.334   0.306
 3545SOL    HW211535   4.213   5.462   0.227
 3546SOL     OW11536   0.535   3.622   3.816
 3546SOL    HW111537   0.579   3.533   3.807
 3546SOL    HW211538   0.563   3.680   3.740
 3547SOL     OW11539   6.840   4.884   5.229
 3547SOL    HW111540   6.916   4.914   5.170
 3547SOL    HW211541   6.769   4.955   5.229
 3548SOL     OW11542   5.318   0.604   5.416
 3548SOL    HW111543   5.338   0.610   5.513
 3548SOL    HW211544   5.358   0.682   5.369
 3549SOL     OW11545   6.862   4.716   6.178
 3549SOL    HW111546   6.818   4.804   6.198
 3549SOL    HW211547   6.822   4.644   6.234
 3550SOL     OW11548   6.106   3.051   3.439
 3550SOL    HW111549   6.098   3.150   3.432
 3550SOL    HW211550   6.201   3.024   3.421
 3551SOL     OW11551   3.498   2.041   2.898
 3551SOL    HW111552   3.501   1.942   2.908
 3551SOL    HW211553   3.515   2.065   2.802
 3552SOL     OW11554   6.361   6.666   1.448
 3552SOL    HW111555   6.359   6.732   1.522
 3552SOL    HW211556   6.290   6.597   1.462
 3553SOL     OW11557   4.785   5.430   1.355
 3553SOL    HW111558   4.711   5.460   1.294
 3553SOL    HW211559   4.865   5.408   1.300
 3554SOL     OW11560   4.318   2.146   1.405
 3554SOL    HW111561   4.360   2.190   1.485
 3554SOL    HW211562   4.294   2.052   1.428
 3555SOL     OW11563   0.606   4.348   3.700
 3555SOL    HW111564   0.554   4.365   3.616
 3555SOL    HW211565   0.650   4.434   3.729
 3556SOL     OW11566   4.086   1.361   4.369
 3556SOL    HW111567   4.070   1.457   4.343
 3556SOL    HW211568   4.027   1.302   4.314
 3557SOL     OW11569   1.116   1.366   4.444
 3557SOL    HW111570   1.101   1.353   4.542
 3557SOL    HW211571   1.071   1.451   4.415
 3558SOL     OW11572   1.231   6.131   2.403
 3558SOL    HW111573   1.231   6.095   2.497
 3558SOL    HW211574   1.139   6.160   2.378
 3559SOL     OW11575   0.323   5.908   5.370
 3559SOL    HW111576   0.299   5.874   5.279
 3559SOL    HW211577   0.253   5.880   5.435
 3560SOL     OW11578   1.240   5.616   2.814
 3560SOL    HW111579   1.238   5.521   2.786
 3560SOL    HW211580   1.279   5.624   2.905
 3561SOL     OW11581   4.520   4.586   4.835
 3561SOL    HW111582   4.606   4.538   4.822
 3561SOL    HW211583   4.479   4.558   4.922
 3562SOL     OW11584   3.915   1.372   3.192
 3562SOL    HW111585   3.941   1.319   3.112
 3562SOL    HW211586   3.821   1.405   3.182
 3563SOL     OW11587   5.763   1.834   0.419
 3563SOL    HW111588   5.734   1.742   0.390
 3563SOL    HW211589   5.841   1.826   0.482
 3564SOL     OW11590   1.047   4.470   3.383
 3564SOL    HW111591   0.976   4.412   3.343
 3564SOL    HW211592   1.136   4.443   3.347
 3565SOL     OW11593   3.067   5.421   4.839
 3565SOL    HW111594   3.136   5.389   4.905
 3565SOL    HW211595   3.091   5.512   4.807
 3566SOL     OW11596   7.015   3.501   5.767
 3566SOL    HW111597   6.985   3.451   5.848
 3566SOL    HW211598   6.974   3.592   5.766
 3567SOL     OW11599   0.200   2.598   6.470
 3567SOL    HW111600   0.123   2.647   6.429
 3567SOL    HW211601   0.177   2.573   6.564
 3568SOL     OW11602   4.663   5.099   3.932
 3568SOL    HW111603   4.742   5.056   3.886
 3568SOL    HW211604   4.667   5.198   3.919
 3569SOL     OW11605   2.345   1.575   5.856
 3569SOL    HW111606   2.366   1.506   5.787
 3569SOL    HW211607   2.429   1.620   5.886
 3570SOL     OW11608   5.293   0.689   5.140
 3570SOL    HW111609   5.235   0.769   5.127
 3570SOL    HW211610   5.389   0.716   5.139
 3571SOL     OW11611   0.728   5.089   4.650
 3571SOL    HW111612   0.756   5.002   4.692
 3571SOL    HW211613   0.802   5.156   4.661
 3572SOL     OW11614   5.930   4.005   3.135
 3572SOL    HW111615   5.911   3.934   3.067
 3572SOL    HW211616   5.907   3.971   3.226
 3573SOL     OW11617   0.725   5.782   3.111
 3573SOL    HW111618   0.684   5.776   3.020
 3573SOL    HW211619   0.789   5.706   3.123
 3574SOL     OW11620   0.825   3.463   0.710
 3574SOL    HW111621   0.748   3.402   0.727
 3574SOL    HW211622   0.844   3.516   0.793
 3575SOL     OW11623   5.522   5.248   2.076
 3575SOL    HW111624   5.432   5.240   2.034
 3575SOL    HW211625   5.515   5.300   2.161
 3576SOL     OW11626   0.254   2.588   6.043
 3576SOL    HW111627   0.240   2.685   6.022
 3576SOL    HW211628   0.166   2.541   6.046
 3577SOL     OW11629   1.326   2.223   5.886
 3577SOL    HW111630   1.299   2.152   5.951
 3577SOL    HW211631   1.319   2.188   5.793
 3578SOL     OW11632   4.192   1.844   0.666
 3578SOL    HW111633   4.219   1.848   0.762
 3578SOL    HW211634   4.151   1.931   0.639
 3579SOL     OW11635   0.492   2.378   3.227
 3579SOL    HW111636   0.495   2.451   3.294
 3579SOL    HW211637   0.524   2.413   3.139
 3580SOL     OW11638   6.115   2.940   1.116
 3580SOL    HW111639   6.032   2.895   1.083
 3580SOL    HW211640   6.157   2.885   1.187
 3581SOL     OW11641   1.186   5.702   3.592
 3581SOL    HW111642   1.185   5.801   3.580
 3581SOL    HW211643   1.195   5.680   3.689
 3582SOL     OW11644   1.020   3.438   6.337
 3582SOL    HW111645   1.062   3.506   6.397
 3582SOL    HW211646   1.000   3.355   6.390
 3583SOL     OW11647   1.306   4.496   6.371
 3583SOL    HW111648   1.282   4.592   6.361
 3583SOL    HW211649   1.287   4.448   6.285
 3584SOL     OW11650   5.709   5.114   6.649
 3584SOL    HW111651   5.726   5.144   6.555
 3584SOL    HW211652   5.693   5.015   6.649
 3585SOL     OW11653   3.269   0.930   4.761
 3585SOL    HW111654   3.193   0.866   4.751
 3585SOL    HW211655   3.323   0.931   4.676
 3586SOL     OW11656   6.285   1.852   4.605
 3586SOL    HW111657   6.213   1.845   4.675
 3586SOL    HW211658   6.250   1.903   4.527
 3587SOL     OW11659   2.041   4.820   5.525
 3587SOL    HW111660   2.103   4.798   5.601
 3587SOL    HW211661   2.094   4.827   5.440
 3588SOL     OW11662   1.264   2.893   5.477
 3588SOL    HW111663   1.318   2.963   5.431
 3588SOL    HW211664   1.167   2.916   5.470
 3589SOL     OW11665   4.877   1.427   4.785
 3589SOL    HW111666   4.967   1.452   4.822
 3589SOL    HW211667   4.839   1.352   4.840
 3590SOL     OW11668   0.882   3.200   0.462
 3590SOL    HW111669   0.929   3.175   0.547
 3590SOL    HW211670   0.946   3.192   0.386
 3591SOL     OW11671   5.111   4.042   6.712
 3591SOL    HW111672   5.198   3.994   6.701
 3591SOL    HW211673   5.094   4.099   6.631
 3592SOL     OW11674   1.072   4.898   1.793
 3592SOL    HW111675   1.124   4.945   1.722
 3592SOL    HW211676   0.976   4.891   1.765
 3593SOL     OW11677   0.696   5.321   5.358
 3593SOL    HW111678   0.659   5.242   5.407
 3593SOL    HW211679   0.709   5.297   5.262
 3594SOL     OW11680   4.956   6.832   3.195
 3594SOL    HW111681   4.967   6.929   3.176
 3594SOL    HW211682   5.040   6.784   3.170
 3595SOL     OW11683   4.371   5.595   6.130
 3595SOL    HW111684   4.411   5.657   6.197
 3595SOL    HW211685   4.384   5.631   6.038
 3596SOL     OW11686   6.501   3.415   3.065
 3596SOL    HW111687   6.458   3.405   2.975
 3596SOL    HW211688   6.437   3.384   3.136
 3597SOL     OW11689   1.976   2.035   5.549
 3597SOL    HW111690   1.903   2.102   5.535
 3597SOL    HW211691   2.002   2.034   5.646
 3598SOL     OW11692   1.048   5.469   6.290
 3598SOL    HW111693   1.017   5.435   6.379
 3598SOL    HW211694   1.147   5.478   6.291
 3599SOL     OW11695   6.055   2.385   6.276
 3599SOL    HW111696   6.127   2.450   6.301
 3599SOL    HW211697   5.985   2.432   6.222
 3600SOL     OW11698   0.631   2.933   1.769
 3600SOL    HW111699   0.562   2.896   1.706
 3600SOL    HW211700   0.718   2.944   1.720
 3601SOL     OW11701   5.491   3.347   6.324
 3601SOL    HW111702   5.448   3.358   6.234
 3601SOL    HW211703   5.497   3.437   6.369
 3602SOL     OW11704   1.655   3.440   0.642
 3602SOL    HW111705   1.583   3.471   0.580
 3602SOL    HW211706   1.635   3.348   0.673
 3603SOL     OW11707   3.391   1.030   4.269
 3603SOL    HW111708   3.419   1.119   4.232
 3603SOL    HW211709   3.452   0.959   4.232
 3604SOL     OW11710   6.598   6.345   3.225
 3604SOL    HW111711   6.554   6.347   3.315
 3604SOL    HW211712   6.663   6.421   3.218
 3605SOL     OW11713   6.734   4.292   4.539
 3605SOL    HW111714   6.745   4.337   4.451
 3605SOL    HW211715   6.666   4.220   4.532
 3606SOL     OW11716   0.505   0.479   4.617
 3606SOL    HW111717   0.547   0.493   4.707
 3606SOL    HW211718   0.460   0.390   4.616
 3607SOL     OW11719   5.859   5.088   1.905
 3607SOL    HW111720   5.807   5.004   1.920
 3607SOL    HW211721   5.919   5.076   1.826
 3608SOL     OW11722   4.966   2.366   4.605
 3608SOL    HW111723   4.963   2.283   4.550
 3608SOL    HW211724   4.936   2.444   4.549
 3609SOL     OW11725   1.345   0.231   4.379
 3609SOL    HW111726   1.315   0.210   4.472
 3609SOL    HW211727   1.292   0.178   4.313
 3610SOL     OW11728   1.901   6.781   5.843
 3610SOL    HW111729   1.859   6.691   5.832
 3610SOL    HW211730   1.957   6.802   5.763
 3611SOL     OW11731   4.485   4.932   4.814
 3611SOL    HW111732   4.442   4.848   4.782
 3611SOL    HW211733   4.571   4.909   4.861
 3612SOL     OW11734   6.788   6.833   0.682
 3612SOL    HW111735   6.875   6.882   0.675
 3612SOL    HW211736   6.788   6.756   0.619
 3613SOL     OW11737   4.919   4.745   2.014
 3613SOL    HW111738   4.908   4.652   2.049
 3613SOL    HW211739   4.907   4.745   1.915
 3614SOL     OW11740   3.886   3.567   1.224
 3614SOL    HW111741   3.885   3.534   1.318
 3614SOL    HW211742   3.814   3.521   1.172
 3615SOL     OW11743   5.444   3.965   6.258
 3615SOL    HW111744   5.401   3.929   6.340
 3615SOL    HW211745   5.495   3.892   6.213
 3616SOL     OW11746   0.491   1.571   6.304
 3616SOL    HW111747   0.454   1.644   6.246
 3616SOL    HW211748   0.470   1.482   6.263
 3617SOL     OW11749   4.810   0.500   6.850
 3617SOL    HW111750   4.734   0.558   6.822
 3617SOL    HW211751   4.786   0.404   6.834
 3618SOL     OW11752   2.704   3.135   5.814
 3618SOL    HW111753   2.781   3.142   5.750
 3618SOL    HW211754   2.621   3.109   5.763
 3619SOL     OW11755   5.801   2.887   4.889
 3619SOL    HW111756   5.755   2.809   4.846
 3619SOL    HW211757   5.881   2.912   4.835
 3620SOL     OW11758   6.253   6.092   5.615
 3620SOL    HW111759   6.286   6.184   5.633
 3620SOL    HW211760   6.325   6.039   5.570
 3621SOL     OW11761   3.112   2.837   5.312
 3621SOL    HW111762   3.022   2.810   5.345
 3621SOL    HW211763   3.105   2.875   5.219
 3622SOL     OW11764   1.111   1.801   6.196
 3622SOL    HW111765   1.029   1.744   6.191
 3622SOL    HW211766   1.141   1.825   6.103
 3623SOL     OW11767   0.102   6.384   4.326
 3623SOL    HW111768   0.054   6.432   4.252
 3623SOL    HW211769   0.042   6.378   4.405
 3624SOL     OW11770   2.060   6.983   2.341
 3624SOL    HW111771   2.019   0.009   2.268
 3624SOL    HW211772   2.137   0.006   2.381
 3625SOL     OW11773   0.129   2.868   6.744
 3625SOL    HW111774   0.058   2.802   6.768
 3625SOL    HW211775   0.189   2.883   6.822
 3626SOL     OW11776   1.778   2.208   5.507
 3626SOL    HW111777   1.733   2.126   5.471
 3626SOL    HW211778   1.718   2.287   5.495
 3627SOL     OW11779   2.949   3.444   1.556
 3627SOL    HW111780   2.991   3.363   1.599
 3627SOL    HW211781   3.021   3.510   1.533
 3628SOL     OW11782   1.398   1.011   2.310
 3628SOL    HW111783   1.334   0.939   2.337
 3628SOL    HW211784   1.364   1.099   2.342
 3629SOL     OW11785   6.820   1.211   5.423
 3629SOL    HW111786   6.809   1.211   5.324
 3629SOL    HW211787   6.747   1.155   5.464
 3630SOL     OW11788   5.074   2.383   4.162
 3630SOL    HW111789   5.167   2.418   4.152
 3630SOL    HW211790   5.030   2.426   4.241
 3631SOL     OW11791   2.323   1.073   3.315
 3631SOL    HW111792   2.323   1.049   3.412
 3631SOL    HW211793   2.364   0.999   3.262
 3632SOL     OW11794   5.702   5.258   0.847
 3632SOL    HW111795   5.683   5.262   0.945
 3632SOL    HW211796   5.782   5.200   0.832
 3633SOL     OW11797   4.002   2.040   5.787
 3633SOL    HW111798   4.089   1.993   5.777
 3633SOL    HW211799   4.015   2.124   5.840
 3634SOL     OW11800   1.532   5.089   5.786
 3634SOL    HW111801   1.504   5.173   5.740
 3634SOL    HW211802   1.508   5.010   5.729
 3635SOL     OW11803   3.251   6.769   0.803
 3635SOL    HW111804   3.181   6.808   0.862
 3635SOL    HW211805   3.283   6.683   0.843
 3636SOL     OW11806   6.931   5.733   0.944
 3636SOL    HW111807   6.953   5.665   0.874
 3636SOL    HW211808   6.915   5.822   0.901
 3637SOL     OW11809   0.076   2.724   2.046
 3637SOL    HW111810   0.062   2.804   1.988
 3637SOL    HW211811   0.061   2.748   2.142
 3638SOL     OW11812   0.798   4.144   3.260
 3638SOL    HW111813   0.897   4.159   3.264
 3638SOL    HW211814   0.751   4.225   3.295
 3639SOL     OW11815   3.796   5.679   0.469
 3639SOL    HW111816   3.767   5.773   0.486
 3639SOL    HW211817   3.853   5.676   0.387
 3640SOL     OW11818   4.366   0.750   0.534
 3640SOL    HW111819   4.291   0.772   0.472
 3640SOL    HW211820   4.453   0.769   0.489
 3641SOL     OW11821   5.880   3.716   2.339
 3641SOL    HW111822   5.949   3.644   2.327
 3641SOL    HW211823   5.920   3.793   2.390
 3642SOL     OW11824   5.252   1.839   0.179
 3642SOL    HW111825   5.215   1.763   0.232
 3642SOL    HW211826   5.351   1.825   0.166
 3643SOL     OW11827   2.798   5.479   4.636
 3643SOL    HW111828   2.778   5.381   4.636
 3643SOL    HW211829   2.840   5.505   4.723
 3644SOL     OW11830   1.108   1.685   1.679
 3644SOL    HW111831   1.038   1.623   1.646
 3644SOL    HW211832   1.157   1.642   1.755
 3645SOL     OW11833   1.847   1.990   3.784
 3645SOL    HW111834   1.855   1.954   3.877
 3645SOL    HW211835   1.935   1.982   3.738
 3646SOL     OW11836   1.761   4.356   6.134
 3646SOL    HW111837   1.683   4.349   6.195
 3646SOL    HW211838   1.730   4.354   6.039
 3647SOL     OW11839   2.297   6.318   6.549
 3647SOL    HW111840   2.386   6.323   6.595
 3647SOL    HW211841   2.254   6.230   6.568
 3648SOL     OW11842   4.515   5.924   2.443
 3648SOL    HW111843   4.478   5.977   2.519
 3648SOL    HW211844   4.518   5.981   2.361
 3649SOL     OW11845   6.178   2.754   1.325
 3649SOL    HW111846   6.124   2.678   1.289
 3649SOL    HW211847   6.274   2.729   1.328
 3650SOL     OW11848   6.487   5.520   2.315
 3650SOL    HW111849   6.550   5.449   2.347
 3650SOL    HW211850   6.403   5.478   2.282
 3651SOL     OW11851   0.699   0.544   4.395
 3651SOL    HW111852   0.672   0.552   4.299
 3651SOL    HW211853   0.623   0.506   4.448
 3652SOL     OW11854   6.467   0.194   3.483
 3652SOL    HW111855   6.391   0.156   3.536
 3652SOL    HW211856   6.504   0.124   3.422
 3653SOL     OW11857   1.342   1.080   3.182
 3653SOL    HW111858   1.405   1.052   3.110
 3653SOL    HW211859   1.259   1.024   3.178
 3654SOL     OW11860   4.131   4.707   0.135
 3654SOL    HW111861   4.136   4.677   0.040
 3654SOL    HW211862   4.126   4.627   0.195
 3655SOL     OW11863   3.389   6.998   4.157
 3655SOL    HW111864   3.478   6.954   4.158
 3655SOL    HW211865   3.320   6.936   4.193
 3656SOL     OW11866   0.428   5.248   1.700
 3656SOL    HW111867   0.419   5.324   1.636
 3656SOL    HW211868   0.349   5.246   1.762
 3657SOL     OW11869   5.563   5.358   5.238
 3657SOL    HW111870   5.486   5.298   5.260
 3657SOL    HW211871   5.559   5.384   5.142
 3658SOL     OW11872   2.215   4.535   6.817
 3658SOL    HW111873   2.225   4.529   6.917
 3658SOL    HW211874   2.119   4.525   6.792
 3659SOL     OW11875   2.036   2.769   6.047
 3659SOL    HW111876   2.044   2.706   5.969
 3659SOL    HW211877   1.944   2.764   6.084
 3660SOL     OW11878   5.625   5.999   4.375
 3660SOL    HW111879   5.558   5.975   4.304
 3660SOL    HW211880   5.607   5.945   4.458
 3661SOL     OW11881   6.965   0.983   5.183
 3661SOL    HW111882   7.006   0.933   5.106
 3661SOL    HW211883   7.023   0.972   5.264
 3662SOL     OW11884   4.124   0.721   4.361
 3662SOL    HW111885   4.185   0.685   4.290
 3662SOL    HW211886   4.126   0.821   4.360
 3663SOL     OW11887   1.726   2.121   0.364
 3663SOL    HW111888   1.760   2.148   0.274
 3663SOL    HW211889   1.793   2.144   0.434
 3664SOL     OW11890   4.604   2.403   1.686
 3664SOL    HW111891   4.630   2.488   1.733
 3664SOL    HW211892   4.648   2.325   1.731
 3665SOL     OW11893   1.173   6.228   5.050
 3665SOL    HW111894   1.115   6.149   5.031
 3665SOL    HW211895   1.152   6.302   4.986
 3666SOL     OW11896   1.219   3.878   2.831
 3666SOL    HW111897   1.292   3.858   2.896
 3666SOL    HW211898   1.149   3.934   2.875
 3667SOL     OW11899   0.368   1.428   4.162
 3667SOL    HW111900   0.337   1.454   4.254
 3667SOL    HW211901   0.293   1.439   4.097
 3668SOL     OW11902   1.240   1.065   1.123
 3668SOL    HW111903   1.158   1.086   1.176
 3668SOL    HW211904   1.249   0.966   1.112
 3669SOL     OW11905   5.281   2.145   3.775
 3669SOL    HW111906   5.322   2.112   3.690
 3669SOL    HW211907   5.183   2.123   3.775
 3670SOL     OW11908   2.019   5.495   6.605
 3670SOL    HW111909   1.955   5.430   6.646
 3670SOL    HW211910   2.017   5.486   6.506
 3671SOL     OW11911   0.051   1.814   3.774
 3671SOL    HW111912   0.002   1.727   3.785
 3671SOL    HW211913   7.018   1.881   3.730
 3672SOL     OW11914   4.676   2.119   2.338
 3672SOL    HW111915   4.726   2.053   2.395
 3672SOL    HW211916   4.739   2.189   2.305
 3673SOL     OW11917   4.215   5.897   6.836
 3673SOL    HW111918   4.276   5.958   6.886
 3673SOL    HW211919   4.121   5.910   6.867
 3674SOL     OW11920   1.647   5.613   5.699
 3674SOL    HW111921   1.735   5.659   5.714
 3674SOL    HW211922   1.584   5.676   5.654
 3675SOL     OW11923   1.780   2.741   4.215
 3675SOL    HW111924   1.846   2.791   4.159
 3675SOL    HW211925   1.793   2.764   4.311
 3676SOL     OW11926   6.601   4.486   3.008
 3676SOL    HW111927   6.517   4.445   2.973
 3676SOL    HW211928   6.666   4.414   3.030
 3677SOL     OW11929   2.929   6.261   4.336
 3677SOL    HW111930   2.939   6.357   4.307
 3677SOL    HW211931   3.020   6.222   4.353
 3678SOL     OW11932   1.353   1.384   4.056
 3678SOL    HW111933   1.288   1.355   4.126
 3678SOL    HW211934   1.434   1.326   4.059
 3679SOL     OW11935   6.812   0.301   3.367
 3679SOL    HW111936   6.889   0.284   3.306
 3679SOL    HW211937   6.736   0.342   3.316
 3680SOL     OW11938   5.147   2.847   4.089
 3680SOL    HW111939   5.204   2.809   4.161
 3680SOL    HW211940   5.158   2.793   4.006
 3681SOL     OW11941   0.407   1.168   6.579
 3681SOL    HW111942   0.499   1.156   6.542
 3681SOL    HW211943   0.399   1.258   6.622
 3682SOL     OW11944   5.907   2.951   0.119
 3682SOL    HW111945   5.863   3.035   0.089
 3682SOL    HW211946   5.979   2.973   0.184
 3683SOL     OW11947   0.347   1.580   4.546
 3683SOL    HW111948   0.374   1.641   4.471
 3683SOL    HW211949   0.286   1.509   4.511
 3684SOL     OW11950   1.039   5.717   0.234
 3684SOL    HW111951   1.114   5.737   0.298
 3684SOL    HW211952   1.042   5.620   0.208
 3685SOL     OW11953   1.810   6.031   6.520
 3685SOL    HW111954   1.813   5.952   6.458
 3685SOL    HW211955   1.823   6.115   6.467
 3686SOL     OW11956   6.239   5.202   4.660
 3686SOL    HW111957   6.280   5.249   4.739
 3686SOL    HW211958   6.144   5.178   4.681
 3687SOL     OW11959   3.811   6.189   4.194
 3687SOL    HW111960   3.776   6.275   4.156
 3687SOL    HW211961   3.819   6.198   4.294
 3688SOL     OW11962   6.980   2.827   7.016
 3688SOL    HW111963   6.895   2.831   0.042
 3688SOL    HW211964   7.021   2.919   7.013
 3689SOL     OW11965   1.835   0.095   5.594
 3689SOL    HW111966   1.789   0.012   5.625
 3689SOL    HW211967   1.768   0.157   5.554
 3690SOL     OW11968   3.714   5.957   0.077
 3690SOL    HW111969   3.635   6.016   0.095
 3690SOL    HW211970   3.683   5.865   0.054
 3691SOL     OW11971   2.578   1.414   6.731
 3691SOL    HW111972   2.512   1.476   6.688
 3691SOL    HW211973   2.671   1.448   6.715
 3692SOL     OW11974   6.844   5.207   5.825
 3692SOL    HW111975   6.944   5.211   5.831
 3692SOL    HW211976   6.807   5.300   5.834
 3693SOL     OW11977   2.045   3.236   3.062
 3693SOL    HW111978   2.069   3.332   3.049
 3693SOL    HW211979   2.052   3.188   2.974
 3694SOL     OW11980   0.747   6.256   2.201
 3694SOL    HW111981   0.692   6.338   2.185
 3694SOL    HW211982   0.702   6.177   2.160
 3695SOL     OW11983   4.802   3.041   1.417
 3695SOL    HW111984   4.870   3.094   1.366
 3695SOL    HW211985   4.786   2.954   1.370
 3696SOL     OW11986   3.746   0.246   3.914
 3696SOL    HW111987   3.778   0.185   3.986
 3696SOL    HW211988   3.667   0.205   3.868
 3697SOL     OW11989   0.292   6.064   2.898
 3697SOL    HW111990   0.339   5.988   2.942
 3697SOL    HW211991   0.226   6.104   2.961
 3698SOL     OW11992   2.504   0.703   3.593
 3698SOL    HW111993   2.601   0.724   3.582
 3698SOL    HW211994   2.494   0.627   3.658
 3699SOL     OW11995   1.832   1.083   3.542
 3699SOL    HW111996   1.735   1.090   3.518
 3699SOL    HW211997   1.887   1.119   3.468
 3700SOL     OW11998   1.336   5.209   4.959
 3700SOL    HW111999   1.291   5.244   5.042
 3700SOL    HW212000   1.432   5.190   4.980
 3701SOL     OW12001   1.486   0.196   3.746
 3701SOL    HW112002   1.494   0.278   3.803
 3701SOL    HW212003   1.577   0.165   3.718
 3702SOL     OW12004   5.489   6.411   3.648
 3702SOL    HW112005   5.443   6.322   3.643
 3702SOL    HW212006   5.430   6.482   3.609
 3703SOL     OW12007   6.851   0.691   6.571
 3703SOL    HW112008   6.873   0.747   6.650
 3703SOL    HW212009   6.781   0.736   6.515
 3704SOL     OW12010   3.796   2.094   1.138
 3704SOL    HW112011   3.864   2.078   1.066
 3704SOL    HW212012   3.837   2.081   1.228
 3705SOL     OW12013   5.209   4.205   4.668
 3705SOL    HW112014   5.210   4.108   4.642
 3705SOL    HW212015   5.296   4.228   4.711
 3706SOL     OW12016   1.041   3.643   6.857
 3706SOL    HW112017   1.060   3.652   6.955
 3706SOL    HW212018   1.018   3.732   6.819
 3707SOL     OW12019   5.278   5.146   4.708
 3707SOL    HW112020   5.361   5.091   4.695
 3707SOL    HW212021   5.217   5.132   4.630
 3708SOL     OW12022   5.780   0.194   0.363
 3708SOL    HW112023   5.710   0.172   0.295
 3708SOL    HW212024   5.781   0.124   0.434
 3709SOL     OW12025   3.608   0.247   1.614
 3709SOL    HW112026   3.570   0.239   1.522
 3709SOL    HW212027   3.538   0.222   1.681
 3710SOL     OW12028   6.501   5.464   5.351
 3710SOL    HW112029   6.537   5.478   5.443
 3710SOL    HW212030   6.444   5.382   5.349
 3711SOL     OW12031   1.025   5.205   4.840
 3711SOL    HW112032   0.983   5.218   4.929
 3711SOL    HW212033   1.119   5.172   4.851
 3712SOL     OW12034   1.009   4.966   6.274
 3712SOL    HW112035   1.021   4.976   6.373
 3712SOL    HW212036   0.944   5.034   6.241
 3713SOL     OW12037   0.484   6.691   4.961
 3713SOL    HW112038   0.561   6.753   4.946
 3713SOL    HW212039   0.518   6.602   4.992
 3714SOL     OW12040   6.047   5.859   6.696
 3714SOL    HW112041   5.959   5.864   6.650
 3714SOL    HW212042   6.120   5.878   6.630
 3715SOL     OW12043   0.942   3.808   2.524
 3715SOL    HW112044   0.853   3.844   2.495
 3715SOL    HW212045   0.988   3.876   2.581
 3716SOL     OW12046   5.926   6.532   4.322
 3716SOL    HW112047   6.020   6.532   4.289
 3716SOL    HW212048   5.878   6.614   4.290
 3717SOL     OW12049   5.775   0.352   6.908
 3717SOL    HW112050   5.797   0.310   6.997
 3717SOL    HW212051   5.832   0.433   6.895
 3718SOL     OW12052   6.755   0.372   0.637
 3718SOL    HW112053   6.715   0.290   0.678
 3718SOL    HW212054   6.827   0.407   0.696
 3719SOL     OW12055   5.065   3.650   0.920
 3719SOL    HW112056   5.113   3.578   0.869
 3719SOL    HW212057   5.038   3.723   0.857
 3720SOL     OW12058   5.985   3.170   0.387
 3720SOL    HW112059   6.049   3.093   0.382
 3720SOL    HW212060   5.908   3.146   0.445
 3721SOL     OW12061   0.187   4.752   1.595
 3721SOL    HW112062   0.239   4.774   1.677
 3721SOL    HW212063   0.178   4.652   1.586
 3722SOL     OW12064   5.646   6.040   0.863
 3722SOL    HW112065   5.725   6.054   0.804
 3722SOL    HW212066   5.665   6.077   0.954
 3723SOL     OW12067   5.537   4.595   1.055
 3723SOL    HW112068   5.547   4.693   1.038
 3723SOL    HW212069   5.495   4.551   0.976
 3724SOL     OW12070   2.131   4.707   5.097
 3724SOL    HW112071   2.185   4.731   5.016
 3724SOL    HW212072   2.048   4.658   5.068
 3725SOL     OW12073   0.431   5.442   0.063
 3725SOL    HW112074   0.430   5.518   7.025
 3725SOL    HW212075   0.484   5.366   0.025
 3726SOL     OW12076   5.859   2.957   6.221
 3726SOL    HW112077   5.907   2.871   6.201
 3726SOL    HW212078   5.904   3.032   6.172
 3727SOL     OW12079   6.243   1.933   5.382
 3727SOL    HW112080   6.338   1.965   5.380
 3727SOL    HW212081   6.198   1.968   5.464
 3728SOL     OW12082   0.868   3.235   6.732
 3728SOL    HW112083   0.775   3.197   6.735
 3728SOL    HW212084   0.910   3.214   6.644
 3729SOL     OW12085   1.765   1.562   3.971
 3729SOL    HW112086   1.864   1.576   3.974
 3729SOL    HW212087   1.719   1.651   3.967
 3730SOL     OW12088   3.218   5.795   5.665
 3730SOL    HW112089   3.226   5.746   5.752
 3730SOL    HW212090   3.198   5.729   5.592
 3731SOL     OW12091   0.059   1.384   0.364
 3731SOL    HW112092   0.080   1.290   0.390
 3731SOL    HW212093   0.109   1.409   0.282
 3732SOL     OW12094   2.442   1.995   0.276
 3732SOL    HW112095   2.440   2.014   0.178
 3732SOL    HW212096   2.510   2.053   0.319
 3733SOL     OW12097   2.066   3.126   2.802
 3733SOL    HW112098   2.088   3.215   2.761
 3733SOL    HW212099   2.103   3.053   2.744
 3734SOL     OW12100   5.362   0.003   0.893
 3734SOL    HW112101   5.419   6.996   0.967
 3734SOL    HW212102   5.273   6.984   0.896
 3735SOL     OW12103   2.934   0.464   2.557
 3735SOL    HW112104   2.984   0.378   2.570
 3735SOL    HW212105   2.984   0.521   2.492
 3736SOL     OW12106   0.141   1.350   1.235
 3736SOL    HW112107   0.184   1.436   1.208
 3736SOL    HW212108   0.200   1.274   1.210
 3737SOL     OW12109   5.233   1.395   4.025
 3737SOL    HW112110   5.153   1.338   4.042
 3737SOL    HW212111   5.206   1.491   4.027
 3738SOL     OW12112   6.426   0.176   1.520
 3738SOL    HW112113   6.499   0.198   1.455
 3738SOL    HW212114   6.347   0.139   1.470
 3739SOL     OW12115   2.432   5.199   0.902
 3739SOL    HW112116   2.520   5.162   0.929
 3739SOL    HW212117   2.413   5.173   0.807
 3740SOL     OW12118   6.189   6.938   0.834
 3740SOL    HW112119   6.274   6.961   0.883
 3740SOL    HW212120   6.110   6.964   0.890
 3741SOL     OW12121   4.883   2.792   6.133
 3741SOL    HW112122   4.825   2.874   6.130
 3741SOL    HW212123   4.893   2.762   6.228
 3742SOL     OW12124   3.553   1.631   0.123
 3742SOL    HW112125   3.595   1.540   0.117
 3742SOL    HW212126   3.615   1.693   0.171
 3743SOL     OW12127   5.692   2.865   0.530
 3743SOL    HW112128   5.789   2.847   0.551
 3743SOL    HW212129   5.668   2.822   0.443
 3744SOL     OW12130   1.287   6.923   1.899
 3744SOL    HW112131   1.380   6.887   1.894
 3744SOL    HW212132   1.233   6.888   1.823
 3745SOL     OW12133   4.670   4.591   2.837
 3745SOL    HW112134   4.653   4.560   2.743
 3745SOL    HW212135   4.746   4.539   2.876
 3746SOL     OW12136   6.955   0.623   3.949
 3746SOL    HW112137   6.946   0.557   3.874
 3746SOL    HW212138   0.017   0.667   3.943
 3747SOL     OW12139   3.949   5.531   5.117
 3747SOL    HW112140   3.899   5.563   5.036
 3747SOL    HW212141   3.894   5.549   5.199
 3748SOL     OW12142   5.586   1.034   1.613
 3748SOL    HW112143   5.611   1.097   1.539
 3748SOL    HW212144   5.628   1.066   1.698
 3749SOL     OW12145   2.236   5.108   2.897
 3749SOL    HW112146   2.294   5.148   2.826
 3749SOL    HW212147   2.150   5.077   2.856
 3750SOL     OW12148   6.576   4.873   1.158
 3750SOL    HW112149   6.655   4.815   1.140
 3750SOL    HW212150   6.605   4.956   1.205
 3751SOL     OW12151   6.725   3.235   1.214
 3751SOL    HW112152   6.797   3.275   1.270
 3751SOL    HW212153   6.655   3.196   1.274
 3752SOL     OW12154   0.205   6.558   0.288
 3752SOL    HW112155   0.252   6.627   0.233
 3752SOL    HW212156   0.136   6.512   0.233
 3753SOL     OW12157   0.135   0.876   4.352
 3753SOL    HW112158   0.177   0.925   4.276
 3753SOL    HW212159   0.179   0.787   4.363
 3754SOL     OW12160   4.012   6.631   1.229
 3754SOL    HW112161   3.916   6.632   1.203
 3754SOL    HW212162   4.064   6.687   1.165
 3755SOL     OW12163   5.236   5.647   4.316
 3755SOL    HW112164   5.259   5.691   4.229
 3755SOL    HW212165   5.250   5.712   4.391
 3756SOL     OW12166   2.124   6.122   6.245
 3756SOL    HW112167   2.170   6.113   6.334
 3756SOL    HW212168   2.182   6.087   6.173
 3757SOL     OW12169   3.946   6.509   6.524
 3757SOL    HW112170   4.001   6.438   6.481
 3757SOL    HW212171   3.881   6.468   6.588
 3758SOL     OW12172   2.106   1.454   5.090
 3758SOL    HW112173   2.089   1.480   4.995
 3758SOL    HW212174   2.203   1.429   5.100
 3759SOL     OW12175   4.674   5.398   6.042
 3759SOL    HW112176   4.734   5.470   6.006
 3759SOL    HW212177   4.728   5.333   6.097
 3760SOL     OW12178   1.862   2.063   4.944
 3760SOL    HW112179   1.847   2.150   4.897
 3760SOL    HW212180   1.907   2.080   5.032
 3761SOL     OW12181   0.835   0.992   5.043
 3761SOL    HW112182   0.831   0.929   5.121
 3761SOL    HW212183   0.923   1.041   5.045
 3762SOL     OW12184   1.282   4.435   0.218
 3762SOL    HW112185   1.271   4.337   0.200
 3762SOL    HW212186   1.379   4.456   0.232
 3763SOL     OW12187   0.128   4.703   0.566
 3763SOL    HW112188   0.044   4.663   0.603
 3763SOL    HW212189   0.187   4.629   0.533
 3764SOL     OW12190   1.604   6.658   4.318
 3764SOL    HW112191   1.675   6.709   4.269
 3764SOL    HW212192   1.642   6.623   4.404
 3765SOL     OW12193   4.785   0.849   1.099
 3765SOL    HW112194   4.733   0.832   1.015
 3765SOL    HW212195   4.733   0.911   1.158
 3766SOL     OW12196   0.827   1.440   3.977
 3766SOL    HW112197   0.739   1.403   4.006
 3766SOL    HW212198   0.895   1.367   3.974
 3767SOL     OW12199   2.453   4.485   0.642
 3767SOL    HW112200   2.448   4.386   0.635
 3767SOL    HW212201   2.527   4.519   0.583
 3768SOL     OW12202   1.919   5.784   5.154
 3768SOL    HW112203   2.000   5.804   5.208
 3768SOL    HW212204   1.931   5.698   5.104
 3769SOL     OW12205   6.095   6.551   5.521
 3769SOL    HW112206   6.048   6.580   5.604
 3769SOL    HW212207   6.040   6.483   5.473
 3770SOL     OW12208   1.980   0.325   6.875
 3770SOL    HW112209   2.049   0.330   6.803
 3770SOL    HW212210   2.003   0.251   6.938
 3771SOL     OW12211   6.091   2.887   0.362
 3771SOL    HW112212   6.028   2.854   0.433
 3771SOL    HW212213   6.185   2.859   0.385
 3772SOL     OW12214   6.932   0.773   0.426
 3772SOL    HW112215   6.869   0.722   0.368
 3772SOL    HW212216   6.892   0.781   0.518
 3773SOL     OW12217   6.532   3.038   5.552
 3773SOL    HW112218   6.552   3.083   5.465
 3773SOL    HW212219   6.608   2.978   5.577
 3774SOL     OW12220   0.023   5.650   0.150
 3774SOL    HW112221   0.044   5.625   0.245
 3774SOL    HW212222   6.953   5.635   0.133
 3775SOL     OW12223   5.081   5.140   2.459
 3775SOL    HW112224   5.144   5.086   2.514
 3775SOL    HW212225   4.996   5.090   2.447
 3776SOL     OW12226   4.036   1.412   1.151
 3776SOL    HW112227   4.030   1.346   1.076
 3776SOL    HW212228   4.072   1.498   1.116
 3777SOL     OW12229   3.367   5.095   4.290
 3777SOL    HW112230   3.309   5.093   4.209
 3777SOL    HW212231   3.317   5.060   4.369
 3778SOL     OW12232   3.381   5.028   2.396
 3778SOL    HW112233   3.421   4.975   2.321
 3778SOL    HW212234   3.410   5.124   2.388
 3779SOL     OW12235   2.015   4.979   0.956
 3779SOL    HW112236   2.020   5.012   1.051
 3779SOL    HW212237   1.978   5.051   0.898
 3780SOL     OW12238   5.192   5.922   5.331
 3780SOL    HW112239   5.235   5.855   5.270
 3780SOL    HW212240   5.254   5.943   5.406
 3781SOL     OW12241   1.295   6.731   4.576
 3781SOL    HW112242   1.358   6.731   4.653
 3781SOL    HW212243   1.312   6.651   4.519
 3782SOL     OW12244   2.476   0.561   4.304
 3782SOL    HW112245   2.383   0.561   4.268
 3782SOL    HW212246   2.509   0.655   4.312
 3783SOL     OW12247   5.485   5.470   4.100
 3783SOL    HW112248   5.399   5.501   4.139
 3783SOL    HW212249   5.539   5.549   4.071
 3784SOL     OW12250   4.809   2.852   2.255
 3784SOL    HW112251   4.784   2.895   2.168
 3784SOL    HW212252   4.749   2.774   2.273
 3785SOL     OW12253   1.725   1.557   6.312
 3785SOL    HW112254   1.704   1.634   6.372
 3785SOL    HW212255   1.644   1.498   6.304
 3786SOL     OW12256   2.186   6.453   2.812
 3786SOL    HW112257   2.249   6.414   2.878
 3786SOL    HW212258   2.092   6.431   2.837
 3787SOL     OW12259   5.812   0.291   2.435
 3787SOL    HW112260   5.902   0.337   2.435
 3787SOL    HW212261   5.810   0.222   2.363
 3788SOL     OW12262   0.989   4.117   4.396
 3788SOL    HW112263   0.967   4.067   4.313
 3788SOL    HW212264   1.075   4.084   4.434
 3789SOL     OW12265   0.401   3.104   5.204
 3789SOL    HW112266   0.384   3.165   5.281
 3789SOL    HW212267   0.459   3.029   5.233
 3790SOL     OW12268   1.732   4.847   5.215
 3790SOL    HW112269   1.666   4.855   5.140
 3790SOL    HW212270   1.782   4.761   5.206
 3791SOL     OW12271   5.536   0.633   0.344
 3791SOL    HW112272   5.611   0.687   0.304
 3791SOL    HW212273   5.453   0.648   0.290
 3792SOL     OW12274   1.007   1.599   4.305
 3792SOL    HW112275   0.965   1.687   4.286
 3792SOL    HW212276   1.063   1.571   4.227
 3793SOL     OW12277   4.036   6.998   2.821
 3793SOL    HW112278   4.085   7.011   2.907
 3793SOL    HW212279   4.008   0.059   2.784
 3794SOL     OW12280   2.311   4.154   0.741
 3794SOL    HW112281   2.335   4.178   0.835
 3794SOL    HW212282   2.330   4.057   0.725
 3795SOL     OW12283   4.861   6.519   6.757
 3795SOL    HW112284   4.845   6.421   6.752
 3795SOL    HW212285   4.848   6.560   6.667
 3796SOL     OW12286   2.966   1.927   1.783
 3796SOL    HW112287   3.058   1.921   1.821
 3796SOL    HW212288   2.932   2.021   1.793
 3797SOL     OW12289   0.317   4.057   2.663
 3797SOL    HW112290   0.252   4.110   2.718
 3797SOL    HW212291   0.280   3.965   2.647
 3798SOL     OW12292   3.051   5.764   2.482
 3798SOL    HW112293   2.998   5.727   2.406
 3798SOL    HW212294   3.146   5.734   2.475
 3799SOL     OW12295   0.721   2.420   4.433
 3799SOL    HW112296   0.707   2.321   4.422
 3799SOL    HW212297   0.807   2.436   4.481
 3800SOL     OW12298   5.497   3.243   4.580
 3800SOL    HW112299   5.412   3.221   4.628
 3800SOL    HW212300   5.563   3.169   4.593
 3801SOL     OW12301   6.204   6.694   2.809
 3801SOL    HW112302   6.260   6.762   2.856
 3801SOL    HW212303   6.170   6.733   2.723
 3802SOL     OW12304   1.182   2.155   2.373
 3802SOL    HW112305   1.118   2.139   2.448
 3802SOL    HW212306   1.226   2.244   2.385
 3803SOL     OW12307   3.256   2.213   1.209
 3803SOL    HW112308   3.336   2.156   1.190
 3803SOL    HW212309   3.180   2.183   1.152
 3804SOL     OW12310   5.342   1.085   3.727
 3804SOL    HW112311   5.355   1.111   3.631
 3804SOL    HW212312   5.364   1.163   3.785
 3805SOL     OW12313   2.517   3.093   1.615
 3805SOL    HW112314   2.583   3.144   1.671
 3805SOL    HW212315   2.457   3.157   1.567
 3806SOL     OW12316   3.886   4.133   6.476
 3806SOL    HW112317   3.839   4.049   6.447
 3806SOL    HW212318   3.829   4.212   6.453
 3807SOL     OW12319   1.618   6.291   3.393
 3807SOL    HW112320   1.531   6.242   3.384
 3807SOL    HW212321   1.691   6.237   3.350
 3808SOL     OW12322   4.592   0.171   0.968
 3808SOL    HW112323   4.573   0.072   0.970
 3808SOL    HW212324   4.681   0.187   0.928
 3809SOL     OW12325   6.134   2.938   0.798
 3809SOL    HW112326   6.179   3.014   0.751
 3809SOL    HW212327   6.060   2.974   0.855
 3810SOL     OW12328   4.632   2.455   4.487
 3810SOL    HW112329   4.629   2.492   4.394
 3810SOL    HW212330   4.539   2.440   4.520
 3811SOL     OW12331   1.105   4.142   3.977
 3811SOL    HW112332   1.117   4.237   4.006
 3811SOL    HW212333   1.019   4.106   4.014
 3812SOL     OW12334   5.528   0.335   5.104
 3812SOL    HW112335   5.485   0.389   5.032
 3812SOL    HW212336   5.597   0.275   5.064
 3813SOL     OW12337   4.977   4.728   0.308
 3813SOL    HW112338   4.881   4.698   0.302
 3813SOL    HW212339   5.035   4.663   0.259
 3814SOL     OW12340   0.166   6.671   0.536
 3814SOL    HW112341   0.256   6.709   0.559
 3814SOL    HW212342   0.166   6.641   0.440
 3815SOL     OW12343   4.653   3.040   6.985
 3815SOL    HW112344   4.576   3.096   7.016
 3815SOL    HW212345   4.691   2.991   0.036
 3816SOL     OW12346   0.436   5.666   6.968
 3816SOL    HW112347   0.486   5.740   7.015
 3816SOL    HW212348   0.351   5.702   6.931
 3817SOL     OW12349   4.830   4.022   2.542
 3817SOL    HW112350   4.833   3.934   2.495
 3817SOL    HW212351   4.911   4.033   2.599
 3818SOL     OW12352   5.404   0.734   0.102
 3818SOL    HW112353   5.310   0.766   0.118
 3818SOL    HW212354   5.401   0.652   0.043
 3819SOL     OW12355   5.337   5.349   1.342
 3819SOL    HW112356   5.306   5.444   1.336
 3819SOL    HW212357   5.283   5.292   1.281
 3820SOL     OW12358   6.127   6.911   3.191
 3820SOL    HW112359   6.133   6.843   3.264
 3820SOL    HW212360   6.210   6.907   3.135
 3821SOL     OW12361   2.892   1.430   0.578
 3821SOL    HW112362   2.911   1.505   0.515
 3821SOL    HW212363   2.803   1.444   0.621
 3822SOL     OW12364   1.348   6.691   2.550
 3822SOL    HW112365   1.370   6.724   2.458
 3822SOL    HW212366   1.374   6.760   2.617
 3823SOL     OW12367   3.218   2.861   6.175
 3823SOL    HW112368   3.280   2.939   6.185
 3823SOL    HW212369   3.267   2.786   6.131
 3824SOL     OW12370   5.924   2.208   0.655
 3824SOL    HW112371   5.869   2.175   0.578
 3824SOL    HW212372   6.004   2.257   0.620
 3825SOL     OW12373   0.908   6.508   0.470
 3825SOL    HW112374   0.813   6.481   0.454
 3825SOL    HW212375   0.969   6.432   0.445
 3826SOL     OW12376   0.726   2.590   0.095
 3826SOL    HW112377   0.823   2.609   0.084
 3826SOL    HW212378   0.699   2.516   0.033
 3827SOL     OW12379   2.873   2.721   1.102
 3827SOL    HW112380   2.819   2.646   1.139
 3827SOL    HW212381   2.934   2.756   1.173
 3828SOL     OW12382   3.776   2.549   1.736
 3828SOL    HW112383   3.758   2.477   1.803
 3828SOL    HW212384   3.850   2.520   1.675
 3829SOL     OW12385   2.155   4.600   4.348
 3829SOL    HW112386   2.068   4.646   4.331
 3829SOL    HW212387   2.165   4.584   4.446
 3830SOL     OW12388   0.718   0.141   4.245
 3830SOL    HW112389   0.802   0.191   4.264
 3830SOL    HW212390   0.674   0.178   4.164
 3831SOL     OW12391   4.441   1.943   2.291
 3831SOL    HW112392   4.392   1.993   2.362
 3831SOL    HW212393   4.532   1.982   2.279
 3832SOL     OW12394   5.629   0.462   2.954
 3832SOL    HW112395   5.555   0.418   2.903
 3832SOL    HW212396   5.593   0.538   3.008
 3833SOL     OW12397   0.632   5.905   6.259
 3833SOL    HW112398   0.699   5.955   6.204
 3833SOL    HW212399   0.544   5.905   6.211
 3834SOL     OW12400   4.306   3.102   1.583
 3834SOL    HW112401   4.339   3.166   1.652
 3834SOL    HW212402   4.209   3.081   1.600
 3835SOL     OW12403   3.265   5.481   5.274
 3835SOL    HW112404   3.321   5.563   5.268
 3835SOL    HW212405   3.213   5.482   5.359
 3836SOL     OW12406   1.544   3.908   6.064
 3836SOL    HW112407   1.597   3.931   6.145
 3836SOL    HW212408   1.545   3.986   6.001
 3837SOL     OW12409   4.955   3.659   6.928
 3837SOL    HW112410   4.938   3.753   6.898
 3837SOL    HW212411   4.950   3.655   0.001
 3838SOL     OW12412   0.345   3.013   4.726
 3838SOL    HW112413   0.325   3.066   4.643
 3838SOL    HW212414   0.438   2.976   4.721
 3839SOL     OW12415   3.967   0.516   4.210
 3839SOL    HW112416   3.992   0.602   4.255
 3839SOL    HW212417   3.868   0.505   4.213
 3840SOL     OW12418   1.872   1.467   5.207
 3840SOL    HW112419   1.962   1.482   5.166
 3840SOL    HW212420   1.843   1.550   5.255
 3841SOL     OW12421   0.151   3.034   5.186
 3841SOL    HW112422   0.137   2.939   5.215
 3841SOL    HW212423   0.249   3.055   5.187
 3842SOL     OW12424   0.958   3.882   6.710
 3842SOL    HW112425   0.859   3.884   6.693
 3842SOL    HW212426   1.006   3.889   6.623
 3843SOL     OW12427   0.122   4.098   2.455
 3843SOL    HW112428   0.118   4.185   2.504
 3843SOL    HW212429   0.154   4.026   2.517
 3844SOL     OW12430   0.043   3.204   6.230
 3844SOL    HW112431   0.090   3.255   6.303
 3844SOL    HW212432   7.019   3.267   6.173
 3845SOL     OW12433   3.649   2.927   2.909
 3845SOL    HW112434   3.568   2.959   2.958
 3845SOL    HW212435   3.725   2.917   2.973
 3846SOL     OW12436   1.303   4.707   3.847
 3846SOL    HW112437   1.299   4.706   3.947
 3846SOL    HW212438   1.317   4.614   3.814
 3847SOL     OW12439   6.106   0.738   4.493
 3847SOL    HW112440   6.032   0.805   4.499
 3847SOL    HW212441   6.105   0.680   4.574
 3848SOL     OW12442   3.279   5.621   2.441
 3848SOL    HW112443   3.267   5.592   2.536
 3848SOL    HW212444   3.367   5.667   2.431
 3849SOL     OW12445   0.865   1.683   5.282
 3849SOL    HW112446   0.885   1.757   5.218
 3849SOL    HW212447   0.768   1.658   5.276
 3850SOL     OW12448   2.588   3.665   1.396
 3850SOL    HW112449   2.578   3.729   1.473
 3850SOL    HW212450   2.627   3.579   1.429
 3851SOL     OW12451   1.723   4.737   2.863
 3851SOL    HW112452   1.767   4.648   2.851
 3851SOL    HW212453   1.632   4.735   2.822
 3852SOL     OW12454   4.670   6.638   4.227
 3852SOL    HW112455   4.606   6.696   4.177
 3852SOL    HW212456   4.757   6.635   4.178
 3853SOL     OW12457   1.683   2.809   2.926
 3853SOL    HW112458   1.745   2.887   2.918
 3853SOL    HW212459   1.713   2.751   3.002
 3854SOL     OW12460   1.378   3.383   2.767
 3854SOL    HW112461   1.396   3.430   2.680
 3854SOL    HW212462   1.463   3.343   2.802
 3855SOL     OW12463   4.954   6.051   6.227
 3855SOL    HW112464   5.003   5.978   6.276
 3855SOL    HW212465   4.883   6.089   6.286
 3856SOL     OW12466   6.485   5.997   5.502
 3856SOL    HW112467   6.503   5.923   5.566
 3856SOL    HW212468   6.566   6.012   5.445
 3857SOL     OW12469   1.092   6.124   6.335
 3857SOL    HW112470   1.160   6.115   6.262
 3857SOL    HW212471   1.026   6.195   6.309
 3858SOL     OW12472   1.553   5.816   5.489
 3858SOL    HW112473   1.590   5.747   5.427
 3858SOL    HW212474   1.553   5.905   5.443
 3859SOL     OW12475   0.038   2.090   3.127
 3859SOL    HW112476   0.122   2.071   3.076
 3859SOL    HW212477   0.048   2.058   3.221
 3860SOL     OW12478   1.312   0.857   5.560
 3860SOL    HW112479   1.391   0.913   5.536
 3860SOL    HW212480   1.249   0.853   5.482
 3861SOL     OW12481   5.163   4.580   1.838
 3861SOL    HW112482   5.165   4.633   1.754
 3861SOL    HW212483   5.228   4.504   1.832
 3862SOL     OW12484   0.009   6.811   5.191
 3862SOL    HW112485   6.961   6.870   5.222
 3862SOL    HW212486   7.014   6.773   5.101
 3863SOL     OW12487   4.323   3.077   6.477
 3863SOL    HW112488   4.400   3.134   6.504
 3863SOL    HW212489   4.237   3.127   6.493
 3864SOL     OW12490   3.494   1.432   5.163
 3864SOL    HW112491   3.514   1.520   5.120
 3864SOL    HW212492   3.433   1.446   5.240
 3865SOL     OW12493   3.893   0.133   0.529
 3865SOL    HW112494   3.879   0.071   0.607
 3865SOL    HW212495   3.816   0.124   0.466
 3866SOL     OW12496   4.209   0.987   1.213
 3866SOL    HW112497   4.306   0.980   1.189
 3866SOL    HW212498   4.153   0.952   1.138
 3867SOL     OW12499   2.108   3.576   3.683
 3867SOL    HW112500   2.197   3.607   3.649
 3867SOL    HW212501   2.107   3.476   3.689
 3868SOL     OW12502   2.952   6.420   1.302
 3868SOL    HW112503   3.047   6.432   1.331
 3868SOL    HW212504   2.931   6.322   1.296
 3869SOL     OW12505   6.992   2.929   4.487
 3869SOL    HW112506   6.894   2.941   4.504
 3869SOL    HW212507   7.010   2.936   4.389
 3870SOL     OW12508   4.889   4.927   0.606
 3870SOL    HW112509   4.858   4.833   0.598
 3870SOL    HW212510   4.813   4.989   0.587
 3871SOL     OW12511   3.729   0.548   2.656
 3871SOL    HW112512   3.646   0.598   2.678
 3871SOL    HW212513   3.805   0.584   2.712
 3872SOL     OW12514   3.221   3.069   1.952
 3872SOL    HW112515   3.197   3.032   2.042
 3872SOL    HW212516   3.280   3.005   1.904
 3873SOL     OW12517   6.904   5.830   1.238
 3873SOL    HW112518   6.927   5.818   1.142
 3873SOL    HW212519   6.808   5.858   1.246
 3874SOL     OW12520   4.037   5.893   0.130
 3874SOL    HW112521   3.984   5.951   0.192
 3874SOL    HW212522   4.008   5.909   0.036
 3875SOL     OW12523   1.075   3.097   2.345
 3875SOL    HW112524   1.093   3.188   2.381
 3875SOL    HW212525   0.992   3.099   2.289
 3876SOL     OW12526   6.105   5.284   7.004
 3876SOL    HW112527   6.191   5.332   6.988
 3876SOL    HW212528   6.038   5.348   0.013
 3877SOL     OW12529   6.822   2.166   0.288
 3877SOL    HW112530   6.866   2.176   0.198
 3877SOL    HW212531   6.859   2.236   0.350
 3878SOL     OW12532   2.132   6.210   5.654
 3878SOL    HW112533   2.035   6.199   5.631
 3878SOL    HW212534   2.184   6.135   5.613
 3879SOL     OW12535   4.896   6.729   1.305
 3879SOL    HW112536   4.846   6.815   1.292
 3879SOL    HW212537   4.850   6.656   1.255
 3880SOL     OW12538   5.581   4.002   3.629
 3880SOL    HW112539   5.659   4.005   3.567
 3880SOL    HW212540   5.612   3.976   3.720
 3881SOL     OW12541   1.364   5.118   0.461
 3881SOL    HW112542   1.302   5.061   0.407
 3881SOL    HW212543   1.431   5.059   0.507
 3882SOL     OW12544   6.380   1.272   5.163
 3882SOL    HW112545   6.470   1.281   5.121
 3882SOL    HW212546   6.311   1.262   5.091
 3883SOL     OW12547   4.280   1.275   3.620
 3883SOL    HW112548   4.353   1.263   3.554
 3883SOL    HW212549   4.197   1.229   3.588
 3884SOL     OW12550   0.959   5.507   4.122
 3884SOL    HW112551   0.903   5.476   4.199
 3884SOL    HW212552   1.033   5.566   4.157
 3885SOL     OW12553   6.009   1.261   4.714
 3885SOL    HW112554   5.994   1.255   4.616
 3885SOL    HW212555   6.033   1.171   4.750
 3886SOL     OW12556   6.448   6.965   4.880
 3886SOL    HW112557   6.406   6.899   4.942
 3886SOL    HW212558   6.447   6.929   4.787
 3887SOL     OW12559   5.181   1.669   5.641
 3887SOL    HW112560   5.198   1.766   5.624
 3887SOL    HW212561   5.090   1.657   5.680
 3888SOL     OW12562   0.665   0.450   6.333
 3888SOL    HW112563   0.646   0.413   6.242
 3888SOL    HW212564   0.620   0.538   6.344
 3889SOL     OW12565   0.096   3.494   6.507
 3889SOL    HW112566   0.171   3.485   6.572
 3889SOL    HW212567   0.032   3.418   6.521
 3890SOL     OW12568   6.467   6.905   3.059
 3890SOL    HW112569   6.456   6.806   3.065
 3890SOL    HW212570   6.446   6.935   2.966
 3891SOL     OW12571   5.121   4.502   4.616
 3891SOL    HW112572   5.152   4.410   4.638
 3891SOL    HW212573   5.113   4.512   4.516
 3892SOL     OW12574   0.702   0.575   1.853
 3892SOL    HW112575   0.629   0.620   1.802
 3892SOL    HW212576   0.662   0.518   1.924
 3893SOL     OW12577   3.277   5.751   2.153
 3893SOL    HW112578   3.297   5.667   2.102
 3893SOL    HW212579   3.263   5.730   2.249
 3894SOL     OW12580   3.651   2.321   1.185
 3894SOL    HW112581   3.683   2.241   1.134
 3894SOL    HW212582   3.670   2.308   1.282
 3895SOL     OW12583   0.991   0.808   5.672
 3895SOL    HW112584   1.083   0.777   5.647
 3895SOL    HW212585   0.964   0.764   5.758
 3896SOL     OW12586   0.425   2.341   5.851
 3896SOL    HW112587   0.375   2.419   5.813
 3896SOL    HW212588   0.462   2.286   5.777
 3897SOL     OW12589   2.683   6.678   1.977
 3897SOL    HW112590   2.625   6.733   1.917
 3897SOL    HW212591   2.628   6.644   2.054
 3898SOL     OW12592   3.477   2.946   3.383
 3898SOL    HW112593   3.427   2.951   3.470
 3898SOL    HW212594   3.559   3.002   3.389
 3899SOL     OW12595   4.489   1.351   4.712
 3899SOL    HW112596   4.444   1.371   4.799
 3899SOL    HW212597   4.420   1.339   4.640
 3900SOL     OW12598   5.899   3.334   3.762
 3900SOL    HW112599   5.833   3.304   3.693
 3900SOL    HW212600   5.859   3.406   3.818
 3901SOL     OW12601   1.834   6.161   6.273
 3901SOL    HW112602   1.778   6.167   6.190
 3901SOL    HW212603   1.915   6.106   6.255
 3902SOL     OW12604   4.609   4.355   2.250
 3902SOL    HW112605   4.582   4.337   2.155
 3902SOL    HW212606   4.670   4.283   2.281
 3903SOL     OW12607   4.115   4.097   6.623
 3903SOL    HW112608   4.055   4.106   6.544
 3903SOL    HW212609   4.088   4.163   6.693
 3904SOL     OW12610   0.967   0.245   6.657
 3904SOL    HW112611   0.900   0.223   6.587
 3904SOL    HW212612   0.941   0.330   6.704
 3905SOL     OW12613   6.104   6.653   6.483
 3905SOL    HW112614   6.197   6.684   6.504
 3905SOL    HW212615   6.049   6.731   6.452
 3906SOL     OW12616   2.045   4.967   4.690
 3906SOL    HW112617   2.063   5.053   4.739
 3906SOL    HW212618   1.962   4.924   4.728
 3907SOL     OW12619   0.642   1.610   4.980
 3907SOL    HW112620   0.686   1.545   5.043
 3907SOL    HW212621   0.591   1.559   4.911
 3908SOL     OW12622   0.390   0.831   6.674
 3908SOL    HW112623   0.478   0.784   6.679
 3908SOL    HW212624   0.405   0.930   6.671
 3909SOL     OW12625   5.704   4.084   6.169
 3909SOL    HW112626   5.656   4.030   6.237
 3909SOL    HW212627   5.759   4.024   6.111
 3910SOL     OW12628   3.648   4.094   2.049
 3910SOL    HW112629   3.565   4.120   2.098
 3910SOL    HW212630   3.665   4.159   1.975
 3911SOL     OW12631   5.515   0.656   0.879
 3911SOL    HW112632   5.611   0.633   0.863
 3911SOL    HW212633   5.477   0.595   0.949
 3912SOL     OW12634   3.339   1.183   6.464
 3912SOL    HW112635   3.341   1.208   6.367
 3912SOL    HW212636   3.246   1.193   6.499
 3913SOL     OW12637   3.942   5.936   6.872
 3913SOL    HW112638   3.865   5.993   6.845
 3913SOL    HW212639   3.922   5.840   6.851
 3914SOL     OW12640   5.150   1.220   1.743
 3914SOL    HW112641   5.171   1.123   1.750
 3914SOL    HW212642   5.057   1.231   1.708
 3915SOL     OW12643   3.924   6.375   6.779
 3915SOL    HW112644   3.937   6.466   6.819
 3915SOL    HW212645   3.965   6.307   6.839
 3916SOL     OW12646   2.195   0.153   2.911
 3916SOL    HW112647   2.201   0.156   2.811
 3916SOL    HW212648   2.143   0.073   2.939
 3917SOL     OW12649   3.033   5.226   7.007
 3917SOL    HW112650   2.999   5.305   6.956
 3917SOL    HW212651   2.966   5.153   7.005
 3918SOL     OW12652   4.538   0.998   0.651
 3918SOL    HW112653   4.478   1.068   0.614
 3918SOL    HW212654   4.543   0.921   0.588
 3919SOL     OW12655   4.416   0.667   0.783
 3919SOL    HW112656   4.382   0.709   0.698
 3919SOL    HW212657   4.516   0.678   0.788
 3920SOL     OW12658   2.184   1.142   6.386
 3920SOL    HW112659   2.255   1.100   6.443
 3920SOL    HW212660   2.157   1.230   6.425
 3921SOL     OW12661   6.676   2.775   6.948
 3921SOL    HW112662   6.689   2.706   6.876
 3921SOL    HW212663   6.599   2.834   6.924
 3922SOL     OW12664   4.892   5.351   1.791
 3922SOL    HW112665   4.835   5.375   1.869
 3922SOL    HW212666   4.836   5.350   1.708
 3923SOL     OW12667   5.682   1.227   1.391
 3923SOL    HW112668   5.750   1.200   1.323
 3923SOL    HW212669   5.671   1.327   1.390
 3924SOL     OW12670   1.055   4.212   3.230
 3924SOL    HW112671   1.066   4.250   3.138
 3924SOL    HW212672   1.141   4.221   3.280
 3925SOL     OW12673   4.600   4.486   1.189
 3925SOL    HW112674   4.662   4.524   1.257
 3925SOL    HW212675   4.519   4.545   1.180
 3926SOL     OW12676   0.770   0.166   5.711
 3926SOL    HW112677   0.679   0.197   5.736
 3926SOL    HW212678   0.784   0.072   5.741
 3927SOL     OW12679   0.896   3.293   3.857
 3927SOL    HW112680   0.986   3.260   3.885
 3927SOL    HW212681   0.826   3.225   3.881
 3928SOL     OW12682   2.386   6.778   2.563
 3928SOL    HW112683   2.358   6.686   2.536
 3928SOL    HW212684   2.393   6.837   2.482
 3929SOL     OW12685   0.004   1.366   6.989
 3929SOL    HW112686   0.049   1.437   0.016
 3929SOL    HW212687   6.965   1.317   0.019
 3930SOL     OW12688   1.436   2.052   3.936
 3930SOL    HW112689   1.455   2.147   3.963
 3930SOL    HW212690   1.522   2.001   3.932
 3931SOL     OW12691   1.622   2.317   1.981
 3931SOL    HW112692   1.650   2.364   1.897
 3931SOL    HW212693   1.696   2.259   2.013
 3932SOL     OW12694   2.269   5.315   3.828
 3932SOL    HW112695   2.270   5.391   3.893
 3932SOL    HW212696   2.357   5.266   3.832
 3933SOL     OW12697   1.053   6.459   0.102
 3933SOL    HW112698   1.117   6.512   0.158
 3933SOL    HW212699   1.020   6.380   0.155
 3934SOL     OW12700   0.513   1.699   3.098
 3934SOL    HW112701   0.528   1.654   3.010
 3934SOL    HW212702   0.577   1.662   3.165
 3935SOL     OW12703   6.496   2.230   6.266
 3935SOL    HW112704   6.518   2.254   6.171
 3935SOL    HW212705   6.514   2.133   6.281
 3936SOL     OW12706   6.469   5.790   5.704
 3936SOL    HW112707   6.451   5.691   5.710
 3936SOL    HW212708   6.549   5.812   5.759
 3937SOL     OW12709   0.651   5.761   2.846
 3937SOL    HW112710   0.732   5.706   2.825
 3937SOL    HW212711   0.604   5.786   2.761
 3938SOL     OW12712   6.982   3.494   4.624
 3938SOL    HW112713   6.936   3.494   4.713
 3938SOL    HW212714   0.046   3.533   4.634
 3939SOL     OW12715   1.741   0.961   3.273
 3939SOL    HW112716   1.677   1.031   3.307
 3939SOL    HW212717   1.745   0.885   3.338
 3940SOL     OW12718   3.179   4.916   1.829
 3940SOL    HW112719   3.098   4.860   1.844
 3940SOL    HW212720   3.200   4.968   1.913
 3941SOL     OW12721   5.778   6.751   4.256
 3941SOL    HW112722   5.852   6.807   4.219
 3941SOL    HW212723   5.690   6.794   4.232
 3942SOL     OW12724   1.110   6.344   5.759
 3942SOL    HW112725   1.015   6.316   5.767
 3942SOL    HW212726   1.162   6.307   5.836
 3943SOL     OW12727   1.195   3.597   1.890
 3943SOL    HW112728   1.199   3.511   1.941
 3943SOL    HW212729   1.207   3.674   1.953
 3944SOL     OW12730   5.668   2.959   5.859
 3944SOL    HW112731   5.620   3.016   5.793
 3944SOL    HW212732   5.610   2.882   5.885
 3945SOL     OW12733   1.291   2.255   3.265
 3945SOL    HW112734   1.195   2.280   3.263
 3945SOL    HW212735   1.345   2.321   3.213
 3946SOL     OW12736   0.046   3.485   6.824
 3946SOL    HW112737   6.991   3.538   6.844
 3946SOL    HW212738   0.077   3.439   6.907
 3947SOL     OW12739   6.178   5.038   0.487
 3947SOL    HW112740   6.186   5.083   0.398
 3947SOL    HW212741   6.187   5.105   0.560
 3948SOL     OW12742   1.977   3.622   6.904
 3948SOL    HW112743   2.033   3.703   6.890
 3948SOL    HW212744   2.035   3.546   6.936
 3949SOL     OW12745   6.657   0.114   2.979
 3949SOL    HW112746   6.654   0.125   3.078
 3949SOL    HW212747   6.564   0.106   2.943
 3950SOL     OW12748   4.247   4.181   1.619
 3950SOL    HW112749   4.244   4.081   1.614
 3950SOL    HW212750   4.295   4.209   1.701
 3951SOL     OW12751   0.445   2.353   6.723
 3951SOL    HW112752   0.505   2.394   6.654
 3951SOL    HW212753   0.350   2.362   6.695
 3952SOL     OW12754   5.784   2.718   3.766
 3952SOL    HW112755   5.755   2.659   3.690
 3952SOL    HW212756   5.719   2.792   3.777
 3953SOL     OW12757   2.931   4.867   5.927
 3953SOL    HW112758   2.969   4.912   5.845
 3953SOL    HW212759   2.837   4.837   5.908
 3954SOL     OW12760   6.486   3.794   5.707
 3954SOL    HW112761   6.511   3.888   5.684
 3954SOL    HW212762   6.433   3.795   5.793
 3955SOL     OW12763   4.778   6.569   0.172
 3955SOL    HW112764   4.854   6.614   0.126
 3955SOL    HW212765   4.747   6.626   0.249
 3956SOL     OW12766   1.011   2.887   5.653
 3956SOL    HW112767   0.956   2.805   5.666
 3956SOL    HW212768   1.103   2.872   5.689
 3957SOL     OW12769   3.383   6.425   4.298
 3957SOL    HW112770   3.294   6.381   4.283
 3957SOL    HW212771   3.368   6.516   4.337
 3958SOL     OW12772   5.848   7.006   0.037
 3958SOL    HW112773   5.909   6.964   6.997
 3958SOL    HW212774   5.862   6.964   0.126
 3959SOL     OW12775   3.338   5.961   1.162
 3959SOL    HW112776   3.263   6.006   1.209
 3959SOL    HW212777   3.320   5.958   1.063
 3960SOL     OW12778   4.970   2.606   6.868
 3960SOL    HW112779   4.964   2.567   6.776
 3960SOL    HW212780   4.890   2.664   6.884
 3961SOL     OW12781   5.221   2.111   1.754
 3961SOL    HW112782   5.161   2.182   1.718
 3961SOL    HW212783   5.286   2.151   1.818
 3962SOL     OW12784   0.830   6.011   0.059
 3962SOL    HW112785   0.903   5.943   0.051
 3962SOL    HW212786   0.845   6.067   0.140
 3963SOL     OW12787   5.566   5.460   3.093
 3963SOL    HW112788   5.537   5.521   3.167
 3963SOL    HW212789   5.659   5.428   3.111
 3964SOL     OW12790   4.560   5.945   5.178
 3964SOL    HW112791   4.642   5.888   5.167
 3964SOL    HW212792   4.510   5.949   5.092
 3965SOL     OW12793   3.602   4.532   6.239
 3965SOL    HW112794   3.665   4.470   6.192
 3965SOL    HW212795   3.510   4.521   6.202
 3966SOL     OW12796   6.863   4.816   6.461
 3966SOL    HW112797   6.897   4.745   6.399
 3966SOL    HW212798   6.791   4.868   6.415
 3967SOL     OW12799   0.850   5.081   3.963
 3967SOL    HW112800   0.802   5.071   4.050
 3967SOL    HW212801   0.859   4.992   3.919
 3968SOL     OW12802   5.294   0.065   2.740
 3968SOL    HW112803   5.334   0.035   2.827
 3968SOL    HW212804   5.203   0.026   2.730
 3969SOL     OW12805   1.065   4.736   2.851
 3969SOL    HW112806   0.972   4.711   2.827
 3969SOL    HW212807   1.066   4.831   2.884
 3970SOL     OW12808   4.657   4.876   3.717
 3970SOL    HW112809   4.656   4.778   3.737
 3970SOL    HW212810   4.723   4.922   3.776
 3971SOL     OW12811   2.858   5.669   3.076
 3971SOL    HW112812   2.914   5.637   3.153
 3971SOL    HW212813   2.819   5.758   3.098
 3972SOL     OW12814   0.353   6.228   0.613
 3972SOL    HW112815   0.415   6.152   0.633
 3972SOL    HW212816   0.318   6.218   0.519
 3973SOL     OW12817   3.103   3.228   5.540
 3973SOL    HW112818   3.159   3.309   5.559
 3973SOL    HW212819   3.158   3.161   5.491
 3974SOL     OW12820   0.712   1.222   6.336
 3974SOL    HW112821   0.800   1.190   6.300
 3974SOL    HW212822   0.726   1.267   6.423
 3975SOL     OW12823   6.671   0.449   5.630
 3975SOL    HW112824   6.770   0.458   5.622
 3975SOL    HW212825   6.644   0.457   5.726
 3976SOL     OW12826   1.337   4.754   1.290
 3976SOL    HW112827   1.375   4.661   1.292
 3976SOL    HW212828   1.240   4.750   1.314
 3977SOL     OW12829   2.645   5.787   6.199
 3977SOL    HW112830   2.642   5.716   6.129
 3977SOL    HW212831   2.659   5.745   6.289
 3978SOL     OW12832   5.501   1.386   5.139
 3978SOL    HW112833   5.449   1.460   5.096
 3978SOL    HW212834   5.441   1.333   5.198
 3979SOL     OW12835   1.693   6.925   1.546
 3979SOL    HW112836   1.642   6.973   1.474
 3979SOL    HW212837   1.730   6.840   1.509
 3980SOL     OW12838   6.233   3.778   5.046
 3980SOL    HW112839   6.197   3.859   5.092
 3980SOL    HW212840   6.317   3.801   4.998
 3981SOL     OW12841   0.113   1.797   6.258
 3981SOL    HW112842   0.196   1.827   6.211
 3981SOL    HW212843   0.107   1.842   6.347
 3982SOL     OW12844   2.428   0.989   4.985
 3982SOL    HW112845   2.500   1.050   5.018
 3982SOL    HW212846   2.469   0.903   4.953
 3983SOL     OW12847   3.509   6.269   4.461
 3983SOL    HW112848   3.521   6.171   4.445
 3983SOL    HW212849   3.476   6.313   4.377
 3984SOL     OW12850   1.746   0.465   1.678
 3984SOL    HW112851   1.655   0.472   1.638
 3984SOL    HW212852   1.739   0.419   1.767
 3985SOL     OW12853   2.049   4.162   0.291
 3985SOL    HW112854   2.042   4.260   0.313
 3985SOL    HW212855   2.141   4.143   0.256
 3986SOL     OW12856   6.838   1.996   2.462
 3986SOL    HW112857   6.895   1.915   2.446
 3986SOL    HW212858   6.826   2.045   2.376
 3987SOL     OW12859   1.622   5.473   5.034
 3987SOL    HW112860   1.720   5.488   5.048
 3987SOL    HW212861   1.609   5.387   4.984
 3988SOL     OW12862   3.248   1.854   5.907
 3988SOL    HW112863   3.173   1.826   5.847
 3988SOL    HW212864   3.292   1.935   5.869
 3989SOL     OW12865   5.999   0.110   6.297
 3989SOL    HW112866   6.065   0.184   6.286
 3989SOL    HW212867   5.943   0.104   6.214
 3990SOL     OW12868   5.943   2.793   5.138
 3990SOL    HW112869   6.043   2.794   5.132
 3990SOL    HW212870   5.905   2.847   5.063
 3991SOL     OW12871   0.108   2.329   3.330
 3991SOL    HW112872   0.173   2.404   3.342
 3991SOL    HW212873   0.072   2.332   3.236
 3992SOL     OW12874   4.332   3.129   6.898
 3992SOL    HW112875   4.407   3.193   6.916
 3992SOL    HW212876   4.247   3.168   6.933
 3993SOL     OW12877   2.743   1.910   3.058
 3993SOL    HW112878   2.805   1.835   3.034
 3993SOL    HW212879   2.660   1.903   3.003
 3994SOL     OW12880   2.286   2.751   5.211
 3994SOL    HW112881   2.229   2.673   5.182
 3994SOL    HW212882   2.273   2.827   5.148
 3995SOL     OW12883   2.239   4.345   3.368
 3995SOL    HW112884   2.172   4.274   3.347
 3995SOL    HW212885   2.310   4.347   3.297
 3996SOL     OW12886   2.012   1.131   4.884
 3996SOL    HW112887   1.953   1.182   4.946
 3996SOL    HW212888   1.960   1.101   4.804
 3997SOL     OW12889   4.973   3.818   3.141
 3997SOL    HW112890   5.008   3.725   3.136
 3997SOL    HW212891   4.906   3.825   3.215
 3998SOL     OW12892   5.690   2.211   2.263
 3998SOL    HW112893   5.693   2.305   2.230
 3998SOL    HW212894   5.644   2.153   2.196
 3999SOL     OW12895   6.187   3.963   3.212
 3999SOL    HW112896   6.171   3.868   3.237
 3999SOL    HW212897   6.109   3.999   3.162
 4000SOL     OW12898   3.222   5.535   2.685
 4000SOL    HW112899   3.222   5.454   2.743
 4000SOL    HW212900   3.180   5.611   2.733
 4001SOL     OW12901   2.805   4.186   5.342
 4001SOL    HW112902   2.884   4.158   5.397
 4001SOL    HW212903   2.730   4.121   5.355
 4002SOL     OW12904   3.332   3.050   4.465
 4002SOL    HW112905   3.365   3.027   4.556
 4002SOL    HW212906   3.369   3.139   4.438
 4003SOL     OW12907   1.702   1.262   6.345
 4003SOL    HW112908   1.780   1.245   6.285
 4003SOL    HW212909   1.734   1.271   6.439
 4004SOL     OW12910   6.689   3.645   4.174
 4004SOL    HW112911   6.725   3.656   4.081
 4004SOL    HW212912   6.765   3.625   4.236
 4005SOL     OW12913   4.795   4.915   1.412
 4005SOL    HW112914   4.743   5.000   1.409
 4005SOL    HW212915   4.734   4.838   1.392
 4006SOL     OW12916   5.612   4.721   2.284
 4006SOL    HW112917   5.665   4.793   2.328
 4006SOL    HW212918   5.591   4.748   2.190
 4007SOL     OW12919   0.712   2.311   2.794
 4007SOL    HW112920   0.773   2.302   2.716
 4007SOL    HW212921   0.738   2.245   2.865
 4008SOL     OW12922   3.127   0.764   6.096
 4008SOL    HW112923   3.192   0.784   6.022
 4008SOL    HW212924   3.038   0.803   6.074
 4009SOL     OW12925   4.721   1.997   1.570
 4009SOL    HW112926   4.739   2.073   1.632
 4009SOL    HW212927   4.755   1.912   1.611
 4010SOL     OW12928   2.993   3.839   1.672
 4010SOL    HW112929   3.081   3.885   1.680
 4010SOL    HW212930   3.008   3.744   1.642
 4011SOL     OW12931   0.127   6.343   2.000
 4011SOL    HW112932   0.180   6.265   2.032
 4011SOL    HW212933   0.082   6.388   2.077
 4012SOL     OW12934   4.353   6.560   2.539
 4012SOL    HW112935   4.450   6.549   2.562
 4012SOL    HW212936   4.314   6.635   2.593
 4013SOL     OW12937   2.209   0.734   1.224
 4013SOL    HW112938   2.296   0.739   1.273
 4013SOL    HW212939   2.156   0.657   1.258
 4014SOL     OW12940   3.440   5.717   3.882
 4014SOL    HW112941   3.470   5.725   3.978
 4014SOL    HW212942   3.390   5.631   3.870
 4015SOL     OW12943   5.162   4.685   6.668
 4015SOL    HW112944   5.198   4.595   6.645
 4015SOL    HW212945   5.224   4.731   6.731
 4016SOL     OW12946   3.050   5.818   6.832
 4016SOL    HW112947   3.023   5.807   6.737
 4016SOL    HW212948   2.969   5.810   6.891
 4017SOL     OW12949   0.549   5.973   5.955
 4017SOL    HW112950   0.509   6.022   6.032
 4017SOL    HW212951   0.648   5.973   5.963
 4018SOL     OW12952   4.599   6.693   1.637
 4018SOL    HW112953   4.530   6.626   1.664
 4018SOL    HW212954   4.669   6.648   1.581
 4019SOL     OW12955   5.898   4.134   2.365
 4019SOL    HW112956   5.990   4.109   2.395
 4019SOL    HW212957   5.855   4.056   2.320
 4020SOL     OW12958   6.619   3.177   5.340
 4020SOL    HW112959   6.667   3.264   5.332
 4020SOL    HW212960   6.642   3.119   5.262
 4021SOL     OW12961   3.606   4.090   5.143
 4021SOL    HW112962   3.601   4.022   5.071
 4021SOL    HW212963   3.681   4.068   5.206
 4022SOL     OW12964   3.873   6.704   6.354
 4022SOL    HW112965   3.904   6.796   6.377
 4022SOL    HW212966   3.888   6.643   6.432
 4023SOL     OW12967   0.392   0.365   5.031
 4023SOL    HW112968   0.415   0.320   4.944
 4023SOL    HW212969   0.337   0.302   5.087
 4024SOL     OW12970   2.504   4.905   4.180
 4024SOL    HW112971   2.505   4.843   4.102
 4024SOL    HW212972   2.596   4.913   4.218
 4025SOL     OW12973   0.749   6.295   4.170
 4025SOL    HW112974   0.779   6.289   4.074
 4025SOL    HW212975   0.673   6.232   4.184
 4026SOL     OW12976   5.763   7.021   3.786
 4026SOL    HW112977   5.695   0.037   3.727
 4026SOL    HW212978   5.759   6.922   3.773
 4027SOL     OW12979   2.578   2.192   0.395
 4027SOL    HW112980   2.665   2.145   0.408
 4027SOL    HW212981   2.594   2.284   0.359
 4028SOL     OW12982   3.980   1.752   3.734
 4028SOL    HW112983   3.960   1.699   3.652
 4028SOL    HW212984   4.071   1.728   3.768
 4029SOL     OW12985   2.678   4.782   5.893
 4029SOL    HW112986   2.611   4.804   5.964
 4029SOL    HW212987   2.657   4.693   5.854
 4030SOL     OW12988   6.758   1.065   2.142
 4030SOL    HW112989   6.826   1.000   2.110
 4030SOL    HW212990   6.692   1.083   2.068
 4031SOL     OW12991   5.359   5.590   3.634
 4031SOL    HW112992   5.377   5.642   3.718
 4031SOL    HW212993   5.329   5.652   3.562
 4032SOL     OW12994   6.912   0.087   1.925
 4032SOL    HW112995   7.000   0.086   1.877
 4032SOL    HW212996   6.844   0.136   1.870
 4033SOL     OW12997   2.154   3.104   1.647
 4033SOL    HW112998   2.137   3.178   1.712
 4033SOL    HW212999   2.224   3.043   1.683
 4034SOL     OW13000   6.071   1.488   5.219
 4034SOL    HW113001   6.016   1.473   5.300
 4034SOL    HW213002   6.159   1.527   5.245
 4035SOL     OW13003   6.267   1.600   0.954
 4035SOL    HW113004   6.334   1.529   0.976
 4035SOL    HW213005   6.178   1.574   0.991
 4036SOL     OW13006   4.007   5.031   2.180
 4036SOL    HW113007   4.009   5.131   2.171
 4036SOL    HW213008   3.920   4.996   2.147
 4037SOL     OW13009   2.157   1.623   6.875
 4037SOL    HW113010   2.212   1.642   6.957
 4037SOL    HW213011   2.060   1.637   6.896
 4038SOL     OW13012   4.247   2.647   1.673
 4038SOL    HW113013   4.293   2.736   1.675
 4038SOL    HW213014   4.212   2.630   1.581
 4039SOL     OW13015   5.914   5.596   1.277
 4039SOL    HW113016   5.944   5.575   1.370
 4039SOL    HW213017   5.977   5.556   1.211
 4040SOL     OW13018   3.217   6.911   5.266
 4040SOL    HW113019   3.164   6.833   5.297
 4040SOL    HW213020   3.314   6.889   5.269
 4041SOL     OW13021   0.712   5.547   1.247
 4041SOL    HW113022   0.784   5.580   1.186
 4041SOL    HW213023   0.732   5.574   1.341
 4042SOL     OW13024   5.844   5.757   4.082
 4042SOL    HW113025   5.905   5.715   4.014
 4042SOL    HW213026   5.885   5.748   4.173
 4043SOL     OW13027   6.693   2.510   5.373
 4043SOL    HW113028   6.601   2.545   5.394
 4043SOL    HW213029   6.719   2.539   5.281
 4044SOL     OW13030   4.388   6.758   3.658
 4044SOL    HW113031   4.445   6.731   3.580
 4044SOL    HW213032   4.296   6.777   3.626
 4045SOL     OW13033   4.028   6.330   5.442
 4045SOL    HW113034   4.005   6.238   5.412
 4045SOL    HW213035   4.103   6.326   5.508
 4046SOL     OW13036   1.609   1.782   3.963
 4046SOL    HW113037   1.611   1.769   3.864
 4046SOL    HW213038   1.516   1.807   3.991
 4047SOL     OW13039   2.147   2.542   0.782
 4047SOL    HW113040   2.061   2.589   0.760
 4047SOL    HW213041   2.129   2.443   0.791
 4048SOL     OW13042   5.170   1.498   1.761
 4048SOL    HW113043   5.119   1.539   1.836
 4048SOL    HW213044   5.165   1.398   1.768
 4049SOL     OW13045   5.526   5.170   6.852
 4049SOL    HW113046   5.505   5.072   6.860
 4049SOL    HW213047   5.599   5.183   6.785
 4050SOL     OW13048   0.908   6.976   1.669
 4050SOL    HW113049   0.917   6.876   1.670
 4050SOL    HW213050   0.973   7.014   1.604
 4051SOL     OW13051   3.962   1.768   6.685
 4051SOL    HW113052   3.970   1.818   6.599
 4051SOL    HW213053   3.867   1.744   6.702
 4052SOL     OW13054   6.858   1.306   2.254
 4052SOL    HW113055   6.897   1.371   2.188
 4052SOL    HW213056   6.848   1.217   2.210
 4053SOL     OW13057   3.243   6.028   3.825
 4053SOL    HW113058   3.283   6.052   3.736
 4053SOL    HW213059   3.196   5.940   3.818
 4054SOL     OW13060   6.092   4.058   1.533
 4054SOL    HW113061   6.156   4.011   1.595
 4054SOL    HW213062   6.104   4.023   1.440
 4055SOL     OW13063   2.730   3.341   6.986
 4055SOL    HW113064   2.679   3.263   6.951
 4055SOL    HW213065   2.729   3.341   0.058
 4056SOL     OW13066   4.891   4.062   0.745
 4056SOL    HW113067   4.918   3.966   0.738
 4056SOL    HW213068   4.848   4.091   0.660
 4057SOL     OW13069   6.812   2.723   1.183
 4057SOL    HW113070   6.818   2.635   1.136
 4057SOL    HW213071   6.882   2.785   1.147
 4058SOL     OW13072   1.993   0.300   4.791
 4058SOL    HW113073   2.047   0.357   4.852
 4058SOL    HW213074   1.897   0.301   4.821
 4059SOL     OW13075   0.772   1.546   2.920
 4059SOL    HW113076   0.771   1.470   2.986
 4059SOL    HW213077   0.682   1.552   2.876
 4060SOL     OW13078   5.269   5.617   4.898
 4060SOL    HW113079   5.185   5.660   4.865
 4060SOL    HW213080   5.258   5.518   4.899
 4061SOL     OW13081   2.700   4.639   2.347
 4061SOL    HW113082   2.734   4.550   2.377
 4061SOL    HW213083   2.670   4.692   2.426
 4062SOL     OW13084   2.347   1.808   2.004
 4062SOL    HW113085   2.253   1.806   2.038
 4062SOL    HW213086   2.348   1.782   1.907
 4063SOL     OW13087   6.251   6.414   7.007
 4063SOL    HW113088   6.214   6.336   0.030
 4063SOL    HW213089   6.230   6.405   6.910
 4064SOL     OW13090   2.250   0.192   4.091
 4064SOL    HW113091   2.346   0.175   4.116
 4064SOL    HW213092   2.223   0.130   4.018
 4065SOL     OW13093   1.275   6.441   1.388
 4065SOL    HW113094   1.180   6.467   1.405
 4065SOL    HW213095   1.292   6.437   1.290
 4066SOL     OW13096   5.779   4.952   3.756
 4066SOL    HW113097   5.776   4.960   3.656
 4066SOL    HW213098   5.755   5.040   3.797
 4067SOL     OW13099   6.533   3.386   2.583
 4067SOL    HW113100   6.436   3.360   2.588
 4067SOL    HW213101   6.549   3.468   2.637
 4068SOL     OW13102   1.943   1.337   4.185
 4068SOL    HW113103   1.911   1.423   4.145
 4068SOL    HW213104   1.967   1.273   4.112
 4069SOL     OW13105   2.562   5.490   6.501
 4069SOL    HW113106   2.545   5.560   6.571
 4069SOL    HW213107   2.594   5.406   6.545
 4070SOL     OW13108   0.807   3.556   2.047
 4070SOL    HW113109   0.725   3.504   2.021
 4070SOL    HW213110   0.815   3.636   1.988
 4071SOL     OW13111   1.337   0.994   5.214
 4071SOL    HW113112   1.390   0.977   5.131
 4071SOL    HW213113   1.398   1.021   5.288
 4072SOL     OW13114   0.362   5.539   4.414
 4072SOL    HW113115   0.341   5.532   4.316
 4072SOL    HW213116   0.432   5.609   4.427
 4073SOL     OW13117   2.505   6.119   5.970
 4073SOL    HW113118   2.600   6.148   5.962
 4073SOL    HW213119   2.445   6.197   5.953
 4074SOL     OW13120   0.352   3.800   2.360
 4074SOL    HW113121   0.303   3.814   2.446
 4074SOL    HW213122   0.329   3.709   2.323
 4075SOL     OW13123   4.103   2.068   1.875
 4075SOL    HW113124   4.019   2.079   1.928
 4075SOL    HW213125   4.182   2.070   1.937
 4076SOL     OW13126   2.815   2.497   5.673
 4076SOL    HW113127   2.772   2.407   5.667
 4076SOL    HW213128   2.748   2.567   5.651
 4077SOL     OW13129   3.292   1.298   7.025
 4077SOL    HW113130   3.285   1.320   6.928
 4077SOL    HW213131   3.229   1.223   0.019
 4078SOL     OW13132   0.730   6.035   1.276
 4078SOL    HW113133   0.682   5.965   1.223
 4078SOL    HW213134   0.665   6.081   1.337
 4079SOL     OW13135   1.516   1.190   3.714
 4079SOL    HW113136   1.594   1.236   3.757
 4079SOL    HW213137   1.474   1.251   3.647
 4080SOL     OW13138   3.640   4.261   6.313
 4080SOL    HW113139   3.717   4.275   6.251
 4080SOL    HW213140   3.577   4.194   6.274
 4081SOL     OW13141   2.064   2.655   4.848
 4081SOL    HW113142   2.131   2.721   4.885
 4081SOL    HW213143   2.035   2.594   4.921
 4082SOL     OW13144   1.227   3.625   0.646
 4082SOL    HW113145   1.306   3.640   0.706
 4082SOL    HW213146   1.184   3.713   0.625
 4083SOL     OW13147   6.982   4.319   2.225
 4083SOL    HW113148   6.909   4.373   2.182
 4083SOL    HW213149   0.030   4.308   2.161
 4084SOL     OW13150   5.037   2.086   3.145
 4084SOL    HW113151   5.117   2.027   3.134
 4084SOL    HW213152   5.029   2.114   3.241
 4085SOL     OW13153   2.436   5.598   1.416
 4085SOL    HW113154   2.526   5.590   1.457
 4085SOL    HW213155   2.376   5.650   1.477
 4086SOL     OW13156   1.193   5.156   1.669
 4086SOL    HW113157   1.133   5.192   1.597
 4086SOL    HW213158   1.263   5.097   1.628
 4087SOL     OW13159   1.566   1.766   3.228
 4087SOL    HW113160   1.517   1.772   3.316
 4087SOL    HW213161   1.521   1.825   3.161
 4088SOL     OW13162   6.652   0.786   6.414
 4088SOL    HW113163   6.554   0.778   6.434
 4088SOL    HW213164   6.668   0.764   6.317
 4089SOL     OW13165   5.918   5.653   4.326
 4089SOL    HW113166   5.829   5.620   4.358
 4089SOL    HW213167   5.974   5.576   4.295
 4090SOL     OW13168   1.604   5.199   5.331
 4090SOL    HW113169   1.636   5.272   5.391
 4090SOL    HW213170   1.617   5.111   5.375
 4091SOL     OW13171   6.579   6.609   6.784
 4091SOL    HW113172   6.533   6.528   6.747
 4091SOL    HW213173   6.600   6.595   6.880
 4092SOL     OW13174   6.428   2.640   5.388
 4092SOL    HW113175   6.362   2.588   5.333
 4092SOL    HW213176   6.405   2.737   5.385
 4093SOL     OW13177   4.848   6.350   2.278
 4093SOL    HW113178   4.750   6.330   2.278
 4093SOL    HW213179   4.862   6.447   2.298
 4094SOL     OW13180   2.003   5.362   5.239
 4094SOL    HW113181   2.086   5.411   5.267
 4094SOL    HW213182   1.968   5.310   5.317
 4095SOL     OW13183   1.132   3.752   0.084
 4095SOL    HW113184   1.099   3.732   0.176
 4095SOL    HW213185   1.086   3.833   0.049
 4096SOL     OW13186   4.655   6.531   6.001
 4096SOL    HW113187   4.559   6.542   5.977
 4096SOL    HW213188   4.662   6.481   6.087
 4097SOL     OW13189   4.089   4.628   5.246
 4097SOL    HW113190   4.145   4.544   5.247
 4097SOL    HW213191   4.041   4.636   5.334
 4098SOL     OW13192   6.570   2.518   1.686
 4098SOL    HW113193   6.598   2.495   1.779
 4098SOL    HW213194   6.518   2.604   1.687
 4099SOL     OW13195   3.061   5.376   1.437
 4099SOL    HW113196   2.975   5.400   1.392
 4099SOL    HW213197   3.120   5.457   1.442
 4100SOL     OW13198   6.739   6.874   4.962
 4100SOL    HW113199   6.783   6.823   4.888
 4100SOL    HW213200   6.728   6.969   4.935
 4101SOL     OW13201   5.899   1.292   0.250
 4101SOL    HW113202   5.912   1.348   0.168
 4101SOL    HW213203   5.914   1.348   0.331
 4102SOL     OW13204   6.986   1.037   0.916
 4102SOL    HW113205   6.949   0.974   0.848
 4102SOL    HW213206   6.913   1.064   0.979
 4103SOL     OW13207   6.913   0.239   0.407
 4103SOL    HW113208   6.897   0.238   0.309
 4103SOL    HW213209   6.838   0.287   0.453
 4104SOL     OW13210   0.530   4.694   2.976
 4104SOL    HW113211   0.599   4.733   3.036
 4104SOL    HW213212   0.523   4.595   2.993
 4105SOL     OW13213   5.285   6.870   1.646
 4105SOL    HW113214   5.309   6.922   1.564
 4105SOL    HW213215   5.224   6.795   1.622
 4106SOL     OW13216   6.330   3.282   2.877
 4106SOL    HW113217   6.264   3.246   2.942
 4106SOL    HW213218   6.291   3.282   2.785
 4107SOL     OW13219   1.304   5.698   1.213
 4107SOL    HW113220   1.252   5.727   1.292
 4107SOL    HW213221   1.391   5.659   1.243
 4108SOL     OW13222   6.376   3.806   5.941
 4108SOL    HW113223   6.284   3.837   5.962
 4108SOL    HW213224   6.405   3.737   6.007
 4109SOL     OW13225   6.405   0.309   4.765
 4109SOL    HW113226   6.392   0.285   4.861
 4109SOL    HW213227   6.343   0.255   4.709
 4110SOL     OW13228   4.043   3.483   5.826
 4110SOL    HW113229   4.108   3.408   5.814
 4110SOL    HW213230   3.966   3.469   5.764
 4111SOL     OW13231   5.178   3.436   0.152
 4111SOL    HW113232   5.123   3.517   0.171
 4111SOL    HW213233   5.143   3.390   0.071
 4112SOL     OW13234   5.057   6.049   4.179
 4112SOL    HW113235   5.008   6.127   4.141
 4112SOL    HW213236   5.056   6.054   4.279
 4113SOL     OW13237   4.976   6.049   4.850
 4113SOL    HW113238   4.902   6.053   4.784
 4113SOL    HW213239   5.051   6.109   4.820
 4114SOL     OW13240   3.230   2.181   4.241
 4114SOL    HW113241   3.157   2.182   4.173
 4114SOL    HW213242   3.319   2.175   4.196
 4115SOL     OW13243   3.430   5.143   1.727
 4115SOL    HW113244   3.502   5.074   1.736
 4115SOL    HW213245   3.367   5.136   1.804
 4116SOL     OW13246   2.969   1.405   2.326
 4116SOL    HW113247   3.069   1.400   2.317
 4116SOL    HW213248   2.934   1.318   2.359
 4117SOL     OW13249   1.591   4.287   2.457
 4117SOL    HW113250   1.498   4.305   2.424
 4117SOL    HW213251   1.587   4.242   2.547
 4118SOL     OW13252   3.264   6.652   6.875
 4118SOL    HW113253   3.180   6.630   6.925
 4118SOL    HW213254   3.339   6.597   6.910
 4119SOL     OW13255   2.681   1.980   3.755
 4119SOL    HW113256   2.751   2.019   3.696
 4119SOL    HW213257   2.723   1.915   3.819
 4120SOL     OW13258   3.674   0.790   6.848
 4120SOL    HW113259   3.675   0.798   6.947
 4120SOL    HW213260   3.626   0.706   6.822
 4121SOL     OW13261   5.951   1.123   4.369
 4121SOL    HW113262   5.904   1.046   4.413
 4121SOL    HW213263   5.931   1.123   4.271
 4122SOL     OW13264   1.073   5.512   4.905
 4122SOL    HW113265   1.145   5.449   4.876
 4122SOL    HW213266   1.024   5.473   4.982
 4123SOL     OW13267   4.492   4.864   5.471
 4123SOL    HW113268   4.414   4.805   5.492
 4123SOL    HW213269   4.523   4.847   5.378
 4124SOL     OW13270   6.332   5.673   0.033
 4124SOL    HW113271   6.288   5.671   6.971
 4124SOL    HW213272   6.266   5.645   0.103
 4125SOL     OW13273   5.031   1.511   1.993
 4125SOL    HW113274   5.026   1.413   2.010
 4125SOL    HW213275   4.961   1.558   2.047
 4126SOL     OW13276   1.233   3.743   4.378
 4126SOL    HW113277   1.270   3.719   4.288
 4126SOL    HW213278   1.223   3.660   4.433
 4127SOL     OW13279   4.712   4.857   4.974
 4127SOL    HW113280   4.792   4.909   4.948
 4127SOL    HW213281   4.732   4.759   4.969
 4128SOL     OW13282   1.125   2.834   1.609
 4128SOL    HW113283   1.221   2.806   1.608
 4128SOL    HW213284   1.086   2.815   1.699
 4129SOL     OW13285   3.484   1.352   6.719
 4129SOL    HW113286   3.391   1.386   6.706
 4129SOL    HW213287   3.483   1.281   6.790
 4130SOL     OW13288   6.744   3.354   6.839
 4130SOL    HW113289   6.737   3.403   6.752
 4130SOL    HW213290   6.744   3.420   6.914
 4131SOL     OW13291   0.892   0.747   3.850
 4131SOL    HW113292   0.961   0.811   3.818
 4131SOL    HW213293   0.843   0.708   3.771
 4132SOL     OW13294   4.923   4.549   3.651
 4132SOL    HW113295   4.960   4.457   3.638
 4132SOL    HW213296   4.825   4.543   3.673
 4133SOL     OW13297   2.704   5.998   0.508
 4133SOL    HW113298   2.760   5.977   0.428
 4133SOL    HW213299   2.657   5.915   0.538
 4134SOL     OW13300   2.792   3.509   0.891
 4134SOL    HW113301   2.799   3.526   0.989
 4134SOL    HW213302   2.697   3.489   0.867
 4135SOL     OW13303   0.752   1.342   2.601
 4135SOL    HW113304   0.758   1.283   2.681
 4135SOL    HW213305   0.658   1.375   2.590
 4136SOL     OW13306   1.351   2.001   3.326
 4136SOL    HW113307   1.312   2.091   3.308
 4136SOL    HW213308   1.344   1.980   3.423
 4137SOL     OW13309   1.098   4.304   0.797
 4137SOL    HW113310   1.049   4.381   0.839
 4137SOL    HW213311   1.044   4.221   0.808
 4138SOL     OW13312   4.992   5.339   2.913
 4138SOL    HW113313   4.939   5.309   2.992
 4138SOL    HW213314   4.955   5.298   2.830
 4139SOL     OW13315   1.841   1.804   5.719
 4139SOL    HW113316   1.849   1.901   5.693
 4139SOL    HW213317   1.932   1.763   5.723
 4140SOL     OW13318   3.267   0.206   5.235
 4140SOL    HW113319   3.364   0.223   5.254
 4140SOL    HW213320   3.257   0.174   5.141
 4141SOL     OW13321   6.313   6.014   0.850
 4141SOL    HW113322   6.336   6.068   0.932
 4141SOL    HW213323   6.315   6.073   0.770
 4142SOL     OW13324   6.913   5.283   1.016
 4142SOL    HW113325   6.931   5.263   1.112
 4142SOL    HW213326   6.918   5.198   0.963
 4143SOL     OW13327   5.886   1.553   0.845
 4143SOL    HW113328   5.879   1.653   0.855
 4143SOL    HW213329   5.962   1.531   0.783
 4144SOL     OW13330   5.003   3.475   6.738
 4144SOL    HW113331   4.992   3.535   6.817
 4144SOL    HW213332   4.975   3.524   6.655
 4145SOL     OW13333   6.233   6.265   1.379
 4145SOL    HW113334   6.211   6.181   1.329
 4145SOL    HW213335   6.306   6.314   1.331
 4146SOL     OW13336   6.526   0.662   4.392
 4146SOL    HW113337   6.531   0.584   4.455
 4146SOL    HW213338   6.590   0.733   4.422
 4147SOL     OW13339   4.964   4.066   6.164
 4147SOL    HW113340   4.942   4.053   6.068
 4147SOL    HW213341   4.988   3.979   6.206
 4148SOL     OW13342   1.030   0.608   5.018
 4148SOL    HW113343   1.017   0.510   5.003
 4148SOL    HW213344   1.088   0.646   4.946
 4149SOL     OW13345   0.106   3.310   0.428
 4149SOL    HW113346   0.024   3.259   0.403
 4149SOL    HW213347   0.139   3.279   0.517
 4150SOL     OW13348   1.090   0.562   6.139
 4150SOL    HW113349   1.030   0.482   6.136
 4150SOL    HW213350   1.081   0.606   6.229
 4151SOL     OW13351   2.240   5.949   6.029
 4151SOL    HW113352   2.250   5.867   6.085
 4151SOL    HW213353   2.330   5.979   5.997
 4152SOL     OW13354   4.736   5.836   1.698
 4152SOL    HW113355   4.695   5.748   1.722
 4152SOL    HW213356   4.666   5.908   1.702
 4153SOL     OW13357   4.554   5.367   6.902
 4153SOL    HW113358   4.643   5.338   6.937
 4153SOL    HW213359   4.565   5.402   6.809
 4154SOL     OW13360   0.078   5.247   3.982
 4154SOL    HW113361   0.066   5.315   4.055
 4154SOL    HW213362   0.102   5.294   3.897
 4155SOL     OW13363   0.420   0.906   2.381
 4155SOL    HW113364   0.492   0.907   2.450
 4155SOL    HW213365   0.462   0.920   2.291
 4156SOL     OW13366   5.365   6.213   5.144
 4156SOL    HW113367   5.395   6.211   5.049
 4156SOL    HW213368   5.442   6.239   5.202
 4157SOL     OW13369   4.913   5.114   4.293
 4157SOL    HW113370   4.828   5.078   4.330
 4157SOL    HW213371   4.911   5.110   4.193
 4158SOL     OW13372   1.098   4.545   2.420
 4158SOL    HW113373   1.041   4.541   2.502
 4158SOL    HW213374   1.103   4.639   2.387
 4159SOL     OW13375   2.178   3.793   4.488
 4159SOL    HW113376   2.138   3.716   4.437
 4159SOL    HW213377   2.254   3.759   4.544
 4160SOL     OW13378   6.347   1.067   1.044
 4160SOL    HW113379   6.378   1.009   1.120
 4160SOL    HW213380   6.420   1.131   1.019
 4161SOL     OW13381   0.856   1.099   0.621
 4161SOL    HW113382   0.789   1.087   0.547
 4161SOL    HW213383   0.836   1.184   0.669
 4162SOL     OW13384   6.344   6.673   6.585
 4162SOL    HW113385   6.363   6.576   6.603
 4162SOL    HW213386   6.385   6.729   6.658
 4163SOL     OW13387   5.663   6.397   3.449
 4163SOL    HW113388   5.591   6.395   3.518
 4163SOL    HW213389   5.721   6.477   3.463
 4164SOL     OW13390   1.691   6.352   6.531
 4164SOL    HW113391   1.624   6.301   6.584
 4164SOL    HW213392   1.686   6.449   6.555
 4165SOL     OW13393   4.152   6.750   7.004
 4165SOL    HW113394   4.123   6.799   0.060
 4165SOL    HW213395   4.233   6.695   7.024
 4166SOL     OW13396   6.420   3.743   1.173
 4166SOL    HW113397   6.424   3.765   1.270
 4166SOL    HW213398   6.348   3.676   1.157
 4167SOL     OW13399   1.373   4.223   0.813
 4167SOL    HW113400   1.402   4.269   0.730
 4167SOL    HW213401   1.294   4.270   0.853
 4168SOL     OW13402   6.625   4.671   0.866
 4168SOL    HW113403   6.701   4.720   0.909
 4168SOL    HW213404   6.580   4.731   0.799
 4169SOL     OW13405   5.893   4.154   3.693
 4169SOL    HW113406   5.908   4.123   3.787
 4169SOL    HW213407   5.908   4.253   3.688
 4170SOL     OW13408   4.596   4.195   5.533
 4170SOL    HW113409   4.567   4.287   5.508
 4170SOL    HW213410   4.572   4.131   5.460
 4171SOL     OW13411   6.412   5.556   0.804
 4171SOL    HW113412   6.347   5.629   0.827
 4171SOL    HW213413   6.457   5.524   0.887
 4172SOL     OW13414   0.242   2.290   6.075
 4172SOL    HW113415   0.212   2.322   6.165
 4172SOL    HW213416   0.170   2.309   6.008
 4173SOL     OW13417   5.486   3.607   5.796
 4173SOL    HW113418   5.440   3.528   5.838
 4173SOL    HW213419   5.421   3.682   5.786
 4174SOL     OW13420   5.427   0.945   3.006
 4174SOL    HW113421   5.340   0.975   3.047
 4174SOL    HW213422   5.498   0.944   3.077
 4175SOL     OW13423   2.240   5.915   4.144
 4175SOL    HW113424   2.314   5.971   4.107
 4175SOL    HW213425   2.186   5.970   4.208
 4176SOL     OW13426   2.877   6.555   1.805
 4176SOL    HW113427   2.805   6.580   1.870
 4176SOL    HW213428   2.852   6.587   1.713
 4177SOL     OW13429   6.138   4.503   4.741
 4177SOL    HW113430   6.045   4.520   4.711
 4177SOL    HW213431   6.141   4.500   4.841
 4178SOL     OW13432   4.504   0.767   4.408
 4178SOL    HW113433   4.459   0.843   4.455
 4178SOL    HW213434   4.459   0.753   4.320
 4179SOL     OW13435   5.259   2.720   3.573
 4179SOL    HW113436   5.181   2.759   3.525
 4179SOL    HW213437   5.259   2.621   3.562
 4180SOL     OW13438   4.911   4.351   1.524
 4180SOL    HW113439   4.823   4.361   1.479
 4180SOL    HW213440   4.900   4.300   1.609
 4181SOL     OW13441   2.682   1.483   0.723
 4181SOL    HW113442   2.607   1.532   0.679
 4181SOL    HW213443   2.718   1.538   0.798
 4182SOL     OW13444   0.418   6.992   3.161
 4182SOL    HW113445   0.328   7.023   3.132
 4182SOL    HW213446   0.486   7.011   3.090
 4183SOL     OW13447   4.671   0.795   0.166
 4183SOL    HW113448   4.614   0.866   0.125
 4183SOL    HW213449   4.761   0.795   0.120
 4184SOL     OW13450   4.641   5.138   1.441
 4184SOL    HW113451   4.568   5.156   1.375
 4184SOL    HW213452   4.663   5.222   1.491
 4185SOL     OW13453   0.230   5.524   2.498
 4185SOL    HW113454   0.295   5.526   2.573
 4185SOL    HW213455   0.202   5.617   2.475
 4186SOL     OW13456   2.378   5.467   0.870
 4186SOL    HW113457   2.441   5.393   0.894
 4186SOL    HW213458   2.308   5.476   0.940
 4187SOL     OW13459   3.877   4.256   5.803
 4187SOL    HW113460   3.842   4.251   5.709
 4187SOL    HW213461   3.801   4.256   5.867
 4188SOL     OW13462   4.320   6.876   4.529
 4188SOL    HW113463   4.392   6.808   4.516
 4188SOL    HW213464   4.355   6.951   4.586
 4189SOL     OW13465   3.568   0.513   5.618
 4189SOL    HW113466   3.631   0.501   5.695
 4189SOL    HW213467   3.621   0.522   5.533
 4190SOL     OW13468   0.471   0.370   0.520
 4190SOL    HW113469   0.535   0.442   0.491
 4190SOL    HW213470   0.494   0.284   0.473
 4191SOL     OW13471   5.353   3.488   3.133
 4191SOL    HW113472   5.446   3.458   3.155
 4191SOL    HW213473   5.318   3.436   3.055
 4192SOL     OW13474   0.425   1.122   4.423
 4192SOL    HW113475   0.512   1.157   4.388
 4192SOL    HW213476   0.421   1.023   4.410
 4193SOL     OW13477   1.339   0.567   2.702
 4193SOL    HW113478   1.401   0.495   2.734
 4193SOL    HW213479   1.388   0.628   2.640
 4194SOL     OW13480   5.927   0.395   5.175
 4194SOL    HW113481   5.929   0.391   5.075
 4194SOL    HW213482   5.837   0.426   5.205
 4195SOL     OW13483   4.009   6.804   2.599
 4195SOL    HW113484   4.002   6.896   2.638
 4195SOL    HW213485   3.945   6.743   2.646
 4196SOL     OW13486   5.686   2.191   3.350
 4196SOL    HW113487   5.743   2.236   3.419
 4196SOL    HW213488   5.660   2.258   3.280
 4197SOL     OW13489   4.739   5.988   5.423
 4197SOL    HW113490   4.688   6.035   5.351
 4197SOL    HW213491   4.836   6.010   5.417
 4198SOL     OW13492   5.621   3.161   6.843
 4198SOL    HW113493   5.605   3.106   6.761
 4198SOL    HW213494   5.536   3.166   6.897
 4199SOL     OW13495   2.168   2.871   6.542
 4199SOL    HW113496   2.247   2.919   6.503
 4199SOL    HW213497   2.100   2.857   6.470
 4200SOL     OW13498   3.117   6.379   5.967
 4200SOL    HW113499   3.159   6.404   6.054
 4200SOL    HW213500   3.184   6.330   5.911
 4201SOL     OW13501   6.359   6.499   3.705
 4201SOL    HW113502   6.381   6.587   3.747
 4201SOL    HW213503   6.319   6.515   3.614
 4202SOL     OW13504   4.602   5.395   5.612
 4202SOL    HW113505   4.643   5.471   5.662
 4202SOL    HW213506   4.600   5.417   5.514
 4203SOL     OW13507   4.669   5.295   0.602
 4203SOL    HW113508   4.686   5.199   0.580
 4203SOL    HW213509   4.689   5.351   0.522
 4204SOL     OW13510   4.016   3.312   2.303
 4204SOL    HW113511   4.047   3.406   2.295
 4204SOL    HW213512   3.959   3.302   2.384
 4205SOL     OW13513   3.445   5.436   3.483
 4205SOL    HW113514   3.466   5.531   3.506
 4205SOL    HW213515   3.396   5.432   3.395
 4206SOL     OW13516   5.970   0.715   5.503
 4206SOL    HW113517   6.017   0.761   5.579
 4206SOL    HW213518   6.038   0.682   5.437
 4207SOL     OW13519   1.750   1.567   1.819
 4207SOL    HW113520   1.766   1.470   1.836
 4207SOL    HW213521   1.689   1.577   1.740
 4208SOL     OW13522   0.932   3.498   6.658
 4208SOL    HW113523   0.936   3.404   6.690
 4208SOL    HW213524   1.012   3.548   6.693
 4209SOL     OW13525   0.391   1.085   5.805
 4209SOL    HW113526   0.466   1.024   5.778
 4209SOL    HW213527   0.328   1.094   5.729
 4210SOL     OW13528   3.148   3.328   2.066
 4210SOL    HW113529   3.178   3.233   2.056
 4210SOL    HW213530   3.054   3.330   2.100
 4211SOL     OW13531   3.789   5.183   5.611
 4211SOL    HW113532   3.772   5.089   5.579
 4211SOL    HW213533   3.804   5.182   5.710
 4212SOL     OW13534   5.890   2.726   2.658
 4212SOL    HW113535   5.861   2.636   2.624
 4212SOL    HW213536   5.988   2.737   2.642
 4213SOL     OW13537   2.647   1.033   2.397
 4213SOL    HW113538   2.689   1.027   2.306
 4213SOL    HW213539   2.576   1.104   2.396
 4214SOL     OW13540   1.415   3.985   5.303
 4214SOL    HW113541   1.469   3.959   5.222
 4214SOL    HW213542   1.383   4.079   5.292
 4215SOL     OW13543   6.753   6.377   4.746
 4215SOL    HW113544   6.662   6.417   4.760
 4215SOL    HW213545   6.799   6.426   4.673
 4216SOL     OW13546   1.162   1.307   3.277
 4216SOL    HW113547   1.101   1.366   3.223
 4216SOL    HW213548   1.221   1.255   3.216
 4217SOL     OW13549   6.939   0.096   2.599
 4217SOL    HW113550   6.951   7.025   2.588
 4217SOL    HW213551   6.843   0.115   2.619
 4218SOL     OW13552   4.808   0.813   1.517
 4218SOL    HW113553   4.899   0.793   1.478
 4218SOL    HW213554   4.746   0.738   1.495
 4219SOL     OW13555   2.709   5.096   3.340
 4219SOL    HW113556   2.717   5.127   3.245
 4219SOL    HW213557   2.621   5.050   3.353
 4220SOL     OW13558   5.493   2.889   3.582
 4220SOL    HW113559   5.533   2.900   3.491
 4220SOL    HW213560   5.459   2.796   3.594
 4221SOL     OW13561   6.213   5.640   6.823
 4221SOL    HW113562   6.177   5.552   6.791
 4221SOL    HW213563   6.139   5.708   6.821
 4222SOL     OW13564   6.418   2.633   2.921
 4222SOL    HW113565   6.415   2.584   2.834
 4222SOL    HW213566   6.409   2.568   2.996
 4223SOL     OW13567   3.166   3.472   5.311
 4223SOL    HW113568   3.088   3.474   5.248
 4223SOL    HW213569   3.233   3.406   5.279
 4224SOL     OW13570   4.981   3.078   3.420
 4224SOL    HW113571   4.971   3.097   3.323
 4224SOL    HW213572   5.058   3.129   3.457
 4225SOL     OW13573   4.385   0.693   5.649
 4225SOL    HW113574   4.370   0.601   5.611
 4225SOL    HW213575   4.397   0.758   5.574
 4226SOL     OW13576   0.561   0.457   3.059
 4226SOL    HW113577   0.472   0.441   3.101
 4226SOL    HW213578   0.563   0.548   3.018
 4227SOL     OW13579   3.677   5.053   6.859
 4227SOL    HW113580   3.612   5.023   6.789
 4227SOL    HW213581   3.717   5.141   6.833
 4228SOL     OW13582   0.794   3.820   3.842
 4228SOL    HW113583   0.894   3.824   3.848
 4228SOL    HW213584   0.767   3.801   3.748
 4229SOL     OW13585   4.901   5.512   5.561
 4229SOL    HW113586   4.841   5.554   5.629
 4229SOL    HW213587   4.863   5.423   5.533
 4230SOL     OW13588   2.188   0.568   4.314
 4230SOL    HW113589   2.112   0.616   4.359
 4230SOL    HW213590   2.163   0.547   4.220
 4231SOL     OW13591   5.453   6.103   4.872
 4231SOL    HW113592   5.474   6.006   4.867
 4231SOL    HW213593   5.525   6.155   4.824
 4232SOL     OW13594   0.140   4.456   1.509
 4232SOL    HW113595   0.041   4.448   1.520
 4232SOL    HW213596   0.160   4.503   1.423
 4233SOL     OW13597   6.613   0.738   6.879
 4233SOL    HW113598   6.543   0.776   6.818
 4233SOL    HW213599   6.703   0.746   6.835
 4234SOL     OW13600   1.239   0.015   5.714
 4234SOL    HW113601   1.290   0.019   5.799
 4234SOL    HW213602   1.178   6.962   5.715
 4235SOL     OW13603   5.400   3.878   5.461
 4235SOL    HW113604   5.342   3.897   5.382
 4235SOL    HW213605   5.405   3.779   5.476
 4236SOL     OW13606   0.107   3.541   2.851
 4236SOL    HW113607   0.096   3.509   2.945
 4236SOL    HW213608   0.053   3.483   2.790
 4237SOL     OW13609   6.489   5.351   3.458
 4237SOL    HW113610   6.535   5.279   3.405
 4237SOL    HW213611   6.478   5.432   3.401
 4238SOL     OW13612   3.537   5.020   2.918
 4238SOL    HW113613   3.601   4.947   2.943
 4238SOL    HW213614   3.588   5.103   2.896
 4239SOL     OW13615   5.634   1.201   4.090
 4239SOL    HW113616   5.704   1.130   4.099
 4239SOL    HW213617   5.622   1.246   4.179
 4240SOL     OW13618   2.064   6.738   0.053
 4240SOL    HW113619   2.099   6.680   7.007
 4240SOL    HW213620   2.118   6.822   0.058
 4241SOL     OW13621   5.802   1.112   1.142
 4241SOL    HW113622   5.794   1.194   1.085
 4241SOL    HW213623   5.775   1.032   1.089
 4242SOL     OW13624   1.870   0.509   3.598
 4242SOL    HW113625   1.863   0.427   3.655
 4242SOL    HW213626   1.964   0.520   3.566
 4243SOL     OW13627   0.722   3.780   4.104
 4243SOL    HW113628   0.624   3.799   4.096
 4243SOL    HW213629   0.765   3.788   4.015
 4244SOL     OW13630   5.190   5.329   0.939
 4244SOL    HW113631   5.195   5.422   0.975
 4244SOL    HW213632   5.278   5.304   0.899
 4245SOL     OW13633   6.334   1.005   6.323
 4245SOL    HW113634   6.234   1.009   6.329
 4245SOL    HW213635   6.367   0.924   6.371
 4246SOL     OW13636   5.893   2.865   3.483
 4246SOL    HW113637   5.971   2.926   3.500
 4246SOL    HW213638   5.814   2.896   3.536
 4247SOL     OW13639   1.947   4.994   3.266
 4247SOL    HW113640   1.921   4.918   3.325
 4247SOL    HW213641   2.002   5.059   3.317
 4248SOL     OW13642   1.562   1.152   3.330
 4248SOL    HW113643   1.476   1.150   3.278
 4248SOL    HW213644   1.603   1.243   3.323
 4249SOL     OW13645   4.985   1.766   3.301
 4249SOL    HW113646   4.941   1.693   3.248
 4249SOL    HW213647   4.919   1.805   3.365
 4250SOL     OW13648   6.172   6.141   4.567
 4250SOL    HW113649   6.186   6.042   4.557
 4250SOL    HW213650   6.142   6.179   4.479
 4251SOL     OW13651   6.445   3.120   1.272
 4251SOL    HW113652   6.473   3.075   1.356
 4251SOL    HW213653   6.433   3.052   1.200
 4252SOL     OW13654   5.211   6.002   6.087
 4252SOL    HW113655   5.255   6.081   6.129
 4252SOL    HW213656   5.113   6.004   6.106
 4253SOL     OW13657   3.306   6.764   1.548
 4253SOL    HW113658   3.231   6.698   1.544
 4253SOL    HW213659   3.308   6.807   1.638
 4254SOL     OW13660   2.188   3.928   1.788
 4254SOL    HW113661   2.219   4.002   1.728
 4254SOL    HW213662   2.150   3.966   1.872
 4255SOL     OW13663   6.837   4.235   4.026
 4255SOL    HW113664   6.833   4.177   4.108
 4255SOL    HW213665   6.923   4.217   3.977
 4256SOL     OW13666   0.853   6.001   0.801
 4256SOL    HW113667   0.854   6.015   0.901
 4256SOL    HW213668   0.799   5.919   0.780
 4257SOL     OW13669   4.185   1.663   4.331
 4257SOL    HW113670   4.184   1.683   4.233
 4257SOL    HW213671   4.278   1.638   4.359
 4258SOL     OW13672   3.105   6.185   0.955
 4258SOL    HW113673   3.159   6.256   0.911
 4258SOL    HW213674   3.121   6.187   1.054
 4259SOL     OW13675   1.438   6.296   0.736
 4259SOL    HW113676   1.448   6.216   0.793
 4259SOL    HW213677   1.502   6.291   0.659
 4260SOL     OW13678   5.609   0.944   3.198
 4260SOL    HW113679   5.702   0.964   3.167
 4260SOL    HW213680   5.596   0.977   3.291
 4261SOL     OW13681   1.735   0.747   2.826
 4261SOL    HW113682   1.806   0.784   2.766
 4261SOL    HW213683   1.753   0.775   2.920
 4262SOL     OW13684   1.175   4.216   6.366
 4262SOL    HW113685   1.083   4.204   6.401
 4262SOL    HW213686   1.179   4.186   6.270
 4263SOL     OW13687   2.411   0.600   3.350
 4263SOL    HW113688   2.472   0.526   3.321
 4263SOL    HW213689   2.444   0.638   3.436
 4264SOL     OW13690   6.442   2.104   4.576
 4264SOL    HW113691   6.419   2.008   4.563
 4264SOL    HW213692   6.399   2.138   4.659
 4265SOL     OW13693   3.671   0.928   0.893
 4265SOL    HW113694   3.631   1.015   0.864
 4265SOL    HW213695   3.605   0.854   0.876
 4266SOL     OW13696   2.051   6.404   6.248
 4266SOL    HW113697   1.955   6.400   6.276
 4266SOL    HW213698   2.095   6.317   6.268
 4267SOL     OW13699   2.070   4.036   4.438
 4267SOL    HW113700   2.122   4.078   4.364
 4267SOL    HW213701   2.105   3.944   4.455
 4268SOL     OW13702   1.586   5.604   6.847
 4268SOL    HW113703   1.630   5.563   6.927
 4268SOL    HW213704   1.630   5.691   6.824
 4269SOL     OW13705   2.843   0.321   3.367
 4269SOL    HW113706   2.852   0.279   3.458
 4269SOL    HW213707   2.761   0.285   3.322
 4270SOL     OW13708   3.588   2.893   2.194
 4270SOL    HW113709   3.518   2.919   2.260
 4270SOL    HW213710   3.582   2.795   2.174
 4271SOL     OW13711   0.342   0.626   0.668
 4271SOL    HW113712   0.271   0.601   0.734
 4271SOL    HW213713   0.384   0.543   0.632
 4272SOL     OW13714   6.791   2.714   4.629
 4272SOL    HW113715   6.784   2.614   4.623
 4272SOL    HW213716   6.862   2.739   4.696
 4273SOL     OW13717   4.974   6.450   4.598
 4273SOL    HW113718   4.879   6.425   4.618
 4273SOL    HW213719   4.992   6.432   4.501
 4274SOL     OW13720   1.378   0.020   2.147
 4274SOL    HW113721   1.325   7.007   2.073
 4274SOL    HW213722   1.346   0.114   2.164
 4275SOL     OW13723   6.993   1.735   4.152
 4275SOL    HW113724   6.967   1.831   4.142
 4275SOL    HW213725   6.977   1.705   4.246
 4276SOL     OW13726   2.910   5.247   4.061
 4276SOL    HW113727   2.988   5.298   4.097
 4276SOL    HW213728   2.827   5.277   4.109
 4277SOL     OW13729   6.941   4.498   2.942
 4277SOL    HW113730   6.927   4.588   2.984
 4277SOL    HW213731   0.012   4.478   2.940
 4278SOL     OW13732   7.023   6.787   4.743
 4278SOL    HW113733   0.025   6.882   4.750
 4278SOL    HW213734   7.001   6.752   4.834
 4279SOL     OW13735   1.945   1.407   2.963
 4279SOL    HW113736   1.871   1.465   2.998
 4279SOL    HW213737   1.970   1.339   3.032
 4280SOL     OW13738   6.225   0.090   5.688
 4280SOL    HW113739   6.162   0.056   5.618
 4280SOL    HW213740   6.268   0.174   5.657
 4281SOL     OW13741   5.841   5.317   3.599
 4281SOL    HW113742   5.757   5.283   3.642
 4281SOL    HW213743   5.906   5.345   3.669
 4282SOL     OW13744   3.096   4.281   0.607
 4282SOL    HW113745   3.179   4.225   0.612
 4282SOL    HW213746   3.121   4.376   0.591
 4283SOL     OW13747   2.838   1.515   3.773
 4283SOL    HW113748   2.862   1.542   3.679
 4283SOL    HW213749   2.903   1.558   3.836
 4284SOL     OW13750   4.328   5.088   0.955
 4284SOL    HW113751   4.374   5.167   0.913
 4284SOL    HW213752   4.229   5.105   0.957
 4285SOL     OW13753   2.422   1.176   5.874
 4285SOL    HW113754   2.336   1.124   5.871
 4285SOL    HW213755   2.499   1.115   5.855
 4286SOL     OW13756   5.572   6.654   5.728
 4286SOL    HW113757   5.545   6.651   5.631
 4286SOL    HW213758   5.510   6.715   5.777
 4287SOL     OW13759   4.526   1.078   5.857
 4287SOL    HW113760   4.462   1.050   5.929
 4287SOL    HW213761   4.617   1.039   5.876
 4288SOL     OW13762   0.812   5.529   3.564
 4288SOL    HW113763   0.888   5.584   3.529
 4288SOL    HW213764   0.795   5.552   3.660
 4289SOL     OW13765   0.726   2.101   5.904
 4289SOL    HW113766   0.809   2.054   5.934
 4289SOL    HW213767   0.706   2.077   5.810
 4290SOL     OW13768   0.937   6.294   4.854
 4290SOL    HW113769   0.845   6.331   4.843
 4290SOL    HW213770   1.003   6.356   4.809
 4291SOL     OW13771   4.968   3.722   6.569
 4291SOL    HW113772   4.930   3.773   6.647
 4291SOL    HW213773   4.988   3.786   6.495
 4292SOL     OW13774   6.367   2.796   0.467
 4292SOL    HW113775   6.407   2.744   0.392
 4292SOL    HW213776   6.376   2.744   0.552
 4293SOL     OW13777   3.794   4.693   0.301
 4293SOL    HW113778   3.736   4.755   0.248
 4293SOL    HW213779   3.814   4.734   0.390
 4294SOL     OW13780   1.993   0.963   6.338
 4294SOL    HW113781   2.014   0.947   6.241
 4294SOL    HW213782   2.049   1.038   6.372
 4295SOL     OW13783   5.303   5.736   4.067
 4295SOL    HW113784   5.224   5.778   4.020
 4295SOL    HW213785   5.376   5.720   4.001
 4296SOL     OW13786   3.068   6.897   6.950
 4296SOL    HW113787   2.977   6.861   6.968
 4296SOL    HW213788   3.130   6.869   7.023
 4297SOL     OW13789   6.046   0.217   2.161
 4297SOL    HW113790   6.051   0.225   2.061
 4297SOL    HW213791   6.123   0.266   2.202
 4298SOL     OW13792   3.538   6.045   1.341
 4298SOL    HW113793   3.475   6.018   1.268
 4298SOL    HW213794   3.567   5.963   1.391
 4299SOL     OW13795   1.346   2.742   0.132
 4299SOL    HW113796   1.294   2.727   0.048
 4299SOL    HW213797   1.343   2.660   0.188
 4300SOL     OW13798   2.862   6.759   0.116
 4300SOL    HW113799   2.922   6.685   0.149
 4300SOL    HW213800   2.800   6.722   0.047
 4301SOL     OW13801   4.471   6.938   1.574
 4301SOL    HW113802   4.524   6.999   1.632
 4301SOL    HW213803   4.505   6.844   1.583
 4302SOL     OW13804   6.655   0.476   6.175
 4302SOL    HW113805   6.635   0.446   6.268
 4302SOL    HW213806   6.622   0.569   6.162
 4303SOL     OW13807   0.348   4.417   4.126
 4303SOL    HW113808   0.414   4.491   4.114
 4303SOL    HW213809   0.300   4.429   4.213
 4304SOL     OW13810   3.274   3.331   2.533
 4304SOL    HW113811   3.365   3.342   2.493
 4304SOL    HW213812   3.204   3.359   2.467
 4305SOL     OW13813   0.574   6.864   5.869
 4305SOL    HW113814   0.533   6.853   5.779
 4305SOL    HW213815   0.673   6.855   5.862
 4306SOL     OW13816   4.746   4.670   4.499
 4306SOL    HW113817   4.803   4.603   4.450
 4306SOL    HW213818   4.662   4.626   4.529
 4307SOL     OW13819   5.957   3.493   5.402
 4307SOL    HW113820   6.026   3.556   5.437
 4307SOL    HW213821   5.999   3.404   5.383
 4308SOL     OW13822   6.279   5.694   1.219
 4308SOL    HW113823   6.232   5.706   1.307
 4308SOL    HW213824   6.372   5.661   1.235
 4309SOL     OW13825   1.079   0.959   0.537
 4309SOL    HW113826   1.123   0.916   0.616
 4309SOL    HW213827   0.995   1.006   0.567
 4310SOL     OW13828   1.565   2.714   1.376
 4310SOL    HW113829   1.591   2.768   1.296
 4310SOL    HW213830   1.644   2.702   1.435
 4311SOL     OW13831   0.189   5.773   2.772
 4311SOL    HW113832   0.214   5.843   2.705
 4311SOL    HW213833   0.234   5.793   2.859
 4312SOL     OW13834   1.630   5.632   2.756
 4312SOL    HW113835   1.536   5.665   2.749
 4312SOL    HW213836   1.675   5.643   2.667
 4313SOL     OW13837   4.500   1.988   0.485
 4313SOL    HW113838   4.447   1.903   0.480
 4313SOL    HW213839   4.499   2.022   0.579
 4314SOL     OW13840   5.996   1.698   5.490
 4314SOL    HW113841   5.996   1.777   5.551
 4314SOL    HW213842   5.987   1.729   5.395
 4315SOL     OW13843   2.353   0.168   3.637
 4315SOL    HW113844   2.342   0.264   3.610
 4315SOL    HW213845   2.400   0.119   3.563
 4316SOL     OW13846   4.262   0.163   2.207
 4316SOL    HW113847   4.270   0.234   2.277
 4316SOL    HW213848   4.279   0.203   2.117
 4317SOL     OW13849   5.313   1.415   5.602
 4317SOL    HW113850   5.248   1.487   5.629
 4317SOL    HW213851   5.299   1.336   5.661
 4318SOL     OW13852   1.113   1.936   5.107
 4318SOL    HW113853   1.171   1.935   5.189
 4318SOL    HW213854   1.168   1.910   5.027
 4319SOL     OW13855   1.844   1.961   0.999
 4319SOL    HW113856   1.927   1.996   1.044
 4319SOL    HW213857   1.819   2.021   0.924
 4320SOL     OW13858   3.836   5.321   0.722
 4320SOL    HW113859   3.864   5.252   0.655
 4320SOL    HW213860   3.892   5.403   0.710
 4321SOL     OW13861   0.077   4.634   4.525
 4321SOL    HW113862   0.030   4.581   4.596
 4321SOL    HW213863   0.039   4.610   4.435
 4322SOL     OW13864   6.485   3.329   6.681
 4322SOL    HW113865   6.403   3.294   6.636
 4322SOL    HW213866   6.461   3.362   6.772
 4323SOL     OW13867   5.138   4.701   6.965
 4323SOL    HW113868   5.074   4.642   6.917
 4323SOL    HW213869   5.112   4.797   6.952
 4324SOL     OW13870   6.288   4.245   6.139
 4324SOL    HW113871   6.359   4.267   6.206
 4324SOL    HW213872   6.212   4.309   6.149
 4325SOL     OW13873   2.857   1.825   2.057
 4325SOL    HW113874   2.875   1.761   1.983
 4325SOL    HW213875   2.923   1.900   2.053
 4326SOL     OW13876   5.231   4.756   2.042
 4326SOL    HW113877   5.240   4.680   2.107
 4326SOL    HW213878   5.180   4.725   1.962
 4327SOL     OW13879   4.981   6.092   2.255
 4327SOL    HW113880   4.953   6.187   2.248
 4327SOL    HW213881   5.058   6.084   2.319
 4328SOL     OW13882   5.819   4.705   5.505
 4328SOL    HW113883   5.901   4.758   5.527
 4328SOL    HW213884   5.739   4.748   5.548
 4329SOL     OW13885   4.938   3.070   5.309
 4329SOL    HW113886   4.959   2.983   5.265
 4329SOL    HW213887   4.855   3.059   5.365
 4330SOL     OW13888   2.123   6.144   4.325
 4330SOL    HW113889   2.207   6.182   4.288
 4330SOL    HW213890   2.098   6.193   4.408
 4331SOL     OW13891   5.505   0.737   1.632
 4331SOL    HW113892   5.419   0.746   1.582
 4331SOL    HW213893   5.541   0.828   1.651
 4332SOL     OW13894   5.885   3.146   2.684
 4332SOL    HW113895   5.877   3.245   2.679
 4332SOL    HW213896   5.937   3.120   2.765
 4333SOL     OW13897   4.529   1.628   5.026
 4333SOL    HW113898   4.502   1.553   4.966
 4333SOL    HW213899   4.451   1.655   5.083
 4334SOL     OW13900   1.995   2.424   2.191
 4334SOL    HW113901   2.034   2.490   2.127
 4334SOL    HW213902   1.896   2.433   2.192
 4335SOL     OW13903   3.584   3.111   2.009
 4335SOL    HW113904   3.624   3.169   2.080
 4335SOL    HW213905   3.565   3.021   2.047
 4336SOL     OW13906   2.717   5.701   5.433
 4336SOL    HW113907   2.793   5.722   5.372
 4336SOL    HW213908   2.721   5.761   5.513
 4337SOL     OW13909   2.588   4.847   1.689
 4337SOL    HW113910   2.523   4.867   1.616
 4337SOL    HW213911   2.680   4.838   1.651
 4338SOL     OW13912   6.325   6.868   5.784
 4338SOL    HW113913   6.299   6.964   5.772
 4338SOL    HW213914   6.246   6.817   5.819
 4339SOL     OW13915   3.989   2.941   6.716
 4339SOL    HW113916   3.989   2.922   6.814
 4339SOL    HW213917   4.041   2.870   6.669
 4340SOL     OW13918   6.331   3.976   1.651
 4340SOL    HW113919   6.414   3.921   1.649
 4340SOL    HW213920   6.339   4.047   1.720
 4341SOL     OW13921   1.509   5.614   0.922
 4341SOL    HW113922   1.496   5.654   1.013
 4341SOL    HW213923   1.541   5.520   0.931
 4342SOL     OW13924   5.433   3.812   3.215
 4342SOL    HW113925   5.358   3.879   3.211
 4342SOL    HW213926   5.412   3.743   3.284
 4343SOL     OW13927   3.285   5.941   4.496
 4343SOL    HW113928   3.259   5.847   4.515
 4343SOL    HW213929   3.288   5.994   4.581
 4344SOL     OW13930   1.181   3.604   3.080
 4344SOL    HW113931   1.113   3.676   3.070
 4344SOL    HW213932   1.156   3.526   3.022
 4345SOL     OW13933   3.456   4.132   4.805
 4345SOL    HW113934   3.476   4.112   4.709
 4345SOL    HW213935   3.359   4.154   4.815
 4346SOL     OW13936   2.123   2.716   3.207
 4346SOL    HW113937   2.137   2.795   3.266
 4346SOL    HW213938   2.095   2.747   3.116
 4347SOL     OW13939   5.489   6.234   2.875
 4347SOL    HW113940   5.463   6.204   2.967
 4347SOL    HW213941   5.407   6.239   2.818
 4348SOL     OW13942   0.154   5.991   4.173
 4348SOL    HW113943   0.217   5.926   4.216
 4348SOL    HW213944   0.151   5.975   4.075
 4349SOL     OW13945   6.465   2.099   3.384
 4349SOL    HW113946   6.389   2.141   3.334
 4349SOL    HW213947   6.452   2.000   3.387
 4350SOL     OW13948   4.061   1.954   3.924
 4350SOL    HW113949   4.014   1.896   3.857
 4350SOL    HW213950   4.115   2.022   3.876
 4351SOL     OW13951   1.215   6.050   1.320
 4351SOL    HW113952   1.179   5.993   1.393
 4351SOL    HW213953   1.312   6.031   1.306
 4352SOL     OW13954   6.224   4.530   2.053
 4352SOL    HW113955   6.311   4.562   2.091
 4352SOL    HW213956   6.152   4.539   2.121
 4353SOL     OW13957   3.824   3.222   6.845
 4353SOL    HW113958   3.784   3.314   6.836
 4353SOL    HW213959   3.778   3.159   6.782
 4354SOL     OW13960   1.887   1.226   6.159
 4354SOL    HW113961   1.846   1.295   6.099
 4354SOL    HW213962   1.986   1.224   6.145
 4355SOL     OW13963   1.966   0.352   2.647
 4355SOL    HW113964   1.871   0.383   2.646
 4355SOL    HW213965   1.986   0.301   2.563
 4356SOL     OW13966   4.805   3.499   6.044
 4356SOL    HW113967   4.821   3.408   6.083
 4356SOL    HW213968   4.799   3.566   6.118
 4357SOL     OW13969   6.861   1.169   1.262
 4357SOL    HW113970   6.947   1.186   1.214
 4357SOL    HW213971   6.865   1.210   1.353
 4358SOL     OW13972   6.599   0.746   0.833
 4358SOL    HW113973   6.629   0.712   0.744
 4358SOL    HW213974   6.679   0.767   0.889
 4359SOL     OW13975   1.554   1.312   6.860
 4359SOL    HW113976   1.577   1.236   6.798
 4359SOL    HW213977   1.617   1.313   6.937
 4360SOL     OW13978   0.439   3.550   4.284
 4360SOL    HW113979   0.473   3.470   4.234
 4360SOL    HW213980   0.432   3.628   4.223
 4361SOL     OW13981   2.254   4.045   1.528
 4361SOL    HW113982   2.217   4.026   1.437
 4361SOL    HW213983   2.295   4.136   1.530
 4362SOL     OW13984   6.787   5.830   4.210
 4362SOL    HW113985   6.691   5.810   4.189
 4362SOL    HW213986   6.802   5.929   4.202
 4363SOL     OW13987   4.586   1.189   1.524
 4363SOL    HW113988   4.608   1.114   1.587
 4363SOL    HW213989   4.639   1.270   1.550
 4364SOL     OW13990   3.219   3.887   3.393
 4364SOL    HW113991   3.235   3.793   3.425
 4364SOL    HW213992   3.173   3.884   3.304
 4365SOL     OW13993   2.615   0.527   2.439
 4365SOL    HW113994   2.681   0.542   2.512
 4365SOL    HW213995   2.663   0.520   2.352
 4366SOL     OW13996   5.991   6.447   6.632
 4366SOL    HW113997   6.029   6.515   6.569
 4366SOL    HW213998   5.994   6.482   6.725
 4367SOL     OW13999   2.596   4.873   3.632
 4367SOL    HW114000   2.519   4.885   3.694
 4367SOL    HW214001   2.563   4.844   3.543
 4368SOL     OW14002   3.790   5.656   1.937
 4368SOL    HW114003   3.776   5.749   1.971
 4368SOL    HW214004   3.847   5.659   1.855
 4369SOL     OW14005   4.778   5.109   3.097
 4369SOL    HW114006   4.728   5.053   3.163
 4369SOL    HW214007   4.714   5.146   3.029
 4370SOL     OW14008   3.710   4.539   1.436
 4370SOL    HW114009   3.681   4.610   1.372
 4370SOL    HW214010   3.743   4.581   1.520
 4371SOL     OW14011   2.216   2.114   2.732
 4371SOL    HW114012   2.278   2.117   2.811
 4371SOL    HW214013   2.141   2.179   2.746
 4372SOL     OW14014   2.501   2.633   4.520
 4372SOL    HW114015   2.490   2.726   4.483
 4372SOL    HW214016   2.431   2.617   4.590
 4373SOL     OW14017   4.517   0.983   0.039
 4373SOL    HW114018   4.564   1.010   6.982
 4373SOL    HW214019   4.428   1.030   0.044
 4374SOL     OW14020   1.552   1.557   1.645
 4374SOL    HW114021   1.475   1.614   1.613
 4374SOL    HW214022   1.517   1.470   1.679
 4375SOL     OW14023   4.095   5.930   2.872
 4375SOL    HW114024   4.048   6.007   2.829
 4375SOL    HW214025   4.043   5.846   2.857
 4376SOL     OW14026   6.028   0.460   2.450
 4376SOL    HW114027   6.013   0.555   2.477
 4376SOL    HW214028   6.085   0.457   2.368
 4377SOL     OW14029   5.620   5.368   0.285
 4377SOL    HW114030   5.715   5.365   0.314
 4377SOL    HW214031   5.576   5.280   0.304
 4378SOL     OW14032   1.853   3.341   2.698
 4378SOL    HW114033   1.805   3.315   2.782
 4378SOL    HW214034   1.788   3.350   2.624
 4379SOL     OW14035   2.079   1.896   2.087
 4379SOL    HW114036   2.090   1.941   2.175
 4379SOL    HW214037   1.999   1.836   2.089
 4380SOL     OW14038   1.833   6.143   4.034
 4380SOL    HW114039   1.845   6.108   4.127
 4380SOL    HW214040   1.917   6.186   4.003
 4381SOL     OW14041   2.074   4.157   4.808
 4381SOL    HW114042   2.144   4.223   4.780
 4381SOL    HW214043   2.114   4.088   4.868
 4382SOL     OW14044   6.194   3.003   6.244
 4382SOL    HW114045   6.215   2.999   6.342
 4382SOL    HW214046   6.165   2.912   6.214
 4383SOL     OW14047   0.633   2.915   5.594
 4383SOL    HW114048   0.607   2.860   5.674
 4383SOL    HW214049   0.672   3.002   5.625
 4384SOL     OW14050   5.642   1.074   6.392
 4384SOL    HW114051   5.677   1.046   6.481
 4384SOL    HW214052   5.668   1.170   6.376
 4385SOL     OW14053   6.910   2.445   4.612
 4385SOL    HW114054   6.864   2.356   4.603
 4385SOL    HW214055   6.990   2.435   4.671
 4386SOL     OW14056   1.662   3.383   6.316
 4386SOL    HW114057   1.594   3.445   6.277
 4386SOL    HW214058   1.641   3.366   6.412
 4387SOL     OW14059   1.110   1.552   1.381
 4387SOL    HW114060   1.011   1.542   1.374
 4387SOL    HW214061   1.154   1.500   1.308
 4388SOL     OW14062   4.684   1.174   6.147
 4388SOL    HW114063   4.623   1.114   6.199
 4388SOL    HW214064   4.631   1.223   6.077
 4389SOL     OW14065   5.553   1.939   0.588
 4389SOL    HW114066   5.513   2.016   0.539
 4389SOL    HW214067   5.619   1.892   0.529
 4390SOL     OW14068   4.090   1.588   2.186
 4390SOL    HW114069   4.144   1.508   2.210
 4390SOL    HW214070   4.149   1.668   2.178
 4391SOL     OW14071   1.715   5.855   5.959
 4391SOL    HW114072   1.753   5.832   5.869
 4391SOL    HW214073   1.757   5.798   6.029
 4392SOL     OW14074   6.375   3.519   5.228
 4392SOL    HW114075   6.335   3.602   5.189
 4392SOL    HW214076   6.355   3.516   5.326
 4393SOL     OW14077   5.369   6.503   3.274
 4393SOL    HW114078   5.347   6.541   3.364
 4393SOL    HW214079   5.459   6.537   3.246
 4394SOL     OW14080   6.586   5.690   2.858
 4394SOL    HW114081   6.567   5.776   2.905
 4394SOL    HW214082   6.659   5.641   2.906
 4395SOL     OW14083   3.670   1.073   1.778
 4395SOL    HW114084   3.613   1.097   1.699
 4395SOL    HW214085   3.746   1.014   1.748
 4396SOL     OW14086   2.481   2.080   4.375
 4396SOL    HW114087   2.567   2.124   4.403
 4396SOL    HW214088   2.475   2.081   4.275
 4397SOL     OW14089   0.516   1.829   5.090
 4397SOL    HW114090   0.463   1.860   5.011
 4397SOL    HW214091   0.591   1.771   5.059
 4398SOL     OW14092   1.175   4.439   4.827
 4398SOL    HW114093   1.267   4.427   4.864
 4398SOL    HW214094   1.174   4.414   4.731
 4399SOL     OW14095   1.558   0.662   1.864
 4399SOL    HW114096   1.652   0.656   1.897
 4399SOL    HW214097   1.503   0.716   1.928
 4400SOL     OW14098   2.470   0.182   5.091
 4400SOL    HW114099   2.485   0.203   4.995
 4400SOL    HW214100   2.429   0.261   5.137
 4401SOL     OW14101   5.223   7.025   6.963
 4401SOL    HW114102   5.278   6.996   0.014
 4401SOL    HW214103   5.283   0.017   6.885
 4402SOL     OW14104   1.983   6.766   1.899
 4402SOL    HW114105   2.035   6.720   1.828
 4402SOL    HW214106   1.905   6.813   1.859
 4403SOL     OW14107   0.385   0.074   3.878
 4403SOL    HW114108   0.291   0.106   3.880
 4403SOL    HW214109   0.401   0.021   3.794
 4404SOL     OW14110   0.897   4.448   5.833
 4404SOL    HW114111   0.981   4.419   5.878
 4404SOL    HW214112   0.821   4.446   5.898
 4405SOL     OW14113   2.857   4.179   0.557
 4405SOL    HW114114   2.940   4.234   0.566
 4405SOL    HW214115   2.831   4.145   0.647
 4406SOL     OW14116   6.659   4.611   1.559
 4406SOL    HW114117   6.700   4.685   1.507
 4406SOL    HW214118   6.613   4.647   1.640
 4407SOL     OW14119   0.496   4.352   0.573
 4407SOL    HW114120   0.582   4.301   0.583
 4407SOL    HW214121   0.419   4.289   0.582
 4408SOL     OW14122   4.365   1.355   1.098
 4408SOL    HW114123   4.303   1.296   1.047
 4408SOL    HW214124   4.363   1.330   1.195
 4409SOL     OW14125   4.181   0.033   1.835
 4409SOL    HW114126   4.204   0.116   1.884
 4409SOL    HW214127   4.264   7.010   1.812
 4410SOL     OW14128   1.466   5.558   0.537
 4410SOL    HW114129   1.419   5.630   0.588
 4410SOL    HW214130   1.510   5.495   0.601
 4411SOL     OW14131   3.520   3.085   4.051
 4411SOL    HW114132   3.525   3.021   4.127
 4411SOL    HW214133   3.458   3.160   4.074
 4412SOL     OW14134   3.317   1.098   4.977
 4412SOL    HW114135   3.319   1.041   4.895
 4412SOL    HW214136   3.410   1.119   5.005
 4413SOL     OW14137   4.848   5.507   4.658
 4413SOL    HW114138   4.874   5.428   4.601
 4413SOL    HW214139   4.818   5.476   4.748
 4414SOL     OW14140   3.830   5.159   1.835
 4414SOL    HW114141   3.897   5.141   1.906
 4414SOL    HW214142   3.869   5.219   1.765
 4415SOL     OW14143   4.369   3.640   6.059
 4415SOL    HW114144   4.450   3.699   6.063
 4415SOL    HW214145   4.298   3.685   6.005
 4416SOL     OW14146   2.663   0.452   4.153
 4416SOL    HW114147   2.587   0.488   4.208
 4416SOL    HW214148   2.688   0.520   4.084
 4417SOL     OW14149   6.021   4.233   2.994
 4417SOL    HW114150   6.026   4.143   3.037
 4417SOL    HW214151   6.004   4.303   3.064
 4418SOL     OW14152   5.052   0.703   3.161
 4418SOL    HW114153   5.025   0.607   3.155
 4418SOL    HW214154   5.128   0.712   3.225
 4419SOL     OW14155   5.084   6.140   0.659
 4419SOL    HW114156   5.093   6.239   0.661
 4419SOL    HW214157   5.119   6.101   0.745
 4420SOL     OW14158   5.417   1.554   1.639
 4420SOL    HW114159   5.395   1.558   1.542
 4420SOL    HW214160   5.337   1.522   1.690
 4421SOL     OW14161   2.009   1.248   3.713
 4421SOL    HW114162   2.087   1.270   3.654
 4421SOL    HW214163   1.939   1.201   3.659
 4422SOL     OW14164   2.275   3.919   5.904
 4422SOL    HW114165   2.242   4.011   5.925
 4422SOL    HW214166   2.329   3.921   5.819
 4423SOL     OW14167   1.236   2.613   5.394
 4423SOL    HW114168   1.247   2.707   5.428
 4423SOL    HW214169   1.280   2.605   5.305
 4424SOL     OW14170   5.042   0.291   4.093
 4424SOL    HW114171   5.003   0.292   4.185
 4424SOL    HW214172   5.111   0.219   4.087
 4425SOL     OW14173   3.777   5.706   6.183
 4425SOL    HW114174   3.801   5.785   6.127
 4425SOL    HW214175   3.839   5.630   6.162
 4426SOL     OW14176   0.184   2.059   4.475
 4426SOL    HW114177   0.086   2.052   4.497
 4426SOL    HW214178   0.234   1.986   4.521
 4427SOL     OW14179   6.907   6.757   3.157
 4427SOL    HW114180   6.857   6.806   3.228
 4427SOL    HW214181   6.851   6.682   3.123
 4428SOL     OW14182   3.497   5.539   2.272
 4428SOL    HW114183   3.527   5.635   2.276
 4428SOL    HW214184   3.512   5.504   2.179
 4429SOL     OW14185   2.783   0.225   3.027
 4429SOL    HW114186   2.688   0.256   3.021
 4429SOL    HW214187   2.843   0.291   2.982
 4430SOL     OW14188   5.131   3.253   5.268
 4430SOL    HW114189   5.072   3.173   5.283
 4430SOL    HW214190   5.089   3.313   5.200
 4431SOL     OW14191   1.414   0.843   2.033
 4431SOL    HW114192   1.481   0.863   2.105
 4431SOL    HW214193   1.324   0.827   2.074
 4432SOL     OW14194   3.321   4.170   4.041
 4432SOL    HW114195   3.338   4.160   3.943
 4432SOL    HW214196   3.311   4.267   4.063
 4433SOL     OW14197   5.660   0.284   4.692
 4433SOL    HW114198   5.716   0.222   4.639
 4433SOL    HW214199   5.690   0.378   4.677
 4434SOL     OW14200   3.629   2.095   3.642
 4434SOL    HW114201   3.587   2.085   3.552
 4434SOL    HW214202   3.567   2.058   3.712
 4435SOL     OW14203   4.250   3.964   1.080
 4435SOL    HW114204   4.199   3.999   1.158
 4435SOL    HW214205   4.317   3.896   1.112
 4436SOL     OW14206   4.180   1.631   1.029
 4436SOL    HW114207   4.215   1.545   0.990
 4436SOL    HW214208   4.240   1.659   1.105
 4437SOL     OW14209   5.451   1.300   3.911
 4437SOL    HW114210   5.380   1.345   3.965
 4437SOL    HW214211   5.522   1.265   3.973
 4438SOL     OW14212   4.851   1.110   0.502
 4438SOL    HW114213   4.860   1.049   0.581
 4438SOL    HW214214   4.764   1.092   0.456
 4439SOL     OW14215   0.620   6.358   1.730
 4439SOL    HW114216   0.601   6.413   1.811
 4439SOL    HW214217   0.537   6.311   1.702
 4440SOL     OW14218   1.769   4.808   0.849
 4440SOL    HW114219   1.806   4.758   0.771
 4440SOL    HW214220   1.842   4.857   0.896
 4441SOL     OW14221   6.568   1.654   2.659
 4441SOL    HW114222   6.483   1.640   2.709
 4441SOL    HW214223   6.585   1.752   2.647
 4442SOL     OW14224   2.811   5.758   5.186
 4442SOL    HW114225   2.754   5.841   5.185
 4442SOL    HW214226   2.875   5.760   5.109
 4443SOL     OW14227   6.887   3.121   1.034
 4443SOL    HW114228   6.812   3.146   1.096
 4443SOL    HW214229   6.974   3.127   1.084
 4444SOL     OW14230   4.332   5.324   6.166
 4444SOL    HW114231   4.367   5.280   6.084
 4444SOL    HW214232   4.324   5.423   6.150
 4445SOL     OW14233   6.498   0.394   0.907
 4445SOL    HW114234   6.555   0.315   0.931
 4445SOL    HW214235   6.556   0.475   0.899
 4446SOL     OW14236   6.343   1.940   1.808
 4446SOL    HW114237   6.421   2.002   1.801
 4446SOL    HW214238   6.262   1.992   1.837
 4447SOL     OW14239   5.892   3.362   6.294
 4447SOL    HW114240   5.853   3.345   6.203
 4447SOL    HW214241   5.852   3.298   6.360
 4448SOL     OW14242   3.312   4.247   0.903
 4448SOL    HW114243   3.343   4.171   0.960
 4448SOL    HW214244   3.303   4.215   0.808
 4449SOL     OW14245   4.527   0.959   6.272
 4449SOL    HW114246   4.484   0.963   6.362
 4449SOL    HW214247   4.577   0.873   6.262
 4450SOL     OW14248   4.050   3.535   4.072
 4450SOL    HW114249   4.105   3.516   4.153
 4450SOL    HW214250   3.953   3.519   4.093
 4451SOL     OW14251   5.943   4.118   3.429
 4451SOL    HW114252   6.034   4.153   3.406
 4451SOL    HW214253   5.926   4.131   3.527
 4452SOL     OW14254   5.408   6.698   4.312
 4452SOL    HW114255   5.441   6.638   4.385
 4452SOL    HW214256   5.466   6.780   4.308
 4453SOL     OW14257   0.050   2.919   1.617
 4453SOL    HW114258   6.980   2.925   1.599
 4453SOL    HW214259   0.084   3.009   1.646
 4454SOL     OW14260   6.071   2.218   6.899
 4454SOL    HW114261   6.008   2.246   6.827
 4454SOL    HW214262   6.024   2.159   6.964
 4455SOL     OW14263   3.808   0.414   6.407
 4455SOL    HW114264   3.730   0.443   6.352
 4455SOL    HW214265   3.815   0.314   6.406
 4456SOL     OW14266   2.768   5.506   2.229
 4456SOL    HW114267   2.761   5.541   2.135
 4456SOL    HW214268   2.700   5.435   2.243
 4457SOL     OW14269   4.302   2.536   0.395
 4457SOL    HW114270   4.206   2.544   0.422
 4457SOL    HW214271   4.357   2.507   0.474
 4458SOL     OW14272   1.348   4.013   6.973
 4458SOL    HW114273   1.390   4.072   6.905
 4458SOL    HW214274   1.355   3.917   6.943
 4459SOL     OW14275   4.516   0.790   3.835
 4459SOL    HW114276   4.461   0.707   3.826
 4459SOL    HW214277   4.612   0.765   3.847
 4460SOL     OW14278   2.742   3.059   5.346
 4460SOL    HW114279   2.654   3.032   5.305
 4460SOL    HW214280   2.787   3.125   5.286
 4461SOL     OW14281   1.208   0.366   2.542
 4461SOL    HW114282   1.128   0.318   2.580
 4461SOL    HW214283   1.223   0.450   2.593
 4462SOL     OW14284   6.853   3.666   1.792
 4462SOL    HW114285   6.757   3.687   1.813
 4462SOL    HW214286   6.912   3.731   1.840
 4463SOL     OW14287   4.341   2.954   0.226
 4463SOL    HW114288   4.434   2.977   0.254
 4463SOL    HW214289   4.343   2.885   0.154
 4464SOL     OW14290   6.834   4.872   6.767
 4464SOL    HW114291   6.811   4.880   6.670
 4464SOL    HW214292   6.775   4.933   6.820
 4465SOL     OW14293   2.494   5.499   2.491
 4465SOL    HW114294   2.451   5.562   2.555
 4465SOL    HW214295   2.594   5.505   2.501
 4466SOL     OW14296   1.494   0.985   3.007
 4466SOL    HW114297   1.477   1.030   2.920
 4466SOL    HW214298   1.499   0.886   2.993
 4467SOL     OW14299   1.380   7.010   3.286
 4467SOL    HW114300   1.421   6.966   3.366
 4467SOL    HW214301   1.307   6.952   3.250
 4468SOL     OW14302   1.563   2.644   0.744
 4468SOL    HW114303   1.521   2.704   0.676
 4468SOL    HW214304   1.499   2.630   0.819
 4469SOL     OW14305   3.894   0.404   1.481
 4469SOL    HW114306   3.922   0.313   1.448
 4469SOL    HW214307   3.844   0.394   1.567
 4470SOL     OW14308   6.022   3.033   1.851
 4470SOL    HW114309   5.996   2.969   1.779
 4470SOL    HW214310   6.013   2.988   1.940
 4471SOL     OW14311   0.108   1.962   0.350
 4471SOL    HW114312   0.087   2.021   0.428
 4471SOL    HW214313   0.075   2.004   0.266
 4472SOL     OW14314   1.614   2.987   3.768
 4472SOL    HW114315   1.538   2.957   3.825
 4472SOL    HW214316   1.699   2.947   3.802
 4473SOL     OW14317   0.080   2.608   3.650
 4473SOL    HW114318   0.154   2.560   3.696
 4473SOL    HW214319   0.117   2.687   3.601
 4474SOL     OW14320   3.815   0.614   1.847
 4474SOL    HW114321   3.826   0.533   1.904
 4474SOL    HW214322   3.902   0.634   1.801
 4475SOL     OW14323   1.762   3.707   2.526
 4475SOL    HW114324   1.766   3.607   2.529
 4475SOL    HW214325   1.669   3.735   2.503
 4476SOL     OW14326   5.074   6.396   4.321
 4476SOL    HW114327   5.158   6.366   4.366
 4476SOL    HW214328   5.083   6.492   4.293
 4477SOL     OW14329   1.444   0.313   5.793
 4477SOL    HW114330   1.406   0.373   5.863
 4477SOL    HW214331   1.483   0.231   5.836
 4478SOL     OW14332   3.552   6.387   2.656
 4478SOL    HW114333   3.495   6.305   2.657
 4478SOL    HW214334   3.613   6.387   2.735
 4479SOL     OW14335   0.610   0.810   1.346
 4479SOL    HW114336   0.681   0.743   1.323
 4479SOL    HW214337   0.562   0.837   1.263
 4480SOL     OW14338   1.848   3.888   5.622
 4480SOL    HW114339   1.762   3.900   5.572
 4480SOL    HW214340   1.834   3.910   5.719
 4481SOL     OW14341   2.364   6.534   4.991
 4481SOL    HW114342   2.411   6.618   5.018
 4481SOL    HW214343   2.324   6.491   5.072
 4482SOL     OW14344   0.648   4.252   4.034
 4482SOL    HW114345   0.699   4.333   4.005
 4482SOL    HW214346   0.603   4.272   4.121
 4483SOL     OW14347   4.872   3.563   2.240
 4483SOL    HW114348   4.855   3.492   2.309
 4483SOL    HW214349   4.896   3.520   2.153
 4484SOL     OW14350   3.261   3.042   5.434
 4484SOL    HW114351   3.339   3.022   5.492
 4484SOL    HW214352   3.224   2.957   5.396
 4485SOL     OW14353   5.240   1.995   5.051
 4485SOL    HW114354   5.143   1.973   5.039
 4485SOL    HW214355   5.257   2.017   5.147
 4486SOL     OW14356   5.206   3.917   4.579
 4486SOL    HW114357   5.221   3.897   4.482
 4486SOL    HW214358   5.269   3.863   4.635
 4487SOL     OW14359   2.632   3.038   6.485
 4487SOL    HW114360   2.638   3.022   6.386
 4487SOL    HW214361   2.671   2.959   6.533
 4488SOL     OW14362   6.075   3.610   5.798
 4488SOL    HW114363   6.152   3.547   5.814
 4488SOL    HW214364   5.995   3.578   5.850
 4489SOL     OW14365   5.906   5.227   4.276
 4489SOL    HW114366   5.966   5.229   4.196
 4489SOL    HW214367   5.820   5.272   4.255
 4490SOL     OW14368   6.425   2.424   3.107
 4490SOL    HW114369   6.504   2.483   3.126
 4490SOL    HW214370   6.457   2.339   3.064
 4491SOL     OW14371   6.993   2.851   4.759
 4491SOL    HW114372   0.038   2.901   4.807
 4491SOL    HW214373   6.992   2.877   4.662
 4492SOL     OW14374   5.402   3.922   1.274
 4492SOL    HW114375   5.425   3.839   1.325
 4492SOL    HW214376   5.335   3.901   1.204
 4493SOL     OW14377   4.516   6.418   5.523
 4493SOL    HW114378   4.611   6.423   5.555
 4493SOL    HW214379   4.504   6.339   5.464
 4494SOL     OW14380   0.134   1.486   5.912
 4494SOL    HW114381   0.055   1.523   5.862
 4494SOL    HW214382   0.144   1.389   5.891
 4495SOL     OW14383   4.928   5.699   4.485
 4495SOL    HW114384   4.905   5.664   4.576
 4495SOL    HW214385   4.845   5.719   4.434
 4496SOL     OW14386   5.187   5.584   1.059
 4496SOL    HW114387   5.130   5.659   1.092
 4496SOL    HW214388   5.278   5.592   1.099
 4497SOL     OW14389   4.660   0.721   6.760
 4497SOL    HW114390   4.707   0.809   6.755
 4497SOL    HW214391   4.572   0.727   6.712
 4498SOL     OW14392   6.705   3.508   6.589
 4498SOL    HW114393   6.677   3.556   6.506
 4498SOL    HW214394   6.628   3.452   6.621
 4499SOL     OW14395   0.166   3.644   3.783
 4499SOL    HW114396   0.236   3.594   3.833
 4499SOL    HW214397   0.105   3.690   3.848
 4500SOL     OW14398   3.005   3.541   4.099
 4500SOL    HW114399   3.084   3.602   4.108
 4500SOL    HW214400   2.996   3.486   4.182
 4501SOL     OW14401   0.001   2.846   5.322
 4501SOL    HW114402   0.016   2.747   5.333
 4501SOL    HW214403   6.952   2.861   5.259
 4502SOL     OW14404   1.276   1.759   6.856
 4502SOL    HW114405   1.211   1.705   6.910
 4502SOL    HW214406   1.343   1.699   6.814
 4503SOL     OW14407   3.417   7.024   2.466
 4503SOL    HW114408   3.331   6.983   2.437
 4503SOL    HW214409   3.461   0.041   2.388
 4504SOL     OW14410   6.493   1.449   4.864
 4504SOL    HW114411   6.505   1.546   4.840
 4504SOL    HW214412   6.398   1.423   4.849
 4505SOL     OW14413   6.322   5.812   3.209
 4505SOL    HW114414   6.248   5.863   3.165
 4505SOL    HW214415   6.376   5.873   3.267
 4506SOL     OW14416   4.778   2.290   3.714
 4506SOL    HW114417   4.832   2.226   3.659
 4506SOL    HW214418   4.692   2.246   3.740
 4507SOL     OW14419   5.729   4.912   2.410
 4507SOL    HW114420   5.668   4.933   2.486
 4507SOL    HW214421   5.755   4.997   2.364
 4508SOL     OW14422   1.242   4.747   6.298
 4508SOL    HW114423   1.144   4.740   6.280
 4508SOL    HW214424   1.289   4.779   6.216
 4509SOL     OW14425   5.006   2.954   2.925
 4509SOL    HW114426   5.077   2.886   2.943
 4509SOL    HW214427   4.916   2.911   2.931
 4510SOL     OW14428   4.605   0.494   4.776
 4510SOL    HW114429   4.542   0.571   4.791
 4510SOL    HW214430   4.673   0.493   4.849
 4511SOL     OW14431   6.846   3.131   6.419
 4511SOL    HW114432   6.915   3.063   6.393
 4511SOL    HW214433   6.888   3.198   6.481
 4512SOL     OW14434   2.599   6.968   5.709
 4512SOL    HW114435   2.535   7.010   5.774
 4512SOL    HW214436   2.547   6.926   5.634
 4513SOL     OW14437   4.975   6.691   0.741
 4513SOL    HW114438   4.894   6.698   0.682
 4513SOL    HW214439   4.948   6.649   0.828
 4514SOL     OW14440   4.702   1.324   5.244
 4514SOL    HW114441   4.703   1.423   5.228
 4514SOL    HW214442   4.738   1.304   5.335
 4515SOL     OW14443   0.539   3.262   5.920
 4515SOL    HW114444   0.539   3.227   6.014
 4515SOL    HW214445   0.514   3.359   5.921
 4516SOL     OW14446   1.810   0.205   6.654
 4516SOL    HW114447   1.712   0.184   6.659
 4516SOL    HW214448   1.841   0.239   6.743
 4517SOL     OW14449   2.729   0.833   6.547
 4517SOL    HW114450   2.753   0.887   6.628
 4517SOL    HW214451   2.716   0.894   6.469
 4518SOL     OW14452   6.628   1.174   3.322
 4518SOL    HW114453   6.693   1.194   3.396
 4518SOL    HW214454   6.536   1.202   3.350
 4519SOL     OW14455   5.603   0.257   2.094
 4519SOL    HW114456   5.667   0.190   2.131
 4519SOL    HW214457   5.552   0.299   2.169
 4520SOL     OW14458   5.074   5.977   3.505
 4520SOL    HW114459   5.045   6.073   3.506
 4520SOL    HW214460   4.993   5.919   3.504
 4521SOL     OW14461   5.879   2.022   3.676
 4521SOL    HW114462   5.873   1.946   3.741
 4521SOL    HW214463   5.860   2.108   3.724
 4522SOL     OW14464   5.577   0.113   3.630
 4522SOL    HW114465   5.503   0.050   3.648
 4522SOL    HW214466   5.541   0.206   3.624
 4523SOL     OW14467   1.573   4.548   0.268
 4523SOL    HW114468   1.574   4.634   0.217
 4523SOL    HW214469   1.587   4.566   0.365
 4524SOL     OW14470   5.506   2.274   3.873
 4524SOL    HW114471   5.502   2.335   3.952
 4524SOL    HW214472   5.414   2.240   3.853
 4525SOL     OW14473   5.395   1.186   3.421
 4525SOL    HW114474   5.361   1.267   3.467
 4525SOL    HW214475   5.410   1.207   3.324
 4526SOL     OW14476   5.151   0.540   1.024
 4526SOL    HW114477   5.071   0.481   1.019
 4526SOL    HW214478   5.126   0.633   0.996
 4527SOL     OW14479   4.033   1.530   3.570
 4527SOL    HW114480   4.129   1.541   3.544
 4527SOL    HW214481   3.999   1.442   3.539
 4528SOL     OW14482   4.676   6.713   6.819
 4528SOL    HW114483   4.745   6.643   6.837
 4528SOL    HW214484   4.616   6.680   6.745
 4529SOL     OW14485   3.512   1.782   4.726
 4529SOL    HW114486   3.419   1.774   4.764
 4529SOL    HW214487   3.578   1.751   4.795
 4530SOL     OW14488   0.446   3.509   5.930
 4530SOL    HW114489   0.451   3.598   5.975
 4530SOL    HW214490   0.366   3.507   5.870
 4531SOL     OW14491   0.587   3.315   3.777
 4531SOL    HW114492   0.491   3.335   3.796
 4531SOL    HW214493   0.622   3.254   3.848
 4532SOL     OW14494   5.987   1.714   3.683
 4532SOL    HW114495   5.992   1.743   3.587
 4532SOL    HW214496   6.078   1.716   3.723
 4533SOL     OW14497   1.740   0.752   2.394
 4533SOL    HW114498   1.835   0.769   2.421
 4533SOL    HW214499   1.736   0.669   2.338
 4534SOL     OW14500   5.163   4.314   4.930
 4534SOL    HW114501   5.260   4.307   4.954
 4534SOL    HW214502   5.151   4.295   4.833
 4535SOL     OW14503   4.770   1.539   2.629
 4535SOL    HW114504   4.747   1.571   2.721
 4535SOL    HW214505   4.859   1.577   2.602
 4536SOL     OW14506   3.880   2.127   4.139
 4536SOL    HW114507   3.918   2.044   4.098
 4536SOL    HW214508   3.893   2.125   4.238
 4537SOL     OW14509   3.637   3.106   5.785
 4537SOL    HW114510   3.635   3.051   5.702
 4537SOL    HW214511   3.730   3.137   5.802
 4538SOL     OW14512   2.798   0.758   4.590
 4538SOL    HW114513   2.749   0.840   4.560
 4538SOL    HW214514   2.751   0.677   4.557
 4539SOL     OW14515   2.200   1.161   4.311
 4539SOL    HW114516   2.235   1.072   4.338
 4539SOL    HW214517   2.103   1.168   4.334
 4540SOL     OW14518   2.957   3.276   4.789
 4540SOL    HW114519   3.034   3.286   4.852
 4540SOL    HW214520   2.906   3.362   4.785
 4541SOL     OW14521   6.098   1.493   0.690
 4541SOL    HW114522   6.136   1.438   0.764
 4541SOL    HW214523   6.160   1.568   0.669
 4542SOL     OW14524   6.333   0.807   2.789
 4542SOL    HW114525   6.313   0.893   2.743
 4542SOL    HW214526   6.422   0.772   2.758
 4543SOL     OW14527   5.402   1.886   1.381
 4543SOL    HW114528   5.414   1.886   1.480
 4543SOL    HW214529   5.397   1.792   1.348
 4544SOL     OW14530   3.423   6.220   6.393
 4544SOL    HW114531   3.420   6.184   6.486
 4544SOL    HW214532   3.375   6.157   6.331
 4545SOL     OW14533   5.494   2.895   4.786
 4545SOL    HW114534   5.567   2.951   4.746
 4545SOL    HW214535   5.419   2.886   4.720
 4546SOL     OW14536   2.179   1.393   6.504
 4546SOL    HW114537   2.083   1.417   6.491
 4546SOL    HW214538   2.221   1.457   6.569
 4547SOL     OW14539   6.382   2.914   2.949
 4547SOL    HW114540   6.479   2.939   2.954
 4547SOL    HW214541   6.373   2.815   2.950
 4548SOL     OW14542   0.948   4.282   4.623
 4548SOL    HW114543   0.855   4.300   4.655
 4548SOL    HW214544   0.947   4.211   4.553
 4549SOL     OW14545   5.609   3.682   2.264
 4549SOL    HW114546   5.563   3.763   2.300
 4549SOL    HW214547   5.705   3.683   2.289
 4550SOL     OW14548   1.206   6.313   2.817
 4550SOL    HW114549   1.304   6.323   2.799
 4550SOL    HW214550   1.156   6.385   2.769
 4551SOL     OW14551   6.134   1.350   6.392
 4551SOL    HW114552   6.164   1.314   6.303
 4551SOL    HW214553   6.080   1.433   6.378
 4552SOL     OW14554   6.346   2.227   1.035
 4552SOL    HW114555   6.283   2.150   1.047
 4552SOL    HW214556   6.423   2.197   0.978
 4553SOL     OW14557   3.987   4.287   6.823
 4553SOL    HW114558   3.947   4.231   6.896
 4553SOL    HW214559   4.083   4.304   6.842
 4554SOL     OW14560   4.530   0.453   1.696
 4554SOL    HW114561   4.570   0.499   1.776
 4554SOL    HW214562   4.487   0.520   1.637
 4555SOL     OW14563   3.307   1.522   6.100
 4555SOL    HW114564   3.348   1.567   6.021
 4555SOL    HW214565   3.230   1.576   6.133
 4556SOL     OW14566   4.511   2.473   3.863
 4556SOL    HW114567   4.585   2.533   3.833
 4556SOL    HW214568   4.529   2.440   3.955
 4557SOL     OW14569   4.763   6.811   4.663
 4557SOL    HW114570   4.842   6.754   4.642
 4557SOL    HW214571   4.680   6.767   4.626
 4558SOL     OW14572   0.300   3.496   5.474
 4558SOL    HW114573   0.235   3.534   5.408
 4558SOL    HW214574   0.268   3.514   5.567
 4559SOL     OW14575   0.792   4.432   1.492
 4559SOL    HW114576   0.717   4.381   1.534
 4559SOL    HW214577   0.879   4.398   1.526
 4560SOL     OW14578   5.106   4.728   2.941
 4560SOL    HW114579   5.113   4.689   3.032
 4560SOL    HW214580   5.197   4.757   2.910
 4561SOL     OW14581   2.767   0.710   1.251
 4561SOL    HW114582   2.729   0.770   1.181
 4561SOL    HW214583   2.693   0.661   1.297
 4562SOL     OW14584   3.220   6.422   5.262
 4562SOL    HW114585   3.261   6.403   5.352
 4562SOL    HW214586   3.257   6.358   5.195
 4563SOL     OW14587   0.942   4.084   0.865
 4563SOL    HW114588   0.912   4.059   0.957
 4563SOL    HW214589   0.974   4.003   0.817
 4564SOL     OW14590   0.635   6.372   0.922
 4564SOL    HW114591   0.641   6.369   0.822
 4564SOL    HW214592   0.681   6.454   0.956
 4565SOL     OW14593   6.822   1.020   5.810
 4565SOL    HW114594   6.890   1.093   5.810
 4565SOL    HW214595   6.732   1.059   5.833
 4566SOL     OW14596   6.981   1.745   0.437
 4566SOL    HW114597   0.022   1.815   0.417
 4566SOL    HW214598   7.002   1.702   0.525
 4567SOL     OW14599   0.153   0.696   0.355
 4567SOL    HW114600   0.057   0.722   0.366
 4567SOL    HW214601   0.193   0.676   0.444
 4568SOL     OW14602   0.992   4.307   5.565
 4568SOL    HW114603   1.047   4.224   5.557
 4568SOL    HW214604   0.962   4.318   5.660
 4569SOL     OW14605   1.765   1.400   3.342
 4569SOL    HW114606   1.810   1.312   3.355
 4569SOL    HW214607   1.833   1.470   3.321
 4570SOL     OW14608   0.868   6.309   2.856
 4570SOL    HW114609   0.922   6.227   2.837
 4570SOL    HW214610   0.788   6.284   2.911
 4571SOL     OW14611   3.175   3.268   6.328
 4571SOL    HW114612   3.128   3.345   6.372
 4571SOL    HW214613   3.115   3.188   6.327
 4572SOL     OW14614   1.321   6.960   6.800
 4572SOL    HW114615   1.406   6.974   6.850
 4572SOL    HW214616   1.247   6.940   6.865
 4573SOL     OW14617   6.274   6.239   0.276
 4573SOL    HW114618   6.358   6.230   0.222
 4573SOL    HW214619   6.194   6.224   0.216
 4574SOL     OW14620   6.702   3.604   1.219
 4574SOL    HW114621   6.639   3.680   1.200
 4574SOL    HW214622   6.664   3.547   1.292
 4575SOL     OW14623   5.855   1.915   6.220
 4575SOL    HW114624   5.899   1.976   6.286
 4575SOL    HW214625   5.845   1.962   6.133
 4576SOL     OW14626   2.214   6.042   6.505
 4576SOL    HW114627   2.165   5.958   6.486
 4576SOL    HW214628   2.179   6.084   6.588
 4577SOL     OW14629   1.145   2.126   3.980
 4577SOL    HW114630   1.230   2.131   3.927
 4577SOL    HW214631   1.134   2.034   4.016
 4578SOL     OW14632   1.379   3.243   3.857
 4578SOL    HW114633   1.383   3.295   3.771
 4578SOL    HW214634   1.466   3.251   3.906
 4579SOL     OW14635   4.858   2.239   2.654
 4579SOL    HW114636   4.766   2.277   2.663
 4579SOL    HW214637   4.905   2.245   2.742
 4580SOL     OW14638   4.833   5.283   6.636
 4580SOL    HW114639   4.768   5.348   6.599
 4580SOL    HW214640   4.809   5.261   6.730
 4581SOL     OW14641   3.101   5.297   3.343
 4581SOL    HW114642   3.105   5.242   3.259
 4581SOL    HW214643   3.116   5.239   3.422
 4582SOL     OW14644   5.679   6.651   5.041
 4582SOL    HW114645   5.623   6.580   4.997
 4582SOL    HW214646   5.743   6.609   5.105
 4583SOL     OW14647   3.008   1.410   5.559
 4583SOL    HW114648   3.008   1.480   5.488
 4583SOL    HW214649   2.917   1.403   5.599
 4584SOL     OW14650   0.359   5.186   5.673
 4584SOL    HW114651   0.301   5.257   5.712
 4584SOL    HW214652   0.306   5.131   5.608
 4585SOL     OW14653   2.554   6.603   3.048
 4585SOL    HW114654   2.565   6.622   2.951
 4585SOL    HW214655   2.641   6.574   3.087
 4586SOL     OW14656   4.044   5.020   0.294
 4586SOL    HW114657   4.079   5.039   0.203
 4586SOL    HW214658   4.102   4.951   0.338
 4587SOL     OW14659   4.061   3.976   1.822
 4587SOL    HW114660   4.135   3.910   1.828
 4587SOL    HW214661   4.072   4.046   1.893
 4588SOL     OW14662   4.256   4.214   5.536
 4588SOL    HW114663   4.198   4.150   5.487
 4588SOL    HW214664   4.297   4.169   5.615
 4589SOL     OW14665   5.493   1.480   2.357
 4589SOL    HW114666   5.537   1.403   2.403
 4589SOL    HW214667   5.553   1.560   2.361
 4590SOL     OW14668   4.872   5.471   0.750
 4590SOL    HW114669   4.967   5.500   0.740
 4590SOL    HW214670   4.857   5.386   0.700
 4591SOL     OW14671   0.458   6.014   5.090
 4591SOL    HW114672   0.368   5.972   5.077
 4591SOL    HW214673   0.451   6.113   5.085
 4592SOL     OW14674   3.890   1.879   2.374
 4592SOL    HW114675   3.814   1.931   2.335
 4592SOL    HW214676   3.976   1.925   2.354
 4593SOL     OW14677   4.209   5.948   3.802
 4593SOL    HW114678   4.213   5.926   3.705
 4593SOL    HW214679   4.150   5.883   3.849
 4594SOL     OW14680   3.163   0.912   1.701
 4594SOL    HW114681   3.254   0.897   1.663
 4594SOL    HW214682   3.169   0.918   1.801
 4595SOL     OW14683   3.487   2.252   6.031
 4595SOL    HW114684   3.411   2.191   6.052
 4595SOL    HW214685   3.483   2.332   6.090
 4596SOL     OW14686   5.730   6.334   3.183
 4596SOL    HW114687   5.673   6.395   3.127
 4596SOL    HW214688   5.713   6.353   3.280
 4597SOL     OW14689   4.820   4.464   6.570
 4597SOL    HW114690   4.850   4.399   6.500
 4597SOL    HW214691   4.723   4.450   6.589
 4598SOL     OW14692   2.315   5.255   0.290
 4598SOL    HW114693   2.379   5.244   0.367
 4598SOL    HW214694   2.334   5.186   0.221
 4599SOL     OW14695   1.661   5.492   0.308
 4599SOL    HW114696   1.694   5.399   0.319
 4599SOL    HW214697   1.606   5.518   0.388
 4600SOL     OW14698   1.128   4.903   5.257
 4600SOL    HW114699   1.102   4.891   5.162
 4600SOL    HW214700   1.224   4.876   5.270
 4601SOL     OW14701   1.423   6.796   5.626
 4601SOL    HW114702   1.380   6.841   5.548
 4601SOL    HW214703   1.450   6.704   5.600
 4602SOL     OW14704   1.008   5.670   1.358
 4602SOL    HW114705   0.966   5.614   1.429
 4602SOL    HW214706   0.990   5.767   1.377
 4603SOL     OW14707   3.542   6.194   0.985
 4603SOL    HW114708   3.498   6.104   0.997
 4603SOL    HW214709   3.611   6.206   1.056
 4604SOL     OW14710   4.309   0.281   1.966
 4604SOL    HW114711   4.406   0.264   1.984
 4604SOL    HW214712   4.301   0.352   1.896
 4605SOL     OW14713   3.435   0.866   3.776
 4605SOL    HW114714   3.403   0.947   3.825
 4605SOL    HW214715   3.370   0.842   3.704
 4606SOL     OW14716   1.103   6.839   1.183
 4606SOL    HW114717   1.095   6.750   1.138
 4606SOL    HW214718   1.041   6.842   1.262
 4607SOL     OW14719   2.286   2.240   0.932
 4607SOL    HW114720   2.294   2.274   0.838
 4607SOL    HW214721   2.376   2.214   0.966
 4608SOL     OW14722   0.864   5.923   3.418
 4608SOL    HW114723   0.945   5.943   3.474
 4608SOL    HW214724   0.788   5.979   3.450
 4609SOL     OW14725   4.373   5.001   6.092
 4609SOL    HW114726   4.397   5.086   6.045
 4609SOL    HW214727   4.407   5.004   6.186
 4610SOL     OW14728   5.056   2.310   0.955
 4610SOL    HW114729   5.054   2.256   0.871
 4610SOL    HW214730   5.098   2.399   0.936
 4611SOL     OW14731   6.760   6.353   6.159
 4611SOL    HW114732   6.766   6.267   6.210
 4611SOL    HW214733   6.789   6.428   6.218
 4612SOL     OW14734   0.756   5.567   0.047
 4612SOL    HW114735   0.748   5.503   6.998
 4612SOL    HW214736   0.849   5.567   0.081
 4613SOL     OW14737   2.294   6.157   2.233
 4613SOL    HW114738   2.240   6.233   2.196
 4613SOL    HW214739   2.379   6.192   2.272
 4614SOL     OW14740   0.579   4.084   4.778
 4614SOL    HW114741   0.601   4.181   4.789
 4614SOL    HW214742   0.480   4.073   4.775
 4615SOL     OW14743   2.230   0.888   6.994
 4615SOL    HW114744   2.261   0.982   7.007
 4615SOL    HW214745   2.299   0.836   6.943
 4616SOL     OW14746   5.680   0.448   5.292
 4616SOL    HW114747   5.614   0.402   5.232
 4616SOL    HW214748   5.644   0.450   5.385
 4617SOL     OW14749   1.198   2.598   2.060
 4617SOL    HW114750   1.222   2.505   2.034
 4617SOL    HW214751   1.109   2.598   2.107
 4618SOL     OW14752   2.209   2.804   5.478
 4618SOL    HW114753   2.224   2.795   5.379
 4618SOL    HW214754   2.115   2.778   5.500
 4619SOL     OW14755   3.285   6.203   3.126
 4619SOL    HW114756   3.232   6.261   3.064
 4619SOL    HW214757   3.244   6.112   3.129
 4620SOL     OW14758   3.617   4.217   0.120
 4620SOL    HW114759   3.540   4.168   0.079
 4620SOL    HW214760   3.617   4.202   0.219
 4621SOL     OW14761   4.842   1.296   2.739
 4621SOL    HW114762   4.755   1.248   2.753
 4621SOL    HW214763   4.832   1.361   2.664
 4622SOL     OW14764   2.214   4.415   0.341
 4622SOL    HW114765   2.309   4.420   0.309
 4622SOL    HW214766   2.211   4.435   0.439
 4623SOL     OW14767   6.759   6.188   0.760
 4623SOL    HW114768   6.718   6.250   0.827
 4623SOL    HW214769   6.702   6.106   0.752
 4624SOL     OW14770   5.637   0.217   3.243
 4624SOL    HW114771   5.632   0.206   3.144
 4624SOL    HW214772   5.617   0.312   3.267
 4625SOL     OW14773   1.945   4.527   0.335
 4625SOL    HW114774   2.020   4.546   0.271
 4625SOL    HW214775   1.859   4.523   0.285
 4626SOL     OW14776   5.516   5.347   2.823
 4626SOL    HW114777   5.520   5.328   2.921
 4626SOL    HW214778   5.421   5.342   2.791
 4627SOL     OW14779   3.090   5.142   3.762
 4627SOL    HW114780   3.043   5.175   3.681
 4627SOL    HW214781   3.040   5.171   3.844
 4628SOL     OW14782   5.649   3.871   3.898
 4628SOL    HW114783   5.739   3.827   3.906
 4628SOL    HW214784   5.577   3.802   3.907
 4629SOL     OW14785   2.400   5.254   4.875
 4629SOL    HW114786   2.418   5.257   4.974
 4629SOL    HW214787   2.308   5.220   4.859
 4630SOL     OW14788   3.967   5.461   2.382
 4630SOL    HW114789   3.963   5.542   2.323
 4630SOL    HW214790   3.900   5.469   2.456
 4631SOL     OW14791   2.428   6.363   3.784
 4631SOL    HW114792   2.495   6.410   3.726
 4631SOL    HW214793   2.337   6.377   3.747
 4632SOL     OW14794   3.842   5.027   2.708
 4632SOL    HW114795   3.859   4.931   2.684
 4632SOL    HW214796   3.757   5.057   2.663
 4633SOL     OW14797   5.458   1.572   3.986
 4633SOL    HW114798   5.380   1.605   4.038
 4633SOL    HW214799   5.454   1.473   3.978
 4634SOL     OW14800   2.618   4.821   6.186
 4634SOL    HW114801   2.573   4.749   6.239
 4634SOL    HW214802   2.700   4.852   6.234
 4635SOL     OW14803   5.508   3.702   1.976
 4635SOL    HW114804   5.525   3.659   2.065
 4635SOL    HW214805   5.457   3.787   1.989
 4636SOL     OW14806   2.093   4.615   0.101
 4636SOL    HW114807   2.176   4.561   0.092
 4636SOL    HW214808   2.030   4.593   0.027
 4637SOL     OW14809   1.077   0.317   0.170
 4637SOL    HW114810   1.177   0.310   0.171
 4637SOL    HW214811   1.040   0.254   0.102
 4638SOL     OW14812   4.726   2.662   0.222
 4638SOL    HW114813   4.690   2.698   0.136
 4638SOL    HW214814   4.654   2.664   0.291
 4639SOL     OW14815   2.293   4.293   4.748
 4639SOL    HW114816   2.347   4.232   4.806
 4639SOL    HW214817   2.314   4.388   4.772
 4640SOL     OW14818   5.005   4.807   3.822
 4640SOL    HW114819   4.959   4.739   3.879
 4640SOL    HW214820   4.953   4.893   3.824
 4641SOL     OW14821   3.174   6.155   4.358
 4641SOL    HW114822   3.169   6.067   4.405
 4641SOL    HW214823   3.211   6.141   4.266
 4642SOL     OW14824   0.389   5.796   4.229
 4642SOL    HW114825   0.402   5.846   4.315
 4642SOL    HW214826   0.450   5.717   4.227
 4643SOL     OW14827   5.874   2.788   1.399
 4643SOL    HW114828   5.843   2.696   1.421
 4643SOL    HW214829   5.933   2.785   1.319
 4644SOL     OW14830   0.478   4.611   5.179
 4644SOL    HW114831   0.459   4.700   5.222
 4644SOL    HW214832   0.394   4.557   5.179
 4645SOL     OW14833   0.819   1.268   4.855
 4645SOL    HW114834   0.864   1.179   4.863
 4645SOL    HW214835   0.824   1.316   4.943
 4646SOL     OW14836   2.333   5.863   3.300
 4646SOL    HW114837   2.342   5.917   3.217
 4646SOL    HW214838   2.416   5.872   3.356
 4647SOL     OW14839   1.305   0.530   3.745
 4647SOL    HW114840   1.269   0.473   3.671
 4647SOL    HW214841   1.387   0.488   3.783
 4648SOL     OW14842   3.947   0.548   2.246
 4648SOL    HW114843   3.927   0.638   2.208
 4648SOL    HW214844   4.028   0.553   2.304
 4649SOL     OW14845   5.291   0.344   5.842
 4649SOL    HW114846   5.266   0.332   5.938
 4649SOL    HW214847   5.389   0.330   5.831
 4650SOL     OW14848   4.709   5.688   3.658
 4650SOL    HW114849   4.722   5.755   3.731
 4650SOL    HW214850   4.710   5.596   3.697
 4651SOL     OW14851   6.565   1.687   1.022
 4651SOL    HW114852   6.573   1.777   0.979
 4651SOL    HW214853   6.524   1.698   1.113
 4652SOL     OW14854   0.499   0.256   4.447
 4652SOL    HW114855   0.449   0.259   4.361
 4652SOL    HW214856   0.549   0.170   4.454
 4653SOL     OW14857   6.048   5.019   0.027
 4653SOL    HW114858   6.064   5.106   7.008
 4653SOL    HW214859   6.128   4.994   0.080
 4654SOL     OW14860   0.292   6.261   0.359
 4654SOL    HW114861   0.246   6.346   0.332
 4654SOL    HW214862   0.358   6.234   0.289
 4655SOL     OW14863   6.857   5.479   1.456
 4655SOL    HW114864   6.790   5.450   1.524
 4655SOL    HW214865   6.860   5.579   1.453
 4656SOL     OW14866   0.841   0.470   3.775
 4656SOL    HW114867   0.805   0.541   3.836
 4656SOL    HW214868   0.918   0.423   3.819
 4657SOL     OW14869   5.022   6.394   1.355
 4657SOL    HW114870   5.061   6.478   1.317
 4657SOL    HW214871   5.068   6.371   1.440
 4658SOL     OW14872   4.690   1.331   2.413
 4658SOL    HW114873   4.775   1.383   2.421
 4658SOL    HW214874   4.613   1.390   2.437
 4659SOL     OW14875   2.757   4.451   5.329
 4659SOL    HW114876   2.840   4.499   5.299
 4659SOL    HW214877   2.771   4.353   5.321
 4660SOL     OW14878   1.145   3.185   5.769
 4660SOL    HW114879   1.156   3.257   5.700
 4660SOL    HW214880   1.091   3.110   5.730
 4661SOL     OW14881   3.619   4.236   5.892
 4661SOL    HW114882   3.549   4.289   5.940
 4661SOL    HW214883   3.591   4.223   5.797
 4662SOL     OW14884   3.862   6.773   5.116
 4662SOL    HW114885   3.797   6.849   5.110
 4662SOL    HW214886   3.861   6.722   5.030
 4663SOL     OW14887   0.274   1.770   2.982
 4663SOL    HW114888   0.207   1.748   3.053
 4663SOL    HW214889   0.366   1.764   3.020
 4664SOL     OW14890   2.002   1.272   0.777
 4664SOL    HW114891   2.101   1.274   0.789
 4664SOL    HW214892   1.978   1.212   0.701
 4665SOL     OW14893   3.446   6.619   0.212
 4665SOL    HW114894   3.400   6.585   0.294
 4665SOL    HW214895   3.506   6.696   0.235
 4666SOL     OW14896   1.426   2.113   1.006
 4666SOL    HW114897   1.453   2.030   0.958
 4666SOL    HW214898   1.503   2.146   1.061
 4667SOL     OW14899   6.359   4.439   1.587
 4667SOL    HW114900   6.269   4.400   1.609
 4667SOL    HW214901   6.388   4.408   1.497
 4668SOL     OW14902   5.510   1.982   3.295
 4668SOL    HW114903   5.552   2.063   3.336
 4668SOL    HW214904   5.557   1.900   3.327
 4669SOL     OW14905   4.289   6.383   6.677
 4669SOL    HW114906   4.247   6.417   6.593
 4669SOL    HW214907   4.248   6.295   6.702
 4670SOL     OW14908   3.064   2.369   5.392
 4670SOL    HW114909   3.117   2.376   5.308
 4670SOL    HW214910   3.120   2.396   5.470
 4671SOL     OW14911   6.642   2.603   2.414
 4671SOL    HW114912   6.560   2.554   2.387
 4671SOL    HW214913   6.702   2.541   2.465
 4672SOL     OW14914   2.708   4.394   6.132
 4672SOL    HW114915   2.671   4.460   6.198
 4672SOL    HW214916   2.663   4.407   6.044
 4673SOL     OW14917   5.138   6.616   1.228
 4673SOL    HW114918   5.051   6.662   1.247
 4673SOL    HW214919   5.205   6.683   1.195
 4674SOL     OW14920   4.696   7.022   6.516
 4674SOL    HW114921   4.623   0.031   6.573
 4674SOL    HW214922   4.737   0.069   6.463
 4675SOL     OW14923   0.240   2.358   6.331
 4675SOL    HW114924   0.239   2.288   6.402
 4675SOL    HW214925   0.231   2.448   6.374
 4676SOL     OW14926   6.679   6.128   3.556
 4676SOL    HW114927   6.631   6.210   3.526
 4676SOL    HW214928   6.715   6.142   3.648
 4677SOL     OW14929   2.866   1.174   0.187
 4677SOL    HW114930   2.888   1.131   0.275
 4677SOL    HW214931   2.785   1.131   0.148
 4678SOL     OW14932   1.954   4.457   2.773
 4678SOL    HW114933   1.993   4.366   2.757
 4678SOL    HW214934   1.876   4.471   2.713
 4679SOL     OW14935   4.021   0.008   1.228
 4679SOL    HW114936   3.931   0.027   1.189
 4679SOL    HW214937   4.011   7.000   1.321
 4680SOL     OW14938   3.936   1.344   6.740
 4680SOL    HW114939   3.989   1.293   6.672
 4680SOL    HW214940   3.959   1.441   6.735
 4681SOL     OW14941   5.471   4.909   6.838
 4681SOL    HW114942   5.459   4.920   6.739
 4681SOL    HW214943   5.456   4.813   6.862
 4682SOL     OW14944   4.743   4.555   5.656
 4682SOL    HW114945   4.705   4.519   5.571
 4682SOL    HW214946   4.781   4.646   5.640
 4683SOL     OW14947   4.992   4.977   2.695
 4683SOL    HW114948   4.917   4.912   2.686
 4683SOL    HW214949   5.045   4.955   2.777
 4684SOL     OW14950   5.285   0.220   5.218
 4684SOL    HW114951   5.296   0.229   5.317
 4684SOL    HW214952   5.350   0.279   5.171
 4685SOL     OW14953   1.917   5.161   6.156
 4685SOL    HW114954   1.829   5.176   6.201
 4685SOL    HW214955   1.958   5.077   6.192
 4686SOL     OW14956   4.599   5.475   6.637
 4686SOL    HW114957   4.524   5.468   6.572
 4686SOL    HW214958   4.624   5.571   6.650
 4687SOL     OW14959   5.064   3.174   4.327
 4687SOL    HW114960   5.031   3.120   4.405
 4687SOL    HW214961   5.011   3.259   4.322
 4688SOL     OW14962   5.656   3.791   4.910
 4688SOL    HW114963   5.706   3.878   4.910
 4688SOL    HW214964   5.722   3.716   4.915
 4689SOL     OW14965   4.981   0.579   0.127
 4689SOL    HW114966   5.052   0.513   0.101
 4689SOL    HW214967   4.915   0.587   0.053
 4690SOL     OW14968   1.128   0.248   0.432
 4690SOL    HW114969   1.100   0.308   0.356
 4690SOL    HW214970   1.064   0.258   0.508
 4691SOL     OW14971   2.967   3.937   0.328
 4691SOL    HW114972   2.900   3.924   0.400
 4691SOL    HW214973   3.055   3.964   0.368
 4692SOL     OW14974   5.738   5.485   2.460
 4692SOL    HW114975   5.731   5.387   2.481
 4692SOL    HW214976   5.646   5.526   2.461
 4693SOL     OW14977   1.142   1.659   2.978
 4693SOL    HW114978   1.078   1.650   2.901
 4693SOL    HW214979   1.228   1.613   2.956
 4694SOL     OW14980   2.352   1.130   7.026
 4694SOL    HW114981   2.340   1.128   0.097
 4694SOL    HW214982   2.413   1.205   7.001
 4695SOL     OW14983   1.665   4.718   1.825
 4695SOL    HW114984   1.603   4.719   1.903
 4695SOL    HW214985   1.663   4.628   1.782
 4696SOL     OW14986   0.181   4.077   6.887
 4696SOL    HW114987   0.088   4.112   6.897
 4696SOL    HW214988   0.231   4.088   6.973
 4697SOL     OW14989   1.610   4.256   1.363
 4697SOL    HW114990   1.650   4.184   1.305
 4697SOL    HW214991   1.682   4.296   1.420
 4698SOL     OW14992   4.531   6.076   2.973
 4698SOL    HW114993   4.587   6.146   2.927
 4698SOL    HW214994   4.591   6.003   3.006
 4699SOL     OW14995   1.245   6.558   2.264
 4699SOL    HW114996   1.227   6.650   2.230
 4699SOL    HW214997   1.193   6.543   2.348
 4700SOL     OW14998   6.751   1.320   2.766
 4700SOL    HW114999   6.655   1.334   2.741
 4700SOL    HW215000   6.798   1.273   2.691
 4701SOL     OW15001   3.180   2.456   0.516
 4701SOL    HW115002   3.124   2.431   0.595
 4701SOL    HW215003   3.228   2.541   0.534
 4702SOL     OW15004   4.988   4.996   0.205
 4702SOL    HW115005   5.028   5.065   0.265
 4702SOL    HW215006   4.980   4.909   0.254
 4703SOL     OW15007   0.380   0.189   2.091
 4703SOL    HW115008   0.288   0.221   2.115
 4703SOL    HW215009   0.420   0.142   2.169
 4704SOL     OW15010   6.416   6.814   6.362
 4704SOL    HW115011   6.389   6.767   6.447
 4704SOL    HW215012   6.502   6.863   6.378
 4705SOL     OW15013   4.089   2.693   1.122
 4705SOL    HW115014   4.171   2.654   1.080
 4705SOL    HW215015   4.011   2.633   1.106
 4706SOL     OW15016   2.772   0.044   0.058
 4706SOL    HW115017   2.778   7.026   6.997
 4706SOL    HW215018   2.800   0.139   0.049
 4707SOL     OW15019   1.484   6.861   0.284
 4707SOL    HW115020   1.569   6.912   0.278
 4707SOL    HW215021   1.486   6.785   0.219
 4708SOL     OW15022   1.206   2.324   6.248
 4708SOL    HW115023   1.275   2.383   6.207
 4708SOL    HW215024   1.135   2.303   6.181
 4709SOL     OW15025   4.446   5.467   5.079
 4709SOL    HW115026   4.405   5.389   5.126
 4709SOL    HW215027   4.457   5.543   5.144
 4710SOL     OW15028   4.887   0.083   5.984
 4710SOL    HW115029   4.911   7.016   6.005
 4710SOL    HW215030   4.842   0.086   5.895
 4711SOL     OW15031   6.333   1.689   1.698
 4711SOL    HW115032   6.331   1.780   1.738
 4711SOL    HW215033   6.266   1.631   1.744
 4712SOL     OW15034   2.757   5.332   6.242
 4712SOL    HW115035   2.798   5.420   6.217
 4712SOL    HW215036   2.826   5.260   6.235
 4713SOL     OW15037   3.657   4.403   0.776
 4713SOL    HW115038   3.746   4.425   0.816
 4713SOL    HW215039   3.621   4.320   0.818
 4714SOL     OW15040   1.055   1.404   6.104
 4714SOL    HW115041   1.134   1.461   6.084
 4714SOL    HW215042   0.972   1.452   6.076
 4715SOL     OW15043   5.766   3.390   2.305
 4715SOL    HW115044   5.796   3.462   2.244
 4715SOL    HW215045   5.694   3.336   2.261
 4716SOL     OW15046   4.063   6.807   6.106
 4716SOL    HW115047   3.999   6.877   6.140
 4716SOL    HW215048   4.062   6.808   6.006
 4717SOL     OW15049   0.589   6.293   3.922
 4717SOL    HW115050   0.631   6.364   3.865
 4717SOL    HW215051   0.647   6.212   3.922
 4718SOL     OW15052   6.152   2.015   1.063
 4718SOL    HW115053   6.191   2.011   1.155
 4718SOL    HW215054   6.058   1.980   1.065
 4719SOL     OW15055   4.784   2.941   1.670
 4719SOL    HW115056   4.733   2.987   1.742
 4719SOL    HW215057   4.798   3.004   1.594
 4720SOL     OW15058   2.177   5.173   5.919
 4720SOL    HW115059   2.145   5.203   6.009
 4720SOL    HW215060   2.201   5.253   5.864
 4721SOL     OW15061   6.854   1.658   2.764
 4721SOL    HW115062   6.756   1.643   2.751
 4721SOL    HW215063   6.898   1.669   2.675
 4722SOL     OW15064   1.191   5.982   6.547
 4722SOL    HW115065   1.149   6.026   6.468
 4722SOL    HW215066   1.269   6.038   6.578
 4723SOL     OW15067   2.316   3.294   6.057
 4723SOL    HW115068   2.294   3.197   6.059
 4723SOL    HW215069   2.410   3.307   6.089
 4724SOL     OW15070   6.313   0.079   4.003
 4724SOL    HW115071   6.246   0.124   3.944
 4724SOL    HW215072   6.286   0.090   4.098
 4725SOL     OW15073   6.731   4.982   0.732
 4725SOL    HW115074   6.775   4.922   0.798
 4725SOL    HW215075   6.730   4.937   0.642
 4726SOL     OW15076   1.329   3.217   6.448
 4726SOL    HW115077   1.366   3.134   6.492
 4726SOL    HW215078   1.355   3.217   6.351
 4727SOL     OW15079   1.017   6.495   1.463
 4727SOL    HW115080   0.980   6.586   1.442
 4727SOL    HW215081   0.942   6.434   1.489
 4728SOL     OW15082   5.504   1.334   1.854
 4728SOL    HW115083   5.435   1.312   1.785
 4728SOL    HW215084   5.570   1.260   1.860
 4729SOL     OW15085   4.829   1.165   1.074
 4729SOL    HW115086   4.753   1.176   1.009
 4729SOL    HW215087   4.912   1.204   1.034
 4730SOL     OW15088   3.395   5.756   4.979
 4730SOL    HW115089   3.486   5.787   4.951
 4730SOL    HW215090   3.399   5.723   5.073
 4731SOL     OW15091   3.165   0.123   0.399
 4731SOL    HW115092   3.132   0.215   0.422
 4731SOL    HW215093   3.111   0.088   0.322
 4732SOL     OW15094   0.908   4.016   5.238
 4732SOL    HW115095   0.868   4.099   5.277
 4732SOL    HW215096   0.996   4.038   5.195
 4733SOL     OW15097   2.169   3.994   3.534
 4733SOL    HW115098   2.134   4.058   3.465
 4733SOL    HW215099   2.210   4.046   3.609
 4734SOL     OW15100   4.647   3.534   6.907
 4734SOL    HW115101   4.608   3.595   6.838
 4734SOL    HW215102   4.739   3.564   6.930
 4735SOL     OW15103   0.162   5.281   4.810
 4735SOL    HW115104   0.262   5.278   4.824
 4735SOL    HW215105   0.123   5.192   4.833
 4736SOL     OW15106   6.236   1.418   5.973
 4736SOL    HW115107   6.281   1.457   6.054
 4736SOL    HW215108   6.198   1.492   5.917
 4737SOL     OW15109   3.302   4.349   1.453
 4737SOL    HW115110   3.219   4.366   1.506
 4737SOL    HW215111   3.278   4.315   1.363
 4738SOL     OW15112   1.680   6.575   2.960
 4738SOL    HW115113   1.709   6.603   3.052
 4738SOL    HW215114   1.730   6.629   2.892
 4739SOL     OW15115   4.595   2.089   2.908
 4739SOL    HW115116   4.673   2.030   2.887
 4739SOL    HW215117   4.564   2.071   3.001
 4740SOL     OW15118   0.351   1.773   0.697
 4740SOL    HW115119   0.349   1.720   0.612
 4740SOL    HW215120   0.301   1.858   0.684
 4741SOL     OW15121   5.364   3.863   0.615
 4741SOL    HW115122   5.461   3.873   0.593
 4741SOL    HW215123   5.314   3.839   0.532
 4742SOL     OW15124   3.080   0.119   6.843
 4742SOL    HW115125   3.054   0.032   6.886
 4742SOL    HW215126   3.036   0.126   6.754
 4743SOL     OW15127   1.965   3.641   5.511
 4743SOL    HW115128   1.973   3.728   5.560
 4743SOL    HW215129   2.041   3.633   5.446
 4744SOL     OW15130   2.695   3.812   5.960
 4744SOL    HW115131   2.656   3.903   5.943
 4744SOL    HW215132   2.709   3.799   6.058
 4745SOL     OW15133   3.179   5.525   6.173
 4745SOL    HW115134   3.179   5.443   6.115
 4745SOL    HW215135   3.165   5.499   6.268
 4746SOL     OW15136   5.671   6.576   2.462
 4746SOL    HW115137   5.719   6.664   2.468
 4746SOL    HW215138   5.735   6.502   2.480
 4747SOL     OW15139   2.143   4.016   6.362
 4747SOL    HW115140   2.052   4.050   6.386
 4747SOL    HW215141   2.185   4.078   6.296
 4748SOL     OW15142   0.881   4.837   0.874
 4748SOL    HW115143   0.860   4.789   0.959
 4748SOL    HW215144   0.952   4.788   0.824
 4749SOL     OW15145   2.898   6.177   5.446
 4749SOL    HW115146   2.954   6.127   5.511
 4749SOL    HW215147   2.801   6.155   5.460
 4750SOL     OW15148   0.335   3.750   3.566
 4750SOL    HW115149   0.307   3.714   3.655
 4750SOL    HW215150   0.258   3.745   3.502
 4751SOL     OW15151   3.028   2.704   0.859
 4751SOL    HW115152   2.956   2.677   0.795
 4751SOL    HW215153   2.995   2.690   0.953
 4752SOL     OW15154   3.237   0.637   6.774
 4752SOL    HW115155   3.158   0.578   6.757
 4752SOL    HW215156   3.318   0.581   6.788
 4753SOL     OW15157   5.038   0.770   3.895
 4753SOL    HW115158   5.086   0.842   3.946
 4753SOL    HW215159   4.943   0.798   3.879
 4754SOL     OW15160   6.237   0.019   4.621
 4754SOL    HW115161   6.189   7.011   4.541
 4754SOL    HW215162   6.336   0.015   4.605
 4755SOL     OW15163   2.303   0.448   1.084
 4755SOL    HW115164   2.281   0.537   1.045
 4755SOL    HW215165   2.302   0.454   1.184
 4756SOL     OW15166   6.248   3.220   1.428
 4756SOL    HW115167   6.183   3.272   1.373
 4756SOL    HW215168   6.308   3.168   1.367
 4757SOL     OW15169   2.129   1.753   0.738
 4757SOL    HW115170   2.173   1.700   0.810
 4757SOL    HW215171   2.161   1.722   0.649
 4758SOL     OW15172   1.845   6.105   4.320
 4758SOL    HW115173   1.944   6.090   4.317
 4758SOL    HW215174   1.827   6.203   4.308
 4759SOL     OW15175   5.499   4.980   4.682
 4759SOL    HW115176   5.566   5.019   4.745
 4759SOL    HW215177   5.518   4.882   4.670
 4760SOL     OW15178   3.379   2.069   0.384
 4760SOL    HW115179   3.347   1.975   0.371
 4760SOL    HW215180   3.415   2.104   0.297
 4761SOL     OW15181   0.378   6.071   0.028
 4761SOL    HW115182   0.297   6.106   7.007
 4761SOL    HW215183   0.358   5.979   0.062
 4762SOL     OW15184   1.726   5.681   3.027
 4762SOL    HW115185   1.639   5.716   3.064
 4762SOL    HW215186   1.715   5.664   2.929
 4763SOL     OW15187   6.561   6.371   3.512
 4763SOL    HW115188   6.628   6.444   3.523
 4763SOL    HW215189   6.481   6.389   3.569
 4764SOL     OW15190   4.957   3.840   5.096
 4764SOL    HW115191   4.943   3.908   5.024
 4764SOL    HW215192   4.906   3.757   5.073
 4765SOL     OW15193   4.409   1.124   4.369
 4765SOL    HW115194   4.373   1.216   4.354
 4765SOL    HW215195   4.473   1.101   4.296
 4766SOL     OW15196   5.046   5.567   3.845
 4766SOL    HW115197   5.056   5.656   3.888
 4766SOL    HW215198   5.018   5.580   3.749
 4767SOL     OW15199   3.783   5.187   5.873
 4767SOL    HW115200   3.717   5.136   5.927
 4767SOL    HW215201   3.786   5.282   5.904
 4768SOL     OW15202   3.964   1.257   5.340
 4768SOL    HW115203   3.908   1.323   5.290
 4768SOL    HW215204   3.947   1.266   5.438
 4769SOL     OW15205   5.510   4.672   0.300
 4769SOL    HW115206   5.593   4.617   0.304
 4769SOL    HW215207   5.515   4.746   0.367
 4770SOL     OW15208   0.969   0.583   4.476
 4770SOL    HW115209   0.917   0.622   4.552
 4770SOL    HW215210   0.907   0.563   4.400
 4771SOL     OW15211   3.366   5.422   5.828
 4771SOL    HW115212   3.429   5.444   5.902
 4771SOL    HW215213   3.398   5.341   5.779
 4772SOL     OW15214   3.180   4.538   1.166
 4772SOL    HW115215   3.129   4.453   1.151
 4772SOL    HW215216   3.248   4.549   1.093
 4773SOL     OW15217   6.799   5.799   5.183
 4773SOL    HW115218   6.782   5.703   5.204
 4773SOL    HW215219   6.711   5.848   5.178
 4774SOL     OW15220   1.232   2.329   2.032
 4774SOL    HW115221   1.293   2.259   1.994
 4774SOL    HW215222   1.147   2.331   1.978
 4775SOL     OW15223   5.121   6.467   2.284
 4775SOL    HW115224   5.084   6.506   2.200
 4775SOL    HW215225   5.212   6.506   2.301
 4776SOL     OW15226   1.186   5.889   5.345
 4776SOL    HW115227   1.113   5.930   5.398
 4776SOL    HW215228   1.148   5.825   5.278
 4777SOL     OW15229   2.690   5.155   1.001
 4777SOL    HW115230   2.713   5.069   1.044
 4777SOL    HW215231   2.770   5.192   0.954
 4778SOL     OW15232   6.688   2.851   3.239
 4778SOL    HW115233   6.713   2.933   3.292
 4778SOL    HW215234   6.714   2.865   3.143
 4779SOL     OW15235   6.448   6.627   2.454
 4779SOL    HW115236   6.404   6.547   2.412
 4779SOL    HW215237   6.465   6.696   2.383
 4780SOL     OW15238   6.320   0.699   0.505
 4780SOL    HW115239   6.227   0.677   0.534
 4780SOL    HW215240   6.365   0.616   0.471
 4781SOL     OW15241   2.026   5.889   2.170
 4781SOL    HW115242   2.035   5.881   2.070
 4781SOL    HW215243   1.989   5.979   2.193
 4782SOL     OW15244   4.301   5.766   0.171
 4782SOL    HW115245   4.220   5.778   0.113
 4782SOL    HW215246   4.367   5.707   0.124
 4783SOL     OW15247   5.230   4.598   0.186
 4783SOL    HW115248   5.212   4.629   0.092
 4783SOL    HW215249   5.318   4.634   0.216
 4784SOL     OW15250   5.649   4.124   6.740
 4784SOL    HW115251   5.707   4.076   6.806
 4784SOL    HW215252   5.630   4.063   6.663
 4785SOL     OW15253   6.898   5.877   2.102
 4785SOL    HW115254   6.853   5.935   2.170
 4785SOL    HW215255   6.983   5.919   2.073
 4786SOL     OW15256   2.799   1.756   0.247
 4786SOL    HW115257   2.794   1.675   0.189
 4786SOL    HW215258   2.852   1.736   0.329
 4787SOL     OW15259   4.418   1.417   2.418
 4787SOL    HW115260   4.362   1.450   2.494
 4787SOL    HW215261   4.366   1.352   2.363
 4788SOL     OW15262   0.789   5.535   5.818
 4788SOL    HW115263   0.788   5.445   5.775
 4788SOL    HW215264   0.842   5.531   5.902
 4789SOL     OW15265   5.554   1.379   1.132
 4789SOL    HW115266   5.601   1.344   1.051
 4789SOL    HW215267   5.510   1.304   1.181
 4790SOL     OW15268   6.526   2.528   4.706
 4790SOL    HW115269   6.482   2.479   4.631
 4790SOL    HW215270   6.532   2.625   4.684
 4791SOL     OW15271   6.254   2.486   1.739
 4791SOL    HW115272   6.248   2.449   1.646
 4791SOL    HW215273   6.341   2.536   1.749
 4792SOL     OW15274   2.094   3.521   3.010
 4792SOL    HW115275   2.079   3.586   3.084
 4792SOL    HW215276   2.107   3.570   2.924
 4793SOL     OW15277   2.095   2.656   5.811
 4793SOL    HW115278   2.077   2.558   5.822
 4793SOL    HW215279   2.031   2.695   5.745
 4794SOL     OW15280   4.188   0.629   3.418
 4794SOL    HW115281   4.144   0.544   3.390
 4794SOL    HW215282   4.139   0.707   3.379
 4795SOL     OW15283   6.072   2.500   4.215
 4795SOL    HW115284   6.166   2.525   4.236
 4795SOL    HW215285   6.021   2.581   4.185
 4796SOL     OW15286   5.180   1.631   5.361
 4796SOL    HW115287   5.113   1.558   5.375
 4796SOL    HW215288   5.220   1.657   5.448
 4797SOL     OW15289   1.207   6.251   6.049
 4797SOL    HW115290   1.266   6.178   6.082
 4797SOL    HW215291   1.228   6.336   6.098
 4798SOL     OW15292   0.296   3.334   4.794
 4798SOL    HW115293   0.355   3.260   4.762
 4798SOL    HW215294   0.322   3.419   4.747
 4799SOL     OW15295   5.368   2.521   6.629
 4799SOL    HW115296   5.340   2.432   6.665
 4799SOL    HW215297   5.287   2.572   6.600
 4800SOL     OW15298   3.313   3.263   6.096
 4800SOL    HW115299   3.251   3.245   6.020
 4800SOL    HW215300   3.259   3.287   6.177
 4801SOL     OW15301   2.864   2.175   0.335
 4801SOL    HW115302   2.842   2.110   0.262
 4801SOL    HW215303   2.961   2.167   0.359
 4802SOL     OW15304   0.593   5.952   1.939
 4802SOL    HW115305   0.630   5.880   1.881
 4802SOL    HW215306   0.641   6.038   1.921
 4803SOL     OW15307   0.973   5.624   1.071
 4803SOL    HW115308   1.009   5.646   1.162
 4803SOL    HW215309   1.040   5.651   1.002
 4804SOL     OW15310   5.392   5.637   6.760
 4804SOL    HW115311   5.456   5.712   6.749
 4804SOL    HW215312   5.298   5.673   6.761
 4805SOL     OW15313   5.364   0.932   2.302
 4805SOL    HW115314   5.386   1.024   2.333
 4805SOL    HW215315   5.321   0.937   2.212
 4806SOL     OW15316   0.775   4.728   3.114
 4806SOL    HW115317   0.827   4.811   3.133
 4806SOL    HW215318   0.756   4.680   3.199
 4807SOL     OW15319   0.944   4.466   0.304
 4807SOL    HW115320   0.896   4.554   0.303
 4807SOL    HW215321   0.907   4.409   0.378
 4808SOL     OW15322   5.626   3.834   6.774
 4808SOL    HW115323   5.720   3.813   6.748
 4808SOL    HW215324   5.623   3.860   6.871
 4809SOL     OW15325   3.593   4.476   7.018
 4809SOL    HW115326   3.669   4.504   6.960
 4809SOL    HW215327   3.610   4.384   0.026
 4810SOL     OW15328   1.413   5.220   2.538
 4810SOL    HW115329   1.451   5.307   2.566
 4810SOL    HW215330   1.416   5.155   2.614
 4811SOL     OW15331   2.609   4.340   1.708
 4811SOL    HW115332   2.684   4.403   1.690
 4811SOL    HW215333   2.644   4.246   1.709
 4812SOL     OW15334   6.369   5.272   4.164
 4812SOL    HW115335   6.368   5.187   4.216
 4812SOL    HW215336   6.412   5.344   4.218
 4813SOL     OW15337   5.042   1.854   1.366
 4813SOL    HW115338   5.054   1.789   1.441
 4813SOL    HW215339   5.130   1.871   1.322
 4814SOL     OW15340   6.501   3.858   0.550
 4814SOL    HW115341   6.591   3.900   0.557
 4814SOL    HW215342   6.443   3.913   0.490
 4815SOL     OW15343   5.600   4.778   2.818
 4815SOL    HW115344   5.641   4.782   2.909
 4815SOL    HW215345   5.624   4.691   2.775
 4816SOL     OW15346   1.549   5.354   1.028
 4816SOL    HW115347   1.603   5.287   1.079
 4816SOL    HW215348   1.478   5.392   1.088
 4817SOL     OW15349   0.334   2.012   6.735
 4817SOL    HW115350   0.329   2.065   6.650
 4817SOL    HW215351   0.285   2.060   6.808
 4818SOL     OW15352   0.974   6.656   4.709
 4818SOL    HW115353   1.004   6.724   4.642
 4818SOL    HW215354   0.924   6.583   4.662
 4819SOL     OW15355   1.529   1.689   0.402
 4819SOL    HW115356   1.617   1.642   0.390
 4819SOL    HW215357   1.500   1.679   0.497
 4820SOL     OW15358   5.912   2.743   1.958
 4820SOL    HW115359   5.956   2.705   1.876
 4820SOL    HW215360   5.827   2.789   1.932
 4821SOL     OW15361   0.898   6.003   2.779
 4821SOL    HW115362   0.953   5.920   2.791
 4821SOL    HW215363   0.808   5.978   2.745
 4822SOL     OW15364   2.664   2.033   5.139
 4822SOL    HW115365   2.613   1.972   5.200
 4822SOL    HW215366   2.627   2.125   5.145
 4823SOL     OW15367   1.787   0.996   4.432
 4823SOL    HW115368   1.717   0.991   4.361
 4823SOL    HW215369   1.858   1.060   4.404
 4824SOL     OW15370   4.966   2.595   5.246
 4824SOL    HW115371   4.942   2.576   5.341
 4824SOL    HW215372   5.027   2.523   5.212
 4825SOL     OW15373   1.962   2.923   5.068
 4825SOL    HW115374   1.969   2.987   5.145
 4825SOL    HW215375   1.983   2.971   4.983
 4826SOL     OW15376   5.295   1.628   6.890
 4826SOL    HW115377   5.253   1.539   6.872
 4826SOL    HW215378   5.263   1.694   6.823
 4827SOL     OW15379   6.327   1.675   0.709
 4827SOL    HW115380   6.423   1.704   0.704
 4827SOL    HW215381   6.311   1.630   0.797
 4828SOL     OW15382   5.204   2.114   1.084
 4828SOL    HW115383   5.151   2.175   1.024
 4828SOL    HW215384   5.166   2.022   1.080
 4829SOL     OW15385   4.103   6.673   5.482
 4829SOL    HW115386   4.119   6.662   5.384
 4829SOL    HW215387   4.009   6.704   5.497
 4830SOL     OW15388   4.266   6.074   4.608
 4830SOL    HW115389   4.296   5.991   4.561
 4830SOL    HW215390   4.186   6.111   4.561
 4831SOL     OW15391   1.462   4.393   6.095
 4831SOL    HW115392   1.443   4.333   6.017
 4831SOL    HW215393   1.462   4.488   6.064
 4832SOL     OW15394   3.838   4.038   3.630
 4832SOL    HW115395   3.798   4.057   3.720
 4832SOL    HW215396   3.779   4.075   3.559
 4833SOL     OW15397   5.570   1.182   2.869
 4833SOL    HW115398   5.613   1.157   2.783
 4833SOL    HW215399   5.520   1.103   2.906
 4834SOL     OW15400   3.225   6.272   1.587
 4834SOL    HW115401   3.263   6.294   1.497
 4834SOL    HW215402   3.200   6.175   1.590
 4835SOL     OW15403   5.458   1.867   6.505
 4835SOL    HW115404   5.441   1.910   6.416
 4835SOL    HW215405   5.553   1.881   6.531
 4836SOL     OW15406   5.191   2.056   4.746
 4836SOL    HW115407   5.240   2.067   4.832
 4836SOL    HW215408   5.095   2.079   4.759
 4837SOL     OW15409   0.018   3.801   2.929
 4837SOL    HW115410   0.045   3.714   2.889
 4837SOL    HW215411   0.097   3.844   2.973
 4838SOL     OW15412   1.318   5.366   0.289
 4838SOL    HW115413   1.351   5.288   0.342
 4838SOL    HW215414   1.370   5.374   0.204
 4839SOL     OW15415   1.614   3.787   0.084
 4839SOL    HW115416   1.537   3.786   0.020
 4839SOL    HW215417   1.656   3.878   0.085
 4840SOL     OW15418   0.103   4.589   6.410
 4840SOL    HW115419   0.169   4.586   6.486
 4840SOL    HW215420   0.152   4.577   6.323
 4841SOL     OW15421   2.357   5.291   2.714
 4841SOL    HW115422   2.373   5.366   2.649
 4841SOL    HW215423   2.399   5.314   2.802
 4842SOL     OW15424   3.781   5.180   2.377
 4842SOL    HW115425   3.750   5.089   2.404
 4842SOL    HW215426   3.858   5.172   2.314
 4843SOL     OW15427   6.272   3.073   1.734
 4843SOL    HW115428   6.197   3.075   1.800
 4843SOL    HW215429   6.244   3.022   1.653
 4844SOL     OW15430   0.254   2.930   6.440
 4844SOL    HW115431   0.319   2.905   6.512
 4844SOL    HW215432   0.173   2.971   6.482
 4845SOL     OW15433   5.454   4.931   6.578
 4845SOL    HW115434   5.537   4.880   6.554
 4845SOL    HW215435   5.381   4.908   6.513
 4846SOL     OW15436   0.055   2.235   3.584
 4846SOL    HW115437   0.062   2.240   3.484
 4846SOL    HW215438   0.126   2.292   3.625
 4847SOL     OW15439   2.481   0.972   6.260
 4847SOL    HW115440   2.448   0.952   6.352
 4847SOL    HW215441   2.551   1.043   6.264
 4848SOL     OW15442   1.890   0.977   4.683
 4848SOL    HW115443   1.835   0.995   4.602
 4848SOL    HW215444   1.886   0.879   4.704
 4849SOL     OW15445   1.527   5.933   0.065
 4849SOL    HW115446   1.528   5.856   0.129
 4849SOL    HW215447   1.466   5.913   7.016
 4850SOL     OW15448   4.258   1.254   1.663
 4850SOL    HW115449   4.161   1.232   1.665
 4850SOL    HW215450   4.303   1.219   1.745
 4851SOL     OW15451   3.467   6.784   5.927
 4851SOL    HW115452   3.389   6.831   5.968
 4851SOL    HW215453   3.465   6.687   5.952
 4852SOL     OW15454   2.215   5.703   5.077
 4852SOL    HW115455   2.167   5.754   5.007
 4852SOL    HW215456   2.257   5.766   5.142
 4853SOL     OW15457   3.177   1.411   3.633
 4853SOL    HW115458   3.160   1.323   3.677
 4853SOL    HW215459   3.192   1.481   3.703
 4854SOL     OW15460   4.382   6.440   2.307
 4854SOL    HW115461   4.313   6.465   2.239
 4854SOL    HW215462   4.351   6.470   2.397
 4855SOL     OW15463   5.797   2.766   4.485
 4855SOL    HW115464   5.880   2.795   4.531
 4855SOL    HW215465   5.778   2.670   4.507
 4856SOL     OW15466   1.634   3.264   2.945
 4856SOL    HW115467   1.651   3.353   2.987
 4856SOL    HW215468   1.575   3.210   3.005
 4857SOL     OW15469   2.795   2.354   3.559
 4857SOL    HW115470   2.743   2.415   3.620
 4857SOL    HW215471   2.811   2.267   3.605
 4858SOL     OW15472   6.900   0.230   4.789
 4858SOL    HW115473   6.962   0.287   4.843
 4858SOL    HW215474   6.826   0.197   4.848
 4859SOL     OW15475   0.760   5.520   3.037
 4859SOL    HW115476   0.803   5.511   3.127
 4859SOL    HW215477   0.664   5.494   3.043
 4860SOL     OW15478   4.697   4.432   0.571
 4860SOL    HW115479   4.749   4.437   0.486
 4860SOL    HW215480   4.757   4.454   0.648
 4861SOL     OW15481   6.121   5.044   6.679
 4861SOL    HW115482   6.057   5.111   6.714
 4861SOL    HW215483   6.213   5.082   6.678
 4862SOL     OW15484   2.029   4.417   5.010
 4862SOL    HW115485   1.967   4.364   5.067
 4862SOL    HW215486   2.096   4.356   4.968
 4863SOL     OW15487   5.197   3.246   2.114
 4863SOL    HW115488   5.211   3.254   2.015
 4863SOL    HW215489   5.135   3.319   2.145
 4864SOL     OW15490   3.464   1.452   2.152
 4864SOL    HW115491   3.496   1.502   2.072
 4864SOL    HW215492   3.487   1.355   2.143
 4865SOL     OW15493   1.756   6.289   4.611
 4865SOL    HW115494   1.668   6.267   4.570
 4865SOL    HW215495   1.776   6.225   4.685
 4866SOL     OW15496   6.290   4.980   1.582
 4866SOL    HW115497   6.277   4.982   1.483
 4866SOL    HW215498   6.302   4.886   1.612
 4867SOL     OW15499   4.946   5.762   2.504
 4867SOL    HW115500   4.846   5.768   2.507
 4867SOL    HW215501   4.978   5.702   2.577
 4868SOL     OW15502   0.559   5.103   2.110
 4868SOL    HW115503   0.616   5.183   2.134
 4868SOL    HW215504   0.605   5.051   2.038
 4869SOL     OW15505   0.366   2.079   1.909
 4869SOL    HW115506   0.273   2.061   1.876
 4869SOL    HW215507   0.362   2.133   1.993
 4870SOL     OW15508   6.665   6.027   1.559
 4870SOL    HW115509   6.738   6.036   1.626
 4870SOL    HW215510   6.592   6.092   1.581
 4871SOL     OW15511   0.476   1.489   4.782
 4871SOL    HW115512   0.426   1.534   4.708
 4871SOL    HW215513   0.490   1.392   4.759
 4872SOL     OW15514   6.944   6.054   4.292
 4872SOL    HW115515   6.954   6.022   4.386
 4872SOL    HW215516   7.027   6.034   4.240
 4873SOL     OW15517   6.859   4.726   4.027
 4873SOL    HW115518   6.899   4.662   3.962
 4873SOL    HW215519   6.781   4.773   3.985
 4874SOL     OW15520   6.100   3.337   3.394
 4874SOL    HW115521   6.023   3.396   3.369
 4874SOL    HW215522   6.158   3.384   3.461
 4875SOL     OW15523   5.020   3.237   1.384
 4875SOL    HW115524   5.097   3.182   1.417
 4875SOL    HW215525   4.996   3.306   1.452
 4876SOL     OW15526   5.460   1.133   4.551
 4876SOL    HW115527   5.435   1.046   4.511
 4876SOL    HW215528   5.508   1.189   4.483
 4877SOL     OW15529   6.898   1.751   0.010
 4877SOL    HW115530   6.843   1.824   6.998
 4877SOL    HW215531   6.838   1.678   0.042
 4878SOL     OW15532   6.129   1.483   3.427
 4878SOL    HW115533   6.105   1.580   3.425
 4878SOL    HW215534   6.126   1.446   3.334
 4879SOL     OW15535   4.461   5.088   3.337
 4879SOL    HW115536   4.444   5.066   3.433
 4879SOL    HW215537   4.491   5.183   3.329
 4880SOL     OW15538   5.962   3.227   6.679
 4880SOL    HW115539   5.924   3.317   6.659
 4880SOL    HW215540   5.902   3.157   6.643
 4881SOL     OW15541   2.157   6.853   6.756
 4881SOL    HW115542   2.177   6.758   6.780
 4881SOL    HW215543   2.122   6.857   6.663
 4882SOL     OW15544   5.741   1.658   4.055
 4882SOL    HW115545   5.707   1.697   4.140
 4882SOL    HW215546   5.665   1.637   3.994
 4883SOL     OW15547   5.091   4.870   2.302
 4883SOL    HW115548   5.016   4.904   2.358
 4883SOL    HW215549   5.152   4.815   2.358
 4884SOL     OW15550   4.186   0.339   0.949
 4884SOL    HW115551   4.172   0.437   0.960
 4884SOL    HW215552   4.099   0.294   0.928
 4885SOL     OW15553   2.911   6.066   1.867
 4885SOL    HW115554   2.843   6.137   1.847
 4885SOL    HW215555   2.926   6.062   1.966
 4886SOL     OW15556   6.546   5.851   6.369
 4886SOL    HW115557   6.523   5.905   6.288
 4886SOL    HW215558   6.592   5.767   6.340
 4887SOL     OW15559   6.977   0.366   2.981
 4887SOL    HW115560   0.033   0.407   2.944
 4887SOL    HW215561   6.953   0.411   3.068
 4888SOL     OW15562   1.840   6.559   4.473
 4888SOL    HW115563   1.807   6.483   4.528
 4888SOL    HW215564   1.895   6.620   4.530
 4889SOL     OW15565   6.269   0.639   6.650
 4889SOL    HW115566   6.342   0.572   6.657
 4889SOL    HW215567   6.183   0.593   6.626
 4890SOL     OW15568   0.479   2.178   5.627
 4890SOL    HW115569   0.408   2.204   5.563
 4890SOL    HW215570   0.446   2.103   5.685
 4891SOL     OW15571   1.319   5.777   0.648
 4891SOL    HW115572   1.247   5.847   0.648
 4891SOL    HW215573   1.376   5.787   0.729
 4892SOL     OW15574   2.217   6.429   2.129
 4892SOL    HW115575   2.213   6.528   2.146
 4892SOL    HW215576   2.227   6.413   2.030
 4893SOL     OW15577   6.945   4.300   0.433
 4893SOL    HW115578   6.988   4.216   0.465
 4893SOL    HW215579   6.847   4.296   0.449
 4894SOL     OW15580   2.133   2.194   2.072
 4894SOL    HW115581   2.117   2.278   2.124
 4894SOL    HW215582   2.179   2.127   2.130
 4895SOL     OW15583   0.153   4.472   2.678
 4895SOL    HW115584   0.180   4.568   2.687
 4895SOL    HW215585   0.106   4.459   2.591
 4896SOL     OW15586   2.337   5.273   1.938
 4896SOL    HW115587   2.403   5.343   1.911
 4896SOL    HW215588   2.381   5.206   1.998
 4897SOL     OW15589   2.395   5.165   5.655
 4897SOL    HW115590   2.391   5.119   5.743
 4897SOL    HW215591   2.437   5.105   5.587
 4898SOL     OW15592   4.960   1.224   4.501
 4898SOL    HW115593   5.021   1.181   4.568
 4898SOL    HW215594   4.883   1.164   4.482
 4899SOL     OW15595   6.215   4.894   3.541
 4899SOL    HW115596   6.306   4.883   3.500
 4899SOL    HW215597   6.178   4.983   3.516
 4900SOL     OW15598   1.754   5.631   5.318
 4900SOL    HW115599   1.741   5.545   5.366
 4900SOL    HW215600   1.818   5.619   5.243
 4901SOL     OW15601   2.656   6.626   5.575
 4901SOL    HW115602   2.742   6.587   5.607
 4901SOL    HW215603   2.674   6.688   5.498
 4902SOL     OW15604   2.714   2.407   4.841
 4902SOL    HW115605   2.771   2.455   4.774
 4902SOL    HW215606   2.770   2.342   4.893
 4903SOL     OW15607   2.917   6.489   6.483
 4903SOL    HW115608   2.866   6.558   6.431
 4903SOL    HW215609   2.981   6.534   6.545
 4904SOL     OW15610   0.834   0.446   4.078
 4904SOL    HW115611   0.839   0.542   4.104
 4904SOL    HW215612   0.883   0.391   4.146
 4905SOL     OW15613   4.238   1.295   2.200
 4905SOL    HW115614   4.295   1.356   2.144
 4905SOL    HW215615   4.194   1.228   2.141
 4906SOL     OW15616   4.135   1.562   6.746
 4906SOL    HW115617   4.164   1.519   6.661
 4906SOL    HW215618   4.076   1.640   6.725
 4907SOL     OW15619   4.911   6.176   1.265
 4907SOL    HW115620   4.950   6.257   1.308
 4907SOL    HW215621   4.855   6.203   1.186
 4908SOL     OW15622   5.283   4.790   6.420
 4908SOL    HW115623   5.222   4.870   6.415
 4908SOL    HW215624   5.240   4.720   6.478
 4909SOL     OW15625   6.915   0.372   5.257
 4909SOL    HW115626   6.887   0.367   5.353
 4909SOL    HW215627   7.010   0.345   5.248
 4910SOL     OW15628   5.266   6.730   4.582
 4910SOL    HW115629   5.266   6.740   4.482
 4910SOL    HW215630   5.301   6.814   4.624
 4911SOL     OW15631   6.741   2.803   5.281
 4911SOL    HW115632   6.733   2.780   5.378
 4911SOL    HW215633   6.765   2.721   5.229
 4912SOL     OW15634   5.393   2.573   1.429
 4912SOL    HW115635   5.318   2.529   1.380
 4912SOL    HW215636   5.434   2.643   1.371
 4913SOL     OW15637   4.049   3.413   3.458
 4913SOL    HW115638   3.970   3.378   3.407
 4913SOL    HW215639   4.069   3.506   3.427
 4914SOL     OW15640   2.904   6.727   5.010
 4914SOL    HW115641   2.853   6.765   5.088
 4914SOL    HW215642   2.840   6.685   4.946
 4915SOL     OW15643   4.252   0.407   4.634
 4915SOL    HW115644   4.310   0.433   4.557
 4915SOL    HW215645   4.271   0.312   4.659
 4916SOL     OW15646   2.232   1.332   3.553
 4916SOL    HW115647   2.319   1.335   3.503
 4916SOL    HW215648   2.198   1.425   3.565
 4917SOL     OW15649   1.501   4.903   0.561
 4917SOL    HW115650   1.558   4.824   0.539
 4917SOL    HW215651   1.447   4.884   0.643
 4918SOL     OW15652   2.636   6.878   2.724
 4918SOL    HW115653   2.689   6.890   2.807
 4918SOL    HW215654   2.543   6.849   2.748
 4919SOL     OW15655   1.813   1.650   0.379
 4919SOL    HW115656   1.808   1.676   0.476
 4919SOL    HW215657   1.809   1.733   0.323
 4920SOL     OW15658   4.914   0.518   6.203
 4920SOL    HW115659   4.852   0.511   6.125
 4920SOL    HW215660   4.876   0.467   6.280
 4921SOL     OW15661   1.810   4.402   1.164
 4921SOL    HW115662   1.789   4.366   1.255
 4921SOL    HW215663   1.753   4.356   1.096
 4922SOL     OW15664   1.997   3.055   4.825
 4922SOL    HW115665   1.924   3.101   4.774
 4922SOL    HW215666   2.071   3.119   4.843
 4923SOL     OW15667   3.175   1.145   0.712
 4923SOL    HW115668   3.197   1.241   0.729
 4923SOL    HW215669   3.087   1.139   0.665
 4924SOL     OW15670   1.705   2.507   5.997
 4924SOL    HW115671   1.737   2.600   6.018
 4924SOL    HW215672   1.779   2.454   5.957
 4925SOL     OW15673   5.635   6.680   0.928
 4925SOL    HW115674   5.543   6.680   0.889
 4925SOL    HW215675   5.636   6.625   1.012
 4926SOL     OW15676   4.806   2.372   1.141
 4926SOL    HW115677   4.897   2.332   1.152
 4926SOL    HW215678   4.757   2.369   1.228
 4927SOL     OW15679   3.940   3.975   4.102
 4927SOL    HW115680   4.010   3.917   4.143
 4927SOL    HW215681   3.876   4.006   4.173
 4928SOL     OW15682   0.108   0.221   6.987
 4928SOL    HW115683   0.135   0.129   6.957
 4928SOL    HW215684   0.189   0.272   7.016
 4929SOL     OW15685   1.414   4.400   4.969
 4929SOL    HW115686   1.465   4.317   4.948
 4929SOL    HW215687   1.364   4.388   5.055
 4930SOL     OW15688   5.942   0.625   2.126
 4930SOL    HW115689   6.001   0.561   2.077
 4930SOL    HW215690   5.847   0.611   2.097
 4931SOL     OW15691   6.940   6.892   1.606
 4931SOL    HW115692   6.854   6.900   1.556
 4931SOL    HW215693   7.013   6.938   1.556
 4932SOL     OW15694   2.343   2.939   1.761
 4932SOL    HW115695   2.425   2.985   1.728
 4932SOL    HW215696   2.351   2.841   1.745
 4933SOL     OW15697   2.927   6.549   4.072
 4933SOL    HW115698   3.007   6.489   4.075
 4933SOL    HW215699   2.918   6.587   3.980
 4934SOL     OW15700   1.751   5.001   2.875
 4934SOL    HW115701   1.683   5.028   2.943
 4934SOL    HW215702   1.753   4.902   2.866
 4935SOL     OW15703   0.932   1.538   6.690
 4935SOL    HW115704   0.902   1.588   6.771
 4935SOL    HW215705   0.953   1.603   6.617
 4936SOL     OW15706   2.536   5.302   2.242
 4936SOL    HW115707   2.453   5.358   2.248
 4936SOL    HW215708   2.527   5.237   2.166
 4937SOL     OW15709   6.742   3.271   5.724
 4937SOL    HW115710   6.794   3.188   5.705
 4937SOL    HW215711   6.753   3.335   5.648
 4938SOL     OW15712   2.766   5.594   0.554
 4938SOL    HW115713   2.804   5.509   0.518
 4938SOL    HW215714   2.806   5.612   0.644
 4939SOL     OW15715   1.261   1.648   4.102
 4939SOL    HW115716   1.266   1.691   4.012
 4939SOL    HW215717   1.300   1.557   4.099
 4940SOL     OW15718   0.795   1.281   5.785
 4940SOL    HW115719   0.782   1.227   5.869
 4940SOL    HW215720   0.765   1.375   5.801
 4941SOL     OW15721   4.299   2.428   5.367
 4941SOL    HW115722   4.383   2.482   5.362
 4941SOL    HW215723   4.222   2.482   5.331
 4942SOL     OW15724   5.527   3.497   5.109
 4942SOL    HW115725   5.584   3.461   5.182
 4942SOL    HW215726   5.438   3.523   5.146
 4943SOL     OW15727   5.132   4.143   5.374
 4943SOL    HW115728   5.125   4.118   5.470
 4943SOL    HW215729   5.174   4.068   5.323
 4944SOL     OW15730   2.585   4.645   1.873
 4944SOL    HW115731   2.587   4.710   1.797
 4944SOL    HW215732   2.679   4.625   1.902
 4945SOL     OW15733   1.311   6.721   5.251
 4945SOL    HW115734   1.382   6.781   5.215
 4945SOL    HW215735   1.255   6.686   5.176
 4946SOL     OW15736   1.050   5.467   0.202
 4946SOL    HW115737   0.991   5.397   0.161
 4946SOL    HW215738   1.126   5.422   0.250
 4947SOL     OW15739   2.487   0.374   0.848
 4947SOL    HW115740   2.404   0.400   0.897
 4947SOL    HW215741   2.481   0.403   0.753
 4948SOL     OW15742   2.252   2.315   2.425
 4948SOL    HW115743   2.320   2.363   2.369
 4948SOL    HW215744   2.173   2.374   2.439
 4949SOL     OW15745   6.580   4.046   5.675
 4949SOL    HW115746   6.663   4.013   5.629
 4949SOL    HW215747   6.606   4.098   5.756
 4950SOL     OW15748   2.030   4.409   5.306
 4950SOL    HW115749   2.108   4.384   5.248
 4950SOL    HW215750   1.965   4.333   5.308
 4951SOL     OW15751   6.354   1.039   4.254
 4951SOL    HW115752   6.282   1.049   4.186
 4951SOL    HW215753   6.352   0.947   4.293
 4952SOL     OW15754   0.011   6.897   6.296
 4952SOL    HW115755   0.086   6.915   6.360
 4952SOL    HW215756   6.986   6.980   6.282
 4953SOL     OW15757   1.321   6.986   3.741
 4953SOL    HW115758   1.230   6.990   3.780
 4953SOL    HW215759   1.363   0.049   3.744
 4954SOL     OW15760   3.091   3.405   6.914
 4954SOL    HW115761   3.007   3.369   6.955
 4954SOL    HW215762   3.136   3.467   6.979
 4955SOL     OW15763   2.638   6.638   7.001
 4955SOL    HW115764   2.619   6.680   6.913
 4955SOL    HW215765   2.563   6.576   7.025
 4956SOL     OW15766   2.854   6.912   5.639
 4956SOL    HW115767   2.827   6.943   5.548
 4956SOL    HW215768   2.775   6.912   5.699
 4957SOL     OW15769   6.001   2.631   1.733
 4957SOL    HW115770   5.944   2.640   1.652
 4957SOL    HW215771   6.097   2.617   1.706
 4958SOL     OW15772   0.881   5.228   6.168
 4958SOL    HW115773   0.922   5.302   6.114
 4958SOL    HW215774   0.828   5.268   6.243
 4959SOL     OW15775   6.175   1.723   0.462
 4959SOL    HW115776   6.200   1.651   0.397
 4959SOL    HW215777   6.232   1.714   0.544
 4960SOL     OW15778   3.978   4.850   3.704
 4960SOL    HW115779   3.888   4.891   3.717
 4960SOL    HW215780   4.017   4.826   3.793
 4961SOL     OW15781   3.516   0.797   5.901
 4961SOL    HW115782   3.559   0.718   5.946
 4961SOL    HW215783   3.568   0.880   5.921
 4962SOL     OW15784   5.956   2.804   0.581
 4962SOL    HW115785   5.948   2.705   0.582
 4962SOL    HW215786   6.023   2.833   0.650
 4963SOL     OW15787   0.618   5.828   0.502
 4963SOL    HW115788   0.585   5.823   0.408
 4963SOL    HW215789   0.694   5.764   0.515
 4964SOL     OW15790   2.422   0.233   4.803
 4964SOL    HW115791   2.357   0.309   4.808
 4964SOL    HW215792   2.416   0.190   4.713
 4965SOL     OW15793   0.787   0.130   1.850
 4965SOL    HW115794   0.833   0.078   1.777
 4965SOL    HW215795   0.854   0.188   1.896
 4966SOL     OW15796   2.656   6.478   5.252
 4966SOL    HW115797   2.749   6.489   5.286
 4966SOL    HW215798   2.652   6.400   5.190
 4967SOL     OW15799   3.628   4.856   5.555
 4967SOL    HW115800   3.551   4.881   5.613
 4967SOL    HW215801   3.713   4.875   5.603
 4968SOL     OW15802   0.054   1.095   3.556
 4968SOL    HW115803   7.008   1.160   3.539
 4968SOL    HW215804   0.142   1.143   3.557
 4969SOL     OW15805   1.949   6.052   2.820
 4969SOL    HW115806   1.914   6.014   2.906
 4969SOL    HW215807   1.874   6.059   2.754
 4970SOL     OW15808   2.833   2.031   1.299
 4970SOL    HW115809   2.776   2.099   1.344
 4970SOL    HW215810   2.786   1.943   1.299
 4971SOL     OW15811   6.064   5.403   3.149
 4971SOL    HW115812   6.010   5.434   3.071
 4971SOL    HW215813   6.159   5.430   3.137
 4972SOL     OW15814   0.954   3.593   1.349
 4972SOL    HW115815   0.979   3.506   1.392
 4972SOL    HW215816   1.004   3.603   1.263
 4973SOL     OW15817   1.705   0.319   1.896
 4973SOL    HW115818   1.739   0.227   1.879
 4973SOL    HW215819   1.610   0.314   1.929
 4974SOL     OW15820   6.931   4.598   0.703
 4974SOL    HW115821   6.851   4.585   0.645
 4974SOL    HW215822   6.910   4.665   0.774
 4975SOL     OW15823   6.119   3.883   5.740
 4975SOL    HW115824   6.111   3.784   5.756
 4975SOL    HW215825   6.087   3.932   5.822
 4976SOL     OW15826   2.350   1.815   4.043
 4976SOL    HW115827   2.344   1.760   4.126
 4976SOL    HW215828   2.401   1.765   3.973
 4977SOL     OW15829   4.760   5.026   0.062
 4977SOL    HW115830   4.732   4.931   0.050
 4977SOL    HW215831   4.831   5.032   0.132
 4978SOL     OW15832   6.520   4.441   5.325
 4978SOL    HW115833   6.528   4.532   5.366
 4978SOL    HW215834   6.611   4.407   5.302
 4979SOL     OW15835   6.611   6.845   5.761
 4979SOL    HW115836   6.630   6.817   5.855
 4979SOL    HW215837   6.512   6.852   5.748
 4980SOL     OW15838   5.184   5.464   3.193
 4980SOL    HW115839   5.114   5.392   3.196
 4980SOL    HW215840   5.249   5.450   3.267
 4981SOL     OW15841   4.039   5.138   0.941
 4981SOL    HW115842   4.014   5.049   0.902
 4981SOL    HW215843   3.957   5.188   0.967
 4982SOL     OW15844   3.382   1.249   6.151
 4982SOL    HW115845   3.375   1.348   6.152
 4982SOL    HW215846   3.447   1.220   6.082
 4983SOL     OW15847   6.267   3.409   5.870
 4983SOL    HW115848   6.354   3.370   5.838
 4983SOL    HW215849   6.234   3.357   5.948
 4984SOL     OW15850   5.869   4.360   3.267
 4984SOL    HW115851   5.813   4.430   3.311
 4984SOL    HW215852   5.902   4.295   3.336
 4985SOL     OW15853   5.801   6.955   3.014
 4985SOL    HW115854   5.813   6.900   2.931
 4985SOL    HW215855   5.885   6.952   3.068
 4986SOL     OW15856   0.071   4.975   0.851
 4986SOL    HW115857   0.136   4.900   0.839
 4986SOL    HW215858   0.114   5.062   0.826
 4987SOL     OW15859   0.186   6.525   2.456
 4987SOL    HW115860   0.280   6.505   2.486
 4987SOL    HW215861   0.122   6.490   2.525
 4988SOL     OW15862   5.349   0.976   2.719
 4988SOL    HW115863   5.259   0.934   2.704
 4988SOL    HW215864   5.406   0.915   2.773
 4989SOL     OW15865   5.413   6.492   1.238
 4989SOL    HW115866   5.313   6.486   1.241
 4989SOL    HW215867   5.448   6.425   1.173
 4990SOL     OW15868   2.680   2.222   5.995
 4990SOL    HW115869   2.689   2.302   6.054
 4990SOL    HW215870   2.584   2.209   5.970
 4991SOL     OW15871   6.503   5.394   3.775
 4991SOL    HW115872   6.494   5.302   3.812
 4991SOL    HW215873   6.511   5.390   3.676
 4992SOL     OW15874   4.610   0.543   1.939
 4992SOL    HW115875   4.600   0.445   1.955
 4992SOL    HW215876   4.677   0.581   2.002
 4993SOL     OW15877   3.647   5.907   5.108
 4993SOL    HW115878   3.720   5.867   5.164
 4993SOL    HW215879   3.650   5.867   5.016
 4994SOL     OW15880   1.641   0.361   4.661
 4994SOL    HW115881   1.545   0.373   4.633
 4994SOL    HW215882   1.691   0.313   4.589
 4995SOL     OW15883   0.661   1.926   5.324
 4995SOL    HW115884   0.612   2.011   5.344
 4995SOL    HW215885   0.627   1.888   5.238
 4996SOL     OW15886   0.290   1.400   2.992
 4996SOL    HW115887   0.275   1.303   2.971
 4996SOL    HW215888   0.267   1.417   3.088
 4997SOL     OW15889   4.667   2.628   2.319
 4997SOL    HW115890   4.632   2.534   2.326
 4997SOL    HW215891   4.712   2.653   2.405
 4998SOL     OW15892   2.106   3.402   5.131
 4998SOL    HW115893   2.150   3.322   5.170
 4998SOL    HW215894   2.125   3.482   5.188
 4999SOL     OW15895   6.744   3.657   6.060
 4999SOL    HW115896   6.824   3.599   6.074
 4999SOL    HW215897   6.703   3.637   5.971
 5000SOL     OW15898   3.573   6.861   3.171
 5000SOL    HW115899   3.555   6.770   3.134
 5000SOL    HW215900   3.659   6.896   3.134
 5001SOL     OW15901   0.706   4.331   2.070
 5001SOL    HW115902   0.667   4.348   2.160
 5001SOL    HW215903   0.651   4.377   2.000
 5002SOL     OW15904   0.988   3.343   2.074
 5002SOL    HW115905   0.954   3.436   2.065
 5002SOL    HW215906   1.086   3.341   2.057
 5003SOL     OW15907   3.249   5.310   2.828
 5003SOL    HW115908   3.184   5.273   2.895
 5003SOL    HW215909   3.286   5.235   2.773
 5004SOL     OW15910   2.789   4.889   5.148
 5004SOL    HW115911   2.822   4.892   5.243
 5004SOL    HW215912   2.820   4.804   5.105
 5005SOL     OW15913   3.524   2.889   0.974
 5005SOL    HW115914   3.525   2.795   0.941
 5005SOL    HW215915   3.440   2.934   0.942
 5006SOL     OW15916   4.852   0.548   1.222
 5006SOL    HW115917   4.808   0.525   1.309
 5006SOL    HW215918   4.876   0.645   1.222
 5007SOL     OW15919   0.959   6.441   0.751
 5007SOL    HW115920   0.924   6.444   0.657
 5007SOL    HW215921   0.931   6.524   0.799
 5008SOL     OW15922   5.464   6.312   1.493
 5008SOL    HW115923   5.549   6.324   1.544
 5008SOL    HW215924   5.455   6.385   1.425
 5009SOL     OW15925   0.417   1.162   0.528
 5009SOL    HW115926   0.390   1.147   0.433
 5009SOL    HW215927   0.335   1.173   0.585
 5010SOL     OW15928   4.238   3.348   1.798
 5010SOL    HW115929   4.211   3.273   1.859
 5010SOL    HW215930   4.333   3.335   1.771
 5011SOL     OW15931   1.886   4.183   2.063
 5011SOL    HW115932   1.865   4.211   2.157
 5011SOL    HW215933   1.815   4.120   2.030
 5012SOL     OW15934   5.802   3.702   5.549
 5012SOL    HW115935   5.841   3.625   5.499
 5012SOL    HW215936   5.818   3.787   5.498
 5013SOL     OW15937   5.093   1.421   6.855
 5013SOL    HW115938   5.031   1.393   6.781
 5013SOL    HW215939   5.184   1.383   6.838
 5014SOL     OW15940   6.442   4.332   1.185
 5014SOL    HW115941   6.469   4.390   1.109
 5014SOL    HW215942   6.497   4.354   1.266
 5015SOL     OW15943   4.784   1.782   4.677
 5015SOL    HW115944   4.742   1.693   4.664
 5015SOL    HW215945   4.884   1.773   4.675
 5016SOL     OW15946   1.494   2.854   6.887
 5016SOL    HW115947   1.455   2.907   6.963
 5016SOL    HW215948   1.437   2.773   6.871
 5017SOL     OW15949   2.428   2.855   1.097
 5017SOL    HW115950   2.471   2.797   1.167
 5017SOL    HW215951   2.369   2.798   1.039
 5018SOL     OW15952   1.264   4.111   2.298
 5018SOL    HW115953   1.166   4.130   2.303
 5018SOL    HW215954   1.287   4.077   2.207
 5019SOL     OW15955   0.906   5.069   5.839
 5019SOL    HW115956   1.005   5.058   5.834
 5019SOL    HW215957   0.876   5.063   5.935
 5020SOL     OW15958   5.511   0.338   6.965
 5020SOL    HW115959   5.609   0.335   6.949
 5020SOL    HW215960   5.493   0.352   0.035
 5021SOL     OW15961   0.475   1.271   0.048
 5021SOL    HW115962   0.457   1.214   0.127
 5021SOL    HW215963   0.571   1.262   0.020
 5022SOL     OW15964   1.444   0.983   0.730
 5022SOL    HW115965   1.540   0.956   0.716
 5022SOL    HW215966   1.390   0.902   0.751
 5023SOL     OW15967   0.126   3.467   1.600
 5023SOL    HW115968   0.066   3.536   1.559
 5023SOL    HW215969   0.112   3.464   1.698
 5024SOL     OW15970   6.409   5.609   1.598
 5024SOL    HW115971   6.346   5.535   1.623
 5024SOL    HW215972   6.435   5.660   1.679
 5025SOL     OW15973   4.021   1.551   2.792
 5025SOL    HW115974   3.926   1.573   2.768
 5025SOL    HW215975   4.036   1.568   2.890
 5026SOL     OW15976   6.115   6.058   5.262
 5026SOL    HW115977   6.090   6.155   5.267
 5026SOL    HW215978   6.134   6.025   5.355
 5027SOL     OW15979   0.323   6.031   1.648
 5027SOL    HW115980   0.287   5.968   1.580
 5027SOL    HW215981   0.298   6.124   1.624
 5028SOL     OW15982   0.195   2.188   2.429
 5028SOL    HW115983   0.270   2.133   2.465
 5028SOL    HW215984   0.176   2.264   2.492
 5029SOL     OW15985   6.443   2.266   1.993
 5029SOL    HW115986   6.352   2.306   1.999
 5029SOL    HW215987   6.511   2.338   1.983
 5030SOL     OW15988   6.878   6.677   7.014
 5030SOL    HW115989   6.894   6.722   0.074
 5030SOL    HW215990   6.871   6.747   6.942
 5031SOL     OW15991   6.141   0.277   5.908
 5031SOL    HW115992   6.144   0.369   5.866
 5031SOL    HW215993   6.170   0.210   5.840
 5032SOL     OW15994   1.789   2.226   0.119
 5032SOL    HW115995   1.739   2.256   0.038
 5032SOL    HW215996   1.885   2.211   0.095
 5033SOL     OW15997   2.322   6.678   5.427
 5033SOL    HW115998   2.293   6.691   5.332
 5033SOL    HW215999   2.359   6.586   5.437
 5034SOL     OW16000   5.734   0.473   3.663
 5034SOL    HW116001   5.825   0.495   3.698
 5034SOL    HW216002   5.728   0.495   3.566
 5035SOL     OW16003   0.907   3.230   7.011
 5035SOL    HW116004   0.816   3.243   0.025
 5035SOL    HW216005   0.900   3.237   6.912
 5036SOL     OW16006   0.779   5.057   6.738
 5036SOL    HW116007   0.805   4.969   6.778
 5036SOL    HW216008   0.685   5.052   6.704
 5037SOL     OW16009   5.733   4.037   2.140
 5037SOL    HW116010   5.710   3.994   2.053
 5037SOL    HW216011   5.651   4.048   2.195
 5038SOL     OW16012   3.587   3.969   6.170
 5038SOL    HW116013   3.573   3.991   6.074
 5038SOL    HW216014   3.504   3.991   6.222
 5039SOL     OW16015   2.908   4.483   5.825
 5039SOL    HW116016   2.848   4.448   5.753
 5039SOL    HW216017   2.937   4.576   5.802
 5040SOL     OW16018   1.497   6.153   5.777
 5040SOL    HW116019   1.534   6.152   5.870
 5040SOL    HW216020   1.463   6.062   5.754
 5041SOL     OW16021   2.150   1.842   2.658
 5041SOL    HW116022   2.064   1.797   2.631
 5041SOL    HW216023   2.135   1.940   2.666
 5042SOL     OW16024   6.725   2.818   0.181
 5042SOL    HW116025   6.700   2.794   0.088
 5042SOL    HW216026   6.669   2.764   0.245
 5043SOL     OW16027   3.194   0.107   5.925
 5043SOL    HW116028   3.219   0.017   5.959
 5043SOL    HW216029   3.231   0.177   5.987
 5044SOL     OW16030   0.376   6.520   6.985
 5044SOL    HW116031   0.468   6.514   6.945
 5044SOL    HW216032   0.312   6.466   6.932
 5045SOL     OW16033   4.896   0.424   6.519
 5045SOL    HW116034   4.856   0.333   6.505
 5045SOL    HW216035   4.965   0.420   6.591
 5046SOL     OW16036   3.255   4.096   2.681
 5046SOL    HW116037   3.304   4.142   2.606
 5046SOL    HW216038   3.279   3.999   2.682
 5047SOL     OW16039   1.007   4.190   2.309
 5047SOL    HW116040   0.935   4.144   2.258
 5047SOL    HW216041   0.990   4.288   2.311
 5048SOL     OW16042   0.967   1.661   2.763
 5048SOL    HW116043   0.885   1.641   2.816
 5048SOL    HW216044   0.954   1.632   2.668
 5049SOL     OW16045   5.500   2.219   6.186
 5049SOL    HW116046   5.462   2.304   6.221
 5049SOL    HW216047   5.555   2.238   6.105
 5050SOL     OW16048   1.730   1.638   1.395
 5050SOL    HW116049   1.726   1.737   1.405
 5050SOL    HW216050   1.686   1.595   1.474
 5051SOL     OW16051   4.797   4.782   0.850
 5051SOL    HW116052   4.700   4.759   0.842
 5051SOL    HW216053   4.810   4.844   0.927
 5052SOL     OW16054   2.176   1.236   6.111
 5052SOL    HW116055   2.160   1.332   6.090
 5052SOL    HW216056   2.195   1.225   6.208
 5053SOL     OW16057   2.113   3.799   3.333
 5053SOL    HW116058   2.144   3.859   3.407
 5053SOL    HW216059   2.151   3.707   3.346
 5054SOL     OW16060   3.683   5.541   5.223
 5054SOL    HW116061   3.665   5.485   5.142
 5054SOL    HW216062   3.652   5.492   5.305
 5055SOL     OW16063   1.980   2.061   5.806
 5055SOL    HW116064   2.043   2.079   5.882
 5055SOL    HW216065   1.887   2.085   5.834
 5056SOL     OW16066   6.566   4.094   6.758
 5056SOL    HW116067   6.578   4.118   6.661
 5056SOL    HW216068   6.494   4.152   6.797
 5057SOL     OW16069   6.827   5.658   3.971
 5057SOL    HW116070   6.819   5.743   4.023
 5057SOL    HW216071   6.924   5.639   3.953
 5058SOL     OW16072   2.736   3.441   5.614
 5058SOL    HW116073   2.695   3.484   5.534
 5058SOL    HW216074   2.738   3.342   5.602
 5059SOL     OW16075   5.787   1.208   3.859
 5059SOL    HW116076   5.774   1.256   3.773
 5059SOL    HW216077   5.708   1.223   3.918
 5060SOL     OW16078   0.697   2.023   5.639
 5060SOL    HW116079   0.754   1.997   5.561
 5060SOL    HW216080   0.614   2.067   5.607
 5061SOL     OW16081   4.248   2.394   1.791
 5061SOL    HW116082   4.239   2.491   1.766
 5061SOL    HW216083   4.159   2.358   1.816
 5062SOL     OW16084   5.142   0.942   3.086
 5062SOL    HW116085   5.093   0.868   3.132
 5062SOL    HW216086   5.080   0.989   3.023
 5063SOL     OW16087   1.147   6.763   2.101
 5063SOL    HW116088   1.216   6.812   2.047
 5063SOL    HW216089   1.104   6.692   2.045
 5064SOL     OW16090   5.077   4.001   1.444
 5064SOL    HW116091   5.057   4.095   1.416
 5064SOL    HW216092   5.094   3.945   1.363
 5065SOL     OW16093   1.824   0.376   3.840
 5065SOL    HW116094   1.842   0.335   3.930
 5065SOL    HW216095   1.807   0.303   3.774
 5066SOL     OW16096   4.843   5.029   1.983
 5066SOL    HW116097   4.813   5.123   1.971
 5066SOL    HW216098   4.807   4.973   1.908
 5067SOL     OW16099   4.671   1.015   1.325
 5067SOL    HW116100   4.745   0.962   1.367
 5067SOL    HW216101   4.662   1.103   1.372
 5068SOL     OW16102   3.512   4.549   0.284
 5068SOL    HW116103   3.564   4.533   0.200
 5068SOL    HW216104   3.574   4.552   0.362
 5069SOL     OW16105   2.107   3.665   5.751
 5069SOL    HW116106   2.075   3.640   5.660
 5069SOL    HW216107   2.160   3.750   5.745
 5070SOL     OW16108   4.537   4.943   4.112
 5070SOL    HW116109   4.575   4.968   4.023
 5070SOL    HW216110   4.584   4.861   4.147
 5071SOL     OW16111   4.133   2.264   2.995
 5071SOL    HW116112   4.185   2.234   3.075
 5071SOL    HW216113   4.035   2.253   3.014
 5072SOL     OW16114   1.171   0.076   1.140
 5072SOL    HW116115   1.129   7.015   1.156
 5072SOL    HW216116   1.128   0.120   1.061
 5073SOL     OW16117   0.142   5.729   1.840
 5073SOL    HW116118   0.103   5.678   1.917
 5073SOL    HW216119   0.206   5.797   1.874
 5074SOL     OW16120   3.307   2.917   1.191
 5074SOL    HW116121   3.296   2.874   1.281
 5074SOL    HW216122   3.399   2.953   1.182
 5075SOL     OW16123   1.173   2.069   6.560
 5075SOL    HW116124   1.234   2.065   6.639
 5075SOL    HW216125   1.227   2.059   6.476
 5076SOL     OW16126   4.074   1.173   1.033
 5076SOL    HW116127   4.148   1.150   0.969
 5076SOL    HW216128   4.101   1.147   1.126
 5077SOL     OW16129   1.686   4.640   5.579
 5077SOL    HW116130   1.769   4.593   5.548
 5077SOL    HW216131   1.710   4.731   5.613
 5078SOL     OW16132   1.244   0.509   4.227
 5078SOL    HW116133   1.183   0.438   4.190
 5078SOL    HW216134   1.294   0.472   4.305
 5079SOL     OW16135   2.344   3.032   6.403
 5079SOL    HW116136   2.322   3.036   6.305
 5079SOL    HW216137   2.433   3.077   6.419
 5080SOL     OW16138   6.193   6.615   6.071
 5080SOL    HW116139   6.194   6.699   6.125
 5080SOL    HW216140   6.181   6.637   5.975
 5081SOL     OW16141   3.078   3.029   4.814
 5081SOL    HW116142   3.002   2.964   4.810
 5081SOL    HW216143   3.041   3.122   4.819
 5082SOL     OW16144   4.548   5.947   0.673
 5082SOL    HW116145   4.623   5.892   0.636
 5082SOL    HW216146   4.578   6.041   0.685
 5083SOL     OW16147   1.956   6.832   2.587
 5083SOL    HW116148   1.981   6.853   2.493
 5083SOL    HW216149   1.884   6.894   2.617
 5084SOL     OW16150   0.270   4.793   4.641
 5084SOL    HW116151   0.200   4.754   4.581
 5084SOL    HW216152   0.352   4.814   4.587
 5085SOL     OW16153   4.905   3.111   6.788
 5085SOL    HW116154   4.868   3.194   6.746
 5085SOL    HW216155   4.836   3.071   6.848
 5086SOL     OW16156   1.056   5.623   3.112
 5086SOL    HW116157   1.156   5.613   3.116
 5086SOL    HW216158   1.021   5.640   3.204
 5087SOL     OW16159   1.333   5.266   2.164
 5087SOL    HW116160   1.289   5.231   2.082
 5087SOL    HW216161   1.381   5.191   2.211
 5088SOL     OW16162   6.705   1.086   5.190
 5088SOL    HW116163   6.663   1.055   5.105
 5088SOL    HW216164   6.801   1.061   5.191
 5089SOL     OW16165   4.995   3.678   4.326
 5089SOL    HW116166   4.996   3.739   4.406
 5089SOL    HW216167   4.982   3.733   4.244
 5090SOL     OW16168   2.050   4.012   2.559
 5090SOL    HW116169   2.043   3.914   2.541
 5090SOL    HW216170   1.959   4.053   2.557
 5091SOL     OW16171   0.548   0.223   2.528
 5091SOL    HW116172   0.642   0.249   2.507
 5091SOL    HW216173   0.488   0.301   2.510
 5092SOL     OW16174   3.837   3.252   1.899
 5092SOL    HW116175   3.794   3.180   1.844
 5092SOL    HW216176   3.767   3.318   1.927
 5093SOL     OW16177   2.508   1.406   1.629
 5093SOL    HW116178   2.546   1.316   1.608
 5093SOL    HW216179   2.579   1.464   1.667
 5094SOL     OW16180   2.326   5.612   5.548
 5094SOL    HW116181   2.341   5.709   5.530
 5094SOL    HW216182   2.320   5.562   5.462
 5095SOL     OW16183   5.915   2.570   4.760
 5095SOL    HW116184   5.921   2.591   4.857
 5095SOL    HW216185   5.834   2.612   4.721
 5096SOL     OW16186   4.413   4.152   0.557
 5096SOL    HW116187   4.409   4.252   0.551
 5096SOL    HW216188   4.416   4.124   0.653
 5097SOL     OW16189   1.309   0.731   6.635
 5097SOL    HW116190   1.234   0.668   6.615
 5097SOL    HW216191   1.300   0.764   6.730
 5098SOL     OW16192   1.700   0.816   1.662
 5098SOL    HW116193   1.658   0.797   1.750
 5098SOL    HW216194   1.629   0.815   1.591
 5099SOL     OW16195   0.639   6.165   6.933
 5099SOL    HW116196   0.553   6.133   6.973
 5099SOL    HW216197   0.715   6.116   6.976
 5100SOL     OW16198   4.293   5.558   5.753
 5100SOL    HW116199   4.298   5.502   5.670
 5100SOL    HW216200   4.222   5.628   5.741
 5101SOL     OW16201   4.882   6.306   0.130
 5101SOL    HW116202   4.841   6.219   0.156
 5101SOL    HW216203   4.826   6.381   0.163
 5102SOL     OW16204   5.227   0.571   4.073
 5102SOL    HW116205   5.302   0.566   4.008
 5102SOL    HW216206   5.152   0.626   4.034
 5103SOL     OW16207   0.237   1.789   4.211
 5103SOL    HW116208   0.138   1.777   4.220
 5103SOL    HW216209   0.256   1.882   4.179
 5104SOL     OW16210   1.600   6.826   2.711
 5104SOL    HW116211   1.631   6.915   2.677
 5104SOL    HW216212   1.674   6.760   2.703
 5105SOL     OW16213   3.718   3.027   0.421
 5105SOL    HW116214   3.671   2.941   0.438
 5105SOL    HW216215   3.659   3.103   0.449
 5106SOL     OW16216   3.367   1.039   0.225
 5106SOL    HW116217   3.275   1.062   0.193
 5106SOL    HW216218   3.395   1.105   0.294
 5107SOL     OW16219   3.419   0.647   0.547
 5107SOL    HW116220   3.511   0.685   0.546
 5107SOL    HW216221   3.383   0.644   0.454
 5108SOL     OW16222   3.029   3.898   4.864
 5108SOL    HW116223   2.966   3.894   4.787
 5108SOL    HW216224   3.071   3.808   4.878
 5109SOL     OW16225   1.258   0.770   0.764
 5109SOL    HW116226   1.345   0.741   0.805
 5109SOL    HW216227   1.236   0.710   0.688
 5110SOL     OW16228   0.508   0.573   6.596
 5110SOL    HW116229   0.453   0.491   6.607
 5110SOL    HW216230   0.502   0.605   6.501
 5111SOL     OW16231   2.536   1.590   5.513
 5111SOL    HW116232   2.483   1.518   5.557
 5111SOL    HW216233   2.499   1.679   5.540
 5112SOL     OW16234   0.896   6.810   3.087
 5112SOL    HW116235   0.984   6.857   3.093
 5112SOL    HW216236   0.887   6.765   2.998
 5113SOL     OW16237   2.306   6.628   1.325
 5113SOL    HW116238   2.365   6.631   1.405
 5113SOL    HW216239   2.337   6.694   1.257
 5114SOL     OW16240   3.252   1.858   0.239
 5114SOL    HW116241   3.274   1.920   0.163
 5114SOL    HW216242   3.261   1.764   0.209
 5115SOL     OW16243   2.236   5.005   4.207
 5115SOL    HW116244   2.320   4.961   4.176
 5115SOL    HW216245   2.250   5.046   4.297
 5116SOL     OW16246   5.819   6.828   6.518
 5116SOL    HW116247   5.779   6.912   6.481
 5116SOL    HW216248   5.918   6.840   6.529
 5117SOL     OW16249   2.986   4.865   4.894
 5117SOL    HW116250   2.915   4.810   4.937
 5117SOL    HW216251   3.004   4.830   4.802
 5118SOL     OW16252   5.070   0.695   0.337
 5118SOL    HW116253   5.022   0.644   0.266
 5118SOL    HW216254   5.154   0.647   0.362
 5119SOL     OW16255   5.187   0.909   1.790
 5119SOL    HW116256   5.132   0.835   1.828
 5119SOL    HW216257   5.278   0.908   1.832
 5120SOL     OW16258   4.090   1.703   4.059
 5120SOL    HW116259   4.072   1.618   4.009
 5120SOL    HW216260   4.108   1.777   3.995
 5121SOL     OW16261   2.417   2.084   0.037
 5121SOL    HW116262   2.463   2.166   0.004
 5121SOL    HW216263   2.430   2.009   6.999
 5122SOL     OW16264   2.975   0.047   3.112
 5122SOL    HW116265   2.895   0.103   3.090
 5122SOL    HW216266   2.976   0.029   3.211
 5123SOL     OW16267   5.654   1.568   5.283
 5123SOL    HW116268   5.585   1.511   5.238
 5123SOL    HW216269   5.624   1.588   5.377
 5124SOL     OW16270   3.202   5.019   4.793
 5124SOL    HW116271   3.109   4.986   4.808
 5124SOL    HW216272   3.248   5.029   4.881
 5125SOL     OW16273   6.785   3.227   4.038
 5125SOL    HW116274   6.749   3.134   4.035
 5125SOL    HW216275   6.769   3.266   4.129
 5126SOL     OW16276   6.107   5.347   5.795
 5126SOL    HW116277   6.135   5.290   5.872
 5126SOL    HW216278   6.051   5.423   5.828
 5127SOL     OW16279   0.719   3.984   0.398
 5127SOL    HW116280   0.629   3.949   0.370
 5127SOL    HW216281   0.788   3.955   0.332
 5128SOL     OW16282   6.926   0.593   0.049
 5128SOL    HW116283   6.987   0.543   0.110
 5128SOL    HW216284   6.908   0.538   6.995
 5129SOL     OW16285   4.660   0.113   2.920
 5129SOL    HW116286   4.576   0.059   2.926
 5129SOL    HW216287   4.682   0.130   2.824
 5130SOL     OW16288   1.561   5.450   3.959
 5130SOL    HW116289   1.529   5.368   4.006
 5130SOL    HW216290   1.602   5.424   3.871
 5131SOL     OW16291   2.816   4.957   4.065
 5131SOL    HW116292   2.879   5.032   4.046
 5131SOL    HW216293   2.740   4.960   4.000
 5132SOL     OW16294   3.608   1.860   6.458
 5132SOL    HW116295   3.571   1.866   6.366
 5132SOL    HW216296   3.624   1.764   6.482
 5133SOL     OW16297   2.347   4.875   6.728
 5133SOL    HW116298   2.394   4.821   6.798
 5133SOL    HW216299   2.395   4.962   6.714
 5134SOL     OW16300   6.453   0.774   1.738
 5134SOL    HW116301   6.491   0.866   1.732
 5134SOL    HW216302   6.517   0.714   1.785
 5135SOL     OW16303   4.951   3.407   4.297
 5135SOL    HW116304   4.886   3.384   4.224
 5135SOL    HW216305   4.968   3.505   4.297
 5136SOL     OW16306   5.308   0.653   6.543
 5136SOL    HW116307   5.217   0.691   6.526
 5136SOL    HW216308   5.344   0.691   6.628
 5137SOL     OW16309   5.254   3.267   5.504
 5137SOL    HW116310   5.205   3.269   5.418
 5137SOL    HW216311   5.344   3.225   5.491
 5138SOL     OW16312   3.945   3.916   4.505
 5138SOL    HW116313   3.860   3.968   4.508
 5138SOL    HW216314   4.003   3.950   4.431
 5139SOL     OW16315   0.682   6.918   4.298
 5139SOL    HW116316   0.711   7.011   4.274
 5139SOL    HW216317   0.643   6.874   4.217
 5140SOL     OW16318   3.698   1.757   5.907
 5140SOL    HW116319   3.714   1.849   5.871
 5140SOL    HW216320   3.782   1.723   5.950
 5141SOL     OW16321   6.604   3.463   1.458
 5141SOL    HW116322   6.662   3.448   1.538
 5141SOL    HW216323   6.522   3.405   1.465
 5142SOL     OW16324   5.399   6.327   4.219
 5142SOL    HW116325   5.492   6.358   4.236
 5142SOL    HW216326   5.361   6.377   4.141
 5143SOL     OW16327   0.523   4.400   4.473
 5143SOL    HW116328   0.539   4.314   4.425
 5143SOL    HW216329   0.593   4.467   4.446
 5144SOL     OW16330   1.426   4.874   5.634
 5144SOL    HW116331   1.337   4.845   5.598
 5144SOL    HW216332   1.487   4.893   5.557
 5145SOL     OW16333   3.717   5.823   6.431
 5145SOL    HW116334   3.718   5.793   6.336
 5145SOL    HW216335   3.642   5.888   6.445
 5146SOL     OW16336   3.433   3.915   5.360
 5146SOL    HW116337   3.533   3.909   5.357
 5146SOL    HW216338   3.401   3.961   5.277
 5147SOL     OW16339   6.333   5.832   4.002
 5147SOL    HW116340   6.365   5.739   3.984
 5147SOL    HW216341   6.380   5.896   3.942
 5148SOL     OW16342   0.068   1.028   2.163
 5148SOL    HW116343   0.065   1.063   2.256
 5148SOL    HW216344   0.100   1.099   2.101
 5149SOL     OW16345   6.119   5.538   4.644
 5149SOL    HW116346   6.143   5.498   4.556
 5149SOL    HW216347   6.202   5.553   4.698
 5150SOL     OW16348   2.041   5.015   3.654
 5150SOL    HW116349   1.999   5.013   3.745
 5150SOL    HW216350   2.022   5.103   3.611
 5151SOL     OW16351   0.285   4.034   1.885
 5151SOL    HW116352   0.246   4.023   1.976
 5151SOL    HW216353   0.385   4.037   1.892
 5152SOL     OW16354   1.973   5.235   6.964
 5152SOL    HW116355   2.024   5.219   0.021
 5152SOL    HW216356   1.934   5.327   6.966
 5153SOL     OW16357   0.681   1.954   1.164
 5153SOL    HW116358   0.743   1.888   1.120
 5153SOL    HW216359   0.735   2.017   1.220
 5154SOL     OW16360   1.095   2.692   5.923
 5154SOL    HW116361   1.051   2.781   5.935
 5154SOL    HW216362   1.178   2.704   5.868
 5155SOL     OW16363   3.692   0.159   2.120
 5155SOL    HW116364   3.718   0.111   2.036
 5155SOL    HW216365   3.754   0.131   2.194
 5156SOL     OW16366   5.669   4.604   5.240
 5156SOL    HW116367   5.722   4.640   5.317
 5156SOL    HW216368   5.610   4.530   5.271
 5157SOL     OW16369   3.214   2.109   2.888
 5157SOL    HW116370   3.162   2.167   2.950
 5157SOL    HW216371   3.286   2.062   2.938
 5158SOL     OW16372   4.262   2.292   1.203
 5158SOL    HW116373   4.328   2.273   1.131
 5158SOL    HW216374   4.291   2.249   1.288
 5159SOL     OW16375   6.108   3.061   5.646
 5159SOL    HW116376   6.035   3.128   5.631
 5159SOL    HW216377   6.090   2.979   5.593
 5160SOL     OW16378   0.141   4.526   3.330
 5160SOL    HW116379   0.061   4.468   3.342
 5160SOL    HW216380   0.113   4.615   3.294
 5161SOL     OW16381   2.163   3.437   6.992
 5161SOL    HW116382   2.210   3.351   6.974
 5161SOL    HW216383   2.122   3.435   0.056
 5162SOL     OW16384   0.946   5.334   2.934
 5162SOL    HW116385   0.888   5.411   2.959
 5162SOL    HW216386   0.977   5.346   2.839
 5163SOL     OW16387   3.183   6.816   0.533
 5163SOL    HW116388   3.088   6.830   0.507
 5163SOL    HW216389   3.188   6.797   0.632
 5164SOL     OW16390   3.842   3.286   0.376
 5164SOL    HW116391   3.793   3.200   0.368
 5164SOL    HW216392   3.823   3.343   0.296
 5165SOL     OW16393   0.959   3.815   6.410
 5165SOL    HW116394   0.868   3.779   6.390
 5165SOL    HW216395   0.971   3.903   6.362
 5166SOL     OW16396   1.948   5.057   2.294
 5166SOL    HW116397   2.032   5.007   2.313
 5166SOL    HW216398   1.968   5.155   2.284
 5167SOL     OW16399   6.150   4.249   5.743
 5167SOL    HW116400   6.230   4.230   5.687
 5167SOL    HW216401   6.111   4.163   5.776
 5168SOL     OW16402   5.195   3.474   2.520
 5168SOL    HW116403   5.110   3.459   2.570
 5168SOL    HW216404   5.234   3.386   2.493
 5169SOL     OW16405   3.834   2.111   3.338
 5169SOL    HW116406   3.742   2.109   3.378
 5169SOL    HW216407   3.868   2.017   3.329
 5170SOL     OW16408   1.266   3.618   4.976
 5170SOL    HW116409   1.241   3.692   4.914
 5170SOL    HW216410   1.283   3.655   5.067
 5171SOL     OW16411   0.528   3.734   6.084
 5171SOL    HW116412   0.587   3.800   6.039
 5171SOL    HW216413   0.489   3.775   6.167
 5172SOL     OW16414   1.721   3.439   2.446
 5172SOL    HW116415   1.818   3.415   2.443
 5172SOL    HW216416   1.676   3.405   2.363
 5173SOL     OW16417   3.921   5.368   5.444
 5173SOL    HW116418   3.920   5.334   5.350
 5173SOL    HW216419   3.891   5.295   5.506
 5174SOL     OW16420   2.441   4.792   3.387
 5174SOL    HW116421   2.352   4.747   3.383
 5174SOL    HW216422   2.429   4.891   3.382
 5175SOL     OW16423   2.859   3.768   6.206
 5175SOL    HW116424   2.855   3.692   6.270
 5175SOL    HW216425   2.932   3.830   6.233
 5176SOL     OW16426   5.257   3.852   6.908
 5176SOL    HW116427   5.276   3.754   6.907
 5176SOL    HW216428   5.303   3.896   6.830
 5177SOL     OW16429   5.192   6.813   0.651
 5177SOL    HW116430   5.112   6.757   0.673
 5177SOL    HW216431   5.164   6.908   0.637
 5178SOL     OW16432   1.352   4.133   2.642
 5178SOL    HW116433   1.329   4.079   2.561
 5178SOL    HW216434   1.323   4.083   2.724
 5179SOL     OW16435   4.682   4.414   3.986
 5179SOL    HW116436   4.586   4.433   3.967
 5179SOL    HW216437   4.691   4.377   4.079
 5180SOL     OW16438   3.257   1.510   1.317
 5180SOL    HW116439   3.298   1.419   1.324
 5180SOL    HW216440   3.321   1.572   1.273
 5181SOL     OW16441   5.402   0.680   2.377
 5181SOL    HW116442   5.381   0.777   2.360
 5181SOL    HW216443   5.425   0.636   2.291
 5182SOL     OW16444   4.467   4.617   2.120
 5182SOL    HW116445   4.519   4.630   2.205
 5182SOL    HW216446   4.487   4.527   2.082
 5183SOL     OW16447   3.462   1.757   2.897
 5183SOL    HW116448   3.398   1.750   2.974
 5183SOL    HW216449   3.465   1.669   2.849
 5184SOL     OW16450   1.392   2.431   3.526
 5184SOL    HW116451   1.440   2.471   3.447
 5184SOL    HW216452   1.294   2.445   3.515
 5185SOL     OW16453   5.052   1.130   2.867
 5185SOL    HW116454   4.992   1.191   2.814
 5185SOL    HW216455   5.098   1.067   2.805
 5186SOL     OW16456   5.996   1.126   6.514
 5186SOL    HW116457   6.066   1.183   6.471
 5186SOL    HW216458   5.917   1.183   6.536
 5187SOL     OW16459   1.383   6.038   5.233
 5187SOL    HW116460   1.310   5.993   5.285
 5187SOL    HW216461   1.417   6.117   5.285
 5188SOL     OW16462   6.824   5.745   1.492
 5188SOL    HW116463   6.887   5.818   1.466
 5188SOL    HW216464   6.730   5.780   1.489
 5189SOL     OW16465   4.341   5.834   0.827
 5189SOL    HW116466   4.326   5.744   0.788
 5189SOL    HW216467   4.403   5.886   0.768
 5190SOL     OW16468   0.765   3.421   4.342
 5190SOL    HW116469   0.672   3.412   4.305
 5190SOL    HW216470   0.823   3.349   4.304
 5191SOL     OW16471   3.494   6.766   2.412
 5191SOL    HW116472   3.505   6.854   2.460
 5191SOL    HW216473   3.559   6.761   2.336
 5192SOL     OW16474   1.703   5.803   1.453
 5192SOL    HW116475   1.667   5.716   1.486
 5192SOL    HW216476   1.698   5.871   1.526
 5193SOL     OW16477   5.441   5.727   5.894
 5193SOL    HW116478   5.525   5.780   5.904
 5193SOL    HW216479   5.444   5.649   5.957
 5194SOL     OW16480   4.034   2.335   0.185
 5194SOL    HW116481   3.990   2.289   0.108
 5194SOL    HW216482   4.000   2.429   0.192
 5195SOL     OW16483   0.555   0.511   4.136
 5195SOL    HW116484   0.549   0.447   4.060
 5195SOL    HW216485   0.472   0.505   4.192
 5196SOL     OW16486   4.589   7.013   2.004
 5196SOL    HW116487   4.687   6.995   2.006
 5196SOL    HW216488   4.554   7.018   2.098
 5197SOL     OW16489   2.328   3.924   6.584
 5197SOL    HW116490   2.301   3.829   6.596
 5197SOL    HW216491   2.266   3.968   6.519
 5198SOL     OW16492   4.804   6.167   3.476
 5198SOL    HW116493   4.790   6.081   3.525
 5198SOL    HW216494   4.802   6.151   3.378
 5199SOL     OW16495   1.033   6.297   0.357
 5199SOL    HW116496   1.001   6.207   0.385
 5199SOL    HW216497   1.129   6.309   0.385
 5200SOL     OW16498   6.953   3.904   5.417
 5200SOL    HW116499   6.854   3.914   5.417
 5200SOL    HW216500   6.978   3.821   5.367
 5201SOL     OW16501   0.630   6.658   3.048
 5201SOL    HW116502   0.613   6.752   3.018
 5201SOL    HW216503   0.663   6.604   2.971
 5202SOL     OW16504   4.897   2.668   6.433
 5202SOL    HW116505   4.902   2.765   6.457
 5202SOL    HW216506   4.818   2.626   6.478
 5203SOL     OW16507   2.138   2.383   6.670
 5203SOL    HW116508   2.122   2.479   6.650
 5203SOL    HW216509   2.051   2.337   6.687
 5204SOL     OW16510   3.456   5.120   6.661
 5204SOL    HW116511   3.483   5.056   6.588
 5204SOL    HW216512   3.356   5.131   6.660
 5205SOL     OW16513   0.449   6.717   0.607
 5205SOL    HW116514   0.469   6.620   0.601
 5205SOL    HW216515   0.440   6.744   0.703
 5206SOL     OW16516   0.079   4.250   5.699
 5206SOL    HW116517   0.083   4.232   5.601
 5206SOL    HW216518   0.170   4.242   5.739
 5207SOL     OW16519   0.970   6.259   3.712
 5207SOL    HW116520   1.060   6.300   3.694
 5207SOL    HW216521   0.937   6.289   3.802
 5208SOL     OW16522   3.092   2.001   6.574
 5208SOL    HW116523   3.057   1.980   6.482
 5208SOL    HW216524   3.176   1.949   6.590
 5209SOL     OW16525   5.556   6.141   3.519
 5209SOL    HW116526   5.622   6.084   3.568
 5209SOL    HW216527   5.602   6.221   3.482
 5210SOL     OW16528   5.361   2.278   5.500
 5210SOL    HW116529   5.348   2.361   5.446
 5210SOL    HW216530   5.369   2.301   5.597
 5211SOL     OW16531   3.376   2.953   4.743
 5211SOL    HW116532   3.409   2.904   4.824
 5211SOL    HW216533   3.277   2.963   4.748
 5212SOL     OW16534   5.965   1.806   0.591
 5212SOL    HW116535   6.046   1.782   0.537
 5212SOL    HW216536   5.991   1.820   0.686
 5213SOL     OW16537   4.516   3.911   6.913
 5213SOL    HW116538   4.537   3.960   6.828
 5213SOL    HW216539   4.599   3.904   6.969
 5214SOL     OW16540   4.603   1.519   5.584
 5214SOL    HW116541   4.601   1.526   5.484
 5214SOL    HW216542   4.629   1.426   5.610
 5215SOL     OW16543   5.979   4.928   3.331
 5215SOL    HW116544   6.001   5.026   3.333
 5215SOL    HW216545   6.024   4.886   3.252
 5216SOL     OW16546   4.375   5.441   1.695
 5216SOL    HW116547   4.333   5.363   1.743
 5216SOL    HW216548   4.399   5.413   1.602
 5217SOL     OW16549   3.258   5.669   4.546
 5217SOL    HW116550   3.339   5.616   4.523
 5217SOL    HW216551   3.176   5.619   4.517
 5218SOL     OW16552   1.198   0.676   4.020
 5218SOL    HW116553   1.212   0.610   4.093
 5218SOL    HW216554   1.246   0.645   3.937
 5219SOL     OW16555   4.168   0.776   5.796
 5219SOL    HW116556   4.137   0.732   5.880
 5219SOL    HW216557   4.259   0.741   5.772
 5220SOL     OW16558   1.481   5.788   2.522
 5220SOL    HW116559   1.569   5.744   2.506
 5220SOL    HW216560   1.425   5.785   2.439
 5221SOL     OW16561   5.657   1.966   3.881
 5221SOL    HW116562   5.711   2.050   3.873
 5221SOL    HW216563   5.639   1.948   3.978
 5222SOL     OW16564   3.334   6.120   3.534
 5222SOL    HW116565   3.352   6.022   3.543
 5222SOL    HW216566   3.372   6.153   3.448
 5223SOL     OW16567   6.040   1.590   1.331
 5223SOL    HW116568   6.052   1.571   1.233
 5223SOL    HW216569   6.008   1.508   1.377
 5224SOL     OW16570   0.203   2.625   3.962
 5224SOL    HW116571   0.201   2.678   3.877
 5224SOL    HW216572   0.111   2.591   3.982
 5225SOL     OW16573   0.303   0.404   3.137
 5225SOL    HW116574   0.269   0.444   3.052
 5225SOL    HW216575   0.246   0.434   3.213
 5226SOL     OW16576   0.042   5.763   4.854
 5226SOL    HW116577   0.022   5.693   4.785
 5226SOL    HW216578   0.139   5.788   4.848
 5227SOL     OW16579   1.545   3.554   3.964
 5227SOL    HW116580   1.524   3.600   4.050
 5227SOL    HW216581   1.640   3.572   3.940
 5228SOL     OW16582   6.547   2.018   1.211
 5228SOL    HW116583   6.543   2.056   1.118
 5228SOL    HW216584   6.454   2.006   1.245
 5229SOL     OW16585   1.985   5.177   0.208
 5229SOL    HW116586   2.066   5.235   0.222
 5229SOL    HW216587   2.009   5.082   0.225
 5230SOL     OW16588   0.785   6.239   0.708
 5230SOL    HW116589   0.856   6.290   0.756
 5230SOL    HW216590   0.799   6.141   0.721
 5231SOL     OW16591   4.107   3.442   5.061
 5231SOL    HW116592   4.034   3.457   5.128
 5231SOL    HW216593   4.192   3.420   5.109
 5232SOL     OW16594   3.305   2.051   5.666
 5232SOL    HW116595   3.210   2.081   5.656
 5232SOL    HW216596   3.350   2.053   5.576
 5233SOL     OW16597   5.715   0.568   1.750
 5233SOL    HW116598   5.774   0.609   1.681
 5233SOL    HW216599   5.620   0.583   1.726
 5234SOL     OW16600   2.587   0.529   0.018
 5234SOL    HW116601   2.506   0.579   0.049
 5234SOL    HW216602   2.569   0.490   6.956
 5235SOL     OW16603   2.036   3.266   1.069
 5235SOL    HW116604   1.953   3.259   1.125
 5235SOL    HW216605   2.112   3.222   1.116
 5236SOL     OW16606   5.717   3.977   2.664
 5236SOL    HW116607   5.669   3.889   2.660
 5236SOL    HW216608   5.678   4.039   2.596
 5237SOL     OW16609   1.801   0.560   5.124
 5237SOL    HW116610   1.702   0.546   5.122
 5237SOL    HW216611   1.835   0.541   5.216
 5238SOL     OW16612   1.495   4.489   0.790
 5238SOL    HW116613   1.502   4.586   0.771
 5238SOL    HW216614   1.585   4.446   0.780
 5239SOL     OW16615   4.137   3.383   4.326
 5239SOL    HW116616   4.132   3.312   4.257
 5239SOL    HW216617   4.084   3.356   4.407
 5240SOL     OW16618   3.079   1.973   6.285
 5240SOL    HW116619   3.175   1.982   6.258
 5240SOL    HW216620   3.027   2.051   6.250
 5241SOL     OW16621   0.565   5.367   5.908
 5241SOL    HW116622   0.500   5.412   5.847
 5241SOL    HW216623   0.632   5.316   5.854
 5242SOL     OW16624   6.500   6.342   6.392
 5242SOL    HW116625   6.411   6.304   6.369
 5242SOL    HW216626   6.571   6.274   6.374
 5243SOL     OW16627   1.113   5.653   1.732
 5243SOL    HW116628   1.156   5.582   1.788
 5243SOL    HW216629   1.015   5.654   1.749
 5244SOL     OW16630   3.330   4.362   5.928
 5244SOL    HW116631   3.323   4.408   6.016
 5244SOL    HW216632   3.239   4.356   5.887
 5245SOL     OW16633   5.095   4.373   0.288
 5245SOL    HW116634   5.147   4.301   0.335
 5245SOL    HW216635   5.155   4.451   0.271
 5246SOL     OW16636   5.644   4.236   2.511
 5246SOL    HW116637   5.729   4.256   2.558
 5246SOL    HW216638   5.648   4.270   2.417
 5247SOL     OW16639   1.084   6.806   0.289
 5247SOL    HW116640   1.101   6.781   0.385
 5247SOL    HW216641   0.994   6.774   0.261
 5248SOL     OW16642   5.403   0.525   4.408
 5248SOL    HW116643   5.347   0.594   4.363
 5248SOL    HW216644   5.496   0.528   4.370
 5249SOL     OW16645   6.796   4.646   4.606
 5249SOL    HW116646   6.848   4.722   4.565
 5249SOL    HW216647   6.860   4.582   4.648
 5250SOL     OW16648   0.736   1.114   5.599
 5250SOL    HW116649   0.719   1.035   5.658
 5250SOL    HW216650   0.768   1.191   5.654
 5251SOL     OW16651   0.648   3.340   0.409
 5251SOL    HW116652   0.648   3.439   0.393
 5251SOL    HW216653   0.735   3.313   0.450
 5252SOL     OW16654   2.274   5.812   0.827
 5252SOL    HW116655   2.236   5.749   0.895
 5252SOL    HW216656   2.280   5.766   0.739
 5253SOL     OW16657   5.524   3.476   4.848
 5253SOL    HW116658   5.548   3.487   4.944
 5253SOL    HW216659   5.449   3.538   4.824
 5254SOL     OW16660   4.543   1.343   3.157
 5254SOL    HW116661   4.452   1.355   3.117
 5254SOL    HW216662   4.594   1.429   3.150
 5255SOL     OW16663   4.594   0.703   5.833
 5255SOL    HW116664   4.508   0.696   5.784
 5255SOL    HW216665   4.618   0.799   5.845
 5256SOL     OW16666   4.474   0.940   3.511
 5256SOL    HW116667   4.562   0.962   3.551
 5256SOL    HW216668   4.480   0.852   3.463
 5257SOL     OW16669   4.599   6.431   2.016
 5257SOL    HW116670   4.563   6.380   2.094
 5257SOL    HW216671   4.559   6.522   2.014
 5258SOL     OW16672   5.186   3.453   1.553
 5258SOL    HW116673   5.279   3.462   1.518
 5258SOL    HW216674   5.123   3.503   1.494
 5259SOL     OW16675   4.650   5.971   0.930
 5259SOL    HW116676   4.590   5.950   0.853
 5259SOL    HW216677   4.642   5.899   0.999
 5260SOL     OW16678   5.659   3.628   0.801
 5260SOL    HW116679   5.667   3.690   0.723
 5260SOL    HW216680   5.618   3.542   0.771
 5261SOL     OW16681   2.039   3.169   6.746
 5261SOL    HW116682   1.940   3.183   6.753
 5261SOL    HW216683   2.085   3.217   6.821
 5262SOL     OW16684   2.602   0.499   2.901
 5262SOL    HW116685   2.505   0.485   2.923
 5262SOL    HW216686   2.616   0.593   2.872
 5263SOL     OW16687   1.103   0.906   5.303
 5263SOL    HW116688   1.012   0.923   5.266
 5263SOL    HW216689   1.170   0.960   5.253
 5264SOL     OW16690   5.768   1.141   2.251
 5264SOL    HW116691   5.840   1.116   2.317
 5264SOL    HW216692   5.747   1.063   2.193
 5265SOL     OW16693   5.213   4.439   3.328
 5265SOL    HW116694   5.268   4.374   3.275
 5265SOL    HW216695   5.122   4.402   3.343
 5266SOL     OW16696   2.674   0.152   2.159
 5266SOL    HW116697   2.711   0.063   2.187
 5266SOL    HW216698   2.749   0.216   2.144
 5267SOL     OW16699   4.843   4.278   5.624
 5267SOL    HW116700   4.825   4.372   5.652
 5267SOL    HW216701   4.756   4.234   5.599
 5268SOL     OW16702   6.071   6.962   6.482
 5268SOL    HW116703   6.114   7.016   6.553
 5268SOL    HW216704   6.027   7.022   6.416
 5269SOL     OW16705   1.967   6.912   4.391
 5269SOL    HW116706   1.993   7.001   4.354
 5269SOL    HW216707   2.015   6.840   4.340
 5270SOL     OW16708   5.272   1.914   2.129
 5270SOL    HW116709   5.176   1.897   2.104
 5270SOL    HW216710   5.277   1.995   2.187
 5271SOL     OW16711   5.728   5.022   5.173
 5271SOL    HW116712   5.768   5.108   5.204
 5271SOL    HW216713   5.687   4.973   5.251
 5272SOL     OW16714   1.923   6.600   2.154
 5272SOL    HW116715   1.906   6.507   2.121
 5272SOL    HW216716   1.954   6.657   2.078
 5273SOL     OW16717   6.779   3.238   3.098
 5273SOL    HW116718   6.739   3.329   3.103
 5273SOL    HW216719   6.815   3.222   3.006
 5274SOL     OW16720   6.470   6.301   2.392
 5274SOL    HW116721   6.565   6.271   2.403
 5274SOL    HW216722   6.409   6.222   2.399
 5275SOL     OW16723   3.369   2.196   6.462
 5275SOL    HW116724   3.465   2.223   6.466
 5275SOL    HW216725   3.343   2.149   6.546
 5276SOL     OW16726   1.338   0.812   1.097
 5276SOL    HW116727   1.300   0.766   1.178
 5276SOL    HW216728   1.402   0.749   1.051
 5277SOL     OW16729   1.575   2.269   3.138
 5277SOL    HW116730   1.523   2.185   3.123
 5277SOL    HW216731   1.622   2.265   3.226
 5278SOL     OW16732   4.484   0.250   4.051
 5278SOL    HW116733   4.507   0.157   4.023
 5278SOL    HW216734   4.569   0.302   4.067
 5279SOL     OW16735   1.553   5.165   6.554
 5279SOL    HW116736   1.557   5.128   6.647
 5279SOL    HW216737   1.464   5.142   6.513
 5280SOL     OW16738   3.329   6.437   5.542
 5280SOL    HW116739   3.334   6.350   5.591
 5280SOL    HW216740   3.275   6.502   5.596
 5281SOL     OW16741   0.884   1.413   3.182
 5281SOL    HW116742   0.858   1.398   3.277
 5281SOL    HW216743   0.910   1.509   3.170
 5282SOL     OW16744   2.334   1.564   3.393
 5282SOL    HW116745   2.367   1.599   3.306
 5282SOL    HW216746   2.234   1.557   3.391
 5283SOL     OW16747   3.339   6.842   2.119
 5283SOL    HW116748   3.254   6.852   2.171
 5283SOL    HW216749   3.417   6.854   2.179
 5284SOL     OW16750   5.280   3.334   2.917
 5284SOL    HW116751   5.347   3.378   2.856
 5284SOL    HW216752   5.205   3.297   2.863
 5285SOL     OW16753   1.581   4.093   4.530
 5285SOL    HW116754   1.642   4.077   4.453
 5285SOL    HW216755   1.487   4.068   4.505
 5286SOL     OW16756   0.339   4.010   1.216
 5286SOL    HW116757   0.328   3.929   1.274
 5286SOL    HW216758   0.256   4.024   1.162
 5287SOL     OW16759   1.672   6.003   1.624
 5287SOL    HW116760   1.574   6.022   1.618
 5287SOL    HW216761   1.692   5.958   1.710
 5288SOL     OW16762   3.818   0.801   2.438
 5288SOL    HW116763   3.767   0.798   2.524
 5288SOL    HW216764   3.757   0.775   2.363
 5289SOL     OW16765   1.699   5.458   6.364
 5289SOL    HW116766   1.747   5.399   6.430
 5289SOL    HW216767   1.739   5.446   6.273
 5290SOL     OW16768   1.571   4.235   5.340
 5290SOL    HW116769   1.533   4.307   5.398
 5290SOL    HW216770   1.670   4.235   5.348
 5291SOL     OW16771   3.197   5.243   5.613
 5291SOL    HW116772   3.147   5.234   5.527
 5291SOL    HW216773   3.229   5.337   5.623
 5292SOL     OW16774   6.439   5.061   0.278
 5292SOL    HW116775   6.356   5.104   0.242
 5292SOL    HW216776   6.515   5.075   0.215
 5293SOL     OW16777   1.194   0.311   4.049
 5293SOL    HW116778   1.145   0.340   3.968
 5293SOL    HW216779   1.157   0.223   4.081
 5294SOL     OW16780   6.423   3.008   4.417
 5294SOL    HW116781   6.417   2.944   4.494
 5294SOL    HW216782   6.450   2.958   4.334
 5295SOL     OW16783   4.169   0.648   2.453
 5295SOL    HW116784   4.253   0.703   2.447
 5295SOL    HW216785   4.132   0.655   2.545
 5296SOL     OW16786   2.326   5.079   0.670
 5296SOL    HW116787   2.367   5.102   0.582
 5296SOL    HW216788   2.346   4.984   0.693
 5297SOL     OW16789   3.048   2.419   0.751
 5297SOL    HW116790   3.003   2.456   0.833
 5297SOL    HW216791   3.080   2.326   0.769
 5298SOL     OW16792   1.251   5.729   6.872
 5298SOL    HW116793   1.209   5.705   6.785
 5298SOL    HW216794   1.325   5.665   6.892
 5299SOL     OW16795   2.569   2.645   0.855
 5299SOL    HW116796   2.520   2.695   0.783
 5299SOL    HW216797   2.516   2.651   0.940
 5300SOL     OW16798   0.863   6.289   1.589
 5300SOL    HW116799   0.802   6.268   1.666
 5300SOL    HW216800   0.951   6.243   1.603
 5301SOL     OW16801   3.297   2.465   6.374
 5301SOL    HW116802   3.291   2.377   6.422
 5301SOL    HW216803   3.376   2.465   6.314
 5302SOL     OW16804   5.705   5.546   3.782
 5302SOL    HW116805   5.639   5.510   3.715
 5302SOL    HW216806   5.797   5.542   3.743
 5303SOL     OW16807   6.717   6.094   3.093
 5303SOL    HW116808   6.772   6.125   3.015
 5303SOL    HW216809   6.669   6.172   3.133
 5304SOL     OW16810   5.330   1.641   6.366
 5304SOL    HW116811   5.388   1.716   6.398
 5304SOL    HW216812   5.256   1.625   6.431
 5305SOL     OW16813   0.953   5.370   3.365
 5305SOL    HW116814   0.998   5.362   3.454
 5305SOL    HW216815   0.901   5.456   3.362
 5306SOL     OW16816   0.632   4.427   5.342
 5306SOL    HW116817   0.598   4.488   5.413
 5306SOL    HW216818   0.586   4.447   5.256
 5307SOL     OW16819   4.406   0.429   0.567
 5307SOL    HW116820   4.414   0.524   0.598
 5307SOL    HW216821   4.362   0.374   0.638
 5308SOL     OW16822   0.830   6.232   3.502
 5308SOL    HW116823   0.748   6.178   3.522
 5308SOL    HW216824   0.882   6.246   3.586
 5309SOL     OW16825   4.158   4.684   1.461
 5309SOL    HW116826   4.153   4.723   1.553
 5309SOL    HW216827   4.085   4.722   1.405
 5310SOL     OW16828   6.424   3.537   2.043
 5310SOL    HW116829   6.449   3.537   2.140
 5310SOL    HW216830   6.329   3.566   2.034
 5311SOL     OW16831   6.557   5.939   0.346
 5311SOL    HW116832   6.642   5.980   0.380
 5311SOL    HW216833   6.565   5.840   0.351
 5312SOL     OW16834   0.741   4.991   1.937
 5312SOL    HW116835   0.744   4.892   1.952
 5312SOL    HW216836   0.732   5.010   1.839
 5313SOL     OW16837   1.900   4.371   6.360
 5313SOL    HW116838   1.863   4.379   6.267
 5313SOL    HW216839   1.894   4.276   6.390
 5314SOL     OW16840   3.481   6.274   6.866
 5314SOL    HW116841   3.418   6.245   6.794
 5314SOL    HW216842   3.439   6.260   6.955
 5315SOL     OW16843   4.743   3.728   1.332
 5315SOL    HW116844   4.728   3.654   1.267
 5315SOL    HW216845   4.706   3.702   1.421
 5316SOL     OW16846   0.079   4.624   4.981
 5316SOL    HW116847   0.036   4.685   5.048
 5316SOL    HW216848   0.172   4.655   4.961
 5317SOL     OW16849   6.668   0.134   4.900
 5317SOL    HW116850   6.575   0.117   4.870
 5317SOL    HW216851   6.670   0.144   5.000
 5318SOL     OW16852   6.916   2.267   6.421
 5318SOL    HW116853   6.940   2.363   6.419
 5318SOL    HW216854   6.907   2.233   6.327
 5319SOL     OW16855   4.182   6.820   6.730
 5319SOL    HW116856   4.204   6.735   6.684
 5319SOL    HW216857   4.149   6.800   6.822
 5320SOL     OW16858   6.254   4.851   0.151
 5320SOL    HW116859   6.309   4.905   0.214
 5320SOL    HW216860   6.311   4.783   0.106
 5321SOL     OW16861   0.984   4.022   3.516
 5321SOL    HW116862   0.911   4.046   3.580
 5321SOL    HW216863   1.013   4.104   3.467
 5322SOL     OW16864   4.595   6.021   6.403
 5322SOL    HW116865   4.572   6.050   6.496
 5322SOL    HW216866   4.551   6.081   6.337
 5323SOL     OW16867   3.677   2.649   6.983
 5323SOL    HW116868   3.651   2.744   7.003
 5323SOL    HW216869   3.659   2.629   6.887
 5324SOL     OW16870   4.430   2.676   0.752
 5324SOL    HW116871   4.455   2.580   0.737
 5324SOL    HW216872   4.338   2.681   0.790
 5325SOL     OW16873   4.416   0.483   4.426
 5325SOL    HW116874   4.377   0.464   4.336
 5325SOL    HW216875   4.478   0.561   4.420
 5326SOL     OW16876   0.314   5.452   4.139
 5326SOL    HW116877   0.217   5.477   4.135
 5326SOL    HW216878   0.336   5.394   4.060
 5327SOL     OW16879   5.690   3.445   5.337
 5327SOL    HW116880   5.641   3.519   5.382
 5327SOL    HW216881   5.785   3.444   5.367
 5328SOL     OW16882   4.027   2.594   5.769
 5328SOL    HW116883   3.961   2.533   5.814
 5328SOL    HW216884   4.062   2.659   5.836
 5329SOL     OW16885   6.977   4.238   6.946
 5329SOL    HW116886   6.920   4.311   6.983
 5329SOL    HW216887   7.014   4.266   6.857
 5330SOL     OW16888   3.720   4.326   5.566
 5330SOL    HW116889   3.621   4.329   5.581
 5330SOL    HW216890   3.753   4.418   5.543
 5331SOL     OW16891   5.051   1.300   0.952
 5331SOL    HW116892   5.031   1.375   1.016
 5331SOL    HW216893   5.136   1.255   0.981
 5332SOL     OW16894   0.567   4.050   1.098
 5332SOL    HW116895   0.627   3.979   1.133
 5332SOL    HW216896   0.474   4.037   1.134
 5333SOL     OW16897   0.960   0.932   3.432
 5333SOL    HW116898   0.991   0.850   3.481
 5333SOL    HW216899   0.861   0.941   3.443
 5334SOL     OW16900   3.907   6.702   4.550
 5334SOL    HW116901   3.937   6.782   4.600
 5334SOL    HW216902   3.968   6.625   4.570
 5335SOL     OW16903   6.403   5.745   2.447
 5335SOL    HW116904   6.369   5.714   2.536
 5335SOL    HW216905   6.443   5.667   2.398
 5336SOL     OW16906   1.860   2.226   3.271
 5336SOL    HW116907   1.935   2.227   3.337
 5336SOL    HW216908   1.778   2.188   3.315
 5337SOL     OW16909   5.613   4.360   2.256
 5337SOL    HW116910   5.602   4.457   2.280
 5337SOL    HW216911   5.553   4.338   2.180
 5338SOL     OW16912   5.709   0.825   5.534
 5338SOL    HW116913   5.800   0.808   5.499
 5338SOL    HW216914   5.641   0.798   5.466
 5339SOL     OW16915   6.695   2.228   3.365
 5339SOL    HW116916   6.616   2.168   3.378
 5339SOL    HW216917   6.684   2.279   3.280
 5340SOL     OW16918   5.256   3.461   1.191
 5340SOL    HW116919   5.295   3.387   1.246
 5340SOL    HW216920   5.196   3.421   1.120
 5341SOL     OW16921   3.243   5.014   6.014
 5341SOL    HW116922   3.186   4.968   5.946
 5341SOL    HW216923   3.271   4.948   6.084
 5342SOL     OW16924   4.324   6.450   4.282
 5342SOL    HW116925   4.254   6.424   4.349
 5342SOL    HW216926   4.351   6.370   4.229
 5343SOL     OW16927   3.481   3.634   4.756
 5343SOL    HW116928   3.529   3.721   4.766
 5343SOL    HW216929   3.537   3.571   4.702
 5344SOL     OW16930   1.679   1.919   1.404
 5344SOL    HW116931   1.738   1.944   1.328
 5344SOL    HW216932   1.590   1.963   1.394
 5345SOL     OW16933   3.662   6.361   0.311
 5345SOL    HW116934   3.653   6.460   0.322
 5345SOL    HW216935   3.718   6.325   0.386
 5346SOL     OW16936   3.430   5.701   4.199
 5346SOL    HW116937   3.480   5.786   4.183
 5346SOL    HW216938   3.334   5.722   4.220
 5347SOL     OW16939   7.009   2.959   1.919
 5347SOL    HW116940   0.011   3.021   1.847
 5347SOL    HW216941   6.909   2.958   1.923
 5348SOL     OW16942   6.597   1.747   0.690
 5348SOL    HW116943   6.600   1.828   0.631
 5348SOL    HW216944   6.689   1.726   0.723
 5349SOL     OW16945   2.492   2.751   0.416
 5349SOL    HW116946   2.549   2.755   0.334
 5349SOL    HW216947   2.495   2.659   0.453
 5350SOL     OW16948   1.476   6.877   5.112
 5350SOL    HW116949   1.518   6.919   5.192
 5350SOL    HW216950   1.546   6.830   5.059
 5351SOL     OW16951   6.445   5.236   2.474
 5351SOL    HW116952   6.490   5.148   2.488
 5351SOL    HW216953   6.488   5.305   2.531
 5352SOL     OW16954   1.759   5.201   3.298
 5352SOL    HW116955   1.848   5.201   3.253
 5352SOL    HW216956   1.686   5.207   3.230
 5353SOL     OW16957   3.755   5.347   4.580
 5353SOL    HW116958   3.703   5.336   4.495
 5353SOL    HW216959   3.845   5.306   4.570
 5354SOL     OW16960   2.070   5.101   1.199
 5354SOL    HW116961   2.060   5.020   1.258
 5354SOL    HW216962   2.163   5.138   1.209
 5355SOL     OW16963   6.307   4.586   4.545
 5355SOL    HW116964   6.323   4.677   4.582
 5355SOL    HW216965   6.234   4.541   4.597
 5356SOL     OW16966   6.554   3.870   2.435
 5356SOL    HW116967   6.594   3.778   2.427
 5356SOL    HW216968   6.535   3.889   2.532
 5357SOL     OW16969   3.133   6.009   0.123
 5357SOL    HW116970   3.065   6.082   0.115
 5357SOL    HW216971   3.188   6.023   0.205
 5358SOL     OW16972   4.856   1.517   0.201
 5358SOL    HW116973   4.766   1.495   0.163
 5358SOL    HW216974   4.882   1.445   0.265
 5359SOL     OW16975   1.855   0.966   5.745
 5359SOL    HW116976   1.867   1.018   5.830
 5359SOL    HW216977   1.786   1.012   5.688
 5360SOL     OW16978   3.576   6.058   3.783
 5360SOL    HW116979   3.657   6.013   3.820
 5360SOL    HW216980   3.529   5.996   3.720
 5361SOL     OW16981   2.899   1.112   4.865
 5361SOL    HW116982   2.823   1.172   4.891
 5361SOL    HW216983   2.985   1.159   4.883
 5362SOL     OW16984   6.299   6.420   2.911
 5362SOL    HW116985   6.225   6.486   2.917
 5362SOL    HW216986   6.326   6.407   2.816
 5363SOL     OW16987   6.531   6.663   5.376
 5363SOL    HW116988   6.599   6.666   5.303
 5363SOL    HW216989   6.491   6.754   5.387
 5364SOL     OW16990   6.909   0.059   2.209
 5364SOL    HW116991   6.828   0.091   2.258
 5364SOL    HW216992   6.892   0.066   2.110
 5365SOL     OW16993   4.396   3.075   1.296
 5365SOL    HW116994   4.346   3.077   1.382
 5365SOL    HW216995   4.339   3.032   1.225
 5366SOL     OW16996   5.833   5.858   1.242
 5366SOL    HW116997   5.864   5.781   1.299
 5366SOL    HW216998   5.878   5.853   1.153
 5367SOL     OW16999   0.398   6.819   0.859
 5367SOL    HW117000   0.394   6.919   0.856
 5367SOL    HW217001   0.403   6.789   0.955
 5368SOL     OW17002   5.482   6.950   2.408
 5368SOL    HW117003   5.386   6.921   2.406
 5368SOL    HW217004   5.528   6.918   2.325
 5369SOL     OW17005   2.808   6.667   0.910
 5369SOL    HW117006   2.890   6.650   0.965
 5369SOL    HW217007   2.778   6.761   0.922
 5370SOL     OW17008   4.783   2.605   1.425
 5370SOL    HW117009   4.777   2.621   1.524
 5370SOL    HW217010   4.777   2.507   1.407
 5371SOL     OW17011   0.395   4.017   5.445
 5371SOL    HW117012   0.328   3.985   5.378
 5371SOL    HW217013   0.479   3.963   5.436
 5372SOL     OW17014   1.439   6.053   3.102
 5372SOL    HW117015   1.444   6.038   3.201
 5372SOL    HW217016   1.344   6.051   3.073
 5373SOL     OW17017   3.813   6.636   4.850
 5373SOL    HW117018   3.729   6.584   4.834
 5373SOL    HW217019   3.813   6.717   4.791
 5374SOL     OW17020   2.138   4.402   0.846
 5374SOL    HW117021   2.173   4.332   0.908
 5374SOL    HW217022   2.061   4.450   0.889
 5375SOL     OW17023   0.283   5.551   4.709
 5375SOL    HW117024   0.317   5.551   4.615
 5375SOL    HW217025   0.184   5.559   4.709
 5376SOL     OW17026   1.160   2.404   1.330
 5376SOL    HW117027   1.218   2.441   1.403
 5376SOL    HW217028   1.118   2.319   1.361
 5377SOL     OW17029   0.131   6.738   2.035
 5377SOL    HW117030   0.223   6.768   2.014
 5377SOL    HW217031   0.101   6.780   2.121
 5378SOL     OW17032   0.005   0.128   2.838
 5378SOL    HW117033   6.990   0.196   2.898
 5378SOL    HW217034   7.001   0.142   2.744
 5379SOL     OW17035   0.875   4.554   4.799
 5379SOL    HW117036   0.871   4.495   4.880
 5379SOL    HW217037   0.964   4.542   4.754
 5380SOL     OW17038   2.874   0.956   3.000
 5380SOL    HW117039   2.845   0.935   2.906
 5380SOL    HW217040   2.834   0.889   3.062
 5381SOL     OW17041   6.554   5.213   2.174
 5381SOL    HW117042   6.582   5.188   2.267
 5381SOL    HW217043   6.485   5.286   2.179
 5382SOL     OW17044   2.729   1.320   2.064
 5382SOL    HW117045   2.652   1.383   2.066
 5382SOL    HW217046   2.814   1.371   2.052
 5383SOL     OW17047   1.989   2.109   5.188
 5383SOL    HW117048   1.940   2.025   5.210
 5383SOL    HW217049   2.084   2.101   5.217
 5384SOL     OW17050   5.762   0.231   4.982
 5384SOL    HW117051   5.716   0.237   4.894
 5384SOL    HW217052   5.810   0.144   4.990
 5385SOL     OW17053   3.561   3.548   4.296
 5385SOL    HW117054   3.598   3.516   4.383
 5385SOL    HW217055   3.581   3.646   4.285
 5386SOL     OW17056   4.777   1.365   4.011
 5386SOL    HW117057   4.712   1.376   4.087
 5386SOL    HW217058   4.856   1.312   4.043
 5387SOL     OW17059   1.970   6.693   3.785
 5387SOL    HW117060   2.052   6.744   3.809
 5387SOL    HW217061   1.896   6.756   3.763
 5388SOL     OW17062   0.148   1.447   3.246
 5388SOL    HW117063   0.212   1.466   3.321
 5388SOL    HW217064   0.121   1.533   3.203
 5389SOL     OW17065   3.499   1.572   3.384
 5389SOL    HW117066   3.418   1.514   3.378
 5389SOL    HW217067   3.535   1.570   3.478
 5390SOL     OW17068   4.810   4.106   3.307
 5390SOL    HW117069   4.783   4.155   3.390
 5390SOL    HW217070   4.821   4.009   3.328
 5391SOL     OW17071   2.775   1.147   1.144
 5391SOL    HW117072   2.697   1.178   1.090
 5391SOL    HW217073   2.744   1.120   1.235
 5392SOL     OW17074   5.542   3.369   1.192
 5392SOL    HW117075   5.556   3.461   1.227
 5392SOL    HW217076   5.472   3.323   1.245
 5393SOL     OW17077   4.875   0.474   5.572
 5393SOL    HW117078   4.840   0.562   5.603
 5393SOL    HW217079   4.954   0.488   5.512
 5394SOL     OW17080   0.574   5.865   1.150
 5394SOL    HW117081   0.526   5.860   1.237
 5394SOL    HW217082   0.507   5.869   1.075
 5395SOL     OW17083   4.737   1.332   1.275
 5395SOL    HW117084   4.765   1.254   1.220
 5395SOL    HW217085   4.717   1.410   1.216
 5396SOL     OW17086   5.248   4.300   1.769
 5396SOL    HW117087   5.281   4.252   1.687
 5396SOL    HW217088   5.159   4.264   1.795
 5397SOL     OW17089   0.584   2.907   1.367
 5397SOL    HW117090   0.599   3.006   1.367
 5397SOL    HW217091   0.671   2.859   1.372
 5398SOL     OW17092   2.776   2.064   4.133
 5398SOL    HW117093   2.785   2.122   4.214
 5398SOL    HW217094   2.691   2.086   4.086
 5399SOL     OW17095   2.682   6.356   0.930
 5399SOL    HW117096   2.710   6.416   0.855
 5399SOL    HW217097   2.585   6.367   0.948
 5400SOL     OW17098   3.443   3.608   7.007
 5400SOL    HW117099   3.421   3.570   0.069
 5400SOL    HW217100   3.478   3.701   7.019
 5401SOL     OW17101   6.753   4.558   2.443
 5401SOL    HW117102   6.664   4.513   2.445
 5401SOL    HW217103   6.814   4.514   2.508
 5402SOL     OW17104   2.231   6.364   1.866
 5402SOL    HW117105   2.155   6.378   1.803
 5402SOL    HW217106   2.250   6.266   1.874
 5403SOL     OW17107   6.023   2.883   5.434
 5403SOL    HW117108   6.051   2.787   5.426
 5403SOL    HW217109   5.944   2.900   5.376
 5404SOL     OW17110   0.783   0.360   3.168
 5404SOL    HW117111   0.852   0.433   3.163
 5404SOL    HW217112   0.698   0.393   3.127
 5405SOL     OW17113   5.618   5.824   0.322
 5405SOL    HW117114   5.546   5.827   0.252
 5405SOL    HW217115   5.677   5.745   0.305
 5406SOL     OW17116   1.694   6.899   5.681
 5406SOL    HW117117   1.604   6.857   5.669
 5406SOL    HW217118   1.754   6.835   5.728
 5407SOL     OW17119   3.705   1.704   1.290
 5407SOL    HW117120   3.707   1.751   1.379
 5407SOL    HW217121   3.618   1.723   1.244
 5408SOL     OW17122   3.278   0.545   5.732
 5408SOL    HW117123   3.373   0.527   5.708
 5408SOL    HW217124   3.266   0.644   5.744
 5409SOL     OW17125   0.052   1.677   3.134
 5409SOL    HW117126   0.062   1.709   3.228
 5409SOL    HW217127   0.006   1.746   3.079
 5410SOL     OW17128   1.401   2.571   6.662
 5410SOL    HW117129   1.375   2.476   6.681
 5410SOL    HW217130   1.344   2.607   6.588
 5411SOL     OW17131   6.097   5.169   6.023
 5411SOL    HW117132   6.181   5.124   6.053
 5411SOL    HW217133   6.028   5.100   6.001
 5412SOL     OW17134   3.684   1.179   7.010
 5412SOL    HW117135   3.739   1.102   0.012
 5412SOL    HW217136   3.602   1.145   6.962
 5413SOL     OW17137   0.261   0.222   1.009
 5413SOL    HW117138   0.217   0.310   0.992
 5413SOL    HW217139   0.300   0.187   0.923
 5414SOL     OW17140   6.341   3.484   4.866
 5414SOL    HW117141   6.360   3.577   4.837
 5414SOL    HW217142   6.392   3.464   4.950
 5415SOL     OW17143   1.222   6.146   1.904
 5415SOL    HW117144   1.246   6.212   1.976
 5415SOL    HW217145   1.128   6.116   1.917
 5416SOL     OW17146   3.183   5.290   6.024
 5416SOL    HW117147   3.215   5.199   6.049
 5416SOL    HW217148   3.259   5.341   5.982
 5417SOL     OW17149   4.551   6.708   4.466
 5417SOL    HW117150   4.597   6.673   4.385
 5417SOL    HW217151   4.491   6.637   4.503
 5418SOL     OW17152   5.004   0.911   4.328
 5418SOL    HW117153   4.937   0.958   4.387
 5418SOL    HW217154   4.980   0.927   4.232
 5419SOL     OW17155   4.216   5.369   6.895
 5419SOL    HW117156   4.266   5.450   6.863
 5419SOL    HW217157   4.254   5.287   6.851
 5420SOL     OW17158   1.760   3.403   1.771
 5420SOL    HW117159   1.839   3.449   1.811
 5420SOL    HW217160   1.788   3.356   1.687
 5421SOL     OW17161   2.903   4.718   3.295
 5421SOL    HW117162   2.868   4.767   3.215
 5421SOL    HW217163   2.974   4.772   3.340
 5422SOL     OW17164   0.853   5.501   5.113
 5422SOL    HW117165   0.831   5.408   5.083
 5422SOL    HW217166   0.769   5.552   5.130
 5423SOL     OW17167   6.047   3.720   6.943
 5423SOL    HW117168   6.131   3.681   6.906
 5423SOL    HW217169   5.969   3.690   6.887
 5424SOL     OW17170   5.803   3.765   4.266
 5424SOL    HW117171   5.891   3.750   4.311
 5424SOL    HW217172   5.751   3.679   4.266
 5425SOL     OW17173   5.113   2.074   4.183
 5425SOL    HW117174   5.129   2.172   4.167
 5425SOL    HW217175   5.141   2.050   4.276
 5426SOL     OW17176   6.449   5.148   3.886
 5426SOL    HW117177   6.468   5.140   3.983
 5426SOL    HW217178   6.358   5.114   3.866
 5427SOL     OW17179   5.465   4.456   0.799
 5427SOL    HW117180   5.481   4.382   0.734
 5427SOL    HW217181   5.511   4.539   0.767
 5428SOL     OW17182   6.115   6.922   1.835
 5428SOL    HW117183   6.196   6.980   1.839
 5428SOL    HW217184   6.142   6.828   1.815
 5429SOL     OW17185   1.071   1.091   5.047
 5429SOL    HW117186   1.145   1.049   4.996
 5429SOL    HW217187   1.105   1.171   5.096
 5430SOL     OW17188   2.657   2.628   6.445
 5430SOL    HW117189   2.566   2.656   6.414
 5430SOL    HW217190   2.683   2.543   6.400
 5431SOL     OW17191   3.400   4.743   6.022
 5431SOL    HW117192   3.493   4.759   5.987
 5431SOL    HW217193   3.335   4.746   5.947
 5432SOL     OW17194   3.511   5.736   6.167
 5432SOL    HW117195   3.494   5.787   6.083
 5432SOL    HW217196   3.609   5.724   6.180
 5433SOL     OW17197   0.262   1.125   3.029
 5433SOL    HW117198   0.349   1.077   3.039
 5433SOL    HW217199   0.189   1.072   3.072
 5434SOL     OW17200   4.477   1.179   5.036
 5434SOL    HW117201   4.490   1.125   5.119
 5434SOL    HW217202   4.416   1.256   5.056
 5435SOL     OW17203   6.272   2.020   1.288
 5435SOL    HW117204   6.275   1.938   1.345
 5435SOL    HW217205   6.243   2.098   1.344
 5436SOL     OW17206   5.445   4.247   4.365
 5436SOL    HW117207   5.514   4.178   4.344
 5436SOL    HW217208   5.483   4.315   4.427
 5437SOL     OW17209   2.938   5.343   5.879
 5437SOL    HW117210   3.021   5.311   5.926
 5437SOL    HW217211   2.869   5.271   5.881
 5438SOL     OW17212   6.492   3.889   2.148
 5438SOL    HW117213   6.406   3.930   2.117
 5438SOL    HW217214   6.498   3.896   2.248
 5439SOL     OW17215   6.908   2.227   0.010
 5439SOL    HW117216   6.914   2.326   0.016
 5439SOL    HW217217   6.819   2.200   7.002
 5440SOL     OW17218   6.691   0.289   3.620
 5440SOL    HW117219   6.713   0.287   3.522
 5440SOL    HW217220   6.594   0.269   3.632
 5441SOL     OW17221   4.708   2.880   3.302
 5441SOL    HW117222   4.725   2.823   3.382
 5441SOL    HW217223   4.622   2.929   3.314
 5442SOL     OW17224   2.630   6.748   3.481
 5442SOL    HW117225   2.714   6.764   3.430
 5442SOL    HW217226   2.581   6.670   3.442
 5443SOL     OW17227   3.197   5.817   4.245
 5443SOL    HW117228   3.235   5.892   4.191
 5443SOL    HW217229   3.133   5.854   4.312
 5444SOL     OW17230   0.273   0.810   3.273
 5444SOL    HW117231   0.200   0.745   3.292
 5444SOL    HW217232   0.330   0.821   3.355
 5445SOL     OW17233   6.209   4.188   3.811
 5445SOL    HW117234   6.147   4.190   3.890
 5445SOL    HW217235   6.300   4.219   3.840
 5446SOL     OW17236   5.660   5.138   4.850
 5446SOL    HW117237   5.746   5.119   4.896
 5446SOL    HW217238   5.646   5.237   4.843
 5447SOL     OW17239   1.184   1.772   0.625
 5447SOL    HW117240   1.140   1.861   0.639
 5447SOL    HW217241   1.130   1.718   0.562
 5448SOL     OW17242   5.658   4.508   4.276
 5448SOL    HW117243   5.648   4.490   4.373
 5448SOL    HW217244   5.604   4.442   4.224
 5449SOL     OW17245   1.849   1.710   0.677
 5449SOL    HW117246   1.941   1.695   0.713
 5449SOL    HW217247   1.782   1.674   0.743
 5450SOL     OW17248   3.395   0.326   0.862
 5450SOL    HW117249   3.395   0.397   0.933
 5450SOL    HW217250   3.320   0.262   0.879
 5451SOL     OW17251   2.492   6.090   4.074
 5451SOL    HW117252   2.506   6.113   3.978
 5451SOL    HW217253   2.575   6.110   4.126
 5452SOL     OW17254   3.215   3.897   6.724
 5452SOL    HW117255   3.233   3.818   6.783
 5452SOL    HW217256   3.122   3.890   6.687
 5453SOL     OW17257   5.495   4.041   1.858
 5453SOL    HW117258   5.571   3.976   1.852
 5453SOL    HW217259   5.527   4.132   1.831
 5454SOL     OW17260   5.275   5.239   6.218
 5454SOL    HW117261   5.261   5.226   6.316
 5454SOL    HW217262   5.187   5.252   6.172
 5455SOL     OW17263   0.128   1.988   2.874
 5455SOL    HW117264   0.191   1.934   2.930
 5455SOL    HW217265   0.034   1.964   2.896
 5456SOL     OW17266   2.978   6.991   0.240
 5456SOL    HW117267   2.892   0.004   0.209
 5456SOL    HW217268   3.013   6.929   0.170
 5457SOL     OW17269   6.911   2.462   1.984
 5457SOL    HW117270   6.888   2.367   2.004
 5457SOL    HW217271   6.960   2.466   1.897
 5458SOL     OW17272   0.714   5.016   0.774
 5458SOL    HW117273   0.777   4.955   0.822
 5458SOL    HW217274   0.766   5.094   0.737
 5459SOL     OW17275   3.537   3.812   6.512
 5459SOL    HW117276   3.620   3.849   6.470
 5459SOL    HW217277   3.507   3.874   6.585
 5460SOL     OW17278   3.164   6.771   2.979
 5460SOL    HW117279   3.230   6.698   2.960
 5460SOL    HW217280   3.211   6.851   3.016
 5461SOL     OW17281   0.489   1.023   5.426
 5461SOL    HW117282   0.572   1.052   5.473
 5461SOL    HW217283   0.409   1.048   5.481
 5462SOL     OW17284   5.550   6.615   0.417
 5462SOL    HW117285   5.571   6.641   0.323
 5462SOL    HW217286   5.535   6.697   0.472
 5463SOL     OW17287   0.232   1.182   6.969
 5463SOL    HW117288   0.152   1.241   6.976
 5463SOL    HW217289   0.312   1.230   7.005
 5464SOL     OW17290   6.356   0.324   4.414
 5464SOL    HW117291   6.441   0.336   4.467
 5464SOL    HW217292   6.365   0.371   4.326
 5465SOL     OW17293   4.764   0.581   4.277
 5465SOL    HW117294   4.861   0.602   4.263
 5465SOL    HW217295   4.717   0.663   4.310
 5466SOL     OW17296   4.902   2.963   4.830
 5466SOL    HW117297   4.825   2.904   4.852
 5466SOL    HW217298   4.906   3.039   4.895
 5467SOL     OW17299   5.087   4.028   3.516
 5467SOL    HW117300   5.133   4.116   3.503
 5467SOL    HW217301   5.083   4.007   3.614
 5468SOL     OW17302   6.852   2.810   3.558
 5468SOL    HW117303   6.811   2.731   3.512
 5468SOL    HW217304   6.952   2.803   3.553
 5469SOL     OW17305   2.857   6.416   5.824
 5469SOL    HW117306   2.874   6.483   5.752
 5469SOL    HW217307   2.936   6.411   5.885
 5470SOL     OW17308   3.669   5.528   3.295
 5470SOL    HW117309   3.617   5.595   3.241
 5470SOL    HW217310   3.606   5.480   3.356
 5471SOL     OW17311   6.046   0.112   3.378
 5471SOL    HW117312   5.950   0.087   3.392
 5471SOL    HW217313   6.094   0.037   3.333
 5472SOL     OW17314   2.806   3.686   6.654
 5472SOL    HW117315   2.744   3.647   6.722
 5472SOL    HW217316   2.892   3.635   6.653
 5473SOL     OW17317   1.263   3.353   1.961
 5473SOL    HW117318   1.258   3.253   1.965
 5473SOL    HW217319   1.357   3.382   1.946
 5474SOL     OW17320   1.124   4.456   4.009
 5474SOL    HW117321   1.068   4.509   3.945
 5474SOL    HW217322   1.074   4.442   4.094
 5475SOL     OW17323   1.947   2.922   0.906
 5475SOL    HW117324   1.960   2.957   0.999
 5475SOL    HW217325   2.034   2.926   0.856
 5476SOL     OW17326   2.262   4.271   5.078
 5476SOL    HW117327   2.307   4.182   5.076
 5476SOL    HW217328   2.329   4.343   5.062
 5477SOL     OW17329   2.221   4.399   2.369
 5477SOL    HW117330   2.216   4.308   2.411
 5477SOL    HW217331   2.132   4.444   2.375
 5478SOL     OW17332   3.130   6.369   4.536
 5478SOL    HW117333   3.149   6.283   4.489
 5478SOL    HW217334   3.076   6.429   4.477
 5479SOL     OW17335   5.493   1.214   6.022
 5479SOL    HW117336   5.438   1.288   6.058
 5479SOL    HW217337   5.456   1.126   6.052
 5480SOL     OW17338   5.594   5.697   3.978
 5480SOL    HW117339   5.671   5.733   4.030
 5480SOL    HW217340   5.627   5.636   3.906
 5481SOL     OW17341   4.463   1.636   4.427
 5481SOL    HW117342   4.547   1.583   4.437
 5481SOL    HW217343   4.476   1.727   4.467
 5482SOL     OW17344   3.803   4.587   1.684
 5482SOL    HW117345   3.718   4.605   1.733
 5482SOL    HW217346   3.870   4.658   1.706
 5483SOL     OW17347   6.787   2.122   5.148
 5483SOL    HW117348   6.714   2.180   5.110
 5483SOL    HW217349   6.869   2.132   5.093
 5484SOL     OW17350   3.789   1.453   3.950
 5484SOL    HW117351   3.774   1.357   3.971
 5484SOL    HW217352   3.886   1.469   3.931
 5485SOL     OW17353   3.844   0.087   4.132
 5485SOL    HW117354   3.908   0.143   4.184
 5485SOL    HW217355   3.854   7.018   4.159
 5486SOL     OW17356   1.808   6.119   5.447
 5486SOL    HW117357   1.765   6.059   5.379
 5486SOL    HW217358   1.848   6.063   5.520
 5487SOL     OW17359   5.922   2.948   6.665
 5487SOL    HW117360   6.012   2.916   6.636
 5487SOL    HW217361   5.893   2.896   6.746
 5488SOL     OW17362   5.979   0.258   1.363
 5488SOL    HW117363   6.002   0.331   1.299
 5488SOL    HW217364   5.887   0.273   1.398
 5489SOL     OW17365   0.674   4.268   1.748
 5489SOL    HW117366   0.597   4.332   1.758
 5489SOL    HW217367   0.667   4.196   1.816
 5490SOL     OW17368   3.199   7.013   1.429
 5490SOL    HW117369   3.219   6.923   1.468
 5490SOL    HW217370   3.285   0.034   1.412
 5491SOL     OW17371   1.430   3.979   0.703
 5491SOL    HW117372   1.426   4.059   0.764
 5491SOL    HW217373   1.340   3.934   0.703
 5492SOL     OW17374   0.132   3.071   5.938
 5492SOL    HW117375   0.126   3.104   6.032
 5492SOL    HW217376   0.184   2.985   5.937
 5493SOL     OW17377   3.176   4.015   4.301
 5493SOL    HW117378   3.178   3.915   4.303
 5493SOL    HW217379   3.179   4.047   4.207
 5494SOL     OW17380   6.977   2.955   6.179
 5494SOL    HW117381   6.957   2.956   6.081
 5494SOL    HW217382   7.005   3.046   6.209
 5495SOL     OW17383   3.911   1.533   1.349
 5495SOL    HW117384   3.965   1.490   1.276
 5495SOL    HW217385   3.850   1.602   1.308
 5496SOL     OW17386   3.385   1.125   3.923
 5496SOL    HW117387   3.309   1.061   3.932
 5496SOL    HW217388   3.353   1.218   3.939
 5497SOL     OW17389   0.156   1.824   5.108
 5497SOL    HW117390   0.202   1.877   5.180
 5497SOL    HW217391   0.220   1.756   5.072
 5498SOL     OW17392   6.536   5.906   0.999
 5498SOL    HW117393   6.449   5.953   0.979
 5498SOL    HW217394   6.570   5.935   1.088
 5499SOL     OW17395   0.571   0.586   4.871
 5499SOL    HW117396   0.547   0.636   4.955
 5499SOL    HW217397   0.628   0.507   4.894
 5500SOL     OW17398   0.976   0.561   0.712
 5500SOL    HW117399   1.003   0.654   0.738
 5500SOL    HW217400   0.878   0.558   0.697
 5501SOL     OW17401   3.623   1.173   0.532
 5501SOL    HW117402   3.552   1.103   0.531
 5501SOL    HW217403   3.705   1.139   0.486
 5502SOL     OW17404   5.469   3.889   0.047
 5502SOL    HW117405   5.390   3.884   7.012
 5502SOL    HW217406   5.470   3.808   0.106
 5503SOL     OW17407   0.269   4.539   2.335
 5503SOL    HW117408   0.338   4.604   2.367
 5503SOL    HW217409   0.275   4.529   2.236
 5504SOL     OW17410   4.113   1.514   5.383
 5504SOL    HW117411   4.031   1.547   5.431
 5504SOL    HW217412   4.193   1.528   5.442
 5505SOL     OW17413   2.139   5.230   4.064
 5505SOL    HW117414   2.151   5.140   4.107
 5505SOL    HW217415   2.190   5.232   3.978
 5506SOL     OW17416   1.038   2.783   0.409
 5506SOL    HW117417   0.960   2.834   0.375
 5506SOL    HW217418   1.010   2.728   0.488
 5507SOL     OW17419   3.812   1.227   4.665
 5507SOL    HW117420   3.819   1.231   4.764
 5507SOL    HW217421   3.794   1.319   4.629
 5508SOL     OW17422   1.746   1.072   0.267
 5508SOL    HW117423   1.745   1.137   0.190
 5508SOL    HW217424   1.694   1.109   0.343
 5509SOL     OW17425   0.361   6.301   6.795
 5509SOL    HW117426   0.451   6.269   6.826
 5509SOL    HW217427   0.336   6.252   6.712
 5510SOL     OW17428   4.982   5.432   0.120
 5510SOL    HW117429   5.018   5.525   0.119
 5510SOL    HW217430   5.058   5.367   0.126
 5511SOL     OW17431   1.950   0.741   3.731
 5511SOL    HW117432   1.934   0.757   3.829
 5511SOL    HW217433   1.918   0.650   3.706
 5512SOL     OW17434   5.194   2.516   1.243
 5512SOL    HW117435   5.154   2.424   1.251
 5512SOL    HW217436   5.224   2.531   1.149
 5513SOL     OW17437   4.304   4.633   5.772
 5513SOL    HW117438   4.391   4.594   5.800
 5513SOL    HW217439   4.244   4.641   5.852
 5514SOL     OW17440   4.114   0.034   3.740
 5514SOL    HW117441   4.187   0.103   3.736
 5514SOL    HW217442   4.082   0.025   3.834
 5515SOL     OW17443   1.028   5.795   2.121
 5515SOL    HW117444   1.018   5.696   2.126
 5515SOL    HW217445   1.125   5.818   2.109
 5516SOL     OW17446   1.864   4.099   6.472
 5516SOL    HW117447   1.765   4.114   6.478
 5516SOL    HW217448   1.899   4.077   6.563
 5517SOL     OW17449   2.115   2.888   1.949
 5517SOL    HW117450   2.183   2.908   1.878
 5517SOL    HW217451   2.061   2.971   1.967
 5518SOL     OW17452   5.747   6.268   6.672
 5518SOL    HW117453   5.801   6.337   6.624
 5518SOL    HW217454   5.651   6.275   6.645
 5519SOL     OW17455   5.704   3.748   3.184
 5519SOL    HW117456   5.606   3.760   3.168
 5519SOL    HW217457   5.733   3.806   3.260
 5520SOL     OW17458   6.656   0.120   2.615
 5520SOL    HW117459   6.575   0.061   2.613
 5520SOL    HW217460   6.670   0.154   2.708
 5521SOL     OW17461   5.676   6.250   1.673
 5521SOL    HW117462   5.647   6.155   1.687
 5521SOL    HW217463   5.772   6.260   1.699
 5522SOL     OW17464   6.090   4.981   0.949
 5522SOL    HW117465   6.183   5.014   0.967
 5522SOL    HW217466   6.094   4.885   0.921
 5523SOL     OW17467   3.448   0.924   1.866
 5523SOL    HW117468   3.527   0.970   1.826
 5523SOL    HW217469   3.462   0.825   1.864
 5524SOL     OW17470   5.044   0.536   4.498
 5524SOL    HW117471   5.046   0.564   4.401
 5524SOL    HW217472   5.127   0.486   4.520
 5525SOL     OW17473   0.212   2.012   0.718
 5525SOL    HW117474   0.153   2.055   0.649
 5525SOL    HW217475   0.303   2.052   0.713
 5526SOL     OW17476   4.814   5.862   3.449
 5526SOL    HW117477   4.806   5.801   3.528
 5526SOL    HW217478   4.728   5.911   3.436
 5527SOL     OW17479   5.225   3.428   4.184
 5527SOL    HW117480   5.251   3.332   4.200
 5527SOL    HW217481   5.126   3.438   4.197
 5528SOL     OW17482   1.301   0.923   6.927
 5528SOL    HW117483   1.342   0.942   7.015
 5528SOL    HW217484   1.369   0.933   6.854
 5529SOL     OW17485   2.851   6.740   3.323
 5529SOL    HW117486   2.914   6.681   3.272
 5529SOL    HW217487   2.902   6.814   3.367
 5530SOL     OW17488   5.866   2.322   1.308
 5530SOL    HW117489   5.878   2.346   1.211
 5530SOL    HW217490   5.768   2.313   1.327
 5531SOL     OW17491   3.094   3.489   1.851
 5531SOL    HW117492   3.168   3.527   1.796
 5531SOL    HW217493   3.131   3.426   1.919
 5532SOL     OW17494   1.056   3.594   1.108
 5532SOL    HW117495   1.149   3.612   1.139
 5532SOL    HW217496   1.052   3.506   1.061
 5533SOL     OW17497   3.699   1.772   3.085
 5533SOL    HW117498   3.757   1.838   3.036
 5533SOL    HW217499   3.625   1.742   3.025
 5534SOL     OW17500   0.374   1.663   6.550
 5534SOL    HW117501   0.426   1.639   6.468
 5534SOL    HW217502   0.364   1.581   6.608
 5535SOL     OW17503   0.621   2.731   3.093
 5535SOL    HW117504   0.571   2.651   3.059
 5535SOL    HW217505   0.563   2.812   3.082
 5536SOL     OW17506   3.165   0.880   4.439
 5536SOL    HW117507   3.251   0.922   4.469
 5536SOL    HW217508   3.151   0.899   4.342
 5537SOL     OW17509   2.772   1.000   2.662
 5537SOL    HW117510   2.737   1.080   2.711
 5537SOL    HW217511   2.706   0.972   2.592
 5538SOL     OW17512   2.351   5.889   5.509
 5538SOL    HW117513   2.402   5.930   5.585
 5538SOL    HW217514   2.407   5.891   5.427
 5539SOL     OW17515   1.241   3.756   1.666
 5539SOL    HW117516   1.165   3.822   1.670
 5539SOL    HW217517   1.241   3.702   1.750
 5540SOL     OW17518   4.608   4.574   3.673
 5540SOL    HW117519   4.564   4.529   3.751
 5540SOL    HW217520   4.537   4.607   3.610
 5541SOL     OW17521   5.569   0.067   6.147
 5541SOL    HW117522   5.477   0.032   6.130
 5541SOL    HW217523   5.563   0.155   6.194
 5542SOL     OW17524   5.123   3.793   6.275
 5542SOL    HW117525   5.104   3.698   6.248
 5542SOL    HW217526   5.189   3.833   6.211
 5543SOL     OW17527   3.491   5.209   5.731
 5543SOL    HW117528   3.470   5.136   5.666
 5543SOL    HW217529   3.590   5.229   5.728
 5544SOL     OW17530   4.724   5.623   6.269
 5544SOL    HW117531   4.710   5.532   6.306
 5544SOL    HW217532   4.775   5.616   6.183
 5545SOL     OW17533   4.439   1.424   2.038
 5545SOL    HW117534   4.447   1.516   2.076
 5545SOL    HW217535   4.398   1.429   1.947
 5546SOL     OW17536   0.474   5.275   4.709
 5546SOL    HW117537   0.538   5.344   4.677
 5546SOL    HW217538   0.484   5.192   4.653
 5547SOL     OW17539   2.467   6.431   5.460
 5547SOL    HW117540   2.550   6.487   5.465
 5547SOL    HW217541   2.435   6.427   5.366
 5548SOL     OW17542   6.325   2.164   4.809
 5548SOL    HW117543   6.265   2.238   4.841
 5548SOL    HW217544   6.300   2.079   4.855
 5549SOL     OW17545   4.913   4.655   6.371
 5549SOL    HW117546   4.832   4.703   6.339
 5549SOL    HW217547   4.893   4.610   6.458
 5550SOL     OW17548   2.725   5.644   1.974
 5550SOL    HW117549   2.629   5.670   1.986
 5550SOL    HW217550   2.756   5.671   1.883
 5551SOL     OW17551   2.072   0.632   2.959
 5551SOL    HW117552   2.049   0.539   2.928
 5551SOL    HW217553   2.090   0.690   2.879
 5552SOL     OW17554   6.389   0.873   6.763
 5552SOL    HW117555   6.316   0.940   6.771
 5552SOL    HW217556   6.352   0.785   6.733
 5553SOL     OW17557   4.285   6.087   7.000
 5553SOL    HW117558   4.254   6.062   0.064
 5553SOL    HW217559   4.298   6.186   6.995
 5554SOL     OW17560   3.297   1.354   5.832
 5554SOL    HW117561   3.276   1.403   5.747
 5554SOL    HW217562   3.280   1.414   5.910
 5555SOL     OW17563   0.782   4.491   3.973
 5555SOL    HW117564   0.712   4.540   4.025
 5555SOL    HW217565   0.866   4.546   3.969
 5556SOL     OW17566   0.300   2.803   4.181
 5556SOL    HW117567   0.268   2.733   4.119
 5556SOL    HW217568   0.301   2.767   4.275
 5557SOL     OW17569   3.304   5.725   2.941
 5557SOL    HW117570   3.374   5.749   2.873
 5557SOL    HW217571   3.214   5.730   2.899
 5558SOL     OW17572   5.121   3.446   6.410
 5558SOL    HW117573   5.024   3.446   6.432
 5558SOL    HW217574   5.172   3.408   6.487
 5559SOL     OW17575   2.409   6.792   2.069
 5559SOL    HW117576   2.337   6.744   2.119
 5559SOL    HW217577   2.429   6.878   2.115
 5560SOL     OW17578   0.471   6.707   3.462
 5560SOL    HW117579   0.522   6.757   3.392
 5560SOL    HW217580   0.428   6.772   3.525
 5561SOL     OW17581   2.585   2.183   3.934
 5561SOL    HW117582   2.620   2.127   3.858
 5561SOL    HW217583   2.655   2.248   3.963
 5562SOL     OW17584   2.868   2.715   0.055
 5562SOL    HW117585   2.932   2.792   0.064
 5562SOL    HW217586   2.903   2.637   0.107
 5563SOL     OW17587   4.604   6.480   2.566
 5563SOL    HW117588   4.696   6.494   2.601
 5563SOL    HW217589   4.583   6.382   2.564
 5564SOL     OW17590   4.363   1.661   1.883
 5564SOL    HW117591   4.327   1.639   1.792
 5564SOL    HW217592   4.462   1.650   1.882
 5565SOL     OW17593   4.825   1.662   6.822
 5565SOL    HW117594   4.891   1.638   6.894
 5565SOL    HW217595   4.875   1.698   6.743
 5566SOL     OW17596   1.599   5.365   0.760
 5566SOL    HW117597   1.606   5.275   0.717
 5566SOL    HW217598   1.583   5.354   0.858
 5567SOL     OW17599   0.978   4.402   1.968
 5567SOL    HW117600   1.025   4.447   2.044
 5567SOL    HW217601   0.883   4.386   1.991
 5568SOL     OW17602   4.982   2.393   2.406
 5568SOL    HW117603   4.939   2.345   2.483
 5568SOL    HW217604   4.924   2.385   2.325
 5569SOL     OW17605   3.347   1.834   1.590
 5569SOL    HW117606   3.428   1.809   1.538
 5569SOL    HW217607   3.287   1.890   1.533
 5570SOL     OW17608   5.670   4.427   4.539
 5570SOL    HW117609   5.766   4.412   4.562
 5570SOL    HW217610   5.619   4.448   4.622
 5571SOL     OW17611   0.564   7.022   6.879
 5571SOL    HW117612   0.535   6.926   6.887
 5571SOL    HW217613   0.628   0.016   6.953
 5572SOL     OW17614   1.786   2.729   6.128
 5572SOL    HW117615   1.791   2.730   6.228
 5572SOL    HW217616   1.760   2.819   6.095
 5573SOL     OW17617   1.935   3.059   0.056
 5573SOL    HW117618   1.859   3.003   0.023
 5573SOL    HW217619   1.901   3.150   0.081
 5574SOL     OW17620   6.487   1.000   3.939
 5574SOL    HW117621   6.455   1.094   3.932
 5574SOL    HW217622   6.584   0.999   3.961
 5575SOL     OW17623   0.763   1.371   1.616
 5575SOL    HW117624   0.700   1.335   1.684
 5575SOL    HW217625   0.744   1.329   1.527
 5576SOL     OW17626   6.594   5.909   2.046
 5576SOL    HW117627   6.586   6.005   2.017
 5576SOL    HW217628   6.670   5.866   1.997
 5577SOL     OW17629   2.964   2.942   6.204
 5577SOL    HW117630   2.923   2.904   6.287
 5577SOL    HW217631   3.050   2.896   6.183
 5578SOL     OW17632   4.371   3.565   0.753
 5578SOL    HW117633   4.459   3.531   0.721
 5578SOL    HW217634   4.351   3.526   0.843
 5579SOL     OW17635   6.317   3.685   6.811
 5579SOL    HW117636   6.335   3.718   6.719
 5579SOL    HW217637   6.360   3.746   6.878
 5580SOL     OW17638   4.695   1.973   6.579
 5580SOL    HW117639   4.615   1.922   6.549
 5580SOL    HW217640   4.675   2.018   6.666
 5581SOL     OW17641   2.593   0.102   1.059
 5581SOL    HW117642   2.547   0.091   0.971
 5581SOL    HW217643   2.630   0.195   1.065
 5582SOL     OW17644   3.451   3.344   3.590
 5582SOL    HW117645   3.539   3.377   3.625
 5582SOL    HW217646   3.396   3.308   3.665
 5583SOL     OW17647   3.824   6.597   2.701
 5583SOL    HW117648   3.876   6.521   2.740
 5583SOL    HW217649   3.764   6.563   2.629
 5584SOL     OW17650   5.510   4.080   4.060
 5584SOL    HW117651   5.470   4.060   4.149
 5584SOL    HW217652   5.578   4.010   4.037
 5585SOL     OW17653   4.868   0.708   3.457
 5585SOL    HW117654   4.935   0.750   3.518
 5585SOL    HW217655   4.911   0.685   3.369
 5586SOL     OW17656   1.323   2.532   0.280
 5586SOL    HW117657   1.394   2.464   0.298
 5586SOL    HW217658   1.290   2.569   0.367
 5587SOL     OW17659   4.452   6.685   2.050
 5587SOL    HW117660   4.503   6.724   2.127
 5587SOL    HW217661   4.358   6.666   2.080
 5588SOL     OW17662   1.043   6.600   4.367
 5588SOL    HW117663   1.002   6.545   4.294
 5588SOL    HW217664   1.128   6.557   4.397
 5589SOL     OW17665   5.099   2.877   6.697
 5589SOL    HW117666   5.087   2.965   6.742
 5589SOL    HW217667   5.117   2.807   6.766
 5590SOL     OW17668   6.805   5.618   2.979
 5590SOL    HW117669   6.792   5.687   3.050
 5590SOL    HW217670   6.861   5.656   2.906
 5591SOL     OW17671   5.439   0.617   6.317
 5591SOL    HW117672   5.371   0.640   6.387
 5591SOL    HW217673   5.517   0.679   6.324
 5592SOL     OW17674   2.516   5.037   2.752
 5592SOL    HW117675   2.479   5.127   2.730
 5592SOL    HW217676   2.446   4.967   2.740
 5593SOL     OW17677   0.247   2.710   5.628
 5593SOL    HW117678   0.257   2.783   5.561
 5593SOL    HW217679   0.335   2.692   5.671
 5594SOL     OW17680   2.780   0.924   6.799
 5594SOL    HW117681   2.737   1.011   6.772
 5594SOL    HW217682   2.859   0.943   6.857
 5595SOL     OW17683   6.052   0.787   5.113
 5595SOL    HW117684   6.081   0.729   5.188
 5595SOL    HW217685   6.115   0.776   5.036
 5596SOL     OW17686   5.034   0.187   3.064
 5596SOL    HW117687   5.091   0.134   3.127
 5596SOL    HW217688   5.092   0.253   3.014
 5597SOL     OW17689   5.199   2.432   5.175
 5597SOL    HW117690   5.229   2.346   5.216
 5597SOL    HW217691   5.261   2.457   5.101
 5598SOL     OW17692   5.182   2.697   3.831
 5598SOL    HW117693   5.210   2.758   3.757
 5598SOL    HW217694   5.222   2.607   3.818
 5599SOL     OW17695   6.129   4.036   2.463
 5599SOL    HW117696   6.199   4.106   2.448
 5599SOL    HW217697   6.162   3.947   2.432
 5600SOL     OW17698   2.485   0.263   2.322
 5600SOL    HW117699   2.482   0.362   2.313
 5600SOL    HW217700   2.538   0.224   2.247
 5601SOL     OW17701   4.304   2.154   5.911
 5601SOL    HW117702   4.300   2.090   5.835
 5601SOL    HW217703   4.299   2.248   5.877
 5602SOL     OW17704   6.746   1.035   3.117
 5602SOL    HW117705   6.799   1.109   3.074
 5602SOL    HW217706   6.688   1.073   3.189
 5603SOL     OW17707   4.778   2.384   5.139
 5603SOL    HW117708   4.782   2.458   5.207
 5603SOL    HW217709   4.772   2.423   5.047
 5604SOL     OW17710   1.312   1.882   4.463
 5604SOL    HW117711   1.314   1.809   4.532
 5604SOL    HW217712   1.380   1.862   4.392
 5605SOL     OW17713   1.246   0.260   5.168
 5605SOL    HW117714   1.236   0.231   5.073
 5605SOL    HW217715   1.343   0.267   5.190
 5606SOL     OW17716   4.260   1.152   0.699
 5606SOL    HW117717   4.305   1.084   0.756
 5606SOL    HW217718   4.259   1.240   0.746
 5607SOL     OW17719   6.103   2.062   3.517
 5607SOL    HW117720   6.025   2.048   3.577
 5607SOL    HW217721   6.127   1.976   3.472
 5608SOL     OW17722   6.148   1.362   3.170
 5608SOL    HW117723   6.134   1.265   3.193
 5608SOL    HW217724   6.206   1.368   3.089
 5609SOL     OW17725   4.737   6.054   0.218
 5609SOL    HW117726   4.697   6.108   0.291
 5609SOL    HW217727   4.670   5.987   0.185
 5610SOL     OW17728   5.783   3.698   1.331
 5610SOL    HW117729   5.745   3.708   1.239
 5610SOL    HW217730   5.883   3.702   1.326
 5611SOL     OW17731   0.999   5.043   2.056
 5611SOL    HW117732   0.903   5.026   2.033
 5611SOL    HW217733   1.009   5.052   2.155
 5612SOL     OW17734   3.180   2.766   0.645
 5612SOL    HW117735   3.151   2.714   0.725
 5612SOL    HW217736   3.106   2.766   0.577
 5613SOL     OW17737   6.831   4.528   4.991
 5613SOL    HW117738   6.926   4.499   4.999
 5613SOL    HW217739   6.827   4.627   4.977
 5614SOL     OW17740   6.173   2.319   4.404
 5614SOL    HW117741   6.173   2.352   4.309
 5614SOL    HW217742   6.259   2.344   4.448
 5615SOL     OW17743   0.021   1.376   2.733
 5615SOL    HW117744   0.037   1.279   2.712
 5615SOL    HW217745   6.998   1.384   2.819
 5616SOL     OW17746   2.483   2.271   5.124
 5616SOL    HW117747   2.434   2.331   5.187
 5616SOL    HW217748   2.441   2.276   5.033
 5617SOL     OW17749   1.773   4.565   4.650
 5617SOL    HW117750   1.861   4.552   4.694
 5617SOL    HW217751   1.757   4.491   4.584
 5618SOL     OW17752   6.780   5.328   3.074
 5618SOL    HW117753   6.722   5.388   3.019
 5618SOL    HW217754   6.776   5.235   3.037
 5619SOL     OW17755   3.381   2.981   3.627
 5619SOL    HW117756   3.329   2.933   3.698
 5619SOL    HW217757   3.467   3.015   3.666
 5620SOL     OW17758   4.977   3.843   5.672
 5620SOL    HW117759   4.973   3.795   5.584
 5620SOL    HW217760   5.001   3.778   5.744
 5621SOL     OW17761   1.020   3.181   6.513
 5621SOL    HW117762   1.010   3.084   6.489
 5621SOL    HW217763   1.112   3.197   6.548
 5622SOL     OW17764   4.531   6.644   5.406
 5622SOL    HW117765   4.540   6.564   5.466
 5622SOL    HW217766   4.562   6.620   5.314
 5623SOL     OW17767   4.586   6.913   5.188
 5623SOL    HW117768   4.611   6.873   5.100
 5623SOL    HW217769   4.547   6.843   5.247
 5624SOL     OW17770   0.745   5.175   3.654
 5624SOL    HW117771   0.836   5.208   3.630
 5624SOL    HW217772   0.686   5.252   3.676
 5625SOL     OW17773   0.800   4.822   4.820
 5625SOL    HW117774   0.897   4.834   4.842
 5625SOL    HW217775   0.777   4.725   4.827
 5626SOL     OW17776   2.382   4.741   4.370
 5626SOL    HW117777   2.433   4.797   4.304
 5626SOL    HW217778   2.286   4.736   4.342
 5627SOL     OW17779   6.720   6.136   6.338
 5627SOL    HW117780   6.714   6.103   6.432
 5627SOL    HW217781   6.683   6.067   6.276
 5628SOL     OW17782   3.250   2.890   1.542
 5628SOL    HW117783   3.289   2.819   1.600
 5628SOL    HW217784   3.151   2.892   1.555
 5629SOL     OW17785   3.943   3.124   1.552
 5629SOL    HW117786   3.913   3.045   1.606
 5629SOL    HW217787   3.954   3.096   1.457
 5630SOL     OW17788   1.752   3.937   6.263
 5630SOL    HW117789   1.814   3.871   6.223
 5630SOL    HW217790   1.789   3.968   6.351
 5631SOL     OW17791   5.233   0.985   1.477
 5631SOL    HW117792   5.232   0.963   1.575
 5631SOL    HW217793   5.263   0.905   1.426
 5632SOL     OW17794   4.947   1.683   5.792
 5632SOL    HW117795   4.912   1.700   5.884
 5632SOL    HW217796   4.880   1.714   5.725
 5633SOL     OW17797   6.849   5.080   4.801
 5633SOL    HW117798   6.799   5.123   4.726
 5633SOL    HW217799   6.938   5.049   4.768
 5634SOL     OW17800   1.542   4.821   3.703
 5634SOL    HW117801   1.508   4.881   3.631
 5634SOL    HW217802   1.496   4.843   3.789
 5635SOL     OW17803   2.583   6.316   6.889
 5635SOL    HW117804   2.644   6.349   6.817
 5635SOL    HW217805   2.638   6.292   6.970
 5636SOL     OW17806   5.551   0.804   5.761
 5636SOL    HW117807   5.601   0.806   5.675
 5636SOL    HW217808   5.524   0.897   5.786
 5637SOL     OW17809   4.992   0.459   3.875
 5637SOL    HW117810   5.026   0.406   3.952
 5637SOL    HW217811   5.005   0.556   3.893
 5638SOL     OW17812   5.876   5.575   0.996
 5638SOL    HW117813   5.973   5.552   1.003
 5638SOL    HW217814   5.866   5.663   0.950
 5639SOL     OW17815   1.207   0.883   1.744
 5639SOL    HW117816   1.258   0.824   1.806
 5639SOL    HW217817   1.119   0.840   1.721
 5640SOL     OW17818   2.878   7.019   2.274
 5640SOL    HW117819   2.847   6.968   2.354
 5640SOL    HW217820   2.859   6.966   2.191
 5641SOL     OW17821   0.520   4.284   6.363
 5641SOL    HW117822   0.420   4.274   6.368
 5641SOL    HW217823   0.548   4.358   6.424
 5642SOL     OW17824   1.180   5.054   5.800
 5642SOL    HW117825   1.181   4.973   5.741
 5642SOL    HW217826   1.227   5.033   5.886
 5643SOL     OW17827   3.356   0.610   5.338
 5643SOL    HW117828   3.408   0.599   5.253
 5643SOL    HW217829   3.358   0.707   5.365
 5644SOL     OW17830   4.140   0.568   3.993
 5644SOL    HW117831   4.106   0.652   3.950
 5644SOL    HW217832   4.078   0.540   4.065
 5645SOL     OW17833   6.922   4.412   3.367
 5645SOL    HW117834   6.863   4.481   3.324
 5645SOL    HW217835   6.955   4.349   3.297
 5646SOL     OW17836   2.062   5.224   3.364
 5646SOL    HW117837   2.106   5.272   3.439
 5646SOL    HW217838   2.094   5.261   3.277
 5647SOL     OW17839   6.085   6.885   6.948
 5647SOL    HW117840   6.159   6.896   7.014
 5647SOL    HW217841   6.075   6.789   6.924
 5648SOL     OW17842   1.522   1.545   2.630
 5648SOL    HW117843   1.559   1.505   2.546
 5648SOL    HW217844   1.534   1.645   2.627
 5649SOL     OW17845   0.802   6.514   6.075
 5649SOL    HW117846   0.721   6.456   6.079
 5649SOL    HW217847   0.774   6.607   6.051
 5650SOL     OW17848   0.455   5.599   1.306
 5650SOL    HW117849   0.442   5.696   1.287
 5650SOL    HW217850   0.538   5.567   1.260
 5651SOL     OW17851   0.328   1.232   2.104
 5651SOL    HW117852   0.292   1.296   2.036
 5651SOL    HW217853   0.363   1.150   2.058
 5652SOL     OW17854   5.881   6.586   1.567
 5652SOL    HW117855   5.872   6.541   1.656
 5652SOL    HW217856   5.828   6.670   1.566
 5653SOL     OW17857   0.252   6.648   6.554
 5653SOL    HW117858   0.316   6.721   6.531
 5653SOL    HW217859   0.295   6.559   6.540
 5654SOL     OW17860   6.575   6.346   5.892
 5654SOL    HW117861   6.558   6.329   5.989
 5654SOL    HW217862   6.649   6.412   5.881
 5655SOL     OW17863   1.328   3.439   4.568
 5655SOL    HW117864   1.406   3.496   4.543
 5655SOL    HW217865   1.356   3.343   4.565
 5656SOL     OW17866   1.847   4.359   0.518
 5656SOL    HW117867   1.929   4.310   0.548
 5656SOL    HW217868   1.874   4.440   0.465
 5657SOL     OW17869   5.412   0.516   1.078
 5657SOL    HW117870   5.313   0.529   1.080
 5657SOL    HW217871   5.433   0.419   1.081
 5658SOL     OW17872   3.282   5.916   5.991
 5658SOL    HW117873   3.225   5.834   5.998
 5658SOL    HW217874   3.356   5.900   5.925
 5659SOL     OW17875   3.449   4.087   3.328
 5659SOL    HW117876   3.371   4.028   3.348
 5659SOL    HW217877   3.419   4.164   3.271
 5660SOL     OW17878   5.775   0.005   5.366
 5660SOL    HW117879   5.676   0.010   5.377
 5660SOL    HW217880   5.797   6.993   5.277
 5661SOL     OW17881   0.249   4.289   6.091
 5661SOL    HW117882   0.345   4.318   6.079
 5661SOL    HW217883   0.246   4.202   6.139
 5662SOL     OW17884   2.857   5.374   3.752
 5662SOL    HW117885   2.827   5.368   3.848
 5662SOL    HW217886   2.777   5.388   3.694
 5663SOL     OW17887   1.980   3.917   0.132
 5663SOL    HW117888   1.975   4.007   0.175
 5663SOL    HW217889   1.912   3.911   0.059
 5664SOL     OW17890   6.858   4.140   4.292
 5664SOL    HW117891   6.805   4.056   4.282
 5664SOL    HW217892   6.947   4.119   4.331
 5665SOL     OW17893   1.893   1.656   6.966
 5665SOL    HW117894   1.855   1.596   0.010
 5665SOL    HW217895   1.834   1.736   6.954
 5666SOL     OW17896   5.449   6.207   0.815
 5666SOL    HW117897   5.507   6.125   0.822
 5666SOL    HW217898   5.475   6.259   0.733
 5667SOL     OW17899   1.523   4.087   3.886
 5667SOL    HW117900   1.428   4.063   3.867
 5667SOL    HW217901   1.561   4.136   3.808
 5668SOL     OW17902   5.629   1.848   5.802
 5668SOL    HW117903   5.529   1.854   5.796
 5668SOL    HW217904   5.657   1.753   5.791
 5669SOL     OW17905   0.413   2.763   6.650
 5669SOL    HW117906   0.329   2.710   6.660
 5669SOL    HW217907   0.490   2.700   6.635
 5670SOL     OW17908   0.056   3.038   3.862
 5670SOL    HW117909   0.078   3.063   3.957
 5670SOL    HW217910   6.999   2.986   3.860
 5671SOL     OW17911   0.750   6.853   6.358
 5671SOL    HW117912   0.691   6.774   6.373
 5671SOL    HW217913   0.839   6.836   6.401
 5672SOL     OW17914   4.562   4.380   6.658
 5672SOL    HW117915   4.528   4.302   6.606
 5672SOL    HW217916   4.490   4.450   6.664
 5673SOL     OW17917   0.975   6.004   1.903
 5673SOL    HW117918   0.888   6.015   1.855
 5673SOL    HW217919   0.969   5.927   1.966
 5674SOL     OW17920   6.684   4.201   3.774
 5674SOL    HW117921   6.749   4.211   3.850
 5674SOL    HW217922   6.590   4.210   3.809
 5675SOL     OW17923   4.306   2.034   6.292
 5675SOL    HW117924   4.252   1.992   6.219
 5675SOL    HW217925   4.330   2.128   6.267
 5676SOL     OW17926   1.819   2.173   2.090
 5676SOL    HW117927   1.841   2.082   2.125
 5676SOL    HW217928   1.901   2.215   2.052
 5677SOL     OW17929   0.699   2.741   2.794
 5677SOL    HW117930   0.658   2.750   2.885
 5677SOL    HW217931   0.780   2.681   2.801
 5678SOL     OW17932   2.364   6.399   3.034
 5678SOL    HW117933   2.432   6.470   3.048
 5678SOL    HW217934   2.381   6.323   3.097
 5679SOL     OW17935   1.200   0.361   3.174
 5679SOL    HW117936   1.254   0.302   3.234
 5679SOL    HW217937   1.235   0.454   3.179
 5680SOL     OW17938   1.154   5.478   0.534
 5680SOL    HW117939   1.176   5.512   0.626
 5680SOL    HW217940   1.236   5.483   0.477
 5681SOL     OW17941   0.430   3.650   6.664
 5681SOL    HW117942   0.524   3.678   6.645
 5681SOL    HW217943   0.374   3.731   6.678
 5682SOL     OW17944   2.176   4.868   5.309
 5682SOL    HW117945   2.267   4.908   5.303
 5682SOL    HW217946   2.158   4.814   5.227
 5683SOL     OW17947   3.684   1.346   0.213
 5683SOL    HW117948   3.737   1.290   0.276
 5683SOL    HW217949   3.676   1.299   0.125
 5684SOL     OW17950   3.796   2.932   4.760
 5684SOL    HW117951   3.784   3.024   4.723
 5684SOL    HW217952   3.882   2.893   4.727
 5685SOL     OW17953   1.589   3.406   2.202
 5685SOL    HW117954   1.546   3.333   2.255
 5685SOL    HW217955   1.555   3.404   2.108
 5686SOL     OW17956   2.894   6.980   6.401
 5686SOL    HW117957   2.863   6.892   6.366
 5686SOL    HW217958   2.920   0.011   6.325
 5687SOL     OW17959   0.567   3.571   5.401
 5687SOL    HW117960   0.574   3.667   5.426
 5687SOL    HW217961   0.477   3.535   5.429
 5688SOL     OW17962   6.400   1.715   0.049
 5688SOL    HW117963   6.335   1.768   7.022
 5688SOL    HW217964   6.429   1.769   0.128
 5689SOL     OW17965   4.669   0.527   0.220
 5689SOL    HW117966   4.708   0.533   0.312
 5689SOL    HW217967   4.674   0.617   0.176
 5690SOL     OW17968   2.522   6.434   0.616
 5690SOL    HW117969   2.591   6.369   0.648
 5690SOL    HW217970   2.431   6.394   0.625
 5691SOL     OW17971   2.523   5.967   1.866
 5691SOL    HW117972   2.589   6.041   1.858
 5691SOL    HW217973   2.529   5.907   1.786
 5692SOL     OW17974   6.943   3.296   5.921
 5692SOL    HW117975   6.845   3.284   5.906
 5692SOL    HW217976   6.989   3.208   5.913
 5693SOL     OW17977   6.362   2.535   2.671
 5693SOL    HW117978   6.291   2.606   2.662
 5693SOL    HW217979   6.330   2.451   2.629
 5694SOL     OW17980   1.057   1.765   3.684
 5694SOL    HW117981   1.036   1.694   3.751
 5694SOL    HW217982   1.005   1.848   3.705
 5695SOL     OW17983   1.236   2.719   3.342
 5695SOL    HW117984   1.276   2.771   3.418
 5695SOL    HW217985   1.308   2.690   3.280
 5696SOL     OW17986   1.112   0.304   2.914
 5696SOL    HW117987   1.122   0.314   3.013
 5696SOL    HW217988   1.061   0.382   2.878
 5697SOL     OW17989   6.343   1.898   0.910
 5697SOL    HW117990   6.333   1.799   0.913
 5697SOL    HW217991   6.274   1.940   0.971
 5698SOL     OW17992   0.278   3.350   2.312
 5698SOL    HW117993   0.315   3.318   2.399
 5698SOL    HW217994   0.250   3.272   2.256
 5699SOL     OW17995   6.259   2.238   3.250
 5699SOL    HW117996   6.292   2.330   3.229
 5699SOL    HW217997   6.170   2.245   3.295
 5700SOL     OW17998   6.553   6.590   4.470
 5700SOL    HW117999   6.540   6.673   4.415
 5700SOL    HW218000   6.642   6.550   4.450
 5701SOL     OW18001   1.154   6.122   3.286
 5701SOL    HW118002   1.168   6.080   3.197
 5701SOL    HW218003   1.067   6.172   3.285
 5702SOL     OW18004   1.540   0.164   5.198
 5702SOL    HW118005   1.527   0.071   5.233
 5702SOL    HW218006   1.572   0.160   5.104
 5703SOL     OW18007   5.389   4.182   1.187
 5703SOL    HW118008   5.481   4.192   1.149
 5703SOL    HW218009   5.373   4.087   1.213
 5704SOL     OW18010   4.422   5.389   2.084
 5704SOL    HW118011   4.383   5.345   2.004
 5704SOL    HW218012   4.400   5.486   2.083
 5705SOL     OW18013   5.105   1.419   0.675
 5705SOL    HW118014   5.073   1.351   0.741
 5705SOL    HW218015   5.203   1.436   0.689
 5706SOL     OW18016   0.829   1.964   0.311
 5706SOL    HW118017   0.776   1.905   0.249
 5706SOL    HW218018   0.787   1.962   0.401
 5707SOL     OW18019   0.621   0.101   0.562
 5707SOL    HW118020   0.647   0.158   0.485
 5707SOL    HW218021   0.575   0.018   0.528
 5708SOL     OW18022   5.230   6.416   1.007
 5708SOL    HW118023   5.165   6.368   1.065
 5708SOL    HW218024   5.215   6.390   0.911
 5709SOL     OW18025   1.208   0.387   3.556
 5709SOL    HW118026   1.114   0.355   3.550
 5709SOL    HW218027   1.258   0.357   3.475
 5710SOL     OW18028   2.833   3.270   6.473
 5710SOL    HW118029   2.774   3.191   6.488
 5710SOL    HW218030   2.788   3.334   6.411
 5711SOL     OW18031   4.273   0.689   2.884
 5711SOL    HW118032   4.293   0.602   2.929
 5711SOL    HW218033   4.350   0.752   2.897
 5712SOL     OW18034   0.768   5.672   6.117
 5712SOL    HW118035   0.747   5.756   6.167
 5712SOL    HW218036   0.811   5.696   6.029
 5713SOL     OW18037   1.262   2.246   1.675
 5713SOL    HW118038   1.169   2.213   1.660
 5713SOL    HW218039   1.309   2.185   1.738
 5714SOL     OW18040   0.183   6.135   6.564
 5714SOL    HW118041   0.122   6.084   6.625
 5714SOL    HW218042   0.271   6.088   6.558
 5715SOL     OW18043   1.213   6.680   3.516
 5715SOL    HW118044   1.193   6.594   3.562
 5715SOL    HW218045   1.162   6.684   3.430
 5716SOL     OW18046   1.646   4.767   6.975
 5716SOL    HW118047   1.633   4.669   6.964
 5716SOL    HW218048   1.734   4.794   6.936
 5717SOL     OW18049   1.992   6.257   0.795
 5717SOL    HW118050   1.915   6.223   0.848
 5717SOL    HW218051   2.019   6.189   0.727
 5718SOL     OW18052   1.136   3.657   6.171
 5718SOL    HW118053   1.182   3.614   6.094
 5718SOL    HW218054   1.089   3.587   6.226
 5719SOL     OW18055   2.128   1.514   6.080
 5719SOL    HW118056   2.155   1.547   5.989
 5719SOL    HW218057   2.032   1.488   6.078
 5720SOL     OW18058   0.920   4.822   4.330
 5720SOL    HW118059   0.918   4.802   4.428
 5720SOL    HW218060   1.011   4.852   4.304
 5721SOL     OW18061   0.377   3.539   0.625
 5721SOL    HW118062   0.366   3.638   0.623
 5721SOL    HW218063   0.403   3.506   0.535
 5722SOL     OW18064   6.255   1.950   4.951
 5722SOL    HW118065   6.302   1.870   4.988
 5722SOL    HW218066   6.197   1.922   4.875
 5723SOL     OW18067   4.331   3.837   0.068
 5723SOL    HW118068   4.361   3.758   0.121
 5723SOL    HW218069   4.406   3.870   0.012
 5724SOL     OW18070   4.008   2.758   5.363
 5724SOL    HW118071   3.914   2.727   5.364
 5724SOL    HW218072   4.064   2.695   5.310
 5725SOL     OW18073   6.142   5.588   3.858
 5725SOL    HW118074   6.213   5.570   3.926
 5725SOL    HW218075   6.153   5.681   3.822
 5726SOL     OW18076   6.358   3.788   3.780
 5726SOL    HW118077   6.456   3.800   3.794
 5726SOL    HW218078   6.323   3.864   3.725
 5727SOL     OW18079   1.075   2.529   4.139
 5727SOL    HW118080   0.985   2.494   4.166
 5727SOL    HW218081   1.067   2.626   4.116
 5728SOL     OW18082   4.658   1.321   6.864
 5728SOL    HW118083   4.619   1.241   6.818
 5728SOL    HW218084   4.607   1.403   6.837
 5729SOL     OW18085   0.843   1.531   0.083
 5729SOL    HW118086   0.804   1.497   7.025
 5729SOL    HW218087   0.801   1.483   0.160
 5730SOL     OW18088   4.434   5.210   5.684
 5730SOL    HW118089   4.385   5.177   5.603
 5730SOL    HW218090   4.480   5.296   5.662
 5731SOL     OW18091   1.881   6.387   4.241
 5731SOL    HW118092   1.889   6.427   4.333
 5731SOL    HW218093   1.848   6.457   4.178
 5732SOL     OW18094   6.904   4.836   5.631
 5732SOL    HW118095   6.815   4.810   5.593
 5732SOL    HW218096   6.917   4.934   5.617
 5733SOL     OW18097   2.950   0.344   5.557
 5733SOL    HW118098   3.001   0.384   5.633
 5733SOL    HW218099   2.897   0.266   5.589
 5734SOL     OW18100   1.315   6.042   6.197
 5734SOL    HW118101   1.369   6.028   6.280
 5734SOL    HW218102   1.309   5.957   6.146
 5735SOL     OW18103   4.092   1.133   2.392
 5735SOL    HW118104   4.160   1.185   2.340
 5735SOL    HW218105   4.100   1.036   2.369
 5736SOL     OW18106   5.752   4.086   1.074
 5736SOL    HW118107   5.761   4.180   1.106
 5736SOL    HW218108   5.691   4.084   0.995
 5737SOL     OW18109   5.643   5.863   6.970
 5737SOL    HW118110   5.660   5.770   6.939
 5737SOL    HW218111   5.562   5.865   0.001
 5738SOL     OW18112   3.255   2.454   6.761
 5738SOL    HW118113   3.181   2.520   6.746
 5738SOL    HW218114   3.229   2.366   6.722
 5739SOL     OW18115   0.980   6.054   5.453
 5739SOL    HW118116   0.947   6.111   5.529
 5739SOL    HW218117   1.036   6.110   5.392
 5740SOL     OW18118   4.294   4.422   0.994
 5740SOL    HW118119   4.250   4.463   0.914
 5740SOL    HW218120   4.338   4.337   0.967
 5741SOL     OW18121   6.832   3.817   4.607
 5741SOL    HW118122   6.767   3.868   4.663
 5741SOL    HW218123   6.923   3.823   4.648
 5742SOL     OW18124   4.471   6.034   2.201
 5742SOL    HW118125   4.378   5.995   2.199
 5742SOL    HW218126   4.519   6.010   2.117
 5743SOL     OW18127   1.922   6.021   5.668
 5743SOL    HW118128   1.959   6.050   5.757
 5743SOL    HW218129   1.930   5.922   5.659
 5744SOL     OW18130   4.714   1.459   1.500
 5744SOL    HW118131   4.810   1.483   1.518
 5744SOL    HW218132   4.707   1.417   1.410
 5745SOL     OW18133   2.000   1.221   3.385
 5745SOL    HW118134   2.064   1.287   3.424
 5745SOL    HW218135   2.036   1.188   3.298
 5746SOL     OW18136   4.582   0.264   2.002
 5746SOL    HW118137   4.615   0.286   2.094
 5746SOL    HW218138   4.596   0.167   1.984
 5747SOL     OW18139   1.232   5.476   1.920
 5747SOL    HW118140   1.243   5.456   2.017
 5747SOL    HW218141   1.220   5.391   1.869
 5748SOL     OW18142   1.233   0.334   1.321
 5748SOL    HW118143   1.305   0.327   1.390
 5748SOL    HW218144   1.233   0.252   1.264
 5749SOL     OW18145   1.454   6.322   5.008
 5749SOL    HW118146   1.529   6.257   5.019
 5749SOL    HW218147   1.370   6.282   5.043
 5750SOL     OW18148   6.202   6.007   4.856
 5750SOL    HW118149   6.301   5.995   4.861
 5750SOL    HW218150   6.160   5.967   4.937
 5751SOL     OW18151   2.272   2.827   4.866
 5751SOL    HW118152   2.331   2.895   4.910
 5751SOL    HW218153   2.303   2.813   4.772
 5752SOL     OW18154   5.382   0.371   0.176
 5752SOL    HW118155   5.295   0.323   0.163
 5752SOL    HW218156   5.372   0.441   0.247
 5753SOL     OW18157   3.774   4.087   4.288
 5753SOL    HW118158   3.675   4.081   4.274
 5753SOL    HW218159   3.802   4.183   4.285
 5754SOL     OW18160   0.066   5.677   2.131
 5754SOL    HW118161   7.010   5.729   2.112
 5754SOL    HW218162   0.101   5.702   2.221
 5755SOL     OW18163   1.844   2.310   6.689
 5755SOL    HW118164   1.778   2.384   6.695
 5755SOL    HW218165   1.798   2.227   6.657
 5756SOL     OW18166   6.762   0.302   2.828
 5756SOL    HW118167   6.840   0.356   2.862
 5756SOL    HW218168   6.729   0.242   2.901
 5757SOL     OW18169   0.455   5.545   3.068
 5757SOL    HW118170   0.488   5.500   3.150
 5757SOL    HW218171   0.367   5.506   3.041
 5758SOL     OW18172   2.426   1.405   3.970
 5758SOL    HW118173   2.471   1.433   4.055
 5758SOL    HW218174   2.488   1.420   3.893
 5759SOL     OW18175   5.054   0.565   6.728
 5759SOL    HW118176   5.106   0.645   6.756
 5759SOL    HW218177   4.960   0.574   6.760
 5760SOL     OW18178   6.981   2.858   0.894
 5760SOL    HW118179   6.940   2.943   0.928
 5760SOL    HW218180   6.909   2.792   0.876
 5761SOL     OW18181   5.808   4.921   6.041
 5761SOL    HW118182   5.709   4.905   6.045
 5761SOL    HW218183   5.854   4.838   6.010
 5762SOL     OW18184   5.169   3.862   1.121
 5762SOL    HW118185   5.093   3.798   1.112
 5762SOL    HW218186   5.216   3.871   1.034
 5763SOL     OW18187   6.500   5.746   0.628
 5763SOL    HW118188   6.424   5.807   0.607
 5763SOL    HW218189   6.465   5.661   0.668
 5764SOL     OW18190   5.435   4.786   5.210
 5764SOL    HW118191   5.495   4.707   5.203
 5764SOL    HW218192   5.476   4.855   5.270
 5765SOL     OW18193   6.432   3.018   1.015
 5765SOL    HW118194   6.497   2.989   0.945
 5765SOL    HW218195   6.384   3.099   0.985
 5766SOL     OW18196   1.712   1.671   5.949
 5766SOL    HW118197   1.771   1.710   5.879
 5766SOL    HW218198   1.655   1.742   5.990
 5767SOL     OW18199   2.126   0.517   0.720
 5767SOL    HW118200   2.028   0.504   0.735
 5767SOL    HW218201   2.162   0.582   0.786
 5768SOL     OW18202   1.097   6.216   4.248
 5768SOL    HW118203   1.141   6.305   4.238
 5768SOL    HW218204   1.010   6.227   4.297
 5769SOL     OW18205   2.255   5.472   4.293
 5769SOL    HW118206   2.333   5.496   4.351
 5769SOL    HW218207   2.277   5.493   4.197
 5770SOL     OW18208   6.616   6.019   6.570
 5770SOL    HW118209   6.567   5.968   6.500
 5770SOL    HW218210   6.550   6.071   6.626
 5771SOL     OW18211   0.916   6.829   4.430
 5771SOL    HW118212   0.840   6.840   4.367
 5771SOL    HW218213   0.963   6.743   4.412
 5772SOL     OW18214   5.442   0.872   1.900
 5772SOL    HW118215   5.405   0.943   1.960
 5772SOL    HW218216   5.541   0.882   1.893
 5773SOL     OW18217   3.802   0.630   3.277
 5773SOL    HW118218   3.726   0.665   3.332
 5773SOL    HW218219   3.777   0.542   3.238
 5774SOL     OW18220   3.127   6.356   4.093
 5774SOL    HW118221   3.093   6.273   4.049
 5774SOL    HW218222   3.199   6.396   4.036
 5775SOL     OW18223   1.481   0.738   2.523
 5775SOL    HW118224   1.445   0.831   2.528
 5775SOL    HW218225   1.577   0.740   2.495
 5776SOL     OW18226   0.325   0.649   4.497
 5776SOL    HW118227   0.238   0.600   4.494
 5776SOL    HW218228   0.397   0.586   4.527
 5777SOL     OW18229   6.873   0.740   4.913
 5777SOL    HW118230   6.863   0.703   5.005
 5777SOL    HW218231   6.910   0.670   4.852
 5778SOL     OW18232   1.425   0.465   0.543
 5778SOL    HW118233   1.460   0.452   0.635
 5778SOL    HW218234   1.501   0.467   0.478
 5779SOL     OW18235   4.122   2.741   0.751
 5779SOL    HW118236   4.059   2.780   0.684
 5779SOL    HW218237   4.153   2.813   0.814
 5780SOL     OW18238   6.430   5.936   4.229
 5780SOL    HW118239   6.362   5.908   4.161
 5780SOL    HW218240   6.432   5.870   4.303
 5781SOL     OW18241   6.482   5.293   4.515
 5781SOL    HW118242   6.426   5.221   4.554
 5781SOL    HW218243   6.559   5.253   4.464
 5782SOL     OW18244   1.192   1.429   0.570
 5782SOL    HW118245   1.278   1.461   0.609
 5782SOL    HW218246   1.118   1.442   0.637
 5783SOL     OW18247   1.331   0.293   1.673
 5783SOL    HW118248   1.374   0.353   1.741
 5783SOL    HW218249   1.245   0.334   1.643
 5784SOL     OW18250   6.805   5.860   6.666
 5784SOL    HW118251   6.786   5.861   6.764
 5784SOL    HW218252   6.758   5.937   6.622
 5785SOL     OW18253   2.481   1.600   0.586
 5785SOL    HW118254   2.538   1.682   0.585
 5785SOL    HW218255   2.384   1.627   0.593
 5786SOL     OW18256   1.369   3.723   0.364
 5786SOL    HW118257   1.427   3.643   0.377
 5786SOL    HW218258   1.386   3.762   0.273
 5787SOL     OW18259   3.504   2.042   4.942
 5787SOL    HW118260   3.519   2.005   4.850
 5787SOL    HW218261   3.406   2.048   4.960
 5788SOL     OW18262   2.963   1.361   1.158
 5788SOL    HW118263   2.909   1.278   1.143
 5788SOL    HW218264   2.902   1.437   1.178
 5789SOL     OW18265   3.377   4.679   6.699
 5789SOL    HW118266   3.474   4.703   6.690
 5789SOL    HW218267   3.352   4.679   6.796
 5790SOL     OW18268   1.019   4.528   4.491
 5790SOL    HW118269   0.959   4.469   4.546
 5790SOL    HW218270   1.066   4.472   4.422
 5791SOL     OW18271   3.412   1.425   2.879
 5791SOL    HW118272   3.364   1.427   2.967
 5791SOL    HW218273   3.357   1.470   2.809
 5792SOL     OW18274   6.087   3.063   2.422
 5792SOL    HW118275   6.059   3.025   2.510
 5792SOL    HW218276   6.174   3.021   2.394
 5793SOL     OW18277   4.796   1.003   3.827
 5793SOL    HW118278   4.772   0.963   3.739
 5793SOL    HW218279   4.754   1.093   3.836
 5794SOL     OW18280   2.304   0.675   0.158
 5794SOL    HW118281   2.276   0.763   0.121
 5794SOL    HW218282   2.248   0.603   0.118
 5795SOL     OW18283   6.420   7.014   6.664
 5795SOL    HW118284   6.330   7.018   6.707
 5795SOL    HW218285   6.489   6.991   6.732
 5796SOL     OW18286   5.032   1.392   6.098
 5796SOL    HW118287   5.109   1.330   6.114
 5796SOL    HW218288   5.062   1.487   6.109
 5797SOL     OW18289   5.007   2.469   6.589
 5797SOL    HW118290   4.970   2.546   6.537
 5797SOL    HW218291   4.946   2.390   6.579
 5798SOL     OW18292   1.141   4.883   4.978
 5798SOL    HW118293   1.189   4.907   4.893
 5798SOL    HW218294   1.139   4.784   4.989
 5799SOL     OW18295   0.142   0.627   3.595
 5799SOL    HW118296   0.207   0.559   3.562
 5799SOL    HW218297   0.049   0.594   3.577
 5800SOL     OW18298   6.354   6.308   2.119
 5800SOL    HW118299   6.314   6.216   2.112
 5800SOL    HW218300   6.373   6.329   2.215
 5801SOL     OW18301   1.753   2.432   3.575
 5801SOL    HW118302   1.700   2.355   3.610
 5801SOL    HW218303   1.837   2.442   3.628
 5802SOL     OW18304   0.592   3.843   2.235
 5802SOL    HW118305   0.611   3.756   2.190
 5802SOL    HW218306   0.503   3.839   2.281
 5803SOL     OW18307   2.574   5.387   1.905
 5803SOL    HW118308   2.538   5.475   1.936
 5803SOL    HW218309   2.672   5.397   1.886
 5804SOL     OW18310   0.365   6.108   3.868
 5804SOL    HW118311   0.426   6.031   3.850
 5804SOL    HW218312   0.417   6.184   3.907
 5805SOL     OW18313   2.427   3.258   0.235
 5805SOL    HW118314   2.439   3.357   0.222
 5805SOL    HW218315   2.333   3.239   0.260
 5806SOL     OW18316   6.744   5.318   5.054
 5806SOL    HW118317   6.705   5.404   5.087
 5806SOL    HW218318   6.803   5.338   4.975
 5807SOL     OW18319   0.834   3.840   1.504
 5807SOL    HW118320   0.812   3.750   1.542
 5807SOL    HW218321   0.933   3.851   1.499
 5808SOL     OW18322   6.461   5.870   4.870
 5808SOL    HW118323   6.515   5.946   4.832
 5808SOL    HW218324   6.506   5.835   4.952
 5809SOL     OW18325   5.594   2.120   4.487
 5809SOL    HW118326   5.538   2.065   4.549
 5809SOL    HW218327   5.691   2.107   4.509
 5810SOL     OW18328   4.052   1.648   4.557
 5810SOL    HW118329   4.042   1.556   4.594
 5810SOL    HW218330   4.099   1.643   4.469
 5811SOL     OW18331   3.103   0.949   5.111
 5811SOL    HW118332   3.164   1.018   5.072
 5811SOL    HW218333   3.152   0.895   5.179
 5812SOL     OW18334   6.301   2.603   4.291
 5812SOL    HW118335   6.370   2.604   4.363
 5812SOL    HW218336   6.346   2.590   4.203
 5813SOL     OW18337   1.632   1.749   1.041
 5813SOL    HW118338   1.708   1.685   1.045
 5813SOL    HW218339   1.663   1.837   1.006
 5814SOL     OW18340   6.412   4.139   2.402
 5814SOL    HW118341   6.438   4.055   2.450
 5814SOL    HW218342   6.481   4.161   2.333
 5815SOL     OW18343   4.197   1.897   4.527
 5815SOL    HW118344   4.117   1.839   4.545
 5815SOL    HW218345   4.172   1.993   4.533
 5816SOL     OW18346   4.587   5.204   0.311
 5816SOL    HW118347   4.609   5.291   0.356
 5816SOL    HW218348   4.519   5.221   0.239
 5817SOL     OW18349   5.768   3.688   5.839
 5817SOL    HW118350   5.816   3.713   5.755
 5817SOL    HW218351   5.680   3.647   5.817
 5818SOL     OW18352   6.883   5.976   4.763
 5818SOL    HW118353   6.875   6.058   4.820
 5818SOL    HW218354   6.933   5.906   4.814
 5819SOL     OW18355   3.616   6.860   6.559
 5819SOL    HW118356   3.555   6.866   6.639
 5819SOL    HW218357   3.681   6.936   6.560
 5820SOL     OW18358   4.573   5.257   3.641
 5820SOL    HW118359   4.498   5.304   3.595
 5820SOL    HW218360   4.634   5.324   3.683
 5821SOL     OW18361   0.056   6.495   1.203
 5821SOL    HW118362   0.024   6.525   1.114
 5821SOL    HW218363   0.059   6.573   1.265
 5822SOL     OW18364   1.517   2.445   1.299
 5822SOL    HW118365   1.519   2.528   1.353
 5822SOL    HW218366   1.512   2.469   1.202
 5823SOL     OW18367   1.639   0.287   5.463
 5823SOL    HW118368   1.678   0.367   5.416
 5823SOL    HW218369   1.579   0.238   5.400
 5824SOL     OW18370   6.809   5.693   2.302
 5824SOL    HW118371   6.751   5.747   2.362
 5824SOL    HW218372   6.838   5.750   2.225
 5825SOL     OW18373   0.209   1.807   5.565
 5825SOL    HW118374   0.284   1.750   5.600
 5825SOL    HW218375   0.129   1.750   5.547
 5826SOL     OW18376   0.245   4.599   6.088
 5826SOL    HW118377   0.274   4.512   6.046
 5826SOL    HW218378   0.160   4.630   6.045
 5827SOL     OW18379   2.138   3.836   4.811
 5827SOL    HW118380   2.161   3.840   4.714
 5827SOL    HW218381   2.194   3.901   4.861
 5828SOL     OW18382   6.563   1.749   1.527
 5828SOL    HW118383   6.579   1.848   1.518
 5828SOL    HW218384   6.493   1.733   1.596
 5829SOL     OW18385   0.944   0.567   3.272
 5829SOL    HW118386   0.921   0.591   3.366
 5829SOL    HW218387   1.042   0.583   3.257
 5830SOL     OW18388   5.079   6.415   5.760
 5830SOL    HW118389   5.015   6.487   5.784
 5830SOL    HW218390   5.029   6.329   5.749
 5831SOL     OW18391   1.247   1.525   5.554
 5831SOL    HW118392   1.272   1.428   5.562
 5831SOL    HW218393   1.188   1.539   5.475
 5832SOL     OW18394   2.461   4.685   6.896
 5832SOL    HW118395   2.375   4.637   6.878
 5832SOL    HW218396   2.522   4.625   6.947
 5833SOL     OW18397   3.687   3.820   4.820
 5833SOL    HW118398   3.727   3.908   4.794
 5833SOL    HW218399   3.695   3.808   4.919
 5834SOL     OW18400   0.124   2.794   0.516
 5834SOL    HW118401   0.130   2.809   0.615
 5834SOL    HW218402   0.179   2.715   0.491
 5835SOL     OW18403   5.207   3.225   3.531
 5835SOL    HW118404   5.290   3.169   3.524
 5835SOL    HW218405   5.221   3.296   3.600
 5836SOL     OW18406   2.475   6.828   1.809
 5836SOL    HW118407   2.437   6.813   1.900
 5836SOL    HW218408   2.418   6.781   1.741
 5837SOL     OW18409   3.875   4.059   6.041
 5837SOL    HW118410   3.779   4.080   6.060
 5837SOL    HW218411   3.906   4.113   5.963
 5838SOL     OW18412   2.727   1.753   0.609
 5838SOL    HW118413   2.798   1.703   0.559
 5838SOL    HW218414   2.767   1.801   0.686
 5839SOL     OW18415   0.795   2.003   2.625
 5839SOL    HW118416   0.871   2.065   2.646
 5839SOL    HW218417   0.779   2.004   2.526
 5840SOL     OW18418   0.344   5.538   6.387
 5840SOL    HW118419   0.294   5.500   6.465
 5840SOL    HW218420   0.437   5.500   6.385
 5841SOL     OW18421   4.779   1.861   2.396
 5841SOL    HW118422   4.863   1.900   2.434
 5841SOL    HW218423   4.778   1.873   2.297
 5842SOL     OW18424   4.491   2.713   1.350
 5842SOL    HW118425   4.421   2.772   1.390
 5842SOL    HW218426   4.572   2.769   1.327
 5843SOL     OW18427   1.459   3.902   3.296
 5843SOL    HW118428   1.440   3.914   3.393
 5843SOL    HW218429   1.495   3.987   3.258
 5844SOL     OW18430   1.988   6.079   5.924
 5844SOL    HW118431   1.993   6.175   5.952
 5844SOL    HW218432   2.072   6.032   5.953
 5845SOL     OW18433   0.664   0.416   2.802
 5845SOL    HW118434   0.678   0.321   2.776
 5845SOL    HW218435   0.639   0.421   2.898
 5846SOL     OW18436   6.743   3.041   4.427
 5846SOL    HW118437   6.723   3.125   4.477
 5846SOL    HW218438   6.674   3.028   4.356
 5847SOL     OW18439   2.867   2.385   1.286
 5847SOL    HW118440   2.869   2.443   1.368
 5847SOL    HW218441   2.786   2.327   1.288
 5848SOL     OW18442   1.597   6.164   2.918
 5848SOL    HW118443   1.560   6.122   3.000
 5848SOL    HW218444   1.582   6.103   2.840
 5849SOL     OW18445   0.954   0.713   5.970
 5849SOL    HW118446   0.984   0.808   5.973
 5849SOL    HW218447   0.988   0.665   6.050
 5850SOL     OW18448   6.744   3.479   2.028
 5850SOL    HW118449   6.669   3.500   2.091
 5850SOL    HW218450   6.795   3.562   2.006
 5851SOL     OW18451   4.922   3.968   2.909
 5851SOL    HW118452   4.916   3.890   2.847
 5851SOL    HW218453   4.951   3.938   3.000
 5852SOL     OW18454   6.165   5.974   3.084
 5852SOL    HW118455   6.198   6.067   3.097
 5852SOL    HW218456   6.068   5.977   3.057
 5853SOL     OW18457   3.613   5.934   4.169
 5853SOL    HW118458   3.576   6.016   4.124
 5853SOL    HW218459   3.709   5.922   4.143
 5854SOL     OW18460   4.610   4.396   6.065
 5854SOL    HW118461   4.702   4.425   6.093
 5854SOL    HW218462   4.590   4.433   5.974
 5855SOL     OW18463   0.713   1.820   4.614
 5855SOL    HW118464   0.716   1.734   4.562
 5855SOL    HW218465   0.743   1.803   4.708
 5856SOL     OW18466   2.039   6.019   3.652
 5856SOL    HW118467   2.092   6.043   3.734
 5856SOL    HW218468   2.039   6.097   3.589
 5857SOL     OW18469   6.261   1.982   6.108
 5857SOL    HW118470   6.252   1.952   6.203
 5857SOL    HW218471   6.358   1.986   6.083
 5858SOL     OW18472   2.777   1.863   2.320
 5858SOL    HW118473   2.690   1.913   2.317
 5858SOL    HW218474   2.817   1.860   2.228
 5859SOL     OW18475   5.940   6.299   1.146
 5859SOL    HW118476   5.927   6.219   1.204
 5859SOL    HW218477   5.875   6.370   1.172
 5860SOL     OW18478   0.793   3.594   1.628
 5860SOL    HW118479   0.883   3.555   1.650
 5860SOL    HW218480   0.722   3.530   1.658
 5861SOL     OW18481   4.448   1.840   4.591
 5861SOL    HW118482   4.349   1.850   4.583
 5861SOL    HW218483   4.478   1.867   4.683
 5862SOL     OW18484   6.193   5.263   1.437
 5862SOL    HW118485   6.204   5.169   1.406
 5862SOL    HW218486   6.259   5.322   1.390
 5863SOL     OW18487   3.405   2.027   5.298
 5863SOL    HW118488   3.325   2.019   5.238
 5863SOL    HW218489   3.419   2.123   5.323
 5864SOL     OW18490   4.097   3.597   1.997
 5864SOL    HW118491   4.069   3.504   1.974
 5864SOL    HW218492   4.017   3.650   2.025
 5865SOL     OW18493   6.153   0.258   4.596
 5865SOL    HW118494   6.185   0.166   4.618
 5865SOL    HW218495   6.197   0.290   4.512
 5866SOL     OW18496   4.078   4.629   6.895
 5866SOL    HW118497   4.102   4.594   6.805
 5866SOL    HW218498   3.994   4.683   6.889
 5867SOL     OW18499   1.882   3.557   0.524
 5867SOL    HW118500   1.963   3.499   0.527
 5867SOL    HW218501   1.810   3.516   0.580
 5868SOL     OW18502   0.885   2.054   5.445
 5868SOL    HW118503   0.955   2.001   5.492
 5868SOL    HW218504   0.838   1.996   5.378
 5869SOL     OW18505   1.423   6.107   3.376
 5869SOL    HW118506   1.441   6.076   3.469
 5869SOL    HW218507   1.326   6.132   3.367
 5870SOL     OW18508   5.125   5.897   4.542
 5870SOL    HW118509   5.133   5.880   4.641
 5870SOL    HW218510   5.071   5.824   4.500
 5871SOL     OW18511   3.816   2.651   1.335
 5871SOL    HW118512   3.810   2.610   1.244
 5871SOL    HW218513   3.874   2.594   1.393
 5872SOL     OW18514   3.917   6.336   1.001
 5872SOL    HW118515   3.841   6.351   1.064
 5872SOL    HW218516   3.933   6.420   0.949
 5873SOL     OW18517   3.186   1.905   1.360
 5873SOL    HW118518   3.255   1.920   1.289
 5873SOL    HW218519   3.098   1.943   1.330
 5874SOL     OW18520   3.101   3.880   6.305
 5874SOL    HW118521   3.176   3.822   6.338
 5874SOL    HW218522   3.134   3.937   6.230
 5875SOL     OW18523   4.352   0.671   6.924
 5875SOL    HW118524   4.428   0.708   6.871
 5875SOL    HW218525   4.387   0.605   6.991
 5876SOL     OW18526   3.325   3.678   0.754
 5876SOL    HW118527   3.263   3.753   0.779
 5876SOL    HW218528   3.273   3.607   0.708
 5877SOL     OW18529   0.227   0.713   1.054
 5877SOL    HW118530   0.189   0.699   1.146
 5877SOL    HW218531   0.306   0.652   1.041
 5878SOL     OW18532   6.084   5.203   4.076
 5878SOL    HW118533   6.055   5.113   4.043
 5878SOL    HW218534   6.183   5.203   4.090
 5879SOL     OW18535   2.172   3.871   6.862
 5879SOL    HW118536   2.214   3.952   6.905
 5879SOL    HW218537   2.234   3.794   6.869
 5880SOL     OW18538   5.281   4.424   6.641
 5880SOL    HW118539   5.375   4.404   6.615
 5880SOL    HW218540   5.219   4.357   6.599
 5881SOL     OW18541   0.717   6.620   2.635
 5881SOL    HW118542   0.771   6.541   2.608
 5881SOL    HW218543   0.715   6.627   2.735
 5882SOL     OW18544   0.156   5.452   6.579
 5882SOL    HW118545   0.137   5.377   6.516
 5882SOL    HW218546   0.116   5.432   6.668
 5883SOL     OW18547   0.515   1.820   6.725
 5883SOL    HW118548   0.500   1.760   6.647
 5883SOL    HW218549   0.439   1.885   6.732
 5884SOL     OW18550   4.776   1.391   3.740
 5884SOL    HW118551   4.753   1.391   3.838
 5884SOL    HW218552   4.716   1.326   3.692
 5885SOL     OW18553   0.073   5.712   2.402
 5885SOL    HW118554   7.009   5.671   2.395
 5885SOL    HW218555   0.068   5.795   2.456
 5886SOL     OW18556   0.365   2.059   3.684
 5886SOL    HW118557   0.277   2.106   3.678
 5886SOL    HW218558   0.391   2.050   3.780
 5887SOL     OW18559   2.198   2.695   1.480
 5887SOL    HW118560   2.297   2.690   1.493
 5887SOL    HW218561   2.153   2.638   1.549
 5888SOL     OW18562   1.674   0.413   1.124
 5888SOL    HW118563   1.637   0.494   1.079
 5888SOL    HW218564   1.765   0.434   1.160
 5889SOL     OW18565   0.170   1.068   0.373
 5889SOL    HW118566   0.176   1.074   0.473
 5889SOL    HW218567   0.079   1.037   0.347
 5890SOL     OW18568   1.774   1.119   2.627
 5890SOL    HW118569   1.728   1.138   2.541
 5890SOL    HW218570   1.790   1.205   2.676
 5891SOL     OW18571   3.382   4.098   0.087
 5891SOL    HW118572   3.310   4.074   0.021
 5891SOL    HW218573   3.378   4.035   0.165
 5892SOL     OW18574   1.151   5.209   1.926
 5892SOL    HW118575   1.176   5.200   1.830
 5892SOL    HW218576   1.104   5.126   1.956
 5893SOL     OW18577   1.805   4.189   2.934
 5893SOL    HW118578   1.708   4.178   2.913
 5893SOL    HW218579   1.833   4.119   2.999
 5894SOL     OW18580   0.553   5.670   4.715
 5894SOL    HW118581   0.457   5.649   4.695
 5894SOL    HW218582   0.591   5.597   4.772
 5895SOL     OW18583   5.380   3.384   3.934
 5895SOL    HW118584   5.293   3.363   3.889
 5895SOL    HW218585   5.365   3.393   4.033
 5896SOL     OW18586   4.050   1.713   1.534
 5896SOL    HW118587   4.018   1.737   1.625
 5896SOL    HW218588   4.005   1.629   1.503
 5897SOL     OW18589   4.060   0.649   1.726
 5897SOL    HW118590   4.055   0.685   1.632
 5897SOL    HW218591   4.113   0.564   1.726
 5898SOL     OW18592   2.545   0.747   4.923
 5898SOL    HW118593   2.628   0.803   4.920
 5898SOL    HW218594   2.555   0.676   4.993
 5899SOL     OW18595   6.380   5.388   6.978
 5899SOL    HW118596   6.367   5.459   0.020
 5899SOL    HW218597   6.476   5.360   6.978
 5900SOL     OW18598   6.593   4.710   3.586
 5900SOL    HW118599   6.514   4.649   3.574
 5900SOL    HW218600   6.622   4.709   3.682
 5901SOL     OW18601   3.513   0.412   0.622
 5901SOL    HW118602   3.482   0.398   0.716
 5901SOL    HW218603   3.474   0.497   0.586
 5902SOL     OW18604   6.280   3.285   5.527
 5902SOL    HW118605   6.221   3.215   5.567
 5902SOL    HW218606   6.256   3.298   5.431
 5903SOL     OW18607   4.826   3.980   5.938
 5903SOL    HW118608   4.736   4.021   5.949
 5903SOL    HW218609   4.849   3.976   5.841
 5904SOL     OW18610   1.460   5.090   0.884
 5904SOL    HW118611   1.461   5.155   0.960
 5904SOL    HW218612   1.396   5.121   0.814
 5905SOL     OW18613   6.137   0.549   4.185
 5905SOL    HW118614   6.075   0.472   4.173
 5905SOL    HW218615   6.192   0.561   4.101
 5906SOL     OW18616   4.273   1.950   3.609
 5906SOL    HW118617   4.294   1.879   3.677
 5906SOL    HW218618   4.248   2.034   3.655
 5907SOL     OW18619   0.887   6.056   0.369
 5907SOL    HW118620   0.810   6.096   0.419
 5907SOL    HW218621   0.905   5.964   0.404
 5908SOL     OW18622   6.450   3.055   0.539
 5908SOL    HW118623   6.432   3.132   0.478
 5908SOL    HW218624   6.396   2.976   0.509
 5909SOL     OW18625   6.667   5.033   6.891
 5909SOL    HW118626   6.680   5.011   6.987
 5909SOL    HW218627   6.660   5.132   6.879
 5910SOL     OW18628   0.306   4.227   2.288
 5910SOL    HW118629   0.273   4.294   2.221
 5910SOL    HW218630   0.228   4.190   2.339
 5911SOL     OW18631   6.426   4.584   6.520
 5911SOL    HW118632   6.449   4.506   6.461
 5911SOL    HW218633   6.378   4.551   6.601
 5912SOL     OW18634   5.715   2.925   6.473
 5912SOL    HW118635   5.750   2.915   6.380
 5912SOL    HW218636   5.791   2.917   6.538
 5913SOL     OW18637   4.035   3.616   6.475
 5913SOL    HW118638   4.051   3.701   6.524
 5913SOL    HW218639   4.064   3.539   6.532
 5914SOL     OW18640   2.311   5.294   6.622
 5914SOL    HW118641   2.282   5.273   6.528
 5914SOL    HW218642   2.381   5.228   6.651
 5915SOL     OW18643   5.786   4.441   1.595
 5915SOL    HW118644   5.801   4.384   1.514
 5915SOL    HW218645   5.703   4.496   1.582
 5916SOL     OW18646   4.300   5.692   4.928
 5916SOL    HW118647   4.349   5.621   4.980
 5916SOL    HW218648   4.224   5.727   4.983
 5917SOL     OW18649   3.767   3.615   3.550
 5917SOL    HW118650   3.734   3.542   3.609
 5917SOL    HW218651   3.839   3.666   3.597
 5918SOL     OW18652   1.958   3.080   5.565
 5918SOL    HW118653   2.040   3.122   5.604
 5918SOL    HW218654   1.968   3.075   5.466
 5919SOL     OW18655   4.344   2.983   0.855
 5919SOL    HW118656   4.268   2.956   0.914
 5919SOL    HW218657   4.425   2.930   0.880
 5920SOL     OW18658   3.598   0.420   0.170
 5920SOL    HW118659   3.580   0.443   0.074
 5920SOL    HW218660   3.580   0.501   0.226
 5921SOL     OW18661   4.129   5.389   5.909
 5921SOL    HW118662   4.132   5.312   5.845
 5921SOL    HW218663   4.183   5.465   5.872
 5922SOL     OW18664   6.660   5.555   3.238
 5922SOL    HW118665   6.704   5.641   3.213
 5922SOL    HW218666   6.730   5.487   3.259
 5923SOL     OW18667   5.532   0.984   1.071
 5923SOL    HW118668   5.500   1.018   0.982
 5923SOL    HW218669   5.610   0.923   1.057
 5924SOL     OW18670   0.028   1.361   3.831
 5924SOL    HW118671   0.061   1.384   3.923
 5924SOL    HW218672   6.987   1.288   3.838
 5925SOL     OW18673   3.972   5.430   1.904
 5925SOL    HW118674   3.966   5.387   1.814
 5925SOL    HW218675   3.907   5.506   1.908
 5926SOL     OW18676   3.707   5.407   1.460
 5926SOL    HW118677   3.640   5.479   1.480
 5926SOL    HW218678   3.660   5.330   1.417
 5927SOL     OW18679   1.349   4.169   2.998
 5927SOL    HW118680   1.420   4.186   3.066
 5927SOL    HW218681   1.292   4.092   3.027
 5928SOL     OW18682   3.589   0.196   0.455
 5928SOL    HW118683   3.510   0.179   0.396
 5928SOL    HW218684   3.579   0.286   0.498
 5929SOL     OW18685   0.379   6.412   6.410
 5929SOL    HW118686   0.437   6.331   6.400
 5929SOL    HW218687   0.288   6.393   6.372
 5930SOL     OW18688   6.941   2.535   3.322
 5930SOL    HW118689   6.980   2.599   3.256
 5930SOL    HW218690   7.013   2.475   3.356
 5931SOL     OW18691   0.202   5.336   3.766
 5931SOL    HW118692   0.286   5.376   3.729
 5931SOL    HW218693   0.166   5.270   3.701
 5932SOL     OW18694   1.990   0.032   0.330
 5932SOL    HW118695   1.967   0.085   0.412
 5932SOL    HW218696   2.080   7.018   0.343
 5933SOL     OW18697   0.191   6.359   3.936
 5933SOL    HW118698   0.269   6.377   3.877
 5933SOL    HW218699   0.222   6.306   4.015
 5934SOL     OW18700   4.073   3.756   4.245
 5934SOL    HW118701   4.106   3.712   4.328
 5934SOL    HW218702   4.063   3.688   4.172
 5935SOL     OW18703   4.524   3.815   5.727
 5935SOL    HW118704   4.602   3.757   5.701
 5935SOL    HW218705   4.448   3.798   5.664
 5936SOL     OW18706   4.097   3.417   1.132
 5936SOL    HW118707   4.067   3.371   1.049
 5936SOL    HW218708   4.028   3.484   1.160
 5937SOL     OW18709   0.813   5.034   2.834
 5937SOL    HW118710   0.790   5.120   2.878
 5937SOL    HW218711   0.734   4.971   2.840
 5938SOL     OW18712   0.736   5.032   4.233
 5938SOL    HW118713   0.789   5.114   4.256
 5938SOL    HW218714   0.785   4.951   4.265
 5939SOL     OW18715   2.937   6.884   2.880
 5939SOL    HW118716   2.863   6.924   2.935
 5939SOL    HW218717   3.006   6.844   2.940
 5940SOL     OW18718   4.568   5.537   1.108
 5940SOL    HW118719   4.501   5.511   1.038
 5940SOL    HW218720   4.543   5.626   1.146
 5941SOL     OW18721   5.651   3.110   1.736
 5941SOL    HW118722   5.566   3.160   1.754
 5941SOL    HW218723   5.703   3.158   1.665
 5942SOL     OW18724   5.580   2.802   0.264
 5942SOL    HW118725   5.492   2.784   0.308
 5942SOL    HW218726   5.571   2.794   0.165
 5943SOL     OW18727   4.050   5.494   0.029
 5943SOL    HW118728   3.971   5.433   0.023
 5943SOL    HW218729   4.120   5.463   6.992
 5944SOL     OW18730   6.435   2.663   1.364
 5944SOL    HW118731   6.460   2.570   1.336
 5944SOL    HW218732   6.483   2.729   1.306
 5945SOL     OW18733   6.157   5.110   5.452
 5945SOL    HW118734   6.214   5.035   5.486
 5945SOL    HW218735   6.198   5.147   5.368
 5946SOL     OW18736   3.468   3.668   5.544
 5946SOL    HW118737   3.380   3.712   5.531
 5946SOL    HW218738   3.532   3.732   5.587
 5947SOL     OW18739   3.812   3.879   1.878
 5947SOL    HW118740   3.906   3.905   1.861
 5947SOL    HW218741   3.780   3.921   1.963
 5948SOL     OW18742   4.097   5.494   2.884
 5948SOL    HW118743   4.050   5.429   2.825
 5948SOL    HW218744   4.167   5.447   2.937
 5949SOL     OW18745   4.757   3.364   1.597
 5949SOL    HW118746   4.731   3.458   1.619
 5949SOL    HW218747   4.726   3.341   1.505
 5950SOL     OW18748   4.527   2.587   5.383
 5950SOL    HW118749   4.606   2.647   5.371
 5950SOL    HW218750   4.514   2.567   5.480
 5951SOL     OW18751   0.562   5.933   4.693
 5951SOL    HW118752   0.640   5.995   4.692
 5951SOL    HW218753   0.595   5.839   4.688
 5952SOL     OW18754   5.411   4.690   4.339
 5952SOL    HW118755   5.348   4.613   4.347
 5952SOL    HW218756   5.505   4.656   4.327
 5953SOL     OW18757   6.204   2.817   5.074
 5953SOL    HW118758   6.240   2.881   5.142
 5953SOL    HW218759   6.212   2.856   4.983
 5954SOL     OW18760   0.800   4.562   5.602
 5954SOL    HW118761   0.851   4.510   5.534
 5954SOL    HW218762   0.811   4.519   5.692
 5955SOL     OW18763   5.463   5.502   2.510
 5955SOL    HW118764   5.399   5.431   2.479
 5955SOL    HW218765   5.430   5.542   2.595
 5956SOL     OW18766   3.985   1.279   6.163
 5956SOL    HW118767   3.984   1.188   6.121
 5956SOL    HW218768   4.079   1.311   6.174
 5957SOL     OW18769   3.830   0.889   5.458
 5957SOL    HW118770   3.775   0.807   5.476
 5957SOL    HW218771   3.813   0.920   5.364
 5958SOL     OW18772   6.119   6.453   2.503
 5958SOL    HW118773   6.200   6.396   2.485
 5958SOL    HW218774   6.148   6.543   2.534
 5959SOL     OW18775   4.132   2.165   5.450
 5959SOL    HW118776   4.037   2.156   5.479
 5959SOL    HW218777   4.185   2.210   5.522
 5960SOL     OW18778   3.733   5.611   4.131
 5960SOL    HW118779   3.669   5.538   4.107
 5960SOL    HW218780   3.686   5.681   4.185
 5961SOL     OW18781   5.161   0.983   3.438
 5961SOL    HW118782   5.071   1.022   3.417
 5961SOL    HW218783   5.232   1.042   3.400
 5962SOL     OW18784   4.736   6.182   1.051
 5962SOL    HW118785   4.796   6.217   0.979
 5962SOL    HW218786   4.693   6.097   1.021
 5963SOL     OW18787   3.278   3.225   5.222
 5963SOL    HW118788   3.276   3.163   5.301
 5963SOL    HW218789   3.354   3.201   5.162
 5964SOL     OW18790   0.049   5.542   5.709
 5964SOL    HW118791   7.006   5.497   5.764
 5964SOL    HW218792   0.139   5.512   5.739
 5965SOL     OW18793   1.159   2.074   0.009
 5965SOL    HW118794   1.144   2.024   0.094
 5965SOL    HW218795   1.079   2.063   6.977
 5966SOL     OW18796   2.502   5.784   5.239
 5966SOL    HW118797   2.505   5.691   5.275
 5966SOL    HW218798   2.554   5.845   5.299
 5967SOL     OW18799   4.344   6.353   6.949
 5967SOL    HW118800   4.311   6.395   6.864
 5967SOL    HW218801   4.438   6.382   6.966
 5968SOL     OW18802   4.985   1.038   1.265
 5968SOL    HW118803   4.896   1.035   1.218
 5968SOL    HW218804   4.991   1.123   1.318
 5969SOL     OW18805   0.325   0.370   0.025
 5969SOL    HW118806   0.275   0.430   0.088
 5969SOL    HW218807   0.366   0.425   6.980
 5970SOL     OW18808   0.805   4.655   2.827
 5970SOL    HW118809   0.740   4.719   2.787
 5970SOL    HW218810   0.791   4.650   2.926
 5971SOL     OW18811   0.924   0.991   2.125
 5971SOL    HW118812   0.881   0.957   2.042
 5971SOL    HW218813   0.854   1.017   2.191
 5972SOL     OW18814   5.401   5.818   0.162
 5972SOL    HW118815   5.389   5.733   0.110
 5972SOL    HW218816   5.331   5.884   0.136
 5973SOL     OW18817   2.173   3.101   2.338
 5973SOL    HW118818   2.215   3.010   2.334
 5973SOL    HW218819   2.180   3.144   2.247
 5974SOL     OW18820   5.766   4.620   6.272
 5974SOL    HW118821   5.793   4.610   6.176
 5974SOL    HW218822   5.679   4.669   6.277
 5975SOL     OW18823   3.641   1.680   0.539
 5975SOL    HW118824   3.683   1.594   0.568
 5975SOL    HW218825   3.654   1.691   0.440
 5976SOL     OW18826   2.874   3.194   5.139
 5976SOL    HW118827   2.790   3.213   5.088
 5976SOL    HW218828   2.953   3.204   5.079
 5977SOL     OW18829   2.605   5.716   0.059
 5977SOL    HW118830   2.640   5.663   0.136
 5977SOL    HW218831   2.656   5.693   7.004
 5978SOL     OW18832   5.398   5.617   2.790
 5978SOL    HW118833   5.303   5.604   2.819
 5978SOL    HW218834   5.452   5.537   2.815
 5979SOL     OW18835   6.025   0.279   2.902
 5979SOL    HW118836   6.001   0.366   2.944
 5979SOL    HW218837   6.075   0.296   2.817
 5980SOL     OW18838   3.856   3.540   0.741
 5980SOL    HW118839   3.933   3.603   0.731
 5980SOL    HW218840   3.773   3.592   0.764
 5981SOL     OW18841   5.849   1.508   1.699
 5981SOL    HW118842   5.866   1.575   1.771
 5981SOL    HW218843   5.775   1.540   1.641
 5982SOL     OW18844   6.490   2.942   1.836
 5982SOL    HW118845   6.409   2.999   1.824
 5982SOL    HW218846   6.489   2.867   1.770
 5983SOL     OW18847   1.630   1.346   4.821
 5983SOL    HW118848   1.585   1.433   4.804
 5983SOL    HW218849   1.712   1.339   4.764
 5984SOL     OW18850   6.453   6.139   5.089
 5984SOL    HW118851   6.454   6.145   4.989
 5984SOL    HW218852   6.437   6.230   5.128
 5985SOL     OW18853   0.204   3.101   4.118
 5985SOL    HW118854   0.282   3.103   4.179
 5985SOL    HW218855   0.128   3.054   4.162
 5986SOL     OW18856   3.125   3.321   5.003
 5986SOL    HW118857   3.167   3.299   5.091
 5986SOL    HW218858   3.192   3.369   4.946
 5987SOL     OW18859   3.995   0.250   4.808
 5987SOL    HW118860   4.084   0.284   4.836
 5987SOL    HW218861   4.000   0.213   4.715
 5988SOL     OW18862   5.042   6.898   5.441
 5988SOL    HW118863   5.005   6.913   5.533
 5988SOL    HW218864   4.977   6.930   5.373
 5989SOL     OW18865   2.857   6.103   0.082
 5989SOL    HW118866   2.824   6.194   0.108
 5989SOL    HW218867   2.829   6.083   7.016
 5990SOL     OW18868   3.974   4.406   0.582
 5990SOL    HW118869   3.875   4.400   0.592
 5990SOL    HW218870   4.014   4.315   0.593
 5991SOL     OW18871   3.334   5.564   6.658
 5991SOL    HW118872   3.398   5.498   6.696
 5991SOL    HW218873   3.381   5.621   6.590
 5992SOL     OW18874   3.454   0.386   2.980
 5992SOL    HW118875   3.460   0.454   3.053
 5992SOL    HW218876   3.386   0.316   3.005
 5993SOL     OW18877   2.765   6.272   6.187
 5993SOL    HW118878   2.816   6.358   6.198
 5993SOL    HW218879   2.673   6.283   6.224
 5994SOL     OW18880   6.438   2.441   2.306
 5994SOL    HW118881   6.349   2.430   2.262
 5994SOL    HW218882   6.486   2.353   2.307
 5995SOL     OW18883   5.745   4.753   3.047
 5995SOL    HW118884   5.769   4.775   3.142
 5995SOL    HW218885   5.779   4.662   3.025
 5996SOL     OW18886   1.153   6.611   0.518
 5996SOL    HW118887   1.064   6.567   0.511
 5996SOL    HW218888   1.187   6.605   0.612
 5997SOL     OW18889   0.643   5.798   2.582
 5997SOL    HW118890   0.629   5.873   2.518
 5997SOL    HW218891   0.738   5.766   2.575
 5998SOL     OW18892   6.132   2.208   2.790
 5998SOL    HW118893   6.075   2.290   2.797
 5998SOL    HW218894   6.076   2.127   2.808
 5999SOL     OW18895   1.613   1.713   2.310
 5999SOL    HW118896   1.643   1.625   2.346
 5999SOL    HW218897   1.547   1.754   2.373
 6000SOL     OW18898   4.273   6.562   1.313
 6000SOL    HW118899   4.327   6.643   1.289
 6000SOL    HW218900   4.175   6.582   1.299
 6001SOL     OW18901   0.715   3.647   6.853
 6001SOL    HW118902   0.766   3.562   6.836
 6001SOL    HW218903   0.698   3.694   6.767
 6002SOL     OW18904   6.122   0.265   0.952
 6002SOL    HW118905   6.105   0.357   0.986
 6002SOL    HW218906   6.186   0.269   0.875
 6003SOL     OW18907   6.938   1.985   3.569
 6003SOL    HW118908   6.890   1.991   3.481
 6003SOL    HW218909   6.999   2.064   3.578
 6004SOL     OW18910   0.285   4.178   3.381
 6004SOL    HW118911   0.204   4.125   3.355
 6004SOL    HW218912   0.334   4.130   3.453
 6005SOL     OW18913   5.002   5.294   4.532
 6005SOL    HW118914   4.996   5.210   4.479
 6005SOL    HW218915   5.087   5.341   4.510
 6006SOL     OW18916   2.995   0.480   6.715
 6006SOL    HW118917   3.029   0.415   6.647
 6006SOL    HW218918   2.897   0.492   6.704
 6007SOL     OW18919   4.974   3.459   5.179
 6007SOL    HW118920   4.931   3.537   5.133
 6007SOL    HW218921   4.909   3.421   5.245
 6008SOL     OW18922   1.639   4.946   5.437
 6008SOL    HW118923   1.721   4.968   5.490
 6008SOL    HW218924   1.666   4.905   5.350
 6009SOL     OW18925   3.559   0.828   4.117
 6009SOL    HW118926   3.486   0.764   4.094
 6009SOL    HW218927   3.641   0.805   4.065
 6010SOL     OW18928   1.981   4.273   3.741
 6010SOL    HW118929   2.022   4.186   3.769
 6010SOL    HW218930   1.999   4.342   3.810
 6011SOL     OW18931   5.178   3.104   3.096
 6011SOL    HW118932   5.201   3.193   3.055
 6011SOL    HW218933   5.106   3.061   3.042
 6012SOL     OW18934   5.231   1.076   6.946
 6012SOL    HW118935   5.328   1.079   6.921
 6012SOL    HW218936   5.210   1.154   7.005
 6013SOL     OW18937   5.499   2.762   3.254
 6013SOL    HW118938   5.494   2.846   3.200
 6013SOL    HW218939   5.588   2.718   3.240
 6014SOL     OW18940   4.441   3.792   1.178
 6014SOL    HW118941   4.472   3.699   1.198
 6014SOL    HW218942   4.465   3.853   1.254
 6015SOL     OW18943   5.722   2.508   4.473
 6015SOL    HW118944   5.626   2.481   4.475
 6015SOL    HW218945   5.779   2.428   4.456
 6016SOL     OW18946   6.336   1.564   6.172
 6016SOL    HW118947   6.250   1.606   6.200
 6016SOL    HW218948   6.354   1.483   6.229
 6017SOL     OW18949   0.105   4.184   2.785
 6017SOL    HW118950   0.025   4.167   2.842
 6017SOL    HW218951   0.097   4.274   2.742
 6018SOL     OW18952   2.808   0.506   6.210
 6018SOL    HW118953   2.845   0.563   6.284
 6018SOL    HW218954   2.709   0.499   6.222
 6019SOL     OW18955   6.707   1.650   4.141
 6019SOL    HW118956   6.713   1.696   4.052
 6019SOL    HW218957   6.676   1.715   4.210
 6020SOL     OW18958   2.210   5.433   1.099
 6020SOL    HW118959   2.201   5.344   1.053
 6020SOL    HW218960   2.217   5.419   1.197
 6021SOL     OW18961   4.411   0.778   2.515
 6021SOL    HW118962   4.504   0.786   2.552
 6021SOL    HW218963   4.396   0.848   2.446
 6022SOL     OW18964   4.535   2.170   3.789
 6022SOL    HW118965   4.500   2.116   3.865
 6022SOL    HW218966   4.492   2.261   3.790
 6023SOL     OW18967   6.483   0.321   2.166
 6023SOL    HW118968   6.426   0.249   2.207
 6023SOL    HW218969   6.494   0.396   2.231
 6024SOL     OW18970   0.879   4.968   3.165
 6024SOL    HW118971   0.816   5.045   3.172
 6024SOL    HW218972   0.950   4.988   3.098
 6025SOL     OW18973   3.682   1.561   2.849
 6025SOL    HW118974   3.614   1.515   2.906
 6025SOL    HW218975   3.726   1.494   2.790
 6026SOL     OW18976   7.027   4.179   5.362
 6026SOL    HW118977   6.994   4.095   5.406
 6026SOL    HW218978   7.004   4.176   5.265
 6027SOL     OW18979   1.593   4.095   6.521
 6027SOL    HW118980   1.563   4.164   6.455
 6027SOL    HW218981   1.550   4.008   6.500
 6028SOL     OW18982   0.883   4.413   0.040
 6028SOL    HW118983   0.892   4.457   0.129
 6028SOL    HW218984   0.955   4.445   7.007
 6029SOL     OW18985   2.387   6.100   5.096
 6029SOL    HW118986   2.442   6.018   5.080
 6029SOL    HW218987   2.290   6.079   5.082
 6030SOL     OW18988   3.919   6.111   2.764
 6030SOL    HW118989   3.834   6.059   2.766
 6030SOL    HW218990   3.898   6.208   2.777
 6031SOL     OW18991   3.686   5.240   2.938
 6031SOL    HW118992   3.643   5.330   2.929
 6031SOL    HW218993   3.706   5.223   3.035
 6032SOL     OW18994   2.640   4.584   3.333
 6032SOL    HW118995   2.725   4.621   3.295
 6032SOL    HW218996   2.575   4.659   3.347
 6033SOL     OW18997   3.006   1.377   2.726
 6033SOL    HW118998   3.055   1.359   2.641
 6033SOL    HW218999   2.932   1.443   2.709
 6034SOL     OW19000   0.545   5.324   4.376
 6034SOL    HW119001   0.505   5.235   4.395
 6034SOL    HW219002   0.483   5.396   4.409
 6035SOL     OW19003   6.632   0.777   2.705
 6035SOL    HW119004   6.679   0.791   2.792
 6035SOL    HW219005   6.684   0.713   2.649
 6036SOL     OW19006   6.444   5.729   4.438
 6036SOL    HW119007   6.371   5.743   4.505
 6036SOL    HW219008   6.532   5.750   4.479
 6037SOL     OW19009   4.642   4.866   6.332
 6037SOL    HW119010   4.719   4.876   6.269
 6037SOL    HW219011   4.676   4.864   6.426
 6038SOL     OW19012   1.368   2.720   6.109
 6038SOL    HW119013   1.433   2.735   6.035
 6038SOL    HW219014   1.342   2.624   6.111
 6039SOL     OW19015   3.172   3.012   2.207
 6039SOL    HW119016   3.104   3.038   2.276
 6039SOL    HW219017   3.262   3.006   2.249
 6040SOL     OW19018   0.651   2.118   6.253
 6040SOL    HW119019   0.588   2.063   6.309
 6040SOL    HW219020   0.622   2.213   6.253
 6041SOL     OW19021   2.117   0.520   5.156
 6041SOL    HW119022   2.074   0.610   5.148
 6041SOL    HW219023   2.067   0.464   5.222
 6042SOL     OW19024   5.428   5.900   2.283
 6042SOL    HW119025   5.491   5.822   2.278
 6042SOL    HW219026   5.456   5.970   2.217
 6043SOL     OW19027   0.981   4.705   6.206
 6043SOL    HW119028   0.963   4.665   6.296
 6043SOL    HW219029   0.954   4.801   6.206
 6044SOL     OW19030   1.343   1.786   1.567
 6044SOL    HW119031   1.363   1.819   1.659
 6044SOL    HW219032   1.259   1.731   1.568
 6045SOL     OW19033   6.786   4.824   1.443
 6045SOL    HW119034   6.740   4.909   1.415
 6045SOL    HW219035   6.866   4.847   1.499
 6046SOL     OW19036   3.360   1.925   6.615
 6046SOL    HW119037   3.440   1.921   6.554
 6046SOL    HW219038   3.390   1.946   6.708
 6047SOL     OW19039   5.417   2.311   2.423
 6047SOL    HW119040   5.394   2.357   2.337
 6047SOL    HW219041   5.482   2.237   2.404
 6048SOL     OW19042   4.727   5.603   4.140
 6048SOL    HW119043   4.818   5.561   4.136
 6048SOL    HW219044   4.664   5.550   4.084
 6049SOL     OW19045   5.918   3.056   5.936
 6049SOL    HW119046   5.938   3.150   5.908
 6049SOL    HW219047   5.828   3.029   5.902
 6050SOL     OW19048   2.915   5.229   4.443
 6050SOL    HW119049   3.002   5.245   4.490
 6050SOL    HW219050   2.890   5.311   4.391
 6051SOL     OW19051   2.787   1.634   4.724
 6051SOL    HW119052   2.881   1.650   4.754
 6051SOL    HW219053   2.776   1.539   4.695
 6052SOL     OW19054   6.189   0.129   0.528
 6052SOL    HW119055   6.093   0.106   0.508
 6052SOL    HW219056   6.202   0.133   0.627
 6053SOL     OW19057   3.698   0.988   6.419
 6053SOL    HW119058   3.620   0.959   6.363
 6053SOL    HW219059   3.678   1.077   6.459
 6054SOL     OW19060   2.690   3.823   0.385
 6054SOL    HW119061   2.707   3.786   0.293
 6054SOL    HW219062   2.642   3.755   0.440
 6055SOL     OW19063   4.835   1.238   5.479
 6055SOL    HW119064   4.851   1.140   5.487
 6055SOL    HW219065   4.777   1.268   5.555
 6056SOL     OW19066   4.677   2.704   4.623
 6056SOL    HW119067   4.682   2.789   4.570
 6056SOL    HW219068   4.687   2.626   4.561
 6057SOL     OW19069   4.973   2.539   4.399
 6057SOL    HW119070   5.002   2.628   4.433
 6057SOL    HW219071   4.878   2.544   4.369
 6058SOL     OW19072   4.739   2.827   1.277
 6058SOL    HW119073   4.762   2.861   1.185
 6058SOL    HW219074   4.780   2.737   1.289
 6059SOL     OW19075   5.180   4.776   5.119
 6059SOL    HW119076   5.174   4.796   5.021
 6059SOL    HW219077   5.271   4.800   5.153
 6060SOL     OW19078   3.371   4.112   6.263
 6060SOL    HW119079   3.325   4.191   6.304
 6060SOL    HW219080   3.314   4.074   6.190
 6061SOL     OW19081   3.713   2.294   1.487
 6061SOL    HW119082   3.693   2.278   1.584
 6061SOL    HW219083   3.776   2.371   1.479
 6062SOL     OW19084   2.050   1.574   4.844
 6062SOL    HW119085   2.101   1.505   4.792
 6062SOL    HW219086   2.032   1.653   4.786
 6063SOL     OW19087   3.728   1.668   6.782
 6063SOL    HW119088   3.667   1.639   6.708
 6063SOL    HW219089   3.719   1.605   6.859
 6064SOL     OW19090   2.305   5.962   1.131
 6064SOL    HW119091   2.270   5.980   1.039
 6064SOL    HW219092   2.229   5.959   1.196
 6065SOL     OW19093   5.859   6.793   2.402
 6065SOL    HW119094   5.836   6.871   2.460
 6065SOL    HW219095   5.956   6.797   2.379
 6066SOL     OW19096   5.121   2.185   6.310
 6066SOL    HW119097   5.038   2.152   6.354
 6066SOL    HW219098   5.100   2.268   6.258
 6067SOL     OW19099   5.358   1.712   5.861
 6067SOL    HW119100   5.284   1.701   5.795
 6067SOL    HW219101   5.331   1.672   5.948
 6068SOL     OW19102   5.900   3.215   4.608
 6068SOL    HW119103   5.918   3.260   4.521
 6068SOL    HW219104   5.882   3.284   4.678
 6069SOL     OW19105   6.838   3.445   4.863
 6069SOL    HW119106   6.759   3.400   4.821
 6069SOL    HW219107   6.840   3.424   4.961
 6070SOL     OW19108   2.116   2.036   0.667
 6070SOL    HW119109   2.197   2.092   0.650
 6070SOL    HW219110   2.142   1.953   0.714
 6071SOL     OW19111   5.828   4.883   4.772
 6071SOL    HW119112   5.864   4.967   4.733
 6071SOL    HW219113   5.847   4.881   4.870
 6072SOL     OW19114   0.117   6.425   1.733
 6072SOL    HW119115   0.104   6.522   1.752
 6072SOL    HW219116   0.123   6.374   1.819
 6073SOL     OW19117   6.567   4.214   0.665
 6073SOL    HW119118   6.493   4.151   0.685
 6073SOL    HW219119   6.566   4.288   0.733
 6074SOL     OW19120   1.140   5.946   4.352
 6074SOL    HW119121   1.238   5.928   4.343
 6074SOL    HW219122   1.117   6.031   4.305
 6075SOL     OW19123   0.129   1.775   6.629
 6075SOL    HW119124   0.168   1.853   6.678
 6075SOL    HW219125   0.201   1.728   6.578
 6076SOL     OW19126   1.884   5.885   4.491
 6076SOL    HW119127   1.851   5.959   4.432
 6076SOL    HW219128   1.911   5.807   4.434
 6077SOL     OW19129   5.590   5.983   1.673
 6077SOL    HW119130   5.496   5.975   1.639
 6077SOL    HW219131   5.594   5.949   1.767
 6078SOL     OW19132   3.647   5.059   1.079
 6078SOL    HW119133   3.648   4.995   1.002
 6078SOL    HW219134   3.687   5.146   1.050
 6079SOL     OW19135   3.504   2.852   6.472
 6079SOL    HW119136   3.530   2.882   6.381
 6079SOL    HW219137   3.496   2.931   6.533
 6080SOL     OW19138   6.980   0.274   1.657
 6080SOL    HW119139   0.009   0.209   1.707
 6080SOL    HW219140   0.008   0.352   1.628
 6081SOL     OW19141   6.406   3.317   4.541
 6081SOL    HW119142   6.339   3.279   4.605
 6081SOL    HW219143   6.413   3.258   4.461
 6082SOL     OW19144   2.561   1.961   3.442
 6082SOL    HW119145   2.582   2.011   3.358
 6082SOL    HW219146   2.596   2.011   3.521
 6083SOL     OW19147   0.646   4.766   0.049
 6083SOL    HW119148   0.580   4.700   0.083
 6083SOL    HW219149   0.696   4.727   6.999
 6084SOL     OW19150   0.447   5.837   3.572
 6084SOL    HW119151   0.353   5.834   3.608
 6084SOL    HW219152   0.447   5.805   3.478
 6085SOL     OW19153   1.042   4.095   0.265
 6085SOL    HW119154   1.006   4.124   0.353
 6085SOL    HW219155   0.967   4.069   0.205
 6086SOL     OW19156   3.693   0.993   6.020
 6086SOL    HW119157   3.793   0.997   6.012
 6086SOL    HW219158   3.653   1.076   5.981
 6087SOL     OW19159   4.167   5.929   0.557
 6087SOL    HW119160   4.141   6.025   0.558
 6087SOL    HW219161   4.115   5.880   0.627
 6088SOL     OW19162   5.739   6.238   4.415
 6088SOL    HW119163   5.713   6.309   4.349
 6088SOL    HW219164   5.690   6.154   4.394
 6089SOL     OW19165   6.532   3.317   1.062
 6089SOL    HW119166   6.468   3.250   1.101
 6089SOL    HW219167   6.619   3.311   1.110
 6090SOL     OW19168   2.318   6.346   5.229
 6090SOL    HW119169   2.333   6.254   5.194
 6090SOL    HW219170   2.221   6.359   5.249
 6091SOL     OW19171   1.540   1.680   2.005
 6091SOL    HW119172   1.570   1.688   2.100
 6091SOL    HW219173   1.611   1.634   1.952
 6092SOL     OW19174   3.229   0.203   3.051
 6092SOL    HW119175   3.141   0.158   3.066
 6092SOL    HW219176   3.278   0.210   3.138
 6093SOL     OW19177   1.706   2.959   2.605
 6093SOL    HW119178   1.721   2.986   2.701
 6093SOL    HW219179   1.609   2.965   2.584
 6094SOL     OW19180   3.725   0.801   1.368
 6094SOL    HW119181   3.700   0.887   1.324
 6094SOL    HW219182   3.715   0.810   1.467
 6095SOL     OW19183   4.368   3.489   6.726
 6095SOL    HW119184   4.446   3.543   6.693
 6095SOL    HW219185   4.318   3.542   6.795
 6096SOL     OW19186   5.972   0.554   3.754
 6096SOL    HW119187   6.054   0.501   3.731
 6096SOL    HW219188   5.996   0.651   3.759
 6097SOL     OW19189   2.212   0.285   2.096
 6097SOL    HW119190   2.307   0.311   2.110
 6097SOL    HW219191   2.155   0.366   2.093
 6098SOL     OW19192   1.290   2.660   6.395
 6098SOL    HW119193   1.191   2.670   6.392
 6098SOL    HW219194   1.330   2.694   6.310
 6099SOL     OW19195   6.976   5.988   0.825
 6099SOL    HW119196   6.985   5.917   0.755
 6099SOL    HW219197   6.923   6.064   0.789
 6100SOL     OW19198   5.166   3.612   0.434
 6100SOL    HW119199   5.224   3.536   0.407
 6100SOL    HW219200   5.121   3.592   0.521
 6101SOL     OW19201   5.886   1.850   4.407
 6101SOL    HW119202   5.954   1.848   4.334
 6101SOL    HW219203   5.879   1.942   4.445
 6102SOL     OW19204   3.045   6.431   3.695
 6102SOL    HW119205   3.123   6.424   3.632
 6102SOL    HW219206   3.010   6.524   3.694
 6103SOL     OW19207   0.288   2.208   2.728
 6103SOL    HW119208   0.199   2.192   2.771
 6103SOL    HW219209   0.343   2.125   2.735
 6104SOL     OW19210   5.580   1.094   5.415
 6104SOL    HW119211   5.672   1.111   5.381
 6104SOL    HW219212   5.580   1.100   5.515
 6105SOL     OW19213   1.521   0.725   5.282
 6105SOL    HW119214   1.427   0.694   5.273
 6105SOL    HW219215   1.550   0.769   5.197
 6106SOL     OW19216   2.058   4.065   5.716
 6106SOL    HW119217   1.984   4.019   5.665
 6106SOL    HW219218   2.146   4.028   5.687
 6107SOL     OW19219   2.522   4.568   4.537
 6107SOL    HW119220   2.472   4.639   4.487
 6107SOL    HW219221   2.544   4.493   4.475
 6108SOL     OW19222   0.769   2.464   2.184
 6108SOL    HW119223   0.844   2.531   2.176
 6108SOL    HW219224   0.682   2.511   2.173
 6109SOL     OW19225   4.857   3.128   6.427
 6109SOL    HW119226   4.949   3.098   6.450
 6109SOL    HW219227   4.790   3.081   6.483
 6110SOL     OW19228   4.364   3.381   0.233
 6110SOL    HW119229   4.423   3.369   0.312
 6110SOL    HW219230   4.369   3.476   0.201
 6111SOL     OW19231   2.285   4.168   2.193
 6111SOL    HW119232   2.223   4.112   2.138
 6111SOL    HW219233   2.289   4.133   2.287
 6112SOL     OW19234   3.194   0.076   2.796
 6112SOL    HW119235   3.199   0.110   2.890
 6112SOL    HW219236   3.121   0.009   2.788
 6113SOL     OW19237   1.492   1.053   6.007
 6113SOL    HW119238   1.437   0.972   6.027
 6113SOL    HW219239   1.562   1.065   6.077
 6114SOL     OW19240   5.213   5.120   1.120
 6114SOL    HW119241   5.132   5.092   1.172
 6114SOL    HW219242   5.189   5.197   1.060
 6115SOL     OW19243   4.778   0.399   3.723
 6115SOL    HW119244   4.870   0.421   3.757
 6115SOL    HW219245   4.741   0.324   3.777
 6116SOL     OW19246   2.718   0.036   0.598
 6116SOL    HW119247   2.623   0.012   0.619
 6116SOL    HW219248   2.722   0.129   0.561
 6117SOL     OW19249   0.176   0.449   5.851
 6117SOL    HW119250   0.178   0.427   5.949
 6117SOL    HW219251   0.124   0.378   5.803
 6118SOL     OW19252   6.002   0.271   1.847
 6118SOL    HW119253   5.902   0.272   1.839
 6118SOL    HW219254   6.042   0.237   1.762
 6119SOL     OW19255   1.155   3.819   5.587
 6119SOL    HW119256   1.082   3.785   5.528
 6119SOL    HW219257   1.197   3.899   5.546
 6120SOL     OW19258   4.092   6.964   4.018
 6120SOL    HW119259   4.164   6.956   4.087
 6120SOL    HW219260   4.003   6.954   4.061
 6121SOL     OW19261   0.997   3.167   5.117
 6121SOL    HW119262   1.090   3.169   5.080
 6121SOL    HW219263   0.943   3.238   5.073
 6122SOL     OW19264   3.569   6.952   1.729
 6122SOL    HW119265   3.599   6.857   1.741
 6122SOL    HW219266   3.622   7.012   1.789
 6123SOL     OW19267   6.229   0.566   6.247
 6123SOL    HW119268   6.174   0.483   6.243
 6123SOL    HW219269   6.264   0.588   6.156
 6124SOL     OW19270   2.486   0.854   6.847
 6124SOL    HW119271   2.583   0.831   6.844
 6124SOL    HW219272   2.448   0.848   6.755
 6125SOL     OW19273   1.897   5.738   7.010
 6125SOL    HW119274   1.987   5.759   0.021
 6125SOL    HW219275   1.848   5.823   6.992
 6126SOL     OW19276   0.018   7.001   4.090
 6126SOL    HW119277   6.955   7.026   4.124
 6126SOL    HW219278   0.043   6.911   4.125
 6127SOL     OW19279   3.187   6.985   2.334
 6127SOL    HW119280   3.217   0.052   2.320
 6127SOL    HW219281   3.092   6.985   2.364
 6128SOL     OW19282   6.642   3.126   0.215
 6128SOL    HW119283   6.564   3.162   0.268
 6128SOL    HW219284   6.644   3.027   0.222
 6129SOL     OW19285   6.610   3.612   2.739
 6129SOL    HW119286   6.511   3.602   2.749
 6129SOL    HW219287   6.642   3.683   2.802
 6130SOL     OW19288   6.784   2.345   3.625
 6130SOL    HW119289   6.883   2.331   3.626
 6130SOL    HW219290   6.749   2.328   3.533
 6131SOL     OW19291   0.012   1.626   5.517
 6131SOL    HW119292   0.076   1.587   5.451
 6131SOL    HW219293   6.953   1.575   5.513
 6132SOL     OW19294   4.912   1.349   0.401
 6132SOL    HW119295   4.983   1.381   0.463
 6132SOL    HW219296   4.884   1.257   0.427
 6133SOL     OW19297   1.235   2.485   2.517
 6133SOL    HW119298   1.145   2.489   2.559
 6133SOL    HW219299   1.304   2.466   2.586
 6134SOL     OW19300   4.161   4.364   6.500
 6134SOL    HW119301   4.167   4.268   6.529
 6134SOL    HW219302   4.137   4.368   6.403
 6135SOL     OW19303   0.634   6.942   1.908
 6135SOL    HW119304   0.618   6.917   2.003
 6135SOL    HW219305   0.689   7.025   1.904
 6136SOL     OW19306   0.899   2.892   2.034
 6136SOL    HW119307   0.880   2.977   2.084
 6136SOL    HW219308   0.814   2.841   2.021
 6137SOL     OW19309   5.504   2.543   3.783
 6137SOL    HW119310   5.512   2.443   3.787
 6137SOL    HW219311   5.485   2.571   3.689
 6138SOL     OW19312   4.822   6.283   1.985
 6138SOL    HW119313   4.911   6.318   2.012
 6138SOL    HW219314   4.750   6.341   2.023
 6139SOL     OW19315   1.793   1.671   5.366
 6139SOL    HW119316   1.703   1.694   5.403
 6139SOL    HW219317   1.861   1.673   5.439
 6140SOL     OW19318   0.444   6.444   1.920
 6140SOL    HW119319   0.400   6.380   1.983
 6140SOL    HW219320   0.398   6.532   1.925
 6141SOL     OW19321   6.130   5.434   6.666
 6141SOL    HW119322   6.070   5.357   6.689
 6141SOL    HW219323   6.094   5.482   6.586
 6142SOL     OW19324   0.373   5.459   0.929
 6142SOL    HW119325   0.399   5.428   1.021
 6142SOL    HW219326   0.287   5.510   0.934
 6143SOL     OW19327   6.726   4.578   0.523
 6143SOL    HW119328   6.765   4.633   0.449
 6143SOL    HW219329   6.658   4.632   0.573
 6144SOL     OW19330   6.964   5.002   3.275
 6144SOL    HW119331   6.879   4.981   3.227
 6144SOL    HW219332   6.944   5.027   3.370
 6145SOL     OW19333   4.456   5.647   3.552
 6145SOL    HW119334   4.551   5.660   3.580
 6145SOL    HW219335   4.417   5.569   3.601
 6146SOL     OW19336   3.212   0.004   3.560
 6146SOL    HW119337   3.215   6.999   3.655
 6146SOL    HW219338   3.286   6.989   3.508
 6147SOL     OW19339   1.449   3.839   4.705
 6147SOL    HW119340   1.352   3.845   4.732
 6147SOL    HW219341   1.495   3.925   4.724
 6148SOL     OW19342   6.966   0.689   4.646
 6148SOL    HW119343   6.868   0.701   4.628
 6148SOL    HW219344   7.011   0.654   4.564
 6149SOL     OW19345   3.250   5.112   1.205
 6149SOL    HW119346   3.294   5.140   1.291
 6149SOL    HW219347   3.255   5.012   1.197
 6150SOL     OW19348   4.171   4.613   6.647
 6150SOL    HW119349   4.164   4.540   6.580
 6150SOL    HW219350   4.166   4.702   6.601
 6151SOL     OW19351   5.880   3.929   5.431
 6151SOL    HW119352   5.833   4.001   5.481
 6151SOL    HW219353   5.979   3.937   5.444
 6152SOL     OW19354   6.065   5.665   4.947
 6152SOL    HW119355   5.971   5.697   4.937
 6152SOL    HW219356   6.117   5.729   5.004
 6153SOL     OW19357   5.354   3.907   2.073
 6153SOL    HW119358   5.397   3.961   2.001
 6153SOL    HW219359   5.278   3.855   2.034
 6154SOL     OW19360   5.723   1.491   2.609
 6154SOL    HW119361   5.667   1.418   2.569
 6154SOL    HW219362   5.677   1.579   2.599
 6155SOL     OW19363   1.816   2.396   4.533
 6155SOL    HW119364   1.830   2.352   4.622
 6155SOL    HW219365   1.896   2.380   4.475
 6156SOL     OW19366   4.577   4.800   1.949
 6156SOL    HW119367   4.528   4.733   2.004
 6156SOL    HW219368   4.676   4.788   1.961
 6157SOL     OW19369   1.181   1.057   4.561
 6157SOL    HW119370   1.120   0.988   4.602
 6157SOL    HW219371   1.214   1.023   4.473
 6158SOL     OW19372   4.352   1.043   6.094
 6158SOL    HW119373   4.418   1.017   6.164
 6158SOL    HW219374   4.268   0.990   6.107
 6159SOL     OW19375   5.136   1.838   1.781
 6159SOL    HW119376   5.161   1.934   1.785
 6159SOL    HW219377   5.216   1.782   1.805
 6160SOL     OW19378   4.770   0.232   6.330
 6160SOL    HW119379   4.719   0.221   6.245
 6160SOL    HW219380   4.867   0.212   6.314
 6161SOL     OW19381   5.103   1.355   4.300
 6161SOL    HW119382   5.074   1.304   4.381
 6161SOL    HW219383   5.056   1.443   4.298
 6162SOL     OW19384   1.219   6.403   3.703
 6162SOL    HW119385   1.235   6.374   3.609
 6162SOL    HW219386   1.274   6.347   3.765
 6163SOL     OW19387   5.829   6.110   1.334
 6163SOL    HW119388   5.836   6.021   1.290
 6163SOL    HW219389   5.888   6.112   1.415
 6164SOL     OW19390   3.177   2.316   1.722
 6164SOL    HW119391   3.189   2.336   1.625
 6164SOL    HW219392   3.106   2.376   1.760
 6165SOL     OW19393   4.720   0.605   6.500
 6165SOL    HW119394   4.793   0.535   6.500
 6165SOL    HW219395   4.719   0.652   6.588
 6166SOL     OW19396   4.455   1.473   6.775
 6166SOL    HW119397   4.444   1.572   6.783
 6166SOL    HW219398   4.404   1.440   6.696
 6167SOL     OW19399   0.660   3.899   3.381
 6167SOL    HW119400   0.692   3.993   3.368
 6167SOL    HW219401   0.567   3.890   3.345
 6168SOL     OW19402   1.047   3.399   0.608
 6168SOL    HW119403   1.106   3.476   0.585
 6168SOL    HW219404   0.956   3.432   0.634
 6169SOL     OW19405   1.953   3.220   1.513
 6169SOL    HW119406   2.041   3.188   1.550
 6169SOL    HW219407   1.896   3.141   1.492
 6170SOL     OW19408   1.254   3.522   5.313
 6170SOL    HW119409   1.246   3.619   5.289
 6170SOL    HW219410   1.165   3.487   5.341
 6171SOL     OW19411   0.428   2.664   0.566
 6171SOL    HW119412   0.490   2.743   0.563
 6171SOL    HW219413   0.418   2.633   0.660
 6172SOL     OW19414   1.877   2.700   2.429
 6172SOL    HW119415   1.899   2.796   2.442
 6172SOL    HW219416   1.953   2.643   2.461
 6173SOL     OW19417   0.208   5.255   2.435
 6173SOL    HW119418   0.188   5.244   2.337
 6173SOL    HW219419   0.182   5.347   2.464
 6174SOL     OW19420   5.194   6.072   3.836
 6174SOL    HW119421   5.244   6.114   3.761
 6174SOL    HW219422   5.111   6.125   3.855
 6175SOL     OW19423   3.899   1.028   3.902
 6175SOL    HW119424   3.851   0.952   3.859
 6175SOL    HW219425   3.831   1.092   3.941
 6176SOL     OW19426   5.416   4.666   5.572
 6176SOL    HW119427   5.333   4.720   5.562
 6176SOL    HW219428   5.493   4.727   5.590
 6177SOL     OW19429   5.838   1.960   1.530
 6177SOL    HW119430   5.800   1.962   1.622
 6177SOL    HW219431   5.931   1.999   1.531
 6178SOL     OW19432   5.439   5.077   1.811
 6178SOL    HW119433   5.383   5.029   1.878
 6178SOL    HW219434   5.383   5.142   1.760
 6179SOL     OW19435   6.594   4.372   3.585
 6179SOL    HW119436   6.648   4.331   3.659
 6179SOL    HW219437   6.513   4.416   3.624
 6180SOL     OW19438   2.718   4.870   0.615
 6180SOL    HW119439   2.798   4.883   0.556
 6180SOL    HW219440   2.747   4.841   0.706
 6181SOL     OW19441   4.786   6.126   5.994
 6181SOL    HW119442   4.831   6.075   6.068
 6181SOL    HW219443   4.793   6.224   6.011
 6182SOL     OW19444   4.348   2.816   5.778
 6182SOL    HW119445   4.407   2.737   5.792
 6182SOL    HW219446   4.280   2.795   5.708
 6183SOL     OW19447   1.488   2.221   3.674
 6183SOL    HW119448   1.496   2.266   3.763
 6183SOL    HW219449   1.456   2.288   3.606
 6184SOL     OW19450   2.998   6.206   6.507
 6184SOL    HW119451   2.994   6.305   6.518
 6184SOL    HW219452   3.032   6.164   6.591
 6185SOL     OW19453   6.964   3.704   6.434
 6185SOL    HW119454   7.015   3.623   6.461
 6185SOL    HW219455   6.890   3.720   6.498
 6186SOL     OW19456   6.531   1.284   0.394
 6186SOL    HW119457   6.537   1.375   0.352
 6186SOL    HW219458   6.616   1.234   0.376
 6187SOL     OW19459   5.331   3.879   4.323
 6187SOL    HW119460   5.334   3.782   4.298
 6187SOL    HW219461   5.422   3.909   4.351
 6188SOL     OW19462   1.424   1.291   5.905
 6188SOL    HW119463   1.392   1.357   5.973
 6188SOL    HW219464   1.451   1.206   5.951
 6189SOL     OW19465   4.194   5.273   2.438
 6189SOL    HW119466   4.248   5.229   2.366
 6189SOL    HW219467   4.101   5.288   2.405
 6190SOL     OW19468   0.606   3.845   5.374
 6190SOL    HW119469   0.626   3.834   5.277
 6190SOL    HW219470   0.688   3.875   5.422
 6191SOL     OW19471   3.045   2.623   6.757
 6191SOL    HW119472   2.996   2.554   6.704
 6191SOL    HW219473   3.023   2.714   6.721
 6192SOL     OW19474   2.533   2.113   6.456
 6192SOL    HW119475   2.500   2.187   6.396
 6192SOL    HW219476   2.542   2.148   6.549
 6193SOL     OW19477   4.854   6.279   1.704
 6193SOL    HW119478   4.833   6.284   1.802
 6193SOL    HW219479   4.814   6.359   1.657
 6194SOL     OW19480   0.003   0.487   6.635
 6194SOL    HW119481   0.081   0.535   6.595
 6194SOL    HW219482   6.947   0.541   6.622
 6195SOL     OW19483   4.475   5.352   4.493
 6195SOL    HW119484   4.489   5.299   4.409
 6195SOL    HW219485   4.499   5.296   4.572
 6196SOL     OW19486   4.970   4.326   1.832
 6196SOL    HW119487   4.886   4.312   1.884
 6196SOL    HW219488   4.995   4.423   1.836
 6197SOL     OW19489   2.075   6.164   1.437
 6197SOL    HW119490   2.166   6.198   1.413
 6197SOL    HW219491   2.040   6.105   1.364
 6198SOL     OW19492   4.395   0.272   0.816
 6198SOL    HW119493   4.307   0.287   0.860
 6198SOL    HW219494   4.460   0.236   0.882
 6199SOL     OW19495   0.560   0.873   0.389
 6199SOL    HW119496   0.577   0.786   0.343
 6199SOL    HW219497   0.557   0.860   0.488
 6200SOL     OW19498   0.827   1.623   5.780
 6200SOL    HW119499   0.800   1.643   5.874
 6200SOL    HW219500   0.909   1.675   5.757
 6201SOL     OW19501   0.699   3.167   5.720
 6201SOL    HW119502   0.731   3.235   5.654
 6201SOL    HW219503   0.627   3.207   5.777
 6202SOL     OW19504   4.886   1.244   1.660
 6202SOL    HW119505   4.840   1.303   1.727
 6202SOL    HW219506   4.846   1.152   1.663
 6203SOL     OW19507   6.243   6.078   2.078
 6203SOL    HW119508   6.283   5.986   2.073
 6203SOL    HW219509   6.145   6.071   2.093
 6204SOL     OW19510   0.991   5.670   4.704
 6204SOL    HW119511   1.048   5.752   4.701
 6204SOL    HW219512   1.014   5.616   4.785
 6205SOL     OW19513   6.240   5.417   1.699
 6205SOL    HW119514   6.310   5.399   1.768
 6205SOL    HW219515   6.177   5.339   1.695
 6206SOL     OW19516   5.935   1.395   2.300
 6206SOL    HW119517   5.880   1.349   2.230
 6206SOL    HW219518   6.032   1.384   2.279
 6207SOL     OW19519   1.934   5.742   5.500
 6207SOL    HW119520   2.015   5.726   5.444
 6207SOL    HW219521   1.852   5.729   5.445
 6208SOL     OW19522   3.887   2.445   5.304
 6208SOL    HW119523   3.952   2.515   5.272
 6208SOL    HW219524   3.858   2.466   5.397
 6209SOL     OW19525   2.744   5.683   6.821
 6209SOL    HW119526   2.781   5.743   6.750
 6209SOL    HW219527   2.647   5.666   6.803
 6210SOL     OW19528   4.765   4.179   3.003
 6210SOL    HW119529   4.777   4.182   3.103
 6210SOL    HW219530   4.815   4.101   2.966
 6211SOL     OW19531   2.723   6.192   5.766
 6211SOL    HW119532   2.768   6.106   5.791
 6211SOL    HW219533   2.784   6.268   5.787
 6212SOL     OW19534   2.780   4.720   4.540
 6212SOL    HW119535   2.706   4.653   4.543
 6212SOL    HW219536   2.785   4.761   4.449
 6213SOL     OW19537   4.923   6.889   6.596
 6213SOL    HW119538   4.832   6.921   6.570
 6213SOL    HW219539   4.956   6.824   6.527
 6214SOL     OW19540   5.261   5.705   5.149
 6214SOL    HW119541   5.297   5.693   5.057
 6214SOL    HW219542   5.194   5.634   5.168
 6215SOL     OW19543   3.997   2.835   6.991
 6215SOL    HW119544   4.010   2.885   0.048
 6215SOL    HW219545   3.901   2.806   6.983
 6216SOL     OW19546   6.154   2.705   2.591
 6216SOL    HW119547   6.207   2.677   2.511
 6216SOL    HW219548   6.195   2.787   2.631
 6217SOL     OW19549   1.016   4.090   2.637
 6217SOL    HW119550   0.998   4.116   2.542
 6217SOL    HW219551   1.041   4.171   2.689
 6218SOL     OW19552   3.668   6.709   6.820
 6218SOL    HW119553   3.617   6.664   6.893
 6218SOL    HW219554   3.710   6.639   6.762
 6219SOL     OW19555   0.996   1.413   4.708
 6219SOL    HW119556   0.924   1.357   4.750
 6219SOL    HW219557   0.961   1.506   4.693
 6220SOL     OW19558   2.995   1.612   5.392
 6220SOL    HW119559   3.069   1.630   5.327
 6220SOL    HW219560   2.957   1.699   5.425
 6221SOL     OW19561   5.684   0.711   6.668
 6221SOL    HW119562   5.758   0.667   6.616
 6221SOL    HW219563   5.707   0.710   6.765
 6222SOL     OW19564   1.189   0.500   2.030
 6222SOL    HW119565   1.132   0.540   2.102
 6222SOL    HW219566   1.150   0.412   2.002
 6223SOL     OW19567   1.251   5.297   2.836
 6223SOL    HW119568   1.215   5.312   2.928
 6223SOL    HW219569   1.346   5.267   2.842
 6224SOL     OW19570   4.302   1.322   6.136
 6224SOL    HW119571   4.301   1.224   6.157
 6224SOL    HW219572   4.380   1.343   6.077
 6225SOL     OW19573   3.512   2.611   6.754
 6225SOL    HW119574   3.489   2.709   6.752
 6225SOL    HW219575   3.432   2.558   6.726
 6226SOL     OW19576   1.483   1.762   4.262
 6226SOL    HW119577   1.550   1.689   4.265
 6226SOL    HW219578   1.401   1.730   4.214
 6227SOL     OW19579   3.626   5.407   5.454
 6227SOL    HW119580   3.710   5.367   5.491
 6227SOL    HW219581   3.619   5.503   5.484
 6228SOL     OW19582   0.581   2.691   2.380
 6228SOL    HW119583   0.544   2.770   2.332
 6228SOL    HW219584   0.514   2.617   2.379
 6229SOL     OW19585   0.921   2.843   5.398
 6229SOL    HW119586   0.941   2.748   5.373
 6229SOL    HW219587   0.930   2.855   5.497
 6230SOL     OW19588   0.903   1.997   3.652
 6230SOL    HW119589   0.805   1.989   3.632
 6230SOL    HW219590   0.945   2.060   3.587
 6231SOL     OW19591   5.943   4.903   0.534
 6231SOL    HW119592   6.012   4.976   0.537
 6231SOL    HW219593   5.905   4.897   0.442
 6232SOL     OW19594   6.715   1.514   0.077
 6232SOL    HW119595   6.676   1.535   0.167
 6232SOL    HW219596   6.765   1.427   0.083
 6233SOL     OW19597   5.769   2.479   1.783
 6233SOL    HW119598   5.858   2.526   1.784
 6233SOL    HW219599   5.782   2.384   1.809
 6234SOL     OW19600   6.561   0.131   5.577
 6234SOL    HW119601   6.565   0.036   5.545
 6234SOL    HW219602   6.642   0.180   5.545
 6235SOL     OW19603   0.140   0.356   1.376
 6235SOL    HW119604   0.240   0.353   1.374
 6235SOL    HW219605   0.104   0.263   1.380
 6236SOL     OW19606   0.319   4.340   0.946
 6236SOL    HW119607   0.393   4.286   0.906
 6236SOL    HW219608   0.247   4.279   0.979
 6237SOL     OW19609   3.259   0.140   0.031
 6237SOL    HW119610   3.319   0.068   7.024
 6237SOL    HW219611   3.164   0.121   0.004
 6238SOL     OW19612   4.906   6.308   2.773
 6238SOL    HW119613   4.960   6.297   2.857
 6238SOL    HW219614   4.966   6.335   2.698
 6239SOL     OW19615   3.778   1.101   1.322
 6239SOL    HW119616   3.873   1.129   1.334
 6239SOL    HW219617   3.731   1.166   1.262
 6240SOL     OW19618   2.911   3.865   5.318
 6240SOL    HW119619   2.924   3.932   5.245
 6240SOL    HW219620   2.971   3.887   5.395
 6241SOL     OW19621   3.363   0.439   3.307
 6241SOL    HW119622   3.265   0.445   3.287
 6241SOL    HW219623   3.380   0.471   3.401
 6242SOL     OW19624   3.354   6.958   3.043
 6242SOL    HW119625   3.422   6.917   3.105
 6242SOL    HW219626   3.346   0.028   3.063
 6243SOL     OW19627   6.770   6.776   5.553
 6243SOL    HW119628   6.715   6.699   5.519
 6243SOL    HW219629   6.722   6.819   5.630
 6244SOL     OW19630   5.479   3.655   3.921
 6244SOL    HW119631   5.448   3.564   3.947
 6244SOL    HW219632   5.411   3.723   3.949
 6245SOL     OW19633   1.657   4.229   1.793
 6245SOL    HW119634   1.581   4.181   1.750
 6245SOL    HW219635   1.703   4.167   1.857
 6246SOL     OW19636   0.996   1.433   5.074
 6246SOL    HW119637   1.039   1.512   5.030
 6246SOL    HW219638   1.062   1.388   5.134
 6247SOL     OW19639   1.604   6.287   3.684
 6247SOL    HW119640   1.684   6.239   3.719
 6247SOL    HW219641   1.601   6.277   3.584
 6248SOL     OW19642   3.595   3.831   0.101
 6248SOL    HW119643   3.685   3.876   0.101
 6248SOL    HW219644   3.544   3.859   0.183
 6249SOL     OW19645   0.193   2.831   0.775
 6249SOL    HW119646   0.103   2.857   0.810
 6249SOL    HW219647   0.260   2.902   0.795
 6250SOL     OW19648   6.408   6.840   1.239
 6250SOL    HW119649   6.326   6.884   1.203
 6250SOL    HW219650   6.382   6.765   1.299
 6251SOL     OW19651   4.441   6.506   4.593
 6251SOL    HW119652   4.383   6.558   4.656
 6251SOL    HW219653   4.445   6.410   4.623
 6252SOL     OW19654   2.602   4.537   6.320
 6252SOL    HW119655   2.608   4.547   6.419
 6252SOL    HW219656   2.527   4.473   6.298
 6253SOL     OW19657   2.692   4.612   3.831
 6253SOL    HW119658   2.623   4.677   3.863
 6253SOL    HW219659   2.782   4.654   3.836
 6254SOL     OW19660   5.936   0.196   0.747
 6254SOL    HW119661   5.946   0.097   0.735
 6254SOL    HW219662   5.982   0.224   0.831
 6255SOL     OW19663   2.788   1.631   0.944
 6255SOL    HW119664   2.793   1.597   1.037
 6255SOL    HW219665   2.795   1.731   0.944
 6256SOL     OW19666   3.968   5.299   2.165
 6256SOL    HW119667   3.970   5.353   2.080
 6256SOL    HW219668   3.958   5.361   2.243
 6257SOL     OW19669   4.197   3.176   0.333
 6257SOL    HW119670   4.254   3.141   0.259
 6257SOL    HW219671   4.226   3.268   0.357
 6258SOL     OW19672   2.906   6.424   4.956
 6258SOL    HW119673   2.907   6.517   4.991
 6258SOL    HW219674   2.910   6.360   5.033
 6259SOL     OW19675   2.149   0.758   6.476
 6259SOL    HW119676   2.110   0.798   6.558
 6259SOL    HW219677   2.118   0.809   6.396
 6260SOL     OW19678   3.526   6.564   6.983
 6260SOL    HW119679   3.491   6.576   0.049
 6260SOL    HW219680   3.521   6.468   6.958
 6261SOL     OW19681   4.856   0.042   0.501
 6261SOL    HW119682   4.875   0.031   0.404
 6261SOL    HW219683   4.941   0.062   0.549
 6262SOL     OW19684   1.884   6.121   2.228
 6262SOL    HW119685   1.864   6.194   2.163
 6262SOL    HW219686   1.929   6.159   2.309
 6263SOL     OW19687   1.136   6.482   4.842
 6263SOL    HW119688   1.232   6.482   4.815
 6263SOL    HW219689   1.095   6.570   4.820
 6264SOL     OW19690   2.067   0.443   1.465
 6264SOL    HW119691   2.159   0.464   1.498
 6264SOL    HW219692   2.026   0.373   1.523
 6265SOL     OW19693   4.602   3.537   0.568
 6265SOL    HW119694   4.582   3.448   0.528
 6265SOL    HW219695   4.539   3.606   0.530
 6266SOL     OW19696   4.471   6.964   3.203
 6266SOL    HW119697   4.391   6.996   3.254
 6266SOL    HW219698   4.445   6.950   3.107
 6267SOL     OW19699   2.185   0.103   5.051
 6267SOL    HW119700   2.279   0.135   5.063
 6267SOL    HW219701   2.169   0.086   4.954
 6268SOL     OW19702   2.577   0.809   1.915
 6268SOL    HW119703   2.618   0.900   1.918
 6268SOL    HW219704   2.636   0.748   1.863
 6269SOL     OW19705   6.274   0.114   2.562
 6269SOL    HW119706   6.224   0.184   2.613
 6269SOL    HW219707   6.310   0.154   2.477
 6270SOL     OW19708   6.972   7.000   0.374
 6270SOL    HW119709   6.947   0.055   0.425
 6270SOL    HW219710   0.042   6.981   0.386
 6271SOL     OW19711   6.457   2.546   5.647
 6271SOL    HW119712   6.446   2.604   5.566
 6271SOL    HW219713   6.415   2.457   5.630
 6272SOL     OW19714   0.694   1.786   0.146
 6272SOL    HW119715   0.734   1.707   0.098
 6272SOL    HW219716   0.613   1.818   0.096
 6273SOL     OW19717   0.356   5.548   2.748
 6273SOL    HW119718   0.378   5.491   2.827
 6273SOL    HW219719   0.278   5.607   2.769
 6274SOL     OW19720   3.078   0.068   4.755
 6274SOL    HW119721   3.097   0.148   4.698
 6274SOL    HW219722   3.049   0.098   4.845
 6275SOL     OW19723   1.629   5.995   0.324
 6275SOL    HW119724   1.620   6.030   0.231
 6275SOL    HW219725   1.670   5.904   0.321
 6276SOL     OW19726   3.070   5.508   3.619
 6276SOL    HW119727   3.041   5.510   3.523
 6276SOL    HW219728   3.007   5.450   3.671
 6277SOL     OW19729   4.898   2.577   0.983
 6277SOL    HW119730   4.840   2.506   1.023
 6277SOL    HW219731   4.873   2.666   1.020
 6278SOL     OW19732   3.786   0.849   4.881
 6278SOL    HW119733   3.768   0.843   4.979
 6278SOL    HW219734   3.829   0.764   4.849
 6279SOL     OW19735   3.756   5.958   0.505
 6279SOL    HW119736   3.817   5.975   0.582
 6279SOL    HW219737   3.785   6.012   0.427
 6280SOL     OW19738   0.145   1.070   6.568
 6280SOL    HW119739   0.236   1.112   6.567
 6280SOL    HW219740   0.151   0.976   6.536
 6281SOL     OW19741   6.970   4.886   4.207
 6281SOL    HW119742   6.934   4.838   4.126
 6281SOL    HW219743   0.040   4.867   4.216
 6282SOL     OW19744   5.890   3.455   4.761
 6282SOL    HW119745   5.933   3.534   4.716
 6282SOL    HW219746   5.823   3.487   4.827
 6283SOL     OW19747   0.608   4.144   4.408
 6283SOL    HW119748   0.569   4.105   4.492
 6283SOL    HW219749   0.600   4.077   4.334
 6284SOL     OW19750   1.332   5.420   6.323
 6284SOL    HW119751   1.391   5.424   6.243
 6284SOL    HW219752   1.376   5.369   6.395
 6285SOL     OW19753   1.005   3.226   3.038
 6285SOL    HW119754   1.032   3.295   2.971
 6285SOL    HW219755   1.029   3.257   3.130
 6286SOL     OW19756   0.376   3.541   4.619
 6286SOL    HW119757   0.348   3.496   4.534
 6286SOL    HW219758   0.474   3.561   4.617
 6287SOL     OW19759   3.287   5.017   5.332
 6287SOL    HW119760   3.318   5.111   5.350
 6287SOL    HW219761   3.254   5.011   5.238
 6288SOL     OW19762   5.571   4.760   1.412
 6288SOL    HW119763   5.667   4.762   1.385
 6288SOL    HW219764   5.548   4.844   1.460
 6289SOL     OW19765   1.932   4.483   6.932
 6289SOL    HW119766   1.952   4.411   6.865
 6289SOL    HW219767   1.873   4.445   7.004
 6290SOL     OW19768   6.020   5.540   6.437
 6290SOL    HW119769   5.921   5.541   6.454
 6290SOL    HW219770   6.038   5.505   6.346
 6291SOL     OW19771   3.560   3.803   3.611
 6291SOL    HW119772   3.649   3.761   3.592
 6291SOL    HW219773   3.487   3.739   3.587
 6292SOL     OW19774   2.556   2.235   5.447
 6292SOL    HW119775   2.641   2.254   5.399
 6292SOL    HW219776   2.498   2.178   5.388
 6293SOL     OW19777   4.965   1.576   0.838
 6293SOL    HW119778   5.034   1.521   0.791
 6293SOL    HW219779   4.983   1.673   0.820
 6294SOL     OW19780   4.362   0.450   3.517
 6294SOL    HW119781   4.374   0.386   3.440
 6294SOL    HW219782   4.282   0.507   3.500
 6295SOL     OW19783   5.253   4.875   4.882
 6295SOL    HW119784   5.276   4.970   4.902
 6295SOL    HW219785   5.323   4.837   4.821
 6296SOL     OW19786   6.913   4.217   5.928
 6296SOL    HW119787   6.951   4.271   6.003
 6296SOL    HW219788   6.981   4.209   5.855
 6297SOL     OW19789   6.359   0.543   5.176
 6297SOL    HW119790   6.359   0.452   5.135
 6297SOL    HW219791   6.417   0.604   5.123
 6298SOL     OW19792   0.467   3.394   6.205
 6298SOL    HW119793   0.547   3.393   6.265
 6298SOL    HW219794   0.487   3.451   6.125
 6299SOL     OW19795   5.686   2.860   1.842
 6299SOL    HW119796   5.667   2.957   1.855
 6299SOL    HW219797   5.628   2.823   1.770
 6300SOL     OW19798   6.130   1.005   0.056
 6300SOL    HW119799   6.122   1.092   0.106
 6300SOL    HW219800   6.066   0.939   0.095
 6301SOL     OW19801   2.772   6.060   6.841
 6301SOL    HW119802   2.805   6.089   6.752
 6301SOL    HW219803   2.674   6.045   6.838
 6302SOL     OW19804   1.861   1.867   5.163
 6302SOL    HW119805   1.855   1.817   5.250
 6302SOL    HW219806   1.947   1.843   5.117
 6303SOL     OW19807   0.110   6.784   6.067
 6303SOL    HW119808   0.210   6.778   6.070
 6303SOL    HW219809   0.076   6.815   6.155
 6304SOL     OW19810   3.206   1.730   3.063
 6304SOL    HW119811   3.142   1.713   2.988
 6304SOL    HW219812   3.230   1.643   3.106
 6305SOL     OW19813   5.991   6.099   0.488
 6305SOL    HW119814   5.935   6.111   0.407
 6305SOL    HW219815   6.039   6.184   0.509
 6306SOL     OW19816   0.275   3.967   3.960
 6306SOL    HW119817   0.298   4.017   4.044
 6306SOL    HW219818   0.300   4.022   3.881
 6307SOL     OW19819   2.974   3.211   4.104
 6307SOL    HW119820   3.038   3.237   4.031
 6307SOL    HW219821   2.892   3.171   4.065
 6308SOL     OW19822   1.116   2.223   5.129
 6308SOL    HW119823   1.026   2.253   5.159
 6308SOL    HW219824   1.118   2.123   5.122
 6309SOL     OW19825   0.260   0.047   4.502
 6309SOL    HW119826   0.257   0.137   4.545
 6309SOL    HW219827   0.352   0.009   4.511
 6310SOL     OW19828   2.302   6.530   2.494
 6310SOL    HW119829   2.292   6.442   2.540
 6310SOL    HW219830   2.212   6.572   2.482
 6311SOL     OW19831   4.778   2.023   5.715
 6311SOL    HW119832   4.792   2.044   5.811
 6311SOL    HW219833   4.776   1.924   5.702
 6312SOL     OW19834   0.493   6.753   5.627
 6312SOL    HW119835   0.430   6.676   5.634
 6312SOL    HW219836   0.485   6.794   5.536
 6313SOL     OW19837   6.108   6.522   3.159
 6313SOL    HW119838   6.058   6.485   3.238
 6313SOL    HW219839   6.044   6.559   3.092
 6314SOL     OW19840   3.114   6.565   2.145
 6314SOL    HW119841   3.123   6.625   2.225
 6314SOL    HW219842   3.026   6.518   2.149
 6315SOL     OW19843   3.382   1.703   5.070
 6315SOL    HW119844   3.435   1.781   5.100
 6315SOL    HW219845   3.360   1.713   4.973
 6316SOL     OW19846   4.489   2.026   5.656
 6316SOL    HW119847   4.476   1.953   5.589
 6316SOL    HW219848   4.587   2.042   5.669
 6317SOL     OW19849   4.900   4.016   1.913
 6317SOL    HW119850   4.924   4.012   2.010
 6317SOL    HW219851   4.953   4.088   1.868
 6318SOL     OW19852   4.325   0.359   6.320
 6318SOL    HW119853   4.352   0.362   6.223
 6318SOL    HW219854   4.403   0.387   6.376
 6319SOL     OW19855   6.510   2.185   5.138
 6319SOL    HW119856   6.449   2.248   5.187
 6319SOL    HW219857   6.471   2.164   5.048
 6320SOL     OW19858   6.886   6.499   5.172
 6320SOL    HW119859   6.882   6.511   5.271
 6320SOL    HW219860   6.865   6.405   5.148
 6321SOL     OW19861   5.261   3.005   0.452
 6321SOL    HW119862   5.335   3.006   0.520
 6321SOL    HW219863   5.189   2.942   0.481
 6322SOL     OW19864   2.999   2.713   0.438
 6322SOL    HW119865   3.073   2.684   0.379
 6322SOL    HW219866   2.918   2.656   0.422
 6323SOL     OW19867   1.459   2.053   1.488
 6323SOL    HW119868   1.467   1.963   1.532
 6323SOL    HW219869   1.364   2.067   1.459
 6324SOL     OW19870   4.163   1.242   0.382
 6324SOL    HW119871   4.172   1.173   0.455
 6324SOL    HW219872   4.066   1.260   0.365
 6325SOL     OW19873   1.785   3.050   2.859
 6325SOL    HW119874   1.879   3.081   2.872
 6325SOL    HW219875   1.723   3.128   2.871
 6326SOL     OW19876   5.818   5.089   0.153
 6326SOL    HW119877   5.775   5.155   0.091
 6326SOL    HW219878   5.903   5.056   0.113
 6327SOL     OW19879   0.270   1.783   3.628
 6327SOL    HW119880   0.316   1.871   3.623
 6327SOL    HW219881   0.202   1.785   3.702
 6328SOL     OW19882   4.529   3.705   6.695
 6328SOL    HW119883   4.506   3.722   6.599
 6328SOL    HW219884   4.489   3.776   6.752
 6329SOL     OW19885   1.570   2.686   5.068
 6329SOL    HW119886   1.641   2.676   5.138
 6329SOL    HW219887   1.607   2.735   4.989
 6330SOL     OW19888   5.721   6.809   1.592
 6330SOL    HW119889   5.707   6.859   1.677
 6330SOL    HW219890   5.702   6.868   1.514
 6331SOL     OW19891   0.027   3.853   4.747
 6331SOL    HW119892   0.103   3.790   4.764
 6331SOL    HW219893   0.033   3.930   4.810
 6332SOL     OW19894   0.771   2.785   0.988
 6332SOL    HW119895   0.824   2.870   0.991
 6332SOL    HW219896   0.750   2.755   1.081
 6333SOL     OW19897   4.613   0.411   5.524
 6333SOL    HW119898   4.697   0.433   5.572
 6333SOL    HW219899   4.610   0.461   5.437
 6334SOL     OW19900   2.960   1.475   2.063
 6334SOL    HW119901   2.971   1.464   2.162
 6334SOL    HW219902   2.992   1.566   2.036
 6335SOL     OW19903   4.452   0.225   0.359
 6335SOL    HW119904   4.419   0.161   0.428
 6335SOL    HW219905   4.459   0.317   0.399
 6336SOL     OW19906   0.737   2.299   6.642
 6336SOL    HW119907   0.789   2.382   6.660
 6336SOL    HW219908   0.659   2.320   6.583
 6337SOL     OW19909   4.222   5.157   4.766
 6337SOL    HW119910   4.162   5.204   4.830
 6337SOL    HW219911   4.205   5.058   4.770
 6338SOL     OW19912   2.614   2.390   4.490
 6338SOL    HW119913   2.582   2.326   4.559
 6338SOL    HW219914   2.569   2.478   4.502
 6339SOL     OW19915   0.936   3.244   4.261
 6339SOL    HW119916   1.032   3.269   4.273
 6339SOL    HW219917   0.929   3.163   4.202
 6340SOL     OW19918   2.412   3.730   1.192
 6340SOL    HW119919   2.473   3.728   1.271
 6340SOL    HW219920   2.439   3.658   1.127
 6341SOL     OW19921   6.586   3.533   4.532
 6341SOL    HW119922   6.528   3.451   4.529
 6341SOL    HW219923   6.659   3.524   4.465
 6342SOL     OW19924   3.381   1.044   0.549
 6342SOL    HW119925   3.316   1.054   0.624
 6342SOL    HW219926   3.364   0.957   0.501
 6343SOL     OW19927   3.904   0.331   0.275
 6343SOL    HW119928   3.979   0.288   0.224
 6343SOL    HW219929   3.820   0.328   0.220
 6344SOL     OW19930   5.346   1.767   4.384
 6344SOL    HW119931   5.432   1.801   4.422
 6344SOL    HW219932   5.341   1.668   4.394
 6345SOL     OW19933   5.000   3.371   1.753
 6345SOL    HW119934   5.061   3.447   1.734
 6345SOL    HW219935   4.922   3.374   1.691
 6346SOL     OW19936   0.261   5.578   4.999
 6346SOL    HW119937   0.337   5.539   5.051
 6346SOL    HW219938   0.260   5.539   4.907
 6347SOL     OW19939   1.853   1.442   0.954
 6347SOL    HW119940   1.910   1.519   0.983
 6347SOL    HW219941   1.901   1.391   0.882
 6348SOL     OW19942   0.745   2.911   6.314
 6348SOL    HW119943   0.692   2.962   6.246
 6348SOL    HW219944   0.686   2.885   6.390
 6349SOL     OW19945   2.130   0.917   0.746
 6349SOL    HW119946   2.097   0.910   0.651
 6349SOL    HW219947   2.230   0.904   0.747
 6350SOL     OW19948   0.507   5.110   4.109
 6350SOL    HW119949   0.552   5.095   4.197
 6350SOL    HW219950   0.545   5.192   4.066
 6351SOL     OW19951   6.405   3.600   3.344
 6351SOL    HW119952   6.496   3.628   3.374
 6351SOL    HW219953   6.375   3.520   3.397
 6352SOL     OW19954   2.156   0.485   4.889
 6352SOL    HW119955   2.138   0.498   4.986
 6352SOL    HW219956   2.207   0.563   4.853
 6353SOL     OW19957   1.492   6.198   6.749
 6353SOL    HW119958   1.589   6.204   6.775
 6353SOL    HW219959   1.463   6.102   6.753
 6354SOL     OW19960   3.764   6.122   2.507
 6354SOL    HW119961   3.807   6.031   2.513
 6354SOL    HW219962   3.817   6.187   2.562
 6355SOL     OW19963   2.893   5.466   6.928
 6355SOL    HW119964   2.879   5.556   6.887
 6355SOL    HW219965   2.894   5.475   0.000
 6356SOL     OW19966   5.617   4.683   0.693
 6356SOL    HW119967   5.694   4.661   0.634
 6356SOL    HW219968   5.546   4.729   0.640
 6357SOL     OW19969   5.656   3.155   2.205
 6357SOL    HW119970   5.754   3.164   2.187
 6357SOL    HW219971   5.639   3.072   2.258
 6358SOL     OW19972   0.458   2.005   6.406
 6358SOL    HW119973   0.418   2.092   6.435
 6358SOL    HW219974   0.391   1.954   6.352
 6359SOL     OW19975   5.852   6.150   0.274
 6359SOL    HW119976   5.765   6.192   0.299
 6359SOL    HW219977   5.839   6.093   0.192
 6360SOL     OW19978   1.004   3.389   4.790
 6360SOL    HW119979   1.005   3.489   4.797
 6360SOL    HW219980   1.097   3.355   4.786
 6361SOL     OW19981   1.058   0.914   0.851
 6361SOL    HW119982   1.074   1.007   0.885
 6361SOL    HW219983   1.146   0.870   0.833
 6362SOL     OW19984   0.913   5.875   6.428
 6362SOL    HW119985   0.834   5.852   6.369
 6362SOL    HW219986   0.967   5.947   6.384
 6363SOL     OW19987   3.012   5.571   3.956
 6363SOL    HW119988   3.097   5.533   3.920
 6363SOL    HW219989   3.011   5.564   4.055
 6364SOL     OW19990   3.041   2.861   5.761
 6364SOL    HW119991   3.000   2.935   5.815
 6364SOL    HW219992   2.971   2.823   5.700
 6365SOL     OW19993   5.576   6.339   3.901
 6365SOL    HW119994   5.577   6.393   3.817
 6365SOL    HW219995   5.516   6.260   3.889
 6366SOL     OW19996   0.677   6.068   5.645
 6366SOL    HW119997   0.614   6.086   5.569
 6366SOL    HW219998   0.698   5.970   5.648
 6367SOL     OW19999   3.570   2.148   3.139
 6367SOL    HW120000   3.554   2.112   3.047
 6367SOL    HW220001   3.508   2.224   3.156
 6368SOL     OW20002   4.008   4.849   4.246
 6368SOL    HW120003   3.976   4.850   4.341
 6368SOL    HW220004   4.083   4.913   4.235
 6369SOL     OW20005   1.538   0.575   4.402
 6369SOL    HW120006   1.592   0.622   4.472
 6369SOL    HW220007   1.472   0.514   4.445
 6370SOL     OW20008   4.968   4.349   3.357
 6370SOL    HW120009   4.951   4.266   3.304
 6370SOL    HW220010   4.975   4.325   3.454
 6371SOL     OW20011   5.394   4.234   2.608
 6371SOL    HW120012   5.369   4.138   2.606
 6371SOL    HW220013   5.491   4.244   2.583
 6372SOL     OW20014   1.163   0.799   2.161
 6372SOL    HW120015   1.094   0.872   2.167
 6372SOL    HW220016   1.125   0.715   2.199
 6373SOL     OW20017   5.487   4.321   2.853
 6373SOL    HW120018   5.440   4.283   2.773
 6373SOL    HW220019   5.513   4.247   2.915
 6374SOL     OW20020   4.602   3.261   1.378
 6374SOL    HW120021   4.669   3.189   1.394
 6374SOL    HW220022   4.514   3.220   1.353
 6375SOL     OW20023   0.077   2.850   2.316
 6375SOL    HW120024   7.010   2.842   2.348
 6375SOL    HW220025   0.139   2.846   2.394
 6376SOL     OW20026   4.022   1.896   6.442
 6376SOL    HW120027   4.099   1.959   6.429
 6376SOL    HW220028   4.043   1.808   6.401
 6377SOL     OW20029   6.800   1.506   5.508
 6377SOL    HW120030   6.764   1.430   5.563
 6377SOL    HW220031   6.765   1.499   5.415
 6378SOL     OW20032   5.755   5.005   3.508
 6378SOL    HW120033   5.841   4.971   3.470
 6378SOL    HW220034   5.679   4.974   3.452
 6379SOL     OW20035   0.446   4.543   5.815
 6379SOL    HW120036   0.346   4.539   5.806
 6379SOL    HW220037   0.479   4.457   5.854
 6380SOL     OW20038   0.286   2.220   4.668
 6380SOL    HW120039   0.236   2.177   4.594
 6380SOL    HW220040   0.277   2.165   4.751
 6381SOL     OW20041   4.774   3.210   0.992
 6381SOL    HW120042   4.773   3.200   0.892
 6381SOL    HW220043   4.701   3.155   1.031
 6382SOL     OW20044   3.139   2.237   0.384
 6382SOL    HW120045   3.223   2.190   0.409
 6382SOL    HW220046   3.140   2.330   0.421
 6383SOL     OW20047   2.292   2.868   2.252
 6383SOL    HW120048   2.341   2.786   2.281
 6383SOL    HW220049   2.250   2.852   2.163
 6384SOL     OW20050   5.928   3.377   2.917
 6384SOL    HW120051   5.933   3.288   2.963
 6384SOL    HW220052   6.005   3.433   2.946
 6385SOL     OW20053   6.513   3.904   2.722
 6385SOL    HW120054   6.417   3.929   2.738
 6385SOL    HW220055   6.562   3.901   2.809
 6386SOL     OW20056   2.282   3.191   6.948
 6386SOL    HW120057   2.322   3.113   6.899
 6386SOL    HW220058   2.276   3.170   0.018
 6387SOL     OW20059   6.033   1.808   6.958
 6387SOL    HW120060   5.966   1.734   6.947
 6387SOL    HW220061   6.119   1.782   6.914
 6388SOL     OW20062   5.325   5.629   1.726
 6388SOL    HW120063   5.401   5.599   1.669
 6388SOL    HW220064   5.289   5.715   1.691
 6389SOL     OW20065   1.192   6.989   0.629
 6389SOL    HW120066   1.206   0.039   0.567
 6389SOL    HW220067   1.257   6.917   0.607
 6390SOL     OW20068   6.351   0.326   5.622
 6390SOL    HW120069   6.334   0.422   5.599
 6390SOL    HW220070   6.448   0.305   5.611
 6391SOL     OW20071   1.612   1.009   6.256
 6391SOL    HW120072   1.660   1.090   6.288
 6391SOL    HW220073   1.537   0.987   6.319
 6392SOL     OW20074   3.016   5.534   3.272
 6392SOL    HW120075   3.041   5.442   3.302
 6392SOL    HW220076   3.099   5.585   3.248
 6393SOL     OW20077   6.539   5.824   1.776
 6393SOL    HW120078   6.586   5.864   1.697
 6393SOL    HW220079   6.486   5.896   1.822
 6394SOL     OW20080   2.030   5.616   0.748
 6394SOL    HW120081   2.078   5.528   0.751
 6394SOL    HW220082   1.935   5.603   0.777
 6395SOL     OW20083   6.547   3.219   2.100
 6395SOL    HW120084   6.485   3.222   2.179
 6395SOL    HW220085   6.578   3.311   2.079
 6396SOL     OW20086   6.568   3.683   6.284
 6396SOL    HW120087   6.482   3.722   6.252
 6396SOL    HW220088   6.633   3.678   6.208
 6397SOL     OW20089   5.867   1.340   2.045
 6397SOL    HW120090   5.821   1.263   2.001
 6397SOL    HW220091   5.966   1.326   2.044
 6398SOL     OW20092   1.965   0.052   1.556
 6398SOL    HW120093   1.942   0.096   1.469
 6398SOL    HW220094   1.888   7.024   1.587
 6399SOL     OW20095   1.599   0.515   6.543
 6399SOL    HW120096   1.674   0.515   6.477
 6399SOL    HW220097   1.539   0.437   6.526
 6400SOL     OW20098   1.746   4.878   2.451
 6400SOL    HW120099   1.783   4.867   2.544
 6400SOL    HW220100   1.814   4.926   2.394
 6401SOL     OW20101   5.653   5.122   3.146
 6401SOL    HW120102   5.562   5.086   3.168
 6401SOL    HW220103   5.687   5.175   3.223
 6402SOL     OW20104   2.182   3.115   3.964
 6402SOL    HW120105   2.193   3.083   3.870
 6402SOL    HW220106   2.225   3.204   3.975
 6403SOL     OW20107   6.012   5.925   5.541
 6403SOL    HW120108   6.053   5.849   5.490
 6403SOL    HW220109   6.084   5.989   5.569
 6404SOL     OW20110   4.557   1.113   2.534
 6404SOL    HW120111   4.522   1.068   2.452
 6404SOL    HW220112   4.601   1.199   2.509
 6405SOL     OW20113   4.484   0.977   4.578
 6405SOL    HW120114   4.457   1.038   4.503
 6405SOL    HW220115   4.476   1.025   4.665
 6406SOL     OW20116   0.964   2.663   2.174
 6406SOL    HW120117   0.943   2.668   2.272
 6406SOL    HW220118   0.934   2.747   2.129
 6407SOL     OW20119   2.366   0.094   4.587
 6407SOL    HW120120   2.412   0.061   4.504
 6407SOL    HW220121   2.280   0.044   4.600
 6408SOL     OW20122   5.438   1.144   1.279
 6408SOL    HW120123   5.466   1.165   1.373
 6408SOL    HW220124   5.516   1.109   1.228
 6409SOL     OW20125   0.123   4.792   3.247
 6409SOL    HW120126   0.043   4.852   3.247
 6409SOL    HW220127   0.195   4.832   3.190
 6410SOL     OW20128   1.779   0.829   6.065
 6410SOL    HW120129   1.867   0.850   6.107
 6410SOL    HW220130   1.711   0.896   6.095
 6411SOL     OW20131   0.859   2.664   2.446
 6411SOL    HW120132   0.761   2.671   2.424
 6411SOL    HW220133   0.887   2.744   2.500
 6412SOL     OW20134   1.989   0.589   6.083
 6412SOL    HW120135   2.025   0.682   6.073
 6412SOL    HW220136   1.891   0.593   6.101
 6413SOL     OW20137   3.477   4.976   3.954
 6413SOL    HW120138   3.381   4.960   3.930
 6413SOL    HW220139   3.505   4.909   4.023
 6414SOL     OW20140   5.337   0.381   6.576
 6414SOL    HW120141   5.294   0.466   6.547
 6414SOL    HW220142   5.433   0.397   6.600
 6415SOL     OW20143   1.559   3.061   4.234
 6415SOL    HW120144   1.585   3.074   4.330
 6415SOL    HW220145   1.557   3.150   4.188
 6416SOL     OW20146   2.242   6.764   6.033
 6416SOL    HW120147   2.252   6.778   5.935
 6416SOL    HW220148   2.146   6.774   6.059
 6417SOL     OW20149   5.472   3.271   0.645
 6417SOL    HW120150   5.564   3.288   0.681
 6417SOL    HW220151   5.463   3.173   0.623
 6418SOL     OW20152   5.094   4.105   2.707
 6418SOL    HW120153   5.056   4.065   2.791
 6418SOL    HW220154   5.120   4.200   2.725
 6419SOL     OW20155   1.332   5.566   3.068
 6419SOL    HW120156   1.396   5.617   3.124
 6419SOL    HW220157   1.365   5.473   3.055
 6420SOL     OW20158   2.445   0.917   4.036
 6420SOL    HW120159   2.398   1.004   4.043
 6420SOL    HW220160   2.403   0.861   3.964
 6421SOL     OW20161   4.263   0.556   1.363
 6421SOL    HW120162   4.248   0.649   1.398
 6421SOL    HW220163   4.269   0.493   1.440
 6422SOL     OW20164   6.418   1.735   5.033
 6422SOL    HW120165   6.359   1.689   5.099
 6422SOL    HW220166   6.499   1.770   5.079
 6423SOL     OW20167   4.924   5.223   4.834
 6423SOL    HW120168   4.967   5.236   4.745
 6423SOL    HW220169   4.862   5.145   4.831
 6424SOL     OW20170   1.072   4.180   5.094
 6424SOL    HW120171   1.005   4.254   5.084
 6424SOL    HW220172   1.102   4.150   5.003
 6425SOL     OW20173   6.951   5.732   3.491
 6425SOL    HW120174   6.875   5.777   3.539
 6425SOL    HW220175   6.947   5.633   3.507
 6426SOL     OW20176   6.408   5.708   3.549
 6426SOL    HW120177   6.409   5.645   3.471
 6426SOL    HW220178   6.501   5.726   3.579
 6427SOL     OW20179   2.964   3.860   3.300
 6427SOL    HW120180   2.962   3.858   3.400
 6427SOL    HW220181   2.960   3.955   3.268
 6428SOL     OW20182   6.115   3.391   0.198
 6428SOL    HW120183   6.080   3.340   0.276
 6428SOL    HW220184   6.161   3.329   0.135
 6429SOL     OW20185   0.049   1.206   5.805
 6429SOL    HW120186   7.001   1.257   5.848
 6429SOL    HW220187   0.049   1.224   5.707
 6430SOL     OW20188   6.572   1.235   4.176
 6430SOL    HW120189   6.507   1.165   4.204
 6430SOL    HW220190   6.556   1.260   4.081
 6431SOL     OW20191   4.370   6.449   3.473
 6431SOL    HW120192   4.409   6.423   3.385
 6431SOL    HW220193   4.374   6.371   3.536
 6432SOL     OW20194   4.117   4.825   5.935
 6432SOL    HW120195   4.190   4.808   6.001
 6432SOL    HW220196   4.151   4.884   5.861
 6433SOL     OW20197   2.970   4.773   6.783
 6433SOL    HW120198   3.021   4.690   6.807
 6433SOL    HW220199   2.875   4.750   6.765
 6434SOL     OW20200   3.094   0.398   6.309
 6434SOL    HW120201   3.020   0.362   6.252
 6434SOL    HW220202   3.098   0.345   6.394
 6435SOL     OW20203   6.083   6.820   0.579
 6435SOL    HW120204   6.111   6.873   0.658
 6435SOL    HW220205   6.162   6.804   0.519
 6436SOL     OW20206   1.423   3.498   3.057
 6436SOL    HW120207   1.422   3.478   2.959
 6436SOL    HW220208   1.339   3.545   3.083
 6437SOL     OW20209   1.661   2.471   0.564
 6437SOL    HW120210   1.656   2.547   0.629
 6437SOL    HW220211   1.578   2.416   0.570
 6438SOL     OW20212   0.278   4.852   6.245
 6438SOL    HW120213   0.268   4.779   6.177
 6438SOL    HW220214   0.193   4.904   6.251
 6439SOL     OW20215   5.157   0.569   2.497
 6439SOL    HW120216   5.188   0.474   2.503
 6439SOL    HW220217   5.231   0.626   2.463
 6440SOL     OW20218   3.022   1.081   5.628
 6440SOL    HW120219   2.933   1.124   5.639
 6440SOL    HW220220   3.076   1.133   5.562
 6441SOL     OW20221   0.178   0.888   1.713
 6441SOL    HW120222   0.105   0.820   1.705
 6441SOL    HW220223   0.259   0.845   1.752
 6442SOL     OW20224   3.265   1.732   4.804
 6442SOL    HW120225   3.267   1.666   4.728
 6442SOL    HW220226   3.171   1.754   4.827
 6443SOL     OW20227   3.277   3.000   5.737
 6443SOL    HW120228   3.336   2.951   5.673
 6443SOL    HW220229   3.189   2.952   5.745
 6444SOL     OW20230   5.861   2.315   4.331
 6444SOL    HW120231   5.929   2.375   4.289
 6444SOL    HW220232   5.803   2.276   4.260
 6445SOL     OW20233   3.787   3.337   3.327
 6445SOL    HW120234   3.696   3.303   3.300
 6445SOL    HW220235   3.788   3.437   3.321
 6446SOL     OW20236   0.276   1.453   0.187
 6446SOL    HW120237   0.344   1.411   0.126
 6446SOL    HW220238   0.208   1.502   0.132
 6447SOL     OW20239   0.057   4.397   2.447
 6447SOL    HW120240   0.127   4.461   2.416
 6447SOL    HW220241   0.002   4.367   2.369
 6448SOL     OW20242   5.927   4.821   1.425
 6448SOL    HW120243   5.954   4.734   1.467
 6448SOL    HW220244   5.967   4.828   1.334
 6449SOL     OW20245   3.226   5.467   1.716
 6449SOL    HW120246   3.157   5.395   1.707
 6449SOL    HW220247   3.277   5.476   1.630
 6450SOL     OW20248   1.261   3.336   0.164
 6450SOL    HW120249   1.280   3.292   0.076
 6450SOL    HW220250   1.201   3.414   0.151
 6451SOL     OW20251   2.115   0.957   5.643
 6451SOL    HW120252   2.018   0.933   5.638
 6451SOL    HW220253   2.132   1.010   5.726
 6452SOL     OW20254   4.798   4.176   2.306
 6452SOL    HW120255   4.795   4.108   2.379
 6452SOL    HW220256   4.872   4.154   2.243
 6453SOL     OW20257   2.591   0.672   1.557
 6453SOL    HW120258   2.650   0.734   1.609
 6453SOL    HW220259   2.569   0.592   1.613
 6454SOL     OW20260   0.623   1.013   2.615
 6454SOL    HW120261   0.524   1.029   2.612
 6454SOL    HW220262   0.666   1.080   2.676
 6455SOL     OW20263   6.755   3.042   3.420
 6455SOL    HW120264   6.813   2.964   3.445
 6455SOL    HW220265   6.809   3.108   3.368
 6456SOL     OW20266   1.261   0.794   3.662
 6456SOL    HW120267   1.276   0.701   3.694
 6456SOL    HW220268   1.346   0.846   3.668
 6457SOL     OW20269   5.421   0.472   1.778
 6457SOL    HW120270   5.331   0.440   1.750
 6457SOL    HW220271   5.415   0.566   1.812
 6458SOL     OW20272   1.472   4.973   4.244
 6458SOL    HW120273   1.438   5.059   4.283
 6458SOL    HW220274   1.570   4.965   4.262
 6459SOL     OW20275   6.324   2.970   2.341
 6459SOL    HW120276   6.322   2.995   2.244
 6459SOL    HW220277   6.313   2.871   2.350
 6460SOL     OW20278   6.025   5.931   6.363
 6460SOL    HW120279   6.004   6.018   6.317
 6460SOL    HW220280   6.118   5.934   6.400
 6461SOL     OW20281   2.872   4.390   6.745
 6461SOL    HW120282   2.911   4.379   6.836
 6461SOL    HW220283   2.847   4.300   6.708
 6462SOL     OW20284   1.351   2.805   4.669
 6462SOL    HW120285   1.291   2.873   4.627
 6462SOL    HW220286   1.424   2.851   4.719
 6463SOL     OW20287   5.258   0.512   0.406
 6463SOL    HW120288   5.334   0.537   0.467
 6463SOL    HW220289   5.192   0.456   0.456
 6464SOL     OW20290   1.921   5.548   5.035
 6464SOL    HW120291   1.905   5.525   4.939
 6464SOL    HW220292   1.950   5.466   5.085
 6465SOL     OW20293   0.227   3.058   3.101
 6465SOL    HW120294   0.243   3.151   3.067
 6465SOL    HW220295   0.229   3.058   3.201
 6466SOL     OW20296   5.948   0.922   6.323
 6466SOL    HW120297   5.897   0.848   6.367
 6466SOL    HW220298   5.956   0.999   6.387
 6467SOL     OW20299   3.785   0.076   1.091
 6467SOL    HW120300   3.831   0.109   1.008
 6467SOL    HW220301   3.699   0.126   1.104
 6468SOL     OW20302   3.729   6.709   1.764
 6468SOL    HW120303   3.656   6.646   1.738
 6468SOL    HW220304   3.760   6.688   1.856
 6469SOL     OW20305   4.074   2.211   3.463
 6469SOL    HW120306   3.977   2.192   3.448
 6469SOL    HW220307   4.084   2.280   3.535
 6470SOL     OW20308   6.159   2.691   0.899
 6470SOL    HW120309   6.165   2.785   0.865
 6470SOL    HW220310   6.112   2.691   0.988
 6471SOL     OW20311   0.631   6.526   5.370
 6471SOL    HW120312   0.652   6.577   5.453
 6471SOL    HW220313   0.563   6.456   5.389
 6472SOL     OW20314   6.548   6.008   2.869
 6472SOL    HW120315   6.588   6.041   2.954
 6472SOL    HW220316   6.454   5.978   2.885
 6473SOL     OW20317   2.461   1.474   4.751
 6473SOL    HW120318   2.456   1.570   4.722
 6473SOL    HW220319   2.503   1.469   4.841
 6474SOL     OW20320   4.589   5.762   5.572
 6474SOL    HW120321   4.502   5.736   5.529
 6474SOL    HW220322   4.634   5.832   5.518
 6475SOL     OW20323   5.734   4.376   3.920
 6475SOL    HW120324   5.639   4.363   3.950
 6475SOL    HW220325   5.758   4.473   3.926
 6476SOL     OW20326   5.211   2.924   0.140
 6476SOL    HW120327   5.268   2.964   0.212
 6476SOL    HW220328   5.269   2.869   0.079
 6477SOL     OW20329   6.387   5.372   0.601
 6477SOL    HW120330   6.401   5.439   0.673
 6477SOL    HW220331   6.446   5.293   0.616
 6478SOL     OW20332   2.810   6.468   2.595
 6478SOL    HW120333   2.811   6.384   2.540
 6478SOL    HW220334   2.750   6.535   2.552
 6479SOL     OW20335   4.046   5.796   4.304
 6479SOL    HW120336   4.057   5.744   4.388
 6479SOL    HW220337   4.094   5.751   4.230
 6480SOL     OW20338   2.606   1.043   0.144
 6480SOL    HW120339   2.548   1.071   0.220
 6480SOL    HW220340   2.550   0.998   0.074
 6481SOL     OW20341   3.439   2.323   1.718
 6481SOL    HW120342   3.343   2.303   1.741
 6481SOL    HW220343   3.498   2.287   1.789
 6482SOL     OW20344   6.221   1.943   6.376
 6482SOL    HW120345   6.274   2.012   6.425
 6482SOL    HW220346   6.242   1.853   6.413
 6483SOL     OW20347   0.138   6.789   3.062
 6483SOL    HW120348   0.053   6.770   3.111
 6483SOL    HW220349   0.215   6.752   3.114
 6484SOL     OW20350   2.913   1.155   2.459
 6484SOL    HW120351   3.003   1.161   2.503
 6484SOL    HW220352   2.855   1.091   2.510
 6485SOL     OW20353   1.955   5.377   3.909
 6485SOL    HW120354   2.018   5.338   3.976
 6485SOL    HW220355   1.970   5.336   3.820
 6486SOL     OW20356   1.107   4.828   2.324
 6486SOL    HW120357   1.060   4.916   2.319
 6486SOL    HW220358   1.206   4.842   2.314
 6487SOL     OW20359   1.162   6.732   5.474
 6487SOL    HW120360   1.200   6.771   5.390
 6487SOL    HW220361   1.140   6.636   5.459
 6488SOL     OW20362   4.116   5.713   4.584
 6488SOL    HW120363   4.206   5.756   4.572
 6488SOL    HW220364   4.126   5.631   4.639
 6489SOL     OW20365   3.562   3.635   6.226
 6489SOL    HW120366   3.603   3.545   6.209
 6489SOL    HW220367   3.568   3.656   6.324
 6490SOL     OW20368   3.490   0.928   6.234
 6490SOL    HW120369   3.544   0.936   6.150
 6490SOL    HW220370   3.432   1.009   6.244
 6491SOL     OW20371   3.219   0.305   1.171
 6491SOL    HW120372   3.129   0.263   1.172
 6491SOL    HW220373   3.243   0.335   1.264
 6492SOL     OW20374   3.689   3.860   5.361
 6492SOL    HW120375   3.718   3.785   5.420
 6492SOL    HW220376   3.735   3.945   5.388
 6493SOL     OW20377   1.435   4.467   6.624
 6493SOL    HW120378   1.388   4.455   6.536
 6493SOL    HW220379   1.534   4.466   6.610
 6494SOL     OW20380   0.289   6.814   2.670
 6494SOL    HW120381   0.287   6.895   2.730
 6494SOL    HW220382   0.321   6.841   2.580
 6495SOL     OW20383   7.010   1.030   4.559
 6495SOL    HW120384   6.920   1.018   4.517
 6495SOL    HW220385   0.045   0.959   4.524
 6496SOL     OW20386   5.544   0.718   2.690
 6496SOL    HW120387   5.573   0.654   2.619
 6496SOL    HW220388   5.489   0.670   2.758
 6497SOL     OW20389   0.395   0.745   1.506
 6497SOL    HW120390   0.409   0.649   1.532
 6497SOL    HW220391   0.479   0.781   1.466
 6498SOL     OW20392   0.751   3.528   4.578
 6498SOL    HW120393   0.754   3.554   4.481
 6498SOL    HW220394   0.734   3.429   4.584
 6499SOL     OW20395   5.529   3.600   5.484
 6499SOL    HW120396   5.595   3.645   5.544
 6499SOL    HW220397   5.484   3.525   5.533
 6500SOL     OW20398   6.825   3.897   3.459
 6500SOL    HW120399   6.799   3.844   3.378
 6500SOL    HW220400   6.814   3.995   3.440
 6501SOL     OW20401   6.728   1.210   0.717
 6501SOL    HW120402   6.683   1.137   0.665
 6501SOL    HW220403   6.730   1.294   0.662
 6502SOL     OW20404   0.162   3.951   2.128
 6502SOL    HW120405   0.211   3.870   2.160
 6502SOL    HW220406   0.155   4.017   2.202
 6503SOL     OW20407   5.456   0.846   3.720
 6503SOL    HW120408   5.411   0.935   3.709
 6503SOL    HW220409   5.555   0.858   3.725
 6504SOL     OW20410   3.462   6.477   6.024
 6504SOL    HW120411   3.516   6.420   5.962
 6504SOL    HW220412   3.500   6.472   6.116
 6505SOL     OW20413   5.554   6.295   6.339
 6505SOL    HW120414   5.548   6.335   6.430
 6505SOL    HW220415   5.645   6.310   6.301
 6506SOL     OW20416   6.951   3.194   3.284
 6506SOL    HW120417   6.895   3.191   3.201
 6506SOL    HW220418   7.003   3.279   3.286
 6507SOL     OW20419   2.447   6.008   6.339
 6507SOL    HW120420   2.356   5.999   6.379
 6507SOL    HW220421   2.454   5.949   6.258
 6508SOL     OW20422   1.815   0.626   3.151
 6508SOL    HW120423   1.893   0.626   3.088
 6508SOL    HW220424   1.781   0.719   3.162
 6509SOL     OW20425   4.603   2.207   4.637
 6509SOL    HW120426   4.649   2.275   4.580
 6509SOL    HW220427   4.549   2.254   4.707
 6510SOL     OW20428   6.140   4.759   6.774
 6510SOL    HW120429   6.240   4.760   6.769
 6510SOL    HW220430   6.106   4.851   6.755
 6511SOL     OW20431   4.382   1.042   4.819
 6511SOL    HW120432   4.331   0.971   4.867
 6511SOL    HW220433   4.420   1.106   4.886
 6512SOL     OW20434   3.676   6.806   2.157
 6512SOL    HW120435   3.737   6.873   2.199
 6512SOL    HW220436   3.727   6.750   2.092
 6513SOL     OW20437   2.367   5.332   3.542
 6513SOL    HW120438   2.340   5.322   3.638
 6513SOL    HW220439   2.350   5.426   3.512
 6514SOL     OW20440   5.478   1.312   4.312
 6514SOL    HW120441   5.515   1.368   4.387
 6514SOL    HW220442   5.378   1.321   4.311
 6515SOL     OW20443   1.585   3.196   3.404
 6515SOL    HW120444   1.635   3.232   3.325
 6515SOL    HW220445   1.502   3.150   3.372
 6516SOL     OW20446   0.457   3.313   1.234
 6516SOL    HW120447   0.555   3.314   1.251
 6516SOL    HW220448   0.433   3.234   1.177
 6517SOL     OW20449   6.843   1.893   1.926
 6517SOL    HW120450   6.745   1.905   1.943
 6517SOL    HW220451   6.893   1.894   2.013
 6518SOL     OW20452   0.417   0.321   1.391
 6518SOL    HW120453   0.469   0.398   1.427
 6518SOL    HW220454   0.428   0.242   1.452
 6519SOL     OW20455   0.518   1.570   2.828
 6519SOL    HW120456   0.500   1.616   2.741
 6519SOL    HW220457   0.433   1.529   2.862
 6520SOL     OW20458   0.303   4.922   0.097
 6520SOL    HW120459   0.379   4.947   0.037
 6520SOL    HW220460   0.315   4.829   0.131
 6521SOL     OW20461   2.036   2.810   4.638
 6521SOL    HW120462   2.027   2.734   4.702
 6521SOL    HW220463   2.048   2.895   4.688
 6522SOL     OW20464   3.036   5.036   5.740
 6522SOL    HW120465   3.072   5.129   5.731
 6522SOL    HW220466   3.037   4.991   5.651
 6523SOL     OW20467   3.939   0.698   0.101
 6523SOL    HW120468   3.927   0.660   0.193
 6523SOL    HW220469   4.030   0.737   0.092
 6524SOL     OW20470   2.605   3.284   1.213
 6524SOL    HW120471   2.662   3.307   1.292
 6524SOL    HW220472   2.512   3.317   1.227
 6525SOL     OW20473   2.140   4.671   2.802
 6525SOL    HW120474   2.084   4.591   2.778
 6525SOL    HW220475   2.131   4.688   2.900
 6526SOL     OW20476   1.074   0.439   1.652
 6526SOL    HW120477   1.064   0.474   1.559
 6526SOL    HW220478   0.985   0.411   1.687
 6527SOL     OW20479   6.799   2.007   6.786
 6527SOL    HW120480   6.782   1.972   6.694
 6527SOL    HW220481   6.736   1.966   6.851
 6528SOL     OW20482   5.839   1.153   5.277
 6528SOL    HW120483   5.916   1.097   5.311
 6528SOL    HW220484   5.865   1.249   5.279
 6529SOL     OW20485   2.106   0.533   2.387
 6529SOL    HW120486   2.179   0.497   2.445
 6529SOL    HW220487   2.046   0.458   2.359
 6530SOL     OW20488   0.009   2.312   1.093
 6530SOL    HW120489   6.976   2.291   1.170
 6530SOL    HW220490   0.102   2.282   1.114
 6531SOL     OW20491   4.960   3.163   4.998
 6531SOL    HW120492   5.027   3.125   5.062
 6531SOL    HW220493   4.926   3.250   5.034
 6532SOL     OW20494   1.073   1.332   0.892
 6532SOL    HW120495   1.041   1.397   0.823
 6532SOL    HW220496   1.163   1.297   0.867
 6533SOL     OW20497   3.870   6.082   0.275
 6533SOL    HW120498   3.922   6.167   0.277
 6533SOL    HW220499   3.799   6.088   0.204
 6534SOL     OW20500   5.182   4.990   1.539
 6534SOL    HW120501   5.129   4.983   1.454
 6534SOL    HW220502   5.222   5.081   1.545
 6535SOL     OW20503   6.977   4.478   4.315
 6535SOL    HW120504   6.971   4.378   4.312
 6535SOL    HW220505   6.884   4.516   4.321
 6536SOL     OW20506   0.613   2.162   4.958
 6536SOL    HW120507   0.688   2.156   4.893
 6536SOL    HW220508   0.549   2.086   4.942
 6537SOL     OW20509   6.955   4.372   6.475
 6537SOL    HW120510   6.879   4.336   6.422
 6537SOL    HW220511   6.987   4.458   6.433
 6538SOL     OW20512   1.827   3.960   5.864
 6538SOL    HW120513   1.920   3.998   5.866
 6538SOL    HW220514   1.829   3.866   5.897
 6539SOL     OW20515   4.963   1.033   6.885
 6539SOL    HW120516   5.061   1.052   6.898
 6539SOL    HW220517   4.914   1.054   6.969
 6540SOL     OW20518   3.833   2.986   6.132
 6540SOL    HW120519   3.840   3.001   6.231
 6540SOL    HW220520   3.781   3.061   6.091
 6541SOL     OW20521   5.042   1.534   5.066
 6541SOL    HW120522   5.092   1.463   5.116
 6541SOL    HW220523   5.107   1.602   5.033
 6542SOL     OW20524   0.606   2.789   3.811
 6542SOL    HW120525   0.541   2.833   3.873
 6542SOL    HW220526   0.585   2.691   3.804
 6543SOL     OW20527   4.376   3.044   5.380
 6543SOL    HW120528   4.364   2.949   5.350
 6543SOL    HW220529   4.353   3.106   5.305
 6544SOL     OW20530   1.422   6.862   3.508
 6544SOL    HW120531   1.428   6.915   3.593
 6544SOL    HW220532   1.341   6.804   3.511
 6545SOL     OW20533   4.195   0.602   0.930
 6545SOL    HW120534   4.276   0.622   0.875
 6545SOL    HW220535   4.168   0.684   0.980
 6546SOL     OW20536   2.615   4.128   5.992
 6546SOL    HW120537   2.674   4.122   5.912
 6546SOL    HW220538   2.650   4.198   6.055
 6547SOL     OW20539   4.798   0.949   6.711
 6547SOL    HW120540   4.867   0.988   6.773
 6547SOL    HW220541   4.841   0.927   6.624
 6548SOL     OW20542   1.376   4.071   1.078
 6548SOL    HW120543   1.381   4.125   0.994
 6548SOL    HW220544   1.468   4.060   1.117
 6549SOL     OW20545   4.587   0.877   2.145
 6549SOL    HW120546   4.502   0.850   2.099
 6549SOL    HW220547   4.636   0.796   2.176
 6550SOL     OW20548   6.900   6.569   4.619
 6550SOL    HW120549   6.945   6.653   4.650
 6550SOL    HW220550   6.893   6.569   4.520
 6551SOL     OW20551   1.963   3.578   1.943
 6551SOL    HW120552   2.052   3.580   1.988
 6551SOL    HW220553   1.968   3.626   1.856
 6552SOL     OW20554   1.610   0.375   0.367
 6552SOL    HW120555   1.545   0.299   0.365
 6552SOL    HW220556   1.679   0.358   0.438
 6553SOL     OW20557   0.317   2.082   3.096
 6553SOL    HW120558   0.307   2.069   3.195
 6553SOL    HW220559   0.412   2.065   3.069
 6554SOL     OW20560   1.470   0.296   4.146
 6554SOL    HW120561   1.399   0.340   4.090
 6554SOL    HW220562   1.435   0.281   4.238
 6555SOL     OW20563   5.013   2.202   2.892
 6555SOL    HW120564   5.083   2.140   2.860
 6555SOL    HW220565   4.993   2.183   2.989
 6556SOL     OW20566   5.831   4.701   3.321
 6556SOL    HW120567   5.841   4.671   3.415
 6556SOL    HW220568   5.892   4.778   3.303
 6557SOL     OW20569   2.190   0.468   3.231
 6557SOL    HW120570   2.265   0.513   3.278
 6557SOL    HW220571   2.115   0.532   3.217
 6558SOL     OW20572   6.693   4.993   0.145
 6558SOL    HW120573   6.697   4.895   0.131
 6558SOL    HW220574   6.782   5.027   0.175
 6559SOL     OW20575   0.819   4.010   0.096
 6559SOL    HW120576   0.724   4.001   0.066
 6559SOL    HW220577   0.880   3.983   0.022
 6560SOL     OW20578   3.983   4.820   1.655
 6560SOL    HW120579   4.080   4.816   1.679
 6560SOL    HW220580   3.966   4.900   1.598
 6561SOL     OW20581   3.584   4.210   1.260
 6561SOL    HW120582   3.608   4.113   1.260
 6561SOL    HW220583   3.572   4.241   1.165
 6562SOL     OW20584   5.916   1.859   1.146
 6562SOL    HW120585   5.828   1.907   1.156
 6562SOL    HW220586   5.939   1.814   1.232
 6563SOL     OW20587   5.115   5.564   6.317
 6563SOL    HW120588   5.139   5.647   6.266
 6563SOL    HW220589   5.171   5.559   6.400
 6564SOL     OW20590   6.207   3.779   2.362
 6564SOL    HW120591   6.159   3.701   2.321
 6564SOL    HW220592   6.273   3.746   2.429
 6565SOL     OW20593   5.901   1.053   2.528
 6565SOL    HW120594   5.814   1.003   2.529
 6565SOL    HW220595   5.930   1.071   2.622
 6566SOL     OW20596   4.210   6.639   2.202
 6566SOL    HW120597   4.162   6.704   2.261
 6566SOL    HW220598   4.145   6.600   2.137
 6567SOL     OW20599   4.953   0.710   2.400
 6567SOL    HW120600   4.930   0.804   2.424
 6567SOL    HW220601   5.029   0.679   2.457
 6568SOL     OW20602   3.411   1.746   4.228
 6568SOL    HW120603   3.465   1.772   4.308
 6568SOL    HW220604   3.330   1.695   4.257
 6569SOL     OW20605   2.984   2.978   0.301
 6569SOL    HW120606   2.957   2.929   0.383
 6569SOL    HW220607   3.082   2.963   0.283
 6570SOL     OW20608   2.912   0.856   2.271
 6570SOL    HW120609   2.970   0.857   2.353
 6570SOL    HW220610   2.921   0.943   2.222
 6571SOL     OW20611   3.055   4.809   2.150
 6571SOL    HW120612   3.115   4.729   2.139
 6571SOL    HW220613   2.966   4.789   2.110
 6572SOL     OW20614   0.180   4.159   4.377
 6572SOL    HW120615   0.140   4.088   4.435
 6572SOL    HW220616   0.193   4.242   4.432
 6573SOL     OW20617   0.514   1.980   2.754
 6573SOL    HW120618   0.605   1.989   2.715
 6573SOL    HW220619   0.521   1.953   2.850
 6574SOL     OW20620   2.335   5.761   2.952
 6574SOL    HW120621   2.245   5.759   2.909
 6574SOL    HW220622   2.333   5.708   3.037
 6575SOL     OW20623   0.947   6.995   4.066
 6575SOL    HW120624   0.862   0.020   4.062
 6575SOL    HW220625   0.927   6.898   4.056
 6576SOL     OW20626   2.692   6.328   0.156
 6576SOL    HW120627   2.718   6.273   0.235
 6576SOL    HW220628   2.618   6.390   0.182
 6577SOL     OW20629   1.348   1.620   3.478
 6577SOL    HW120630   1.255   1.626   3.442
 6577SOL    HW220631   1.374   1.708   3.518
 6578SOL     OW20632   0.563   6.249   2.521
 6578SOL    HW120633   0.539   6.216   2.612
 6578SOL    HW220634   0.657   6.283   2.522
 6579SOL     OW20635   0.051   3.453   3.368
 6579SOL    HW120636   7.019   3.502   3.432
 6579SOL    HW220637   0.105   3.386   3.418
 6580SOL     OW20638   0.366   1.603   0.441
 6580SOL    HW120639   0.380   1.538   0.366
 6580SOL    HW220640   0.363   1.696   0.404
 6581SOL     OW20641   2.495   0.492   0.577
 6581SOL    HW120642   2.411   0.497   0.523
 6581SOL    HW220643   2.574   0.512   0.519
 6582SOL     OW20644   6.871   1.285   3.467
 6582SOL    HW120645   6.830   1.372   3.492
 6582SOL    HW220646   6.901   1.288   3.372
 6583SOL     OW20647   5.206   0.047   5.892
 6583SOL    HW120648   5.139   7.001   5.900
 6583SOL    HW220649   5.187   0.101   5.809
 6584SOL     OW20650   4.684   2.343   0.609
 6584SOL    HW120651   4.722   2.325   0.699
 6584SOL    HW220652   4.709   2.270   0.546
 6585SOL     OW20653   6.167   5.583   0.239
 6585SOL    HW120654   6.147   5.642   0.317
 6585SOL    HW220655   6.083   5.563   0.190
 6586SOL     OW20656   5.772   0.988   5.961
 6586SOL    HW120657   5.701   1.052   5.989
 6586SOL    HW220658   5.843   0.984   6.032
 6587SOL     OW20659   1.820   4.889   5.649
 6587SOL    HW120660   1.906   4.891   5.598
 6587SOL    HW220661   1.840   4.894   5.747
 6588SOL     OW20662   0.463   2.808   1.597
 6588SOL    HW120663   0.364   2.815   1.581
 6588SOL    HW220664   0.511   2.819   1.510
 6589SOL     OW20665   4.628   0.103   1.702
 6589SOL    HW120666   4.656   0.167   1.630
 6589SOL    HW220667   4.553   0.142   1.755
 6590SOL     OW20668   0.002   1.064   6.818
 6590SOL    HW120669   0.076   1.094   6.878
 6590SOL    HW220670   0.036   1.063   6.723
 6591SOL     OW20671   6.180   5.830   3.595
 6591SOL    HW120672   6.121   5.822   3.514
 6591SOL    HW220673   6.268   5.787   3.576
 6592SOL     OW20674   5.254   6.818   3.256
 6592SOL    HW120675   5.335   6.858   3.298
 6592SOL    HW220676   5.245   6.723   3.285
 6593SOL     OW20677   2.530   2.318   2.800
 6593SOL    HW120678   2.601   2.281   2.740
 6593SOL    HW220679   2.499   2.246   2.862
 6594SOL     OW20680   3.926   1.237   6.481
 6594SOL    HW120681   3.828   1.229   6.502
 6594SOL    HW220682   3.938   1.260   6.384
 6595SOL     OW20683   1.702   4.330   6.835
 6595SOL    HW120684   1.777   4.264   6.832
 6595SOL    HW220685   1.702   4.386   6.752
 6596SOL     OW20686   3.568   6.765   4.155
 6596SOL    HW120687   3.494   6.728   4.098
 6596SOL    HW220688   3.564   6.722   4.245
 6597SOL     OW20689   1.180   5.752   0.941
 6597SOL    HW120690   1.216   5.749   1.034
 6597SOL    HW220691   1.199   5.842   0.901
 6598SOL     OW20692   1.933   4.580   3.849
 6598SOL    HW120693   1.899   4.510   3.912
 6598SOL    HW220694   1.894   4.669   3.874
 6599SOL     OW20695   4.465   6.256   6.284
 6599SOL    HW120696   4.397   6.315   6.241
 6599SOL    HW220697   4.420   6.198   6.352
 6600SOL     OW20698   3.578   6.350   5.425
 6600SOL    HW120699   3.512   6.417   5.458
 6600SOL    HW220700   3.661   6.397   5.396
 6601SOL     OW20701   1.471   2.217   5.140
 6601SOL    HW120702   1.483   2.284   5.067
 6601SOL    HW220703   1.408   2.253   5.209
 6602SOL     OW20704   1.921   0.860   1.497
 6602SOL    HW120705   1.829   0.853   1.538
 6602SOL    HW220706   1.919   0.821   1.405
 6603SOL     OW20707   0.366   3.187   3.337
 6603SOL    HW120708   0.466   3.187   3.335
 6603SOL    HW220709   0.334   3.148   3.424
 6604SOL     OW20710   1.407   6.620   1.568
 6604SOL    HW120711   1.396   6.533   1.520
 6604SOL    HW220712   1.490   6.617   1.624
 6605SOL     OW20713   5.801   5.622   1.757
 6605SOL    HW120714   5.810   5.718   1.731
 6605SOL    HW220715   5.768   5.616   1.851
 6606SOL     OW20716   6.802   5.427   2.367
 6606SOL    HW120717   6.883   5.427   2.426
 6606SOL    HW220718   6.785   5.520   2.334
 6607SOL     OW20719   1.210   4.586   3.018
 6607SOL    HW120720   1.157   4.629   2.945
 6607SOL    HW220721   1.181   4.492   3.029
 6608SOL     OW20722   6.336   6.978   0.020
 6608SOL    HW120723   6.382   6.893   7.022
 6608SOL    HW220724   6.325   6.982   0.119
 6609SOL     OW20725   5.506   1.004   0.107
 6609SOL    HW120726   5.484   0.906   0.102
 6609SOL    HW220727   5.456   1.045   0.184
 6610SOL     OW20728   2.140   6.537   6.560
 6610SOL    HW120729   2.179   6.453   6.522
 6610SOL    HW220730   2.137   6.608   6.489
 6611SOL     OW20731   4.867   3.076   3.151
 6611SOL    HW120732   4.802   3.013   3.193
 6611SOL    HW220733   4.897   3.039   3.064
 6612SOL     OW20734   6.271   1.721   6.506
 6612SOL    HW120735   6.275   1.656   6.582
 6612SOL    HW220736   6.360   1.722   6.460
 6613SOL     OW20737   6.350   6.448   5.458
 6613SOL    HW120738   6.254   6.474   5.466
 6613SOL    HW220739   6.406   6.531   5.449
 6614SOL     OW20740   4.466   4.984   6.872
 6614SOL    HW120741   4.541   5.043   6.903
 6614SOL    HW220742   4.379   5.028   6.893
 6615SOL     OW20743   1.486   6.010   1.216
 6615SOL    HW120744   1.528   5.921   1.235
 6615SOL    HW220745   1.488   6.028   1.118
 6616SOL     OW20746   4.372   6.901   6.397
 6616SOL    HW120747   4.317   6.975   6.359
 6616SOL    HW220748   4.402   6.925   6.489
 6617SOL     OW20749   4.559   5.581   3.150
 6617SOL    HW120750   4.536   5.524   3.071
 6617SOL    HW220751   4.478   5.630   3.181
 6618SOL     OW20752   1.518   2.300   2.510
 6618SOL    HW120753   1.497   2.204   2.525
 6618SOL    HW220754   1.467   2.334   2.431
 6619SOL     OW20755   5.545   6.745   3.487
 6619SOL    HW120756   5.590   6.712   3.404
 6619SOL    HW220757   5.524   6.842   3.477
 6620SOL     OW20758   1.978   2.616   5.403
 6620SOL    HW120759   1.914   2.665   5.462
 6620SOL    HW220760   1.952   2.628   5.308
 6621SOL     OW20761   3.569   3.443   5.707
 6621SOL    HW120762   3.518   3.528   5.700
 6621SOL    HW220763   3.506   3.366   5.709
 6622SOL     OW20764   5.926   5.925   1.916
 6622SOL    HW120765   5.959   5.991   1.983
 6622SOL    HW220766   5.832   5.900   1.937
 6623SOL     OW20767   3.594   2.850   4.917
 6623SOL    HW120768   3.567   2.754   4.910
 6623SOL    HW220769   3.675   2.866   4.861
 6624SOL     OW20770   0.269   4.535   5.555
 6624SOL    HW120771   0.269   4.436   5.546
 6624SOL    HW220772   0.363   4.569   5.542
 6625SOL     OW20773   4.998   2.272   4.978
 6625SOL    HW120774   4.928   2.268   5.049
 6625SOL    HW220775   5.055   2.353   4.992
 6626SOL     OW20776   3.174   6.644   5.626
 6626SOL    HW120777   3.152   6.670   5.720
 6626SOL    HW220778   3.239   6.709   5.587
 6627SOL     OW20779   2.008   6.643   4.994
 6627SOL    HW120780   1.936   6.703   5.028
 6627SOL    HW220781   1.979   6.601   4.907
 6628SOL     OW20782   6.226   4.845   4.968
 6628SOL    HW120783   6.170   4.890   5.037
 6628SOL    HW220784   6.199   4.749   4.961
 6629SOL     OW20785   4.748   6.567   6.507
 6629SOL    HW120786   4.682   6.507   6.551
 6629SOL    HW220787   4.701   6.647   6.470
 6630SOL     OW20788   3.381   1.752   1.185
 6630SOL    HW120789   3.402   1.850   1.182
 6630SOL    HW220790   3.369   1.718   1.091
 6631SOL     OW20791   2.238   5.768   3.669
 6631SOL    HW120792   2.166   5.825   3.629
 6631SOL    HW220793   2.206   5.731   3.757
 6632SOL     OW20794   0.902   0.962   1.104
 6632SOL    HW120795   0.952   0.930   1.024
 6632SOL    HW220796   0.882   1.059   1.095
 6633SOL     OW20797   2.305   5.191   6.354
 6633SOL    HW120798   2.369   5.220   6.283
 6633SOL    HW220799   2.261   5.105   6.327
 6634SOL     OW20800   5.032   1.585   4.562
 6634SOL    HW120801   5.013   1.503   4.616
 6634SOL    HW220802   5.055   1.660   4.623
 6635SOL     OW20803   4.869   4.431   2.965
 6635SOL    HW120804   4.969   4.428   2.974
 6635SOL    HW220805   4.832   4.340   2.984
 6636SOL     OW20806   4.608   1.709   6.969
 6636SOL    HW120807   4.692   1.682   6.922
 6636SOL    HW220808   4.602   1.662   0.030
 6637SOL     OW20809   0.985   0.135   7.017
 6637SOL    HW120810   1.037   0.050   7.013
 6637SOL    HW220811   0.972   0.170   6.924
 6638SOL     OW20812   3.184   3.535   3.224
 6638SOL    HW120813   3.117   3.583   3.168
 6638SOL    HW220814   3.139   3.496   3.304
 6639SOL     OW20815   4.902   4.661   6.736
 6639SOL    HW120816   4.848   4.583   6.703
 6639SOL    HW220817   4.997   4.650   6.709
 6640SOL     OW20818   6.464   1.700   4.763
 6640SOL    HW120819   6.420   1.767   4.702
 6640SOL    HW220820   6.444   1.724   4.858
 6641SOL     OW20821   2.832   1.617   6.947
 6641SOL    HW120822   2.841   1.717   6.954
 6641SOL    HW220823   2.853   1.575   0.007
 6642SOL     OW20824   2.550   5.928   6.579
 6642SOL    HW120825   2.535   5.993   6.654
 6642SOL    HW220826   2.527   5.972   6.492
 6643SOL     OW20827   5.034   6.420   6.943
 6643SOL    HW120828   4.979   6.370   7.010
 6643SOL    HW220829   4.980   6.496   6.907
 6644SOL     OW20830   2.801   5.786   1.439
 6644SOL    HW120831   2.813   5.881   1.411
 6644SOL    HW220832   2.881   5.757   1.492
 6645SOL     OW20833   5.863   3.765   0.971
 6645SOL    HW120834   5.820   3.675   0.961
 6645SOL    HW220835   5.794   3.833   0.991
 6646SOL     OW20836   4.325   0.942   5.232
 6646SOL    HW120837   4.333   0.872   5.303
 6646SOL    HW220838   4.355   0.905   5.144
 6647SOL     OW20839   4.507   0.331   1.252
 6647SOL    HW120840   4.508   0.234   1.228
 6647SOL    HW220841   4.414   0.359   1.276
 6648SOL     OW20842   3.756   6.761   3.756
 6648SOL    HW120843   3.789   6.670   3.731
 6648SOL    HW220844   3.657   6.766   3.744
 6649SOL     OW20845   5.703   1.625   6.532
 6649SOL    HW120846   5.793   1.630   6.575
 6649SOL    HW220847   5.711   1.647   6.435
 6650SOL     OW20848   3.796   1.450   6.108
 6650SOL    HW120849   3.849   1.525   6.067
 6650SOL    HW220850   3.859   1.383   6.147
 6651SOL     OW20851   1.951   0.443   5.750
 6651SOL    HW120852   1.915   0.473   5.662
 6651SOL    HW220853   2.034   0.494   5.772
 6652SOL     OW20854   0.356   4.188   6.693
 6652SOL    HW120855   0.430   4.210   6.757
 6652SOL    HW220856   0.275   4.160   6.744
 6653SOL     OW20857   3.952   4.408   1.525
 6653SOL    HW120858   3.942   4.315   1.560
 6653SOL    HW220859   3.883   4.467   1.567
 6654SOL     OW20860   1.972   5.429   1.516
 6654SOL    HW120861   1.942   5.415   1.421
 6654SOL    HW220862   1.951   5.523   1.543
 6655SOL     OW20863   0.655   6.850   3.857
 6655SOL    HW120864   0.649   6.804   3.946
 6655SOL    HW220865   0.571   6.833   3.805
 6656SOL     OW20866   5.886   2.103   3.133
 6656SOL    HW120867   5.787   2.092   3.123
 6656SOL    HW220868   5.908   2.121   3.229
 6657SOL     OW20869   5.526   4.334   5.693
 6657SOL    HW120870   5.441   4.351   5.742
 6657SOL    HW220871   5.535   4.237   5.672
 6658SOL     OW20872   5.043   1.154   4.922
 6658SOL    HW120873   5.059   1.122   4.828
 6658SOL    HW220874   4.945   1.168   4.936
 6659SOL     OW20875   2.257   2.761   0.897
 6659SOL    HW120876   2.251   2.832   0.827
 6659SOL    HW220877   2.229   2.673   0.858
 6660SOL     OW20878   1.939   4.660   1.205
 6660SOL    HW120879   1.853   4.702   1.235
 6660SOL    HW220880   1.937   4.563   1.228
 6661SOL     OW20881   1.553   0.471   5.092
 6661SOL    HW120882   1.484   0.482   5.020
 6661SOL    HW220883   1.511   0.426   5.171
 6662SOL     OW20884   1.212   0.647   0.521
 6662SOL    HW120885   1.122   0.627   0.481
 6662SOL    HW220886   1.269   0.565   0.517
 6663SOL     OW20887   6.471   6.140   4.782
 6663SOL    HW120888   6.389   6.175   4.736
 6663SOL    HW220889   6.550   6.148   4.722
 6664SOL     OW20890   2.478   6.892   0.451
 6664SOL    HW120891   2.548   6.886   0.380
 6664SOL    HW220892   2.487   6.980   0.500
 6665SOL     OW20893   1.544   6.076   4.592
 6665SOL    HW120894   1.608   6.010   4.552
 6665SOL    HW220895   1.487   6.030   4.660
 6666SOL     OW20896   6.243   6.235   6.347
 6666SOL    HW120897   6.160   6.211   6.398
 6666SOL    HW220898   6.225   6.316   6.291
 6667SOL     OW20899   6.760   6.533   5.807
 6667SOL    HW120900   6.728   6.516   5.713
 6667SOL    HW220901   6.757   6.631   5.826
 6668SOL     OW20902   0.068   6.121   1.049
 6668SOL    HW120903   7.014   6.164   1.088
 6668SOL    HW220904   0.042   6.064   0.971
 6669SOL     OW20905   2.919   2.221   1.767
 6669SOL    HW120906   3.015   2.233   1.739
 6669SOL    HW220907   2.905   2.263   1.857
 6670SOL     OW20908   3.296   1.474   5.364
 6670SOL    HW120909   3.315   1.460   5.462
 6670SOL    HW220910   3.282   1.572   5.347
 6671SOL     OW20911   4.414   6.523   0.440
 6671SOL    HW120912   4.321   6.497   0.417
 6671SOL    HW220913   4.448   6.464   0.513
 6672SOL     OW20914   6.363   2.571   0.010
 6672SOL    HW120915   6.284   2.593   0.068
 6672SOL    HW220916   6.380   2.472   0.013
 6673SOL     OW20917   5.065   4.316   3.674
 6673SOL    HW120918   5.155   4.330   3.717
 6673SOL    HW220919   5.033   4.223   3.693
 6674SOL     OW20920   0.811   3.644   0.105
 6674SOL    HW120921   0.908   3.624   0.117
 6674SOL    HW220922   0.794   3.670   0.010
 6675SOL     OW20923   6.020   3.516   0.648
 6675SOL    HW120924   5.954   3.476   0.584
 6675SOL    HW220925   5.981   3.517   0.740
 6676SOL     OW20926   0.487   3.489   5.154
 6676SOL    HW120927   0.495   3.565   5.089
 6676SOL    HW220928   0.533   3.512   5.239
 6677SOL     OW20929   0.955   1.937   5.953
 6677SOL    HW120930   0.904   1.900   6.030
 6677SOL    HW220931   0.953   1.871   5.877
 6678SOL     OW20932   3.708   3.758   0.507
 6678SOL    HW120933   3.676   3.667   0.482
 6678SOL    HW220934   3.660   3.788   0.589
 6679SOL     OW20935   3.332   0.524   4.447
 6679SOL    HW120936   3.425   0.487   4.450
 6679SOL    HW220937   3.315   0.579   4.529
 6680SOL     OW20938   4.585   6.758   6.449
 6680SOL    HW120939   4.623   6.842   6.488
 6680SOL    HW220940   4.493   6.775   6.416
 6681SOL     OW20941   4.512   5.232   0.802
 6681SOL    HW120942   4.583   5.280   0.750
 6681SOL    HW220943   4.437   5.206   0.741
 6682SOL     OW20944   2.181   4.660   1.047
 6682SOL    HW120945   2.208   4.718   0.970
 6682SOL    HW220946   2.093   4.690   1.082
 6683SOL     OW20947   5.979   3.233   5.315
 6683SOL    HW120948   6.078   3.233   5.303
 6683SOL    HW220949   5.936   3.183   5.240
 6684SOL     OW20950   3.520   6.389   2.109
 6684SOL    HW120951   3.614   6.410   2.079
 6684SOL    HW220952   3.456   6.442   2.054
 6685SOL     OW20953   5.110   3.016   6.442
 6685SOL    HW120954   5.102   2.955   6.364
 6685SOL    HW220955   5.118   2.963   6.526
 6686SOL     OW20956   4.909   5.388   4.018
 6686SOL    HW120957   4.935   5.419   4.109
 6686SOL    HW220958   4.967   5.432   3.950
 6687SOL     OW20959   0.757   3.163   1.905
 6687SOL    HW120960   0.719   3.081   1.863
 6687SOL    HW220961   0.854   3.151   1.922
 6688SOL     OW20962   5.456   4.293   1.482
 6688SOL    HW120963   5.429   4.213   1.535
 6688SOL    HW220964   5.480   4.266   1.389
 6689SOL     OW20965   3.974   3.797   6.147
 6689SOL    HW120966   3.971   3.893   6.120
 6689SOL    HW220967   4.057   3.779   6.199
 6690SOL     OW20968   0.062   0.021   1.196
 6690SOL    HW120969   0.012   0.055   1.276
 6690SOL    HW220970   0.159   0.045   1.205
 6691SOL     OW20971   2.589   0.688   2.169
 6691SOL    HW120972   2.565   0.725   2.080
 6691SOL    HW220973   2.509   0.691   2.229
 6692SOL     OW20974   3.948   3.788   3.677
 6692SOL    HW120975   4.005   3.775   3.758
 6692SOL    HW220976   3.916   3.883   3.674
 6693SOL     OW20977   3.712   2.251   5.271
 6693SOL    HW120978   3.759   2.337   5.286
 6693SOL    HW220979   3.613   2.264   5.284
 6694SOL     OW20980   4.148   5.609   1.404
 6694SOL    HW120981   4.171   5.650   1.493
 6694SOL    HW220982   4.050   5.593   1.400
 6695SOL     OW20983   3.213   2.146   0.069
 6695SOL    HW120984   3.226   2.243   0.049
 6695SOL    HW220985   3.168   2.135   0.157
 6696SOL     OW20986   3.163   2.994   4.229
 6696SOL    HW120987   3.069   2.962   4.241
 6696SOL    HW220988   3.205   3.008   4.319
 6697SOL     OW20989   4.694   1.781   3.187
 6697SOL    HW120990   4.734   1.690   3.184
 6697SOL    HW220991   4.598   1.776   3.158
 6698SOL     OW20992   3.136   2.167   0.750
 6698SOL    HW120993   3.177   2.088   0.796
 6698SOL    HW220994   3.058   2.136   0.695
 6699SOL     OW20995   2.759   5.887   5.648
 6699SOL    HW120996   2.852   5.918   5.631
 6699SOL    HW220997   2.757   5.823   5.724
 6700SOL     OW20998   6.872   1.319   1.482
 6700SOL    HW120999   6.828   1.409   1.493
 6700SOL    HW221000   6.971   1.329   1.487
 6701SOL     OW21001   5.745   5.098   1.501
 6701SOL    HW121002   5.793   5.061   1.421
 6701SOL    HW221003   5.784   5.187   1.525
 6702SOL     OW21004   2.965   2.345   1.041
 6702SOL    HW121005   2.993   2.255   1.006
 6702SOL    HW221006   2.916   2.333   1.127
 6703SOL     OW21007   5.864   0.473   0.633
 6703SOL    HW121008   5.822   0.481   0.543
 6703SOL    HW221009   5.889   0.377   0.650
 6704SOL     OW21010   3.858   2.156   3.057
 6704SOL    HW121011   3.764   2.177   3.029
 6704SOL    HW221012   3.859   2.134   3.155
 6705SOL     OW21013   6.210   3.655   1.669
 6705SOL    HW121014   6.281   3.707   1.620
 6705SOL    HW221015   6.228   3.558   1.659
 6706SOL     OW21016   1.428   5.074   1.575
 6706SOL    HW121017   1.435   4.975   1.582
 6706SOL    HW221018   1.426   5.101   1.478
 6707SOL     OW21019   5.858   6.810   3.376
 6707SOL    HW121020   5.830   6.900   3.409
 6707SOL    HW221021   5.957   6.802   3.382
 6708SOL     OW21022   6.285   4.775   0.491
 6708SOL    HW121023   6.255   4.869   0.479
 6708SOL    HW221024   6.207   4.713   0.483
 6709SOL     OW21025   1.667   6.735   2.213
 6709SOL    HW121026   1.670   6.826   2.254
 6709SOL    HW221027   1.756   6.690   2.224
 6710SOL     OW21028   4.176   1.147   6.645
 6710SOL    HW121029   4.175   1.113   6.739
 6710SOL    HW221030   4.085   1.133   6.604
 6711SOL     OW21031   4.917   6.630   5.451
 6711SOL    HW121032   4.939   6.552   5.391
 6711SOL    HW221033   4.969   6.710   5.422
 6712SOL     OW21034   5.705   4.129   0.593
 6712SOL    HW121035   5.701   4.080   0.505
 6712SOL    HW221036   5.765   4.079   0.656
 6713SOL     OW21037   2.363   0.503   2.505
 6713SOL    HW121038   2.350   0.476   2.601
 6713SOL    HW221039   2.459   0.489   2.480
 6714SOL     OW21040   6.406   0.867   6.036
 6714SOL    HW121041   6.424   0.960   6.070
 6714SOL    HW221042   6.308   0.855   6.021
 6715SOL     OW21043   0.988   0.295   0.651
 6715SOL    HW121044   0.946   0.248   0.729
 6715SOL    HW221045   0.997   0.393   0.672
 6716SOL     OW21046   0.157   5.402   2.132
 6716SOL    HW121047   0.093   5.478   2.121
 6716SOL    HW221048   0.227   5.428   2.200
 6717SOL     OW21049   3.853   3.081   0.102
 6717SOL    HW121050   3.824   3.073   0.198
 6717SOL    HW221051   3.953   3.083   0.098
 6718SOL     OW21052   5.338   0.825   0.774
 6718SOL    HW121053   5.248   0.814   0.816
 6718SOL    HW221054   5.401   0.757   0.812
 6719SOL     OW21055   2.923   6.517   0.252
 6719SOL    HW121056   2.911   6.551   0.345
 6719SOL    HW221057   2.842   6.467   0.224
 6720SOL     OW21058   1.769   7.022   4.537
 6720SOL    HW121059   1.775   0.093   4.522
 6720SOL    HW221060   1.834   6.975   4.476
 6721SOL     OW21061   6.542   6.550   0.290
 6721SOL    HW121062   6.444   6.533   0.294
 6721SOL    HW221063   6.590   6.485   0.350
 6722SOL     OW21064   6.530   3.019   1.503
 6722SOL    HW121065   6.457   3.035   1.571
 6722SOL    HW221066   6.617   3.008   1.550
 6723SOL     OW21067   1.733   6.887   4.774
 6723SOL    HW121068   1.723   6.963   4.711
 6723SOL    HW221069   1.792   6.915   4.851
 6724SOL     OW21070   2.265   3.499   6.213
 6724SOL    HW121071   2.231   3.584   6.172
 6724SOL    HW221072   2.261   3.425   6.145
 6725SOL     OW21073   0.394   3.482   1.504
 6725SOL    HW121074   0.402   3.563   1.445
 6725SOL    HW221075   0.300   3.472   1.535
 6726SOL     OW21076   1.177   2.538   4.916
 6726SOL    HW121077   1.171   2.553   4.818
 6726SOL    HW221078   1.085   2.539   4.956
 6727SOL     OW21079   0.541   4.608   5.572
 6727SOL    HW121080   0.641   4.603   5.562
 6727SOL    HW221081   0.516   4.590   5.667
 6728SOL     OW21082   3.738   2.078   2.254
 6728SOL    HW121083   3.667   2.077   2.183
 6728SOL    HW221084   3.696   2.071   2.344
 6729SOL     OW21085   5.863   0.715   1.581
 6729SOL    HW121086   5.934   0.777   1.614
 6729SOL    HW221087   5.879   0.695   1.484
 6730SOL     OW21088   1.811   6.701   1.435
 6730SOL    HW121089   1.748   6.669   1.364
 6730SOL    HW221090   1.905   6.681   1.408
 6731SOL     OW21091   1.325   6.473   1.103
 6731SOL    HW121092   1.416   6.506   1.077
 6731SOL    HW221093   1.288   6.416   1.030
 6732SOL     OW21094   5.943   4.368   5.149
 6732SOL    HW121095   5.893   4.412   5.074
 6732SOL    HW221096   5.892   4.379   5.234
 6733SOL     OW21097   3.469   5.478   6.077
 6733SOL    HW121098   3.469   5.408   6.148
 6733SOL    HW221099   3.457   5.568   6.119
 6734SOL     OW21100   5.913   2.084   4.037
 6734SOL    HW121101   5.917   1.991   4.074
 6734SOL    HW221102   5.839   2.134   4.083
 6735SOL     OW21103   6.422   4.222   4.937
 6735SOL    HW121104   6.496   4.288   4.955
 6735SOL    HW221105   6.380   4.242   4.848
 6736SOL     OW21106   2.858   3.852   6.920
 6736SOL    HW121107   2.889   3.835   6.826
 6736SOL    HW221108   2.855   3.766   6.970
 6737SOL     OW21109   1.698   2.824   1.144
 6737SOL    HW121110   1.792   2.861   1.146
 6737SOL    HW221111   1.633   2.899   1.158
 6738SOL     OW21112   1.763   5.901   3.357
 6738SOL    HW121113   1.692   5.858   3.413
 6738SOL    HW221114   1.739   5.891   3.261
 6739SOL     OW21115   4.757   6.055   4.684
 6739SOL    HW121116   4.717   5.973   4.727
 6739SOL    HW221117   4.763   6.041   4.585
 6740SOL     OW21118   0.618   0.125   5.090
 6740SOL    HW121119   0.648   0.042   5.043
 6740SOL    HW221120   0.627   0.112   5.189
 6741SOL     OW21121   4.249   1.915   5.748
 6741SOL    HW121122   4.318   1.957   5.689
 6741SOL    HW221123   4.253   1.816   5.739
 6742SOL     OW21124   5.464   5.953   3.335
 6742SOL    HW121125   5.413   5.886   3.389
 6742SOL    HW221126   5.510   6.017   3.397
 6743SOL     OW21127   4.496   4.164   6.514
 6743SOL    HW121128   4.426   4.099   6.543
 6743SOL    HW221129   4.487   4.182   6.416
 6744SOL     OW21130   6.159   4.006   6.179
 6744SOL    HW121131   6.114   4.010   6.269
 6744SOL    HW221132   6.220   4.085   6.169
 6745SOL     OW21133   0.401   6.913   3.691
 6745SOL    HW121134   0.301   6.917   3.690
 6745SOL    HW221135   0.436   6.941   3.602
 6746SOL     OW21136   0.667   1.063   4.005
 6746SOL    HW121137   0.623   1.152   4.017
 6746SOL    HW221138   0.724   1.043   4.085
 6747SOL     OW21139   5.180   1.405   4.799
 6747SOL    HW121140   5.258   1.464   4.819
 6747SOL    HW221141   5.147   1.363   4.884
 6748SOL     OW21142   2.896   2.128   3.671
 6748SOL    HW121143   2.976   2.170   3.712
 6748SOL    HW221144   2.924   2.061   3.602
 6749SOL     OW21145   3.681   4.506   0.506
 6749SOL    HW121146   3.676   4.484   0.603
 6749SOL    HW221147   3.713   4.600   0.494
 6750SOL     OW21148   3.514   1.855   4.448
 6750SOL    HW121149   3.462   1.940   4.451
 6750SOL    HW221150   3.544   1.831   4.541
 6751SOL     OW21151   4.918   7.015   2.928
 6751SOL    HW121152   4.822   0.012   2.919
 6751SOL    HW221153   4.966   0.058   2.981
 6752SOL     OW21154   1.465   0.679   2.929
 6752SOL    HW121155   1.554   0.638   2.909
 6752SOL    HW221156   1.408   0.677   2.847
 6753SOL     OW21157   2.824   0.956   6.278
 6753SOL    HW121158   2.789   1.048   6.259
 6753SOL    HW221159   2.853   0.913   6.193
 6754SOL     OW21160   6.842   1.653   0.806
 6754SOL    HW121161   6.828   1.677   0.902
 6754SOL    HW221162   6.939   1.641   0.788
 6755SOL     OW21163   4.060   0.866   2.323
 6755SOL    HW121164   4.088   0.781   2.368
 6755SOL    HW221165   3.968   0.892   2.354
 6756SOL     OW21166   4.005   5.609   5.482
 6756SOL    HW121167   4.022   5.624   5.580
 6756SOL    HW221168   3.984   5.513   5.466
 6757SOL     OW21169   3.775   2.404   0.689
 6757SOL    HW121170   3.844   2.457   0.739
 6757SOL    HW221171   3.695   2.389   0.747
 6758SOL     OW21172   6.272   2.305   2.568
 6758SOL    HW121173   6.215   2.288   2.488
 6758SOL    HW221174   6.235   2.256   2.647
 6759SOL     OW21175   1.424   4.054   4.297
 6759SOL    HW121176   1.473   4.120   4.240
 6759SOL    HW221177   1.346   4.017   4.245
 6760SOL     OW21178   6.830   4.118   2.420
 6760SOL    HW121179   6.820   4.207   2.377
 6760SOL    HW221180   6.924   4.086   2.408
 6761SOL     OW21181   6.857   2.490   5.597
 6761SOL    HW121182   6.817   2.492   5.688
 6761SOL    HW221183   6.785   2.472   5.529
 6762SOL     OW21184   0.711   4.746   4.573
 6762SOL    HW121185   0.642   4.682   4.605
 6762SOL    HW221186   0.782   4.757   4.642
 6763SOL     OW21187   0.250   5.515   3.546
 6763SOL    HW121188   0.160   5.475   3.529
 6763SOL    HW221189   0.240   5.611   3.572
 6764SOL     OW21190   1.710   5.809   1.176
 6764SOL    HW121191   1.714   5.816   1.275
 6764SOL    HW221192   1.775   5.873   1.135
 6765SOL     OW21193   5.491   4.898   3.829
 6765SOL    HW121194   5.478   4.997   3.819
 6765SOL    HW221195   5.585   4.874   3.804
 6766SOL     OW21196   5.173   6.602   5.973
 6766SOL    HW121197   5.221   6.568   6.054
 6766SOL    HW221198   5.156   6.527   5.911
 6767SOL     OW21199   2.255   1.609   0.930
 6767SOL    HW121200   2.198   1.663   0.991
 6767SOL    HW221201   2.342   1.656   0.915
 6768SOL     OW21202   1.391   6.302   4.559
 6768SOL    HW121203   1.451   6.223   4.573
 6768SOL    HW221204   1.377   6.349   4.646
 6769SOL     OW21205   2.454   0.489   5.913
 6769SOL    HW121206   2.369   0.498   5.964
 6769SOL    HW221207   2.451   0.406   5.858
 6770SOL     OW21208   5.572   1.467   3.425
 6770SOL    HW121209   5.551   1.466   3.523
 6770SOL    HW221210   5.538   1.382   3.383
 6771SOL     OW21211   3.623   1.280   2.754
 6771SOL    HW121212   3.557   1.333   2.807
 6771SOL    HW221213   3.615   1.304   2.657
 6772SOL     OW21214   4.549   2.524   2.663
 6772SOL    HW121215   4.575   2.427   2.663
 6772SOL    HW221216   4.453   2.532   2.637
 6773SOL     OW21217   0.172   5.769   1.546
 6773SOL    HW121218   0.119   5.854   1.551
 6773SOL    HW221219   0.160   5.717   1.631
 6774SOL     OW21220   0.742   3.813   5.133
 6774SOL    HW121221   0.783   3.901   5.158
 6774SOL    HW221222   0.808   3.740   5.151
 6775SOL     OW21223   2.659   2.296   2.097
 6775SOL    HW121224   2.613   2.306   2.009
 6775SOL    HW221225   2.758   2.301   2.083
 6776SOL     OW21226   4.761   3.864   0.027
 6776SOL    HW121227   4.812   3.865   6.969
 6776SOL    HW221228   4.758   3.956   0.065
 6777SOL     OW21229   5.052   4.647   0.577
 6777SOL    HW121230   5.015   4.678   0.489
 6777SOL    HW221231   5.124   4.580   0.561
 6778SOL     OW21232   6.264   5.630   2.031
 6778SOL    HW121233   6.196   5.658   1.963
 6778SOL    HW221234   6.287   5.708   2.089
 6779SOL     OW21235   5.591   5.894   6.209
 6779SOL    HW121236   5.618   5.854   6.121
 6779SOL    HW221237   5.556   5.987   6.194
 6780SOL     OW21238   2.063   2.480   2.495
 6780SOL    HW121239   1.991   2.435   2.442
 6780SOL    HW221240   2.033   2.491   2.590
 6781SOL     OW21241   6.789   2.303   4.251
 6781SOL    HW121242   6.784   2.204   4.264
 6781SOL    HW221243   6.712   2.334   4.196
 6782SOL     OW21244   0.601   0.690   2.941
 6782SOL    HW121245   0.690   0.699   2.986
 6782SOL    HW221246   0.612   0.701   2.842
 6783SOL     OW21247   6.289   1.077   5.605
 6783SOL    HW121248   6.331   1.092   5.516
 6783SOL    HW221249   6.309   1.154   5.665
 6784SOL     OW21250   1.509   3.338   0.984
 6784SOL    HW121251   1.429   3.397   0.971
 6784SOL    HW221252   1.574   3.355   0.910
 6785SOL     OW21253   6.312   5.589   4.831
 6785SOL    HW121254   6.225   5.622   4.867
 6785SOL    HW221255   6.379   5.664   4.831
 6786SOL     OW21256   1.718   2.090   0.748
 6786SOL    HW121257   1.768   2.171   0.778
 6786SOL    HW221258   1.764   2.049   0.670
 6787SOL     OW21259   2.673   2.414   0.195
 6787SOL    HW121260   2.771   2.392   0.201
 6787SOL    HW221261   2.661   2.492   0.134
 6788SOL     OW21262   1.390   4.464   1.241
 6788SOL    HW121263   1.348   4.385   1.286
 6788SOL    HW221264   1.362   4.467   1.145
 6789SOL     OW21265   0.752   5.200   3.206
 6789SOL    HW121266   0.672   5.162   3.252
 6789SOL    HW221267   0.793   5.272   3.264
 6790SOL     OW21268   0.611   3.959   0.687
 6790SOL    HW121269   0.628   3.958   0.588
 6790SOL    HW221270   0.693   3.931   0.735
 6791SOL     OW21271   3.860   2.072   1.998
 6791SOL    HW121272   3.783   2.127   1.967
 6791SOL    HW221273   3.839   2.032   2.087
 6792SOL     OW21274   6.146   6.921   4.382
 6792SOL    HW121275   6.172   6.834   4.424
 6792SOL    HW221276   6.097   6.903   4.296
 6793SOL     OW21277   2.151   1.268   0.267
 6793SOL    HW121278   2.091   1.195   0.236
 6793SOL    HW221279   2.105   1.356   0.257
 6794SOL     OW21280   5.094   0.854   5.544
 6794SOL    HW121281   5.018   0.852   5.479
 6794SOL    HW221282   5.079   0.785   5.615
 6795SOL     OW21283   1.830   6.569   0.560
 6795SOL    HW121284   1.826   6.470   0.551
 6795SOL    HW221285   1.803   6.612   0.474
 6796SOL     OW21286   6.004   0.859   3.149
 6796SOL    HW121287   5.954   0.924   3.092
 6796SOL    HW221288   6.062   0.802   3.090
 6797SOL     OW21289   6.806   2.695   2.074
 6797SOL    HW121290   6.872   2.638   2.026
 6797SOL    HW221291   6.800   2.784   2.028
 6798SOL     OW21292   5.947   6.229   1.810
 6798SOL    HW121293   5.929   6.325   1.832
 6798SOL    HW221294   6.022   6.196   1.867
 6799SOL     OW21295   0.090   0.257   2.105
 6799SOL    HW121296   0.053   0.167   2.129
 6799SOL    HW221297   0.032   0.300   2.036
 6800SOL     OW21298   2.103   2.620   1.992
 6800SOL    HW121299   2.135   2.715   1.995
 6800SOL    HW221300   2.177   2.562   1.958
 6801SOL     OW21301   0.777   0.095   3.058
 6801SOL    HW121302   0.794   0.056   3.148
 6801SOL    HW221303   0.799   0.192   3.059
 6802SOL     OW21304   3.947   5.950   1.682
 6802SOL    HW121305   3.919   5.856   1.665
 6802SOL    HW221306   3.877   6.013   1.648
 6803SOL     OW21307   4.088   3.617   5.483
 6803SOL    HW121308   4.006   3.667   5.508
 6803SOL    HW221309   4.169   3.672   5.504
 6804SOL     OW21310   3.379   5.290   3.927
 6804SOL    HW121311   3.407   5.273   3.833
 6804SOL    HW221312   3.393   5.207   3.981
 6805SOL     OW21313   0.652   4.721   6.627
 6805SOL    HW121314   0.638   4.659   6.704
 6805SOL    HW221315   0.573   4.783   6.619
 6806SOL     OW21316   6.589   0.606   3.098
 6806SOL    HW121317   6.566   0.602   3.195
 6806SOL    HW221318   6.657   0.678   3.082
 6807SOL     OW21319   3.248   3.801   1.297
 6807SOL    HW121320   3.276   3.897   1.305
 6807SOL    HW221321   3.279   3.764   1.210
 6808SOL     OW21322   6.859   2.156   6.185
 6808SOL    HW121323   6.864   2.187   6.090
 6808SOL    HW221324   6.865   2.056   6.187
 6809SOL     OW21325   0.710   3.196   1.465
 6809SOL    HW121326   0.650   3.236   1.534
 6809SOL    HW221327   0.789   3.154   1.511
 6810SOL     OW21328   1.870   1.140   2.290
 6810SOL    HW121329   1.836   1.212   2.229
 6810SOL    HW221330   1.802   1.068   2.298
 6811SOL     OW21331   5.545   3.568   1.756
 6811SOL    HW121332   5.530   3.622   1.839
 6811SOL    HW221333   5.549   3.471   1.780
 6812SOL     OW21334   3.241   3.456   4.401
 6812SOL    HW121335   3.181   3.416   4.470
 6812SOL    HW221336   3.336   3.429   4.419
 6813SOL     OW21337   5.362   3.624   3.387
 6813SOL    HW121338   5.385   3.582   3.476
 6813SOL    HW221339   5.339   3.552   3.322
 6814SOL     OW21340   3.505   1.840   6.197
 6814SOL    HW121341   3.432   1.775   6.217
 6814SOL    HW221342   3.524   1.841   6.099
 6815SOL     OW21343   3.413   6.025   0.711
 6815SOL    HW121344   3.463   6.104   0.745
 6815SOL    HW221345   3.333   6.008   0.769
 6816SOL     OW21346   6.630   0.764   6.135
 6816SOL    HW121347   6.548   0.789   6.083
 6816SOL    HW221348   6.711   0.792   6.085
 6817SOL     OW21349   2.295   2.446   2.709
 6817SOL    HW121350   2.231   2.418   2.637
 6817SOL    HW221351   2.365   2.375   2.721
 6818SOL     OW21352   2.633   6.551   1.395
 6818SOL    HW121353   2.631   6.576   1.298
 6818SOL    HW221354   2.613   6.454   1.406
 6819SOL     OW21355   3.853   1.842   3.313
 6819SOL    HW121356   3.769   1.809   3.270
 6819SOL    HW221357   3.930   1.787   3.281
 6820SOL     OW21358   2.058   6.450   1.490
 6820SOL    HW121359   2.100   6.486   1.407
 6820SOL    HW221360   2.008   6.366   1.469
 6821SOL     OW21361   4.021   2.140   5.144
 6821SOL    HW121362   4.010   2.054   5.094
 6821SOL    HW221363   3.934   2.166   5.185
 6822SOL     OW21364   5.638   2.236   5.953
 6822SOL    HW121365   5.695   2.312   5.922
 6822SOL    HW221366   5.566   2.217   5.886
 6823SOL     OW21367   5.153   3.478   5.756
 6823SOL    HW121368   5.125   3.452   5.664
 6823SOL    HW221369   5.073   3.487   5.815
 6824SOL     OW21370   1.303   1.723   0.246
 6824SOL    HW121371   1.256   1.810   0.227
 6824SOL    HW221372   1.379   1.739   0.309
 6825SOL     OW21373   5.679   0.308   0.758
 6825SOL    HW121374   5.722   0.222   0.728
 6825SOL    HW221375   5.735   0.385   0.729
 6826SOL     OW21376   2.139   3.313   3.733
 6826SOL    HW121377   2.050   3.269   3.745
 6826SOL    HW221378   2.206   3.245   3.702
 6827SOL     OW21379   4.383   4.924   6.381
 6827SOL    HW121380   4.479   4.897   6.378
 6827SOL    HW221381   4.358   4.948   6.475
 6828SOL     OW21382   3.211   0.997   1.985
 6828SOL    HW121383   3.184   1.094   1.981
 6828SOL    HW221384   3.303   0.986   1.949
 6829SOL     OW21385   5.049   5.777   4.818
 6829SOL    HW121386   5.033   5.872   4.846
 6829SOL    HW221387   4.980   5.718   4.860
 6830SOL     OW21388   4.962   0.464   3.238
 6830SOL    HW121389   4.900   0.434   3.165
 6830SOL    HW221390   4.956   0.401   3.315
 6831SOL     OW21391   1.340   0.333   6.881
 6831SOL    HW121392   1.301   0.290   6.800
 6831SOL    HW221393   1.295   0.297   6.963
 6832SOL     OW21394   2.902   4.581   0.931
 6832SOL    HW121395   2.936   4.498   0.975
 6832SOL    HW221396   2.900   4.567   0.832
 6833SOL     OW21397   3.256   4.828   6.264
 6833SOL    HW121398   3.242   4.784   6.352
 6833SOL    HW221399   3.333   4.784   6.216
 6834SOL     OW21400   5.115   0.073   0.607
 6834SOL    HW121401   5.167   0.060   0.522
 6834SOL    HW221402   5.131   0.165   0.642
 6835SOL     OW21403   4.135   0.650   4.627
 6835SOL    HW121404   4.186   0.564   4.624
 6835SOL    HW221405   4.116   0.680   4.533
 6836SOL     OW21406   2.878   4.516   0.681
 6836SOL    HW121407   2.828   4.556   0.604
 6836SOL    HW221408   2.898   4.420   0.662
 6837SOL     OW21409   0.422   2.066   2.498
 6837SOL    HW121410   0.444   2.020   2.584
 6837SOL    HW221411   0.504   2.109   2.461
 6838SOL     OW21412   3.380   6.226   0.081
 6838SOL    HW121413   3.390   6.144   0.138
 6838SOL    HW221414   3.283   6.252   0.077
 6839SOL     OW21415   5.763   1.264   6.115
 6839SOL    HW121416   5.765   1.324   6.195
 6839SOL    HW221417   5.675   1.275   6.067
 6840SOL     OW21418   3.589   0.646   4.561
 6840SOL    HW121419   3.556   0.669   4.653
 6840SOL    HW221420   3.660   0.575   4.568
 6841SOL     OW21421   4.713   4.577   0.236
 6841SOL    HW121422   4.673   4.575   0.144
 6841SOL    HW221423   4.730   4.483   0.267
 6842SOL     OW21424   2.635   3.889   0.872
 6842SOL    HW121425   2.598   3.844   0.791
 6842SOL    HW221426   2.685   3.822   0.927
 6843SOL     OW21427   6.154   6.495   1.525
 6843SOL    HW121428   6.173   6.415   1.467
 6843SOL    HW221429   6.056   6.511   1.528
 6844SOL     OW21430   4.657   0.492   3.492
 6844SOL    HW121431   4.684   0.464   3.584
 6844SOL    HW221432   4.710   0.573   3.465
 6845SOL     OW21433   6.288   4.509   3.970
 6845SOL    HW121434   6.368   4.559   3.936
 6845SOL    HW221435   6.205   4.552   3.935
 6846SOL     OW21436   4.009   3.341   0.878
 6846SOL    HW121437   4.078   3.315   0.811
 6846SOL    HW221438   3.938   3.396   0.835
 6847SOL     OW21439   0.436   3.762   4.033
 6847SOL    HW121440   0.484   3.717   3.958
 6847SOL    HW221441   0.367   3.824   3.996
 6848SOL     OW21442   4.378   6.342   3.955
 6848SOL    HW121443   4.375   6.441   3.942
 6848SOL    HW221444   4.295   6.301   3.916
 6849SOL     OW21445   4.118   4.838   5.070
 6849SOL    HW121446   4.104   4.757   5.127
 6849SOL    HW221447   4.051   4.909   5.094
 6850SOL     OW21448   6.009   4.357   2.248
 6850SOL    HW121449   5.961   4.299   2.312
 6850SOL    HW221450   5.947   4.428   2.213
 6851SOL     OW21451   0.986   2.398   3.125
 6851SOL    HW121452   1.036   2.413   3.040
 6851SOL    HW221453   0.919   2.325   3.111
 6852SOL     OW21454   2.743   4.997   0.264
 6852SOL    HW121455   2.713   5.051   0.185
 6852SOL    HW221456   2.675   4.926   0.282
 6853SOL     OW21457   6.674   4.313   0.440
 6853SOL    HW121458   6.614   4.270   0.507
 6853SOL    HW221459   6.678   4.411   0.457
 6854SOL     OW21460   4.878   2.099   6.374
 6854SOL    HW121461   4.847   2.010   6.406
 6854SOL    HW221462   4.825   2.171   6.419
 6855SOL     OW21463   4.054   5.651   3.427
 6855SOL    HW121464   4.064   5.567   3.481
 6855SOL    HW221465   4.086   5.633   3.334
 6856SOL     OW21466   5.561   3.130   5.678
 6856SOL    HW121467   5.576   3.156   5.583
 6856SOL    HW221468   5.526   3.209   5.729
 6857SOL     OW21469   3.216   2.885   6.991
 6857SOL    HW121470   3.174   2.795   6.987
 6857SOL    HW221471   3.221   2.924   6.899
 6858SOL     OW21472   4.003   3.610   3.227
 6858SOL    HW121473   3.903   3.617   3.219
 6858SOL    HW221474   4.035   3.671   3.300
 6859SOL     OW21475   6.977   1.478   1.095
 6859SOL    HW121476   0.017   1.428   1.148
 6859SOL    HW221477   6.973   1.573   1.127
 6860SOL     OW21478   6.889   4.829   0.891
 6860SOL    HW121479   6.970   4.887   0.886
 6860SOL    HW221480   6.872   4.802   0.986
 6861SOL     OW21481   4.420   5.271   0.114
 6861SOL    HW121482   4.482   5.284   0.037
 6861SOL    HW221483   4.330   5.308   0.091
 6862SOL     OW21484   1.240   5.257   6.090
 6862SOL    HW121485   1.184   5.175   6.079
 6862SOL    HW221486   1.204   5.311   6.166
 6863SOL     OW21487   5.752   6.636   6.320
 6863SOL    HW121488   5.768   6.699   6.396
 6863SOL    HW221489   5.794   6.671   6.237
 6864SOL     OW21490   2.463   5.454   4.475
 6864SOL    HW121491   2.563   5.444   4.466
 6864SOL    HW221492   2.441   5.485   4.567
 6865SOL     OW21493   1.208   6.077   3.796
 6865SOL    HW121494   1.141   6.059   3.868
 6865SOL    HW221495   1.269   6.151   3.825
 6866SOL     OW21496   6.200   5.013   3.830
 6866SOL    HW121497   6.214   4.948   3.754
 6866SOL    HW221498   6.129   4.977   3.891
 6867SOL     OW21499   2.339   4.283   1.613
 6867SOL    HW121500   2.267   4.285   1.682
 6867SOL    HW221501   2.427   4.303   1.656
 6868SOL     OW21502   0.980   5.452   6.024
 6868SOL    HW121503   1.059   5.482   5.970
 6868SOL    HW221504   0.997   5.472   6.120
 6869SOL     OW21505   5.834   0.993   5.704
 6869SOL    HW121506   5.780   0.929   5.649
 6869SOL    HW221507   5.817   0.976   5.801
 6870SOL     OW21508   0.691   5.035   1.670
 6870SOL    HW121509   0.592   5.046   1.657
 6870SOL    HW221510   0.737   5.039   1.581
 6871SOL     OW21511   6.195   4.257   3.444
 6871SOL    HW121512   6.242   4.228   3.360
 6871SOL    HW221513   6.197   4.183   3.511
 6872SOL     OW21514   0.150   2.567   1.310
 6872SOL    HW121515   0.192   2.482   1.280
 6872SOL    HW221516   0.114   2.617   1.231
 6873SOL     OW21517   6.490   3.741   4.684
 6873SOL    HW121518   6.440   3.793   4.616
 6873SOL    HW221519   6.539   3.666   4.639
 6874SOL     OW21520   6.950   5.743   2.766
 6874SOL    HW121521   0.017   5.718   2.786
 6874SOL    HW221522   6.946   5.793   2.679
 6875SOL     OW21523   2.778   2.228   2.657
 6875SOL    HW121524   2.811   2.276   2.576
 6875SOL    HW221525   2.786   2.130   2.643
 6876SOL     OW21526   3.492   6.747   3.685
 6876SOL    HW121527   3.509   6.672   3.621
 6876SOL    HW221528   3.445   6.821   3.638
 6877SOL     OW21529   2.876   4.029   0.870
 6877SOL    HW121530   2.898   4.049   0.965
 6877SOL    HW221531   2.785   3.989   0.864
 6878SOL     OW21532   3.391   0.999   4.543
 6878SOL    HW121533   3.392   1.024   4.446
 6878SOL    HW221534   3.485   1.001   4.579
 6879SOL     OW21535   0.690   2.452   0.887
 6879SOL    HW121536   0.738   2.521   0.832
 6879SOL    HW221537   0.757   2.395   0.934
 6880SOL     OW21538   1.813   5.343   4.818
 6880SOL    HW121539   1.805   5.373   4.723
 6880SOL    HW221540   1.830   5.244   4.820
 6881SOL     OW21541   1.481   4.760   0.811
 6881SOL    HW121542   1.570   4.803   0.823
 6881SOL    HW221543   1.421   4.785   0.887
 6882SOL     OW21544   2.677   0.352   0.187
 6882SOL    HW121545   2.766   0.343   0.141
 6882SOL    HW221546   2.614   0.403   0.129
 6883SOL     OW21547   4.960   1.354   6.625
 6883SOL    HW121548   4.861   1.364   6.631
 6883SOL    HW221549   4.983   1.259   6.600
 6884SOL     OW21550   1.816   4.396   3.528
 6884SOL    HW121551   1.770   4.469   3.577
 6884SOL    HW221552   1.897   4.367   3.579
 6885SOL     OW21553   4.101   5.021   4.039
 6885SOL    HW121554   4.066   5.114   4.027
 6885SOL    HW221555   4.159   5.017   4.120
 6886SOL     OW21556   6.800   1.208   3.901
 6886SOL    HW121557   6.783   1.260   3.985
 6886SOL    HW221558   6.824   1.114   3.926
 6887SOL     OW21559   5.289   5.736   6.195
 6887SOL    HW121560   5.263   5.820   6.148
 6887SOL    HW221561   5.376   5.750   6.242
 6888SOL     OW21562   5.511   5.874   6.679
 6888SOL    HW121563   5.495   5.954   6.621
 6888SOL    HW221564   5.597   5.885   6.728
 6889SOL     OW21565   2.136   2.498   5.107
 6889SOL    HW121566   2.163   2.445   5.027
 6889SOL    HW221567   2.050   2.462   5.144
 6890SOL     OW21568   4.502   6.295   1.774
 6890SOL    HW121569   4.570   6.276   1.846
 6890SOL    HW221570   4.462   6.386   1.790
 6891SOL     OW21571   2.440   4.388   3.177
 6891SOL    HW121572   2.484   4.396   3.088
 6891SOL    HW221573   2.486   4.449   3.242
 6892SOL     OW21574   3.108   2.098   3.448
 6892SOL    HW121575   3.146   2.075   3.359
 6892SOL    HW221576   3.041   2.029   3.475
 6893SOL     OW21577   4.518   4.565   0.005
 6893SOL    HW121578   4.555   4.574   6.940
 6893SOL    HW221579   4.424   4.533   0.000
 6894SOL     OW21580   6.394   4.659   1.134
 6894SOL    HW121581   6.390   4.593   1.060
 6894SOL    HW221582   6.472   4.721   1.119
 6895SOL     OW21583   3.316   4.768   0.354
 6895SOL    HW121584   3.373   4.710   0.296
 6895SOL    HW221585   3.368   4.797   0.434
 6896SOL     OW21586   2.192   6.698   4.360
 6896SOL    HW121587   2.179   6.610   4.314
 6896SOL    HW221588   2.220   6.682   4.455
 6897SOL     OW21589   4.740   3.411   5.750
 6897SOL    HW121590   4.810   3.343   5.729
 6897SOL    HW221591   4.781   3.487   5.801
 6898SOL     OW21592   3.967   1.477   1.921
 6898SOL    HW121593   3.971   1.501   2.018
 6898SOL    HW221594   3.934   1.383   1.911
 6899SOL     OW21595   5.022   5.954   1.355
 6899SOL    HW121596   4.966   6.027   1.317
 6899SOL    HW221597   5.039   5.971   1.452
 6900SOL     OW21598   6.196   5.858   5.089
 6900SOL    HW121599   6.172   5.936   5.147
 6900SOL    HW221600   6.233   5.785   5.145
 6901SOL     OW21601   6.718   6.488   6.427
 6901SOL    HW121602   6.703   6.577   6.471
 6901SOL    HW221603   6.630   6.443   6.412
 6902SOL     OW21604   5.549   6.061   6.493
 6902SOL    HW121605   5.629   6.005   6.472
 6902SOL    HW221606   5.530   6.122   6.416
 6903SOL     OW21607   2.638   5.239   4.743
 6903SOL    HW121608   2.557   5.220   4.799
 6903SOL    HW221609   2.669   5.155   4.699
 6904SOL     OW21610   6.132   1.011   4.959
 6904SOL    HW121611   6.201   0.948   4.995
 6904SOL    HW221612   6.156   1.104   4.984
 6905SOL     OW21613   6.092   6.467   6.285
 6905SOL    HW121614   6.087   6.533   6.360
 6905SOL    HW221615   6.110   6.516   6.200
 6906SOL     OW21616   4.358   1.353   4.090
 6906SOL    HW121617   4.367   1.383   3.995
 6906SOL    HW221618   4.290   1.280   4.096
 6907SOL     OW21619   5.016   2.797   1.578
 6907SOL    HW121620   5.055   2.780   1.669
 6907SOL    HW221621   4.930   2.847   1.588
 6908SOL     OW21622   0.806   5.225   6.450
 6908SOL    HW121623   0.885   5.275   6.486
 6908SOL    HW221624   0.795   5.140   6.500
 6909SOL     OW21625   5.135   4.258   1.328
 6909SOL    HW121626   5.232   4.242   1.348
 6909SOL    HW221627   5.098   4.323   1.395
 6910SOL     OW21628   0.575   2.558   3.444
 6910SOL    HW121629   0.668   2.532   3.416
 6910SOL    HW221630   0.576   2.651   3.480
 6911SOL     OW21631   4.143   6.223   3.850
 6911SOL    HW121632   4.059   6.234   3.795
 6911SOL    HW221633   4.171   6.127   3.848
 6912SOL     OW21634   3.771   3.929   6.358
 6912SOL    HW121635   3.714   3.961   6.282
 6912SOL    HW221636   3.823   3.849   6.329
 6913SOL     OW21637   5.597   5.967   3.922
 6913SOL    HW121638   5.620   5.876   3.956
 6913SOL    HW221639   5.521   6.005   3.975
 6914SOL     OW21640   5.972   3.925   4.143
 6914SOL    HW121641   5.891   3.869   4.162
 6914SOL    HW221642   5.944   4.015   4.111
 6915SOL     OW21643   5.925   2.486   2.490
 6915SOL    HW121644   5.866   2.408   2.468
 6915SOL    HW221645   5.940   2.541   2.408
 6916SOL     OW21646   6.020   2.121   0.209
 6916SOL    HW121647   5.962   2.085   0.136
 6916SOL    HW221648   6.114   2.089   0.197
 6917SOL     OW21649   3.331   6.642   1.262
 6917SOL    HW121650   3.359   6.640   1.358
 6917SOL    HW221651   3.392   6.703   1.212
 6918SOL     OW21652   0.257   2.733   4.446
 6918SOL    HW121653   0.357   2.726   4.443
 6918SOL    HW221654   0.230   2.792   4.522
 6919SOL     OW21655   6.707   5.849   3.566
 6919SOL    HW121656   6.657   5.800   3.638
 6919SOL    HW221657   6.692   5.947   3.575
 6920SOL     OW21658   4.221   6.123   5.567
 6920SOL    HW121659   4.290   6.125   5.640
 6920SOL    HW221660   4.266   6.106   5.479
 6921SOL     OW21661   5.003   5.346   3.486
 6921SOL    HW121662   4.976   5.441   3.501
 6921SOL    HW221663   5.096   5.333   3.520
 6922SOL     OW21664   1.935   6.300   5.102
 6922SOL    HW121665   1.993   6.366   5.150
 6922SOL    HW221666   1.839   6.320   5.120
 6923SOL     OW21667   4.845   5.598   3.283
 6923SOL    HW121668   4.861   5.513   3.233
 6923SOL    HW221669   4.750   5.626   3.274
 6924SOL     OW21670   2.798   4.097   6.680
 6924SOL    HW121671   2.850   4.022   6.639
 6924SOL    HW221672   2.741   4.140   6.610
 6925SOL     OW21673   4.942   6.190   3.873
 6925SOL    HW121674   4.889   6.254   3.817
 6925SOL    HW221675   4.918   6.201   3.969
 6926SOL     OW21676   3.232   2.942   0.921
 6926SOL    HW121677   3.173   2.868   0.888
 6926SOL    HW221678   3.251   2.928   1.018
 6927SOL     OW21679   4.053   2.801   5.957
 6927SOL    HW121680   4.145   2.828   5.932
 6927SOL    HW221681   3.995   2.882   5.966
 6928SOL     OW21682   5.779   5.689   0.756
 6928SOL    HW121683   5.741   5.601   0.728
 6928SOL    HW221684   5.750   5.760   0.691
 6929SOL     OW21685   5.603   5.434   1.388
 6929SOL    HW121686   5.520   5.385   1.360
 6929SOL    HW221687   5.580   5.502   1.457
 6930SOL     OW21688   0.832   0.626   2.448
 6930SOL    HW121689   0.790   0.535   2.448
 6930SOL    HW221690   0.789   0.682   2.377
 6931SOL     OW21691   2.063   0.965   2.275
 6931SOL    HW121692   1.996   1.039   2.274
 6931SOL    HW221693   2.063   0.918   2.187
 6932SOL     OW21694   4.550   6.186   0.391
 6932SOL    HW121695   4.500   6.267   0.362
 6932SOL    HW221696   4.495   6.104   0.373
 6933SOL     OW21697   3.265   6.212   5.088
 6933SOL    HW121698   3.328   6.175   5.156
 6933SOL    HW221699   3.172   6.183   5.109
 6934SOL     OW21700   4.826   3.642   6.282
 6934SOL    HW121701   4.856   3.586   6.359
 6934SOL    HW221702   4.762   3.711   6.314
 6935SOL     OW21703   4.678   5.244   2.422
 6935SOL    HW121704   4.641   5.152   2.437
 6935SOL    HW221705   4.605   5.311   2.431
 6936SOL     OW21706   5.855   1.494   3.006
 6936SOL    HW121707   5.805   1.577   2.984
 6936SOL    HW221708   5.952   1.515   3.017
 6937SOL     OW21709   6.506   6.207   0.128
 6937SOL    HW121710   6.565   6.209   0.047
 6937SOL    HW221711   6.562   6.214   0.210
 6938SOL     OW21712   5.390   3.148   5.242
 6938SOL    HW121713   5.295   3.179   5.241
 6938SOL    HW221714   5.407   3.088   5.164
 6939SOL     OW21715   1.407   4.809   1.612
 6939SOL    HW121716   1.386   4.764   1.700
 6939SOL    HW221717   1.476   4.755   1.563
 6940SOL     OW21718   3.950   0.581   6.230
 6940SOL    HW121719   4.043   0.609   6.254
 6940SOL    HW221720   3.911   0.528   6.306
 6941SOL     OW21721   3.423   3.870   1.866
 6941SOL    HW121722   3.510   3.900   1.829
 6941SOL    HW221723   3.374   3.948   1.905
 6942SOL     OW21724   5.992   0.052   1.068
 6942SOL    HW121725   6.039   6.996   1.099
 6942SOL    HW221726   6.054   0.130   1.074
 6943SOL     OW21727   3.613   5.714   0.027
 6943SOL    HW121728   3.626   5.635   0.086
 6943SOL    HW221729   3.621   5.687   6.959
 6944SOL     OW21730   0.764   4.108   6.582
 6944SOL    HW121731   0.664   4.106   6.580
 6944SOL    HW221732   0.794   4.160   6.663
 6945SOL     OW21733   6.169   1.098   6.838
 6945SOL    HW121734   6.160   1.072   6.934
 6945SOL    HW221735   6.109   1.040   6.782
 6946SOL     OW21736   4.772   6.790   0.574
 6946SOL    HW121737   4.744   6.748   0.487
 6946SOL    HW221738   4.737   6.884   0.578
 6947SOL     OW21739   3.016   5.811   6.360
 6947SOL    HW121740   2.994   5.751   6.436
 6947SOL    HW221741   2.967   5.898   6.371
 6948SOL     OW21742   0.638   0.430   0.804
 6948SOL    HW121743   0.617   0.451   0.709
 6948SOL    HW221744   0.692   0.346   0.808
 6949SOL     OW21745   3.796   0.037   3.011
 6949SOL    HW121746   3.746   0.003   2.931
 6949SOL    HW221747   3.743   0.110   3.054
 6950SOL     OW21748   1.779   1.996   4.499
 6950SOL    HW121749   1.878   2.013   4.498
 6950SOL    HW221750   1.748   1.975   4.407
 6951SOL     OW21751   6.559   5.488   6.010
 6951SOL    HW121752   6.587   5.470   6.105
 6951SOL    HW221753   6.487   5.558   6.009
 6952SOL     OW21754   0.653   6.295   3.037
 6952SOL    HW121755   0.709   6.295   3.119
 6952SOL    HW221756   0.557   6.280   3.062
 6953SOL     OW21757   4.542   6.777   1.027
 6953SOL    HW121758   4.472   6.816   1.087
 6953SOL    HW221759   4.590   6.851   0.980
 6954SOL     OW21760   0.190   3.799   2.600
 6954SOL    HW121761   0.244   3.719   2.626
 6954SOL    HW221762   0.093   3.775   2.599
 6955SOL     OW21763   6.220   0.437   2.228
 6955SOL    HW121764   6.183   0.471   2.141
 6955SOL    HW221765   6.300   0.492   2.253
 6956SOL     OW21766   5.725   5.977   3.666
 6956SOL    HW121767   5.823   5.987   3.678
 6956SOL    HW221768   5.682   5.961   3.755
 6957SOL     OW21769   6.525   4.814   0.642
 6957SOL    HW121770   6.542   4.912   0.630
 6957SOL    HW221771   6.434   4.792   0.609
 6958SOL     OW21772   3.720   3.131   4.365
 6958SOL    HW121773   3.786   3.151   4.292
 6958SOL    HW221774   3.668   3.049   4.341
 6959SOL     OW21775   1.765   2.472   4.063
 6959SOL    HW121776   1.696   2.411   4.103
 6959SOL    HW221777   1.795   2.537   4.131
 6960SOL     OW21778   2.235   4.507   1.477
 6960SOL    HW121779   2.303   4.445   1.516
 6960SOL    HW221780   2.208   4.474   1.387
 6961SOL     OW21781   5.970   1.548   4.168
 6961SOL    HW121782   6.053   1.602   4.154
 6961SOL    HW221783   5.892   1.593   4.124
 6962SOL     OW21784   5.244   5.998   1.947
 6962SOL    HW121785   5.244   6.094   1.975
 6962SOL    HW221786   5.226   5.940   2.026
 6963SOL     OW21787   5.206   6.084   0.890
 6963SOL    HW121788   5.174   6.101   0.983
 6963SOL    HW221789   5.299   6.121   0.879
 6964SOL     OW21790   3.221   1.344   5.072
 6964SOL    HW121791   3.310   1.367   5.111
 6964SOL    HW221792   3.227   1.256   5.026
 6965SOL     OW21793   0.982   1.525   0.715
 6965SOL    HW121794   0.901   1.468   0.730
 6965SOL    HW221795   0.954   1.620   0.701
 6966SOL     OW21796   1.030   2.064   3.417
 6966SOL    HW121797   0.983   2.002   3.354
 6966SOL    HW221798   1.104   2.014   3.463
 6967SOL     OW21799   2.236   0.796   5.410
 6967SOL    HW121800   2.211   0.863   5.480
 6967SOL    HW221801   2.240   0.841   5.321
 6968SOL     OW21802   3.688   6.890   2.810
 6968SOL    HW121803   3.720   6.805   2.768
 6968SOL    HW221804   3.594   6.908   2.781
 6969SOL     OW21805   3.526   2.543   1.590
 6969SOL    HW121806   3.611   2.569   1.636
 6969SOL    HW221807   3.483   2.468   1.641
 6970SOL     OW21808   4.364   4.438   5.454
 6970SOL    HW121809   4.322   4.351   5.477
 6970SOL    HW221810   4.308   4.513   5.490
 6971SOL     OW21811   6.817   4.209   1.354
 6971SOL    HW121812   6.848   4.133   1.297
 6971SOL    HW221813   6.877   4.218   1.433
 6972SOL     OW21814   5.468   4.509   3.106
 6972SOL    HW121815   5.375   4.543   3.090
 6972SOL    HW221816   5.502   4.465   3.023
 6973SOL     OW21817   1.072   2.852   4.039
 6973SOL    HW121818   1.005   2.848   3.966
 6973SOL    HW221819   1.121   2.939   4.035
 6974SOL     OW21820   2.902   3.624   3.168
 6974SOL    HW121821   2.911   3.708   3.221
 6974SOL    HW221822   2.909   3.645   3.070
 6975SOL     OW21823   1.786   6.451   6.288
 6975SOL    HW121824   1.714   6.402   6.239
 6975SOL    HW221825   1.796   6.412   6.379
 6976SOL     OW21826   5.529   5.409   4.959
 6976SOL    HW121827   5.551   5.470   4.883
 6976SOL    HW221828   5.433   5.381   4.952
 6977SOL     OW21829   3.877   2.929   1.728
 6977SOL    HW121830   3.783   2.963   1.732
 6977SOL    HW221831   3.918   2.932   1.820
 6978SOL     OW21832   5.862   1.608   1.977
 6978SOL    HW121833   5.873   1.511   1.999
 6978SOL    HW221834   5.837   1.659   2.059
 6979SOL     OW21835   1.095   4.632   1.334
 6979SOL    HW121836   1.127   4.562   1.397
 6979SOL    HW221837   1.039   4.589   1.262
 6980SOL     OW21838   1.891   0.534   4.164
 6980SOL    HW121839   1.827   0.468   4.202
 6980SOL    HW221840   1.972   0.487   4.130
 6981SOL     OW21841   3.713   2.681   5.731
 6981SOL    HW121842   3.739   2.705   5.824
 6981SOL    HW221843   3.623   2.721   5.710
 6982SOL     OW21844   1.210   0.736   4.825
 6982SOL    HW121845   1.236   0.830   4.849
 6982SOL    HW221846   1.176   0.734   4.731
 6983SOL     OW21847   3.161   2.112   3.765
 6983SOL    HW121848   3.210   2.126   3.679
 6983SOL    HW221849   3.115   2.023   3.763
 6984SOL     OW21850   2.163   1.930   3.127
 6984SOL    HW121851   2.197   2.024   3.116
 6984SOL    HW221852   2.063   1.930   3.121
 6985SOL     OW21853   6.027   5.459   1.514
 6985SOL    HW121854   6.100   5.394   1.492
 6985SOL    HW221855   5.950   5.409   1.554
 6986SOL     OW21856   2.403   0.019   5.880
 6986SOL    HW121857   2.406   7.012   5.973
 6986SOL    HW221858   2.395   0.119   5.881
 6987SOL     OW21859   6.099   1.265   6.149
 6987SOL    HW121860   6.159   1.314   6.086
 6987SOL    HW221861   6.009   1.251   6.107
 6988SOL     OW21862   0.440   0.310   5.477
 6988SOL    HW121863   0.466   0.272   5.565
 6988SOL    HW221864   0.497   0.390   5.457
 6989SOL     OW21865   0.731   3.642   3.220
 6989SOL    HW121866   0.696   3.720   3.271
 6989SOL    HW221867   0.825   3.659   3.192
 6990SOL     OW21868   5.075   2.517   1.522
 6990SOL    HW121869   5.046   2.608   1.549
 6990SOL    HW221870   5.079   2.511   1.422
 6991SOL     OW21871   4.081   4.833   3.242
 6991SOL    HW121872   4.004   4.809   3.301
 6991SOL    HW221873   4.166   4.833   3.296
 6992SOL     OW21874   5.279   6.499   6.194
 6992SOL    HW121875   5.259   6.411   6.237
 6992SOL    HW221876   5.343   6.550   6.250
 6993SOL     OW21877   5.371   0.515   3.159
 6993SOL    HW121878   5.315   0.578   3.213
 6993SOL    HW221879   5.437   0.470   3.220
 6994SOL     OW21880   7.007   2.436   4.127
 6994SOL    HW121881   0.030   2.481   4.202
 6994SOL    HW221882   6.931   2.384   4.165
 6995SOL     OW21883   0.407   4.619   6.391
 6995SOL    HW121884   0.493   4.573   6.416
 6995SOL    HW221885   0.424   4.684   6.317
 6996SOL     OW21886   1.636   6.935   6.842
 6996SOL    HW121887   1.730   6.970   6.834
 6996SOL    HW221888   1.634   6.840   6.812
 6997SOL     OW21889   6.694   6.290   5.243
 6997SOL    HW121890   6.682   6.281   5.342
 6997SOL    HW221891   6.616   6.339   5.205
 6998SOL     OW21892   2.344   0.991   1.512
 6998SOL    HW121893   2.252   1.026   1.493
 6998SOL    HW221894   2.403   1.066   1.540
 6999SOL     OW21895   2.466   1.819   6.912
 6999SOL    HW121896   2.443   1.844   6.818
 6999SOL    HW221897   2.565   1.813   6.921
 7000SOL     OW21898   4.939   0.016   0.986
 7000SOL    HW121899   4.892   0.032   1.073
 7000SOL    HW221900   4.929   0.096   0.928
 7001SOL     OW21901   1.471   3.289   5.555
 7001SOL    HW121902   1.547   3.241   5.599
 7001SOL    HW221903   1.504   3.375   5.517
 7002SOL     OW21904   1.583   5.415   3.670
 7002SOL    HW121905   1.646   5.489   3.646
 7002SOL    HW221906   1.490   5.441   3.645
 7003SOL     OW21907   4.286   5.160   0.626
 7003SOL    HW121908   4.197   5.116   0.609
 7003SOL    HW221909   4.353   5.090   0.653
 7004SOL     OW21910   0.947   5.352   2.053
 7004SOL    HW121911   0.973   5.384   2.145
 7004SOL    HW221912   1.017   5.289   2.019
 7005SOL     OW21913   1.066   0.065   0.862
 7005SOL    HW121914   1.094   7.010   0.813
 7005SOL    HW221915   0.969   0.084   0.844
 7006SOL     OW21916   5.160   5.163   3.863
 7006SOL    HW121917   5.211   5.247   3.846
 7006SOL    HW221918   5.152   5.111   3.778
 7007SOL     OW21919   4.472   1.022   3.963
 7007SOL    HW121920   4.496   0.943   3.907
 7007SOL    HW221921   4.400   0.997   4.027
 7008SOL     OW21922   0.256   4.381   4.559
 7008SOL    HW121923   0.335   4.425   4.517
 7008SOL    HW221924   0.190   4.451   4.587
 7009SOL     OW21925   5.870   6.000   2.357
 7009SOL    HW121926   5.862   5.912   2.310
 7009SOL    HW221927   5.808   6.001   2.436
 7010SOL     OW21928   5.300   4.105   3.880
 7010SOL    HW121929   5.370   4.108   3.951
 7010SOL    HW221930   5.305   4.188   3.825
 7011SOL     OW21931   2.880   6.477   6.874
 7011SOL    HW121932   2.910   6.519   6.788
 7011SOL    HW221933   2.804   6.530   6.911
 7012SOL     OW21934   0.113   1.957   1.935
 7012SOL    HW121935   0.069   2.041   1.901
 7012SOL    HW221936   0.064   1.924   2.015
 7013SOL     OW21937   0.677   0.255   0.340
 7013SOL    HW121938   0.755   0.310   0.310
 7013SOL    HW221939   0.623   0.228   0.261
 7014SOL     OW21940   4.335   3.389   0.966
 7014SOL    HW121941   4.272   3.419   1.038
 7014SOL    HW221942   4.308   3.299   0.932
 7015SOL     OW21943   6.470   4.622   1.765
 7015SOL    HW121944   6.388   4.676   1.781
 7015SOL    HW221945   6.449   4.546   1.702
 7016SOL     OW21946   3.306   4.847   1.212
 7016SOL    HW121947   3.297   4.791   1.295
 7016SOL    HW221948   3.360   4.797   1.144
 7017SOL     OW21949   2.677   5.137   3.079
 7017SOL    HW121950   2.578   5.126   3.081
 7017SOL    HW221951   2.703   5.186   2.996
 7018SOL     OW21952   5.533   2.998   4.257
 7018SOL    HW121953   5.556   3.047   4.341
 7018SOL    HW221954   5.616   2.956   4.219
 7019SOL     OW21955   4.122   4.186   0.619
 7019SOL    HW121956   4.185   4.181   0.541
 7019SOL    HW221957   4.164   4.142   0.698
 7020SOL     OW21958   6.640   4.999   6.560
 7020SOL    HW121959   6.560   4.947   6.531
 7020SOL    HW221960   6.612   5.069   6.626
 7021SOL     OW21961   1.528   1.811   5.752
 7021SOL    HW121962   1.606   1.869   5.774
 7021SOL    HW221963   1.558   1.738   5.690
 7022SOL     OW21964   4.398   6.614   5.893
 7022SOL    HW121965   4.357   6.569   5.814
 7022SOL    HW221966   4.360   6.706   5.902
 7023SOL     OW21967   0.545   2.343   3.659
 7023SOL    HW121968   0.637   2.345   3.699
 7023SOL    HW221969   0.536   2.415   3.591
 7024SOL     OW21970   2.932   4.019   5.105
 7024SOL    HW121971   2.867   4.082   5.063
 7024SOL    HW221972   2.982   3.971   5.033
 7025SOL     OW21973   3.277   0.817   0.720
 7025SOL    HW121974   3.299   0.764   0.638
 7025SOL    HW221975   3.178   0.812   0.738
 7026SOL     OW21976   3.198   2.078   2.264
 7026SOL    HW121977   3.234   1.990   2.296
 7026SOL    HW221978   3.265   2.120   2.202
 7027SOL     OW21979   2.425   5.239   4.287
 7027SOL    HW121980   2.428   5.203   4.380
 7027SOL    HW221981   2.340   5.289   4.273
 7028SOL     OW21982   3.083   1.866   3.767
 7028SOL    HW121983   2.987   1.843   3.787
 7028SOL    HW221984   3.143   1.809   3.824
 7029SOL     OW21985   4.961   4.950   4.916
 7029SOL    HW121986   4.993   4.915   4.828
 7029SOL    HW221987   5.019   5.027   4.944
 7030SOL     OW21988   0.861   0.616   4.749
 7030SOL    HW121989   0.903   0.641   4.836
 7030SOL    HW221990   0.788   0.550   4.764
 7031SOL     OW21991   4.169   5.802   5.919
 7031SOL    HW121992   4.266   5.777   5.922
 7031SOL    HW221993   4.159   5.898   5.947
 7032SOL     OW21994   4.067   1.482   3.873
 7032SOL    HW121995   4.050   1.499   3.776
 7032SOL    HW221996   4.150   1.427   3.883
 7033SOL     OW21997   1.634   2.052   3.359
 7033SOL    HW121998   1.545   2.017   3.331
 7033SOL    HW221999   1.655   2.020   3.451
 7034SOL     OW22000   6.828   0.788   3.541
 7034SOL    HW122001   6.810   0.884   3.563
 7034SOL    HW222002   6.806   0.731   3.620
 7035SOL     OW22003   1.723   6.651   0.809
 7035SOL    HW122004   1.735   6.750   0.817
 7035SOL    HW222005   1.773   6.618   0.728
 7036SOL     OW22006   0.022   0.183   3.240
 7036SOL    HW122007   0.079   0.264   3.258
 7036SOL    HW222008   0.065   0.128   3.169
 7037SOL     OW22009   1.474   0.917   6.497
 7037SOL    HW122010   1.438   0.842   6.552
 7037SOL    HW222011   1.478   1.001   6.551
 7038SOL     OW22012   2.159   3.640   5.333
 7038SOL    HW122013   2.161   3.726   5.282
 7038SOL    HW222014   2.251   3.617   5.364
 7039SOL     OW22015   2.022   5.338   2.162
 7039SOL    HW122016   2.115   5.374   2.155
 7039SOL    HW222017   1.969   5.367   2.083
 7040SOL     OW22018   5.358   2.533   5.694
 7040SOL    HW122019   5.320   2.573   5.611
 7040SOL    HW222020   5.452   2.566   5.707
 7041SOL     OW22021   6.136   1.312   1.969
 7041SOL    HW122022   6.168   1.343   2.059
 7041SOL    HW222023   6.199   1.245   1.932
 7042SOL     OW22024   4.330   5.246   5.245
 7042SOL    HW122025   4.337   5.218   5.341
 7042SOL    HW222026   4.349   5.167   5.186
 7043SOL     OW22027   2.346   4.826   2.698
 7043SOL    HW122028   2.347   4.747   2.636
 7043SOL    HW222029   2.266   4.821   2.758
 7044SOL     OW22030   5.905   5.004   4.461
 7044SOL    HW122031   5.969   4.951   4.516
 7044SOL    HW222032   5.952   5.083   4.421
 7045SOL     OW22033   4.805   5.227   2.677
 7045SOL    HW122034   4.748   5.222   2.595
 7045SOL    HW222035   4.852   5.140   2.690
 7046SOL     OW22036   2.778   0.758   3.552
 7046SOL    HW122037   2.795   0.853   3.526
 7046SOL    HW222038   2.797   0.699   3.474
 7047SOL     OW22039   6.303   0.729   2.312
 7047SOL    HW122040   6.343   0.817   2.340
 7047SOL    HW222041   6.237   0.745   2.239
 7048SOL     OW22042   5.363   0.361   3.587
 7048SOL    HW122043   5.292   0.430   3.574
 7048SOL    HW222044   5.407   0.375   3.676
 7049SOL     OW22045   3.372   1.598   0.618
 7049SOL    HW122046   3.437   1.658   0.571
 7049SOL    HW222047   3.379   1.505   0.581
 7050SOL     OW22048   4.207   3.740   1.771
 7050SOL    HW122049   4.183   3.680   1.847
 7050SOL    HW222050   4.148   3.721   1.693
 7051SOL     OW22051   6.376   6.423   0.890
 7051SOL    HW122052   6.364   6.486   0.813
 7051SOL    HW222053   6.286   6.389   0.919
 7052SOL     OW22054   6.015   1.776   3.402
 7052SOL    HW122055   6.098   1.818   3.366
 7052SOL    HW222056   5.935   1.829   3.373
 7053SOL     OW22057   1.686   2.961   5.417
 7053SOL    HW122058   1.742   3.028   5.368
 7053SOL    HW222059   1.590   2.974   5.394
 7054SOL     OW22060   6.386   6.850   0.516
 7054SOL    HW122061   6.388   6.755   0.549
 7054SOL    HW222062   6.421   6.910   0.587
 7055SOL     OW22063   2.807   6.725   6.382
 7055SOL    HW122064   2.835   6.672   6.303
 7055SOL    HW222065   2.712   6.753   6.372
 7056SOL     OW22066   0.563   4.702   1.645
 7056SOL    HW122067   0.510   4.680   1.563
 7056SOL    HW222068   0.603   4.793   1.636
 7057SOL     OW22069   2.657   4.608   4.158
 7057SOL    HW122070   2.670   4.560   4.071
 7057SOL    HW222071   2.597   4.554   4.217
 7058SOL     OW22072   5.606   3.945   5.301
 7058SOL    HW122073   5.695   3.941   5.347
 7058SOL    HW222074   5.535   3.911   5.362
 7059SOL     OW22075   0.530   1.394   3.689
 7059SOL    HW122076   0.623   1.365   3.669
 7059SOL    HW222077   0.470   1.313   3.695
 7060SOL     OW22078   3.322   6.934   1.854
 7060SOL    HW122079   3.324   6.901   1.948
 7060SOL    HW222080   3.414   6.929   1.815
 7061SOL     OW22081   0.149   3.376   4.023
 7061SOL    HW122082   0.134   3.292   4.075
 7061SOL    HW222083   0.071   3.392   3.962
 7062SOL     OW22084   3.463   1.649   5.928
 7062SOL    HW122085   3.404   1.712   5.879
 7062SOL    HW222086   3.551   1.694   5.948
 7063SOL     OW22087   1.171   6.726   1.722
 7063SOL    HW122088   1.240   6.681   1.666
 7063SOL    HW222089   1.128   6.659   1.783
 7064SOL     OW22090   3.931   2.192   7.002
 7064SOL    HW122091   3.953   2.209   6.906
 7064SOL    HW222092   3.939   2.095   7.022
 7065SOL     OW22093   5.264   3.848   6.042
 7065SOL    HW122094   5.297   3.942   6.037
 7065SOL    HW222095   5.288   3.799   5.957
 7066SOL     OW22096   3.943   0.171   6.550
 7066SOL    HW122097   4.040   0.194   6.551
 7066SOL    HW222098   3.932   0.078   6.515
 7067SOL     OW22099   1.711   2.715   5.490
 7067SOL    HW122100   1.650   2.674   5.557
 7067SOL    HW222101   1.678   2.807   5.466
 7068SOL     OW22102   6.324   4.836   4.692
 7068SOL    HW122103   6.413   4.794   4.710
 7068SOL    HW222104   6.286   4.872   4.777
 7069SOL     OW22105   5.472   2.366   4.453
 7069SOL    HW122106   5.527   2.282   4.445
 7069SOL    HW222107   5.399   2.352   4.520
 7070SOL     OW22108   0.060   0.003   4.859
 7070SOL    HW122109   0.115   0.036   4.936
 7070SOL    HW222110   0.009   0.079   4.820
 7071SOL     OW22111   3.636   6.094   5.523
 7071SOL    HW122112   3.692   6.101   5.605
 7071SOL    HW222113   3.610   6.186   5.493
 7072SOL     OW22114   1.772   6.002   6.990
 7072SOL    HW122115   1.685   5.956   7.005
 7072SOL    HW222116   1.760   6.077   6.926
 7073SOL     OW22117   4.910   7.005   3.869
 7073SOL    HW122118   4.849   6.976   3.794
 7073SOL    HW222119   5.002   7.018   3.834
 7074SOL     OW22120   5.935   2.603   2.254
 7074SOL    HW122121   5.898   2.569   2.168
 7074SOL    HW222122   5.945   2.703   2.249
 7075SOL     OW22123   1.776   4.309   5.086
 7075SOL    HW122124   1.695   4.277   5.037
 7075SOL    HW222125   1.795   4.248   5.163
 7076SOL     OW22126   5.781   2.596   6.792
 7076SOL    HW122127   5.688   2.621   6.767
 7076SOL    HW222128   5.836   2.680   6.802
 7077SOL     OW22129   2.205   4.573   3.781
 7077SOL    HW122130   2.105   4.566   3.786
 7077SOL    HW222131   2.241   4.499   3.725
 7078SOL     OW22132   6.824   6.565   1.955
 7078SOL    HW122133   6.837   6.558   2.054
 7078SOL    HW222134   6.813   6.661   1.929
 7079SOL     OW22135   0.098   6.728   4.461
 7079SOL    HW122136   0.046   6.764   4.538
 7079SOL    HW222137   0.036   6.703   4.387
 7080SOL     OW22138   3.567   1.187   5.028
 7080SOL    HW122139   3.561   1.280   5.062
 7080SOL    HW222140   3.661   1.167   5.001
 7081SOL     OW22141   2.150   6.318   6.816
 7081SOL    HW122142   2.162   6.366   6.904
 7081SOL    HW222143   2.074   6.360   6.767
 7082SOL     OW22144   6.875   4.610   6.823
 7082SOL    HW122145   6.972   4.597   6.804
 7082SOL    HW222146   6.848   4.704   6.798
 7083SOL     OW22147   1.583   0.368   1.395
 7083SOL    HW122148   1.577   0.377   1.295
 7083SOL    HW222149   1.548   0.278   1.422
 7084SOL     OW22150   0.328   5.167   5.256
 7084SOL    HW122151   0.372   5.102   5.317
 7084SOL    HW222152   0.320   5.127   5.164
 7085SOL     OW22153   0.498   1.662   2.574
 7085SOL    HW122154   0.508   1.756   2.608
 7085SOL    HW222155   0.512   1.661   2.475
 7086SOL     OW22156   5.841   0.124   6.067
 7086SOL    HW122157   5.748   0.087   6.066
 7086SOL    HW222158   5.865   0.155   5.975
 7087SOL     OW22159   6.167   3.716   3.297
 7087SOL    HW122160   6.265   3.705   3.316
 7087SOL    HW222161   6.116   3.644   3.345
 7088SOL     OW22162   4.904   2.668   3.937
 7088SOL    HW122163   4.880   2.573   3.957
 7088SOL    HW222164   4.950   2.673   3.848
 7089SOL     OW22165   2.505   2.252   4.751
 7089SOL    HW122166   2.560   2.325   4.791
 7089SOL    HW222167   2.547   2.163   4.771
 7090SOL     OW22168   1.572   1.063   0.489
 7090SOL    HW122169   1.644   1.033   0.552
 7090SOL    HW222170   1.483   1.047   0.531
 7091SOL     OW22171   0.201   1.991   0.991
 7091SOL    HW122172   0.158   2.065   1.042
 7091SOL    HW222173   0.171   1.996   0.895
 7092SOL     OW22174   4.139   2.791   5.594
 7092SOL    HW122175   4.117   2.722   5.663
 7092SOL    HW222176   4.082   2.777   5.513
 7093SOL     OW22177   3.259   4.060   1.963
 7093SOL    HW122178   3.170   4.018   1.979
 7093SOL    HW222179   3.298   4.091   2.049
 7094SOL     OW22180   6.971   5.947   5.472
 7094SOL    HW122181   0.014   6.014   5.448
 7094SOL    HW222182   6.910   5.933   5.394
 7095SOL     OW22183   3.237   4.712   5.788
 7095SOL    HW122184   3.310   4.758   5.738
 7095SOL    HW222185   3.184   4.655   5.725
 7096SOL     OW22186   6.620   0.887   2.290
 7096SOL    HW122187   6.635   0.794   2.257
 7096SOL    HW222188   6.669   0.952   2.232
 7097SOL     OW22189   4.733   1.034   1.702
 7097SOL    HW122190   4.763   0.950   1.656
 7097SOL    HW222191   4.720   1.015   1.800
 7098SOL     OW22192   2.217   5.535   5.293
 7098SOL    HW122193   2.313   5.508   5.297
 7098SOL    HW222194   2.201   5.587   5.208
 7099SOL     OW22195   3.793   1.442   5.200
 7099SOL    HW122196   3.724   1.500   5.156
 7099SOL    HW222197   3.884   1.472   5.172
 7100SOL     OW22198   6.951   3.586   0.200
 7100SOL    HW122199   6.950   3.678   0.160
 7100SOL    HW222200   6.923   3.592   0.296
 7101SOL     OW22201   2.827   1.817   5.457
 7101SOL    HW122202   2.834   1.892   5.523
 7101SOL    HW222203   2.734   1.812   5.422
 7102SOL     OW22204   5.153   0.181   1.246
 7102SOL    HW122205   5.138   0.092   1.289
 7102SOL    HW222206   5.251   0.193   1.228
 7103SOL     OW22207   5.809   5.359   1.645
 7103SOL    HW122208   5.789   5.301   1.724
 7103SOL    HW222209   5.806   5.455   1.673
 7104SOL     OW22210   6.230   3.631   2.707
 7104SOL    HW122211   6.137   3.659   2.686
 7104SOL    HW222212   6.255   3.663   2.798
 7105SOL     OW22213   2.757   3.413   5.260
 7105SOL    HW122214   2.805   3.332   5.227
 7105SOL    HW222215   2.672   3.386   5.305
 7106SOL     OW22216   3.642   3.417   1.993
 7106SOL    HW122217   3.686   3.500   2.027
 7106SOL    HW222218   3.549   3.412   2.028
 7107SOL     OW22219   4.934   0.656   0.615
 7107SOL    HW122220   4.886   0.728   0.665
 7107SOL    HW222221   4.979   0.696   0.535
 7108SOL     OW22222   3.029   6.044   2.937
 7108SOL    HW122223   2.993   6.003   2.853
 7108SOL    HW222224   3.053   6.139   2.921
 7109SOL     OW22225   2.060   6.841   5.378
 7109SOL    HW122226   2.089   6.798   5.464
 7109SOL    HW222227   2.107   6.796   5.301
 7110SOL     OW22228   2.855   5.749   4.405
 7110SOL    HW122229   2.896   5.787   4.322
 7110SOL    HW222230   2.792   5.675   4.381
 7111SOL     OW22231   0.943   2.521   5.060
 7111SOL    HW122232   0.924   2.423   5.051
 7111SOL    HW222233   0.943   2.546   5.157
 7112SOL     OW22234   1.939   5.210   4.233
 7112SOL    HW122235   1.970   5.233   4.325
 7112SOL    HW222236   2.012   5.227   4.167
 7113SOL     OW22237   3.474   4.055   4.540
 7113SOL    HW122238   3.385   4.013   4.559
 7113SOL    HW222239   3.491   4.053   4.441
 7114SOL     OW22240   5.139   5.368   0.591
 7114SOL    HW122241   5.140   5.465   0.611
 7114SOL    HW222242   5.135   5.316   0.676
 7115SOL     OW22243   4.949   2.842   0.174
 7115SOL    HW122244   5.044   2.871   0.178
 7115SOL    HW222245   4.943   2.744   0.195
 7116SOL     OW22246   5.825   4.466   3.009
 7116SOL    HW122247   5.833   4.434   3.104
 7116SOL    HW222248   5.825   4.388   2.947
 7117SOL     OW22249   0.728   6.152   4.676
 7117SOL    HW122250   0.788   6.204   4.616
 7117SOL    HW222251   0.782   6.089   4.732
 7118SOL     OW22252   3.131   5.180   6.543
 7118SOL    HW122253   3.130   5.173   6.443
 7118SOL    HW222254   3.121   5.089   6.583
 7119SOL     OW22255   4.976   1.571   3.977
 7119SOL    HW122256   4.910   1.497   3.967
 7119SOL    HW222257   4.953   1.626   4.058
 7120SOL     OW22258   3.397   2.046   2.066
 7120SOL    HW122259   3.331   2.055   1.991
 7120SOL    HW222260   3.476   2.105   2.047
 7121SOL     OW22261   0.661   0.093   3.746
 7121SOL    HW122262   0.690   0.062   3.655
 7121SOL    HW222263   0.628   0.015   3.799
 7122SOL     OW22264   1.558   0.844   5.823
 7122SOL    HW122265   1.640   0.817   5.872
 7122SOL    HW222266   1.522   0.928   5.863
 7123SOL     OW22267   1.386   4.885   3.402
 7123SOL    HW122268   1.343   4.973   3.379
 7123SOL    HW222269   1.349   4.814   3.343
 7124SOL     OW22270   0.179   1.934   1.495
 7124SOL    HW122271   0.134   2.023   1.497
 7124SOL    HW222272   0.117   1.867   1.453
 7125SOL     OW22273   0.777   0.139   0.782
 7125SOL    HW122274   0.713   0.111   0.711
 7125SOL    HW222275   0.765   0.082   0.863
 7126SOL     OW22276   3.784   5.084   0.229
 7126SOL    HW122277   3.883   5.073   0.226
 7126SOL    HW222278   3.759   5.142   0.306
 7127SOL     OW22279   2.102   5.794   6.451
 7127SOL    HW122280   2.006   5.774   6.434
 7127SOL    HW222281   2.149   5.711   6.479
 7128SOL     OW22282   3.722   4.067   6.765
 7128SOL    HW122283   3.629   4.056   6.732
 7128SOL    HW222284   3.748   4.164   6.758
 7129SOL     OW22285   2.546   1.395   0.391
 7129SOL    HW122286   2.474   1.350   0.338
 7129SOL    HW222287   2.508   1.476   0.436
 7130SOL     OW22288   3.810   5.897   3.850
 7130SOL    HW122289   3.880   5.860   3.790
 7130SOL    HW222290   3.832   5.874   3.945
 7131SOL     OW22291   2.722   1.091   1.393
 7131SOL    HW122292   2.804   1.037   1.413
 7131SOL    HW222293   2.686   1.129   1.478
 7132SOL     OW22294   3.624   4.104   0.423
 7132SOL    HW122295   3.612   4.060   0.512
 7132SOL    HW222296   3.721   4.127   0.411
 7133SOL     OW22297   4.404   4.689   5.234
 7133SOL    HW122298   4.389   4.659   5.140
 7133SOL    HW222299   4.321   4.675   5.288
 7134SOL     OW22300   4.784   6.912   1.759
 7134SOL    HW122301   4.724   6.988   1.732
 7134SOL    HW222302   4.742   6.825   1.732
 7135SOL     OW22303   1.586   2.595   3.406
 7135SOL    HW122304   1.603   2.686   3.444
 7135SOL    HW222305   1.650   2.530   3.448
 7136SOL     OW22306   2.735   1.993   0.163
 7136SOL    HW122307   2.677   1.971   0.084
 7136SOL    HW222308   2.772   1.908   0.201
 7137SOL     OW22309   3.065   1.232   0.441
 7137SOL    HW122310   3.158   1.244   0.477
 7137SOL    HW222311   3.010   1.312   0.463
 7138SOL     OW22312   1.944   1.914   0.286
 7138SOL    HW122313   2.032   1.961   0.275
 7138SOL    HW222314   1.902   1.942   0.372
 7139SOL     OW22315   5.666   4.943   1.731
 7139SOL    HW122316   5.605   5.017   1.760
 7139SOL    HW222317   5.705   4.966   1.642
 7140SOL     OW22318   6.736   4.331   1.101
 7140SOL    HW122319   6.743   4.319   1.200
 7140SOL    HW222320   6.823   4.364   1.065
 7141SOL     OW22321   3.783   6.335   0.581
 7141SOL    HW122322   3.860   6.397   0.599
 7141SOL    HW222323   3.697   6.386   0.586
 7142SOL     OW22324   3.851   6.764   3.037
 7142SOL    HW122325   3.867   6.859   3.010
 7142SOL    HW222326   3.931   6.709   3.012
 7143SOL     OW22327   1.774   3.225   6.828
 7143SOL    HW122328   1.755   3.294   6.758
 7143SOL    HW222329   1.753   3.262   6.918
 7144SOL     OW22330   1.711   1.980   2.608
 7144SOL    HW122331   1.679   2.012   2.698
 7144SOL    HW222332   1.702   1.881   2.602
 7145SOL     OW22333   3.554   0.425   6.268
 7145SOL    HW122334   3.587   0.406   6.175
 7145SOL    HW222335   3.521   0.519   6.273
 7146SOL     OW22336   1.550   0.182   6.775
 7146SOL    HW122337   1.482   0.241   6.818
 7146SOL    HW222338   1.549   0.092   6.820
 7147SOL     OW22339   0.166   6.399   2.989
 7147SOL    HW122340   0.162   6.445   2.900
 7147SOL    HW222341   0.073   6.383   3.022
 7148SOL     OW22342   6.366   6.124   1.097
 7148SOL    HW122343   6.413   6.213   1.101
 7148SOL    HW222344   6.346   6.093   1.190
 7149SOL     OW22345   0.285   6.234   4.189
 7149SOL    HW122346   0.246   6.142   4.176
 7149SOL    HW222347   0.230   6.284   4.255
 7150SOL     OW22348   3.724   3.086   0.787
 7150SOL    HW122349   3.711   3.022   0.711
 7150SOL    HW222350   3.745   3.176   0.751
 7151SOL     OW22351   3.561   6.540   0.615
 7151SOL    HW122352   3.489   6.563   0.550
 7151SOL    HW222353   3.521   6.492   0.693
 7152SOL     OW22354   6.741   0.816   5.380
 7152SOL    HW122355   6.753   0.896   5.321
 7152SOL    HW222356   6.798   0.825   5.462
 7153SOL     OW22357   3.908   5.344   1.643
 7153SOL    HW122358   3.828   5.371   1.589
 7153SOL    HW222359   3.978   5.307   1.583
 7154SOL     OW22360   5.002   6.678   3.466
 7154SOL    HW122361   4.984   6.716   3.375
 7154SOL    HW222362   4.916   6.668   3.516
 7155SOL     OW22363   3.157   3.431   1.046
 7155SOL    HW122364   3.115   3.475   1.125
 7155SOL    HW222365   3.152   3.332   1.057
 7156SOL     OW22366   6.934   3.729   2.625
 7156SOL    HW122367   6.886   3.813   2.651
 7156SOL    HW222368   6.923   3.661   2.698
 7157SOL     OW22369   0.443   4.734   1.393
 7157SOL    HW122370   0.521   4.767   1.340
 7157SOL    HW222371   0.399   4.811   1.439
 7158SOL     OW22372   0.981   0.306   4.289
 7158SOL    HW122373   1.056   0.245   4.265
 7158SOL    HW222374   0.966   0.302   4.388
 7159SOL     OW22375   1.004   4.648   3.842
 7159SOL    HW122376   1.096   4.685   3.839
 7159SOL    HW222377   0.947   4.705   3.902
 7160SOL     OW22378   5.631   0.121   2.964
 7160SOL    HW122379   5.665   0.169   2.883
 7160SOL    HW222380   5.698   0.053   2.993
 7161SOL     OW22381   3.336   4.095   2.977
 7161SOL    HW122382   3.394   4.166   3.016
 7161SOL    HW222383   3.298   4.128   2.890
 7162SOL     OW22384   1.471   5.376   6.082
 7162SOL    HW122385   1.490   5.387   5.984
 7162SOL    HW222386   1.390   5.318   6.094
 7163SOL     OW22387   2.674   0.270   2.588
 7163SOL    HW122388   2.733   0.346   2.615
 7163SOL    HW222389   2.640   0.284   2.495
 7164SOL     OW22390   2.716   0.114   5.212
 7164SOL    HW122391   2.625   0.128   5.171
 7164SOL    HW222392   2.756   0.203   5.235
 7165SOL     OW22393   5.934   6.506   1.865
 7165SOL    HW122394   5.992   6.566   1.809
 7165SOL    HW222395   5.945   6.530   1.961
 7166SOL     OW22396   4.791   2.005   0.882
 7166SOL    HW122397   4.878   2.029   0.840
 7166SOL    HW222398   4.807   1.955   0.967
 7167SOL     OW22399   5.254   3.098   4.652
 7167SOL    HW122400   5.187   3.151   4.600
 7167SOL    HW222401   5.296   3.156   4.722
 7168SOL     OW22402   2.077   2.756   3.715
 7168SOL    HW122403   2.074   2.849   3.677
 7168SOL    HW222404   2.172   2.733   3.739
 7169SOL     OW22405   0.041   3.878   5.683
 7169SOL    HW122406   0.024   3.880   5.585
 7169SOL    HW222407   6.987   3.847   5.731
 7170SOL     OW22408   4.684   6.804   2.445
 7170SOL    HW122409   4.620   6.823   2.370
 7170SOL    HW222410   4.642   6.829   2.532
 7171SOL     OW22411   6.111   4.073   0.185
 7171SOL    HW122412   6.191   4.102   0.133
 7171SOL    HW222413   6.140   4.014   0.260
 7172SOL     OW22414   2.086   0.048   4.795
 7172SOL    HW122415   2.010   0.111   4.781
 7172SOL    HW222416   2.101   7.023   4.711
 7173SOL     OW22417   6.391   4.232   6.953
 7173SOL    HW122418   6.447   4.231   0.009
 7173SOL    HW222419   6.324   4.158   6.958
 7174SOL     OW22420   1.255   3.817   0.890
 7174SOL    HW122421   1.180   3.835   0.826
 7174SOL    HW222422   1.232   3.855   0.979
 7175SOL     OW22423   5.744   3.104   5.072
 7175SOL    HW122424   5.770   3.047   4.994
 7175SOL    HW222425   5.678   3.173   5.043
 7176SOL     OW22426   6.954   1.268   3.209
 7176SOL    HW122427   6.930   1.298   3.117
 7176SOL    HW222428   0.024   1.284   3.224
 7177SOL     OW22429   1.130   4.582   5.045
 7177SOL    HW122430   1.139   4.530   4.960
 7177SOL    HW222431   1.101   4.522   5.119
 7178SOL     OW22432   6.781   1.967   5.599
 7178SOL    HW122433   6.819   1.947   5.509
 7178SOL    HW222434   6.727   1.889   5.631
 7179SOL     OW22435   1.727   3.398   4.895
 7179SOL    HW122436   1.671   3.456   4.835
 7179SOL    HW222437   1.824   3.420   4.881
 7180SOL     OW22438   2.562   4.798   0.329
 7180SOL    HW122439   2.480   4.767   0.378
 7180SOL    HW222440   2.541   4.809   0.232
 7181SOL     OW22441   2.351   0.337   0.254
 7181SOL    HW122442   2.327   0.394   0.333
 7181SOL    HW222443   2.409   0.261   0.285
 7182SOL     OW22444   0.105   3.719   4.322
 7182SOL    HW122445   0.131   3.791   4.387
 7182SOL    HW222446   0.188   3.679   4.283
 7183SOL     OW22447   1.980   5.749   1.417
 7183SOL    HW122448   1.914   5.773   1.489
 7183SOL    HW222449   1.946   5.670   1.366
 7184SOL     OW22450   6.859   1.432   4.063
 7184SOL    HW122451   6.955   1.460   4.069
 7184SOL    HW222452   6.800   1.507   4.095
 7185SOL     OW22453   5.433   0.851   5.360
 7185SOL    HW122454   5.343   0.866   5.400
 7185SOL    HW222455   5.485   0.937   5.360
 7186SOL     OW22456   6.591   2.032   2.025
 7186SOL    HW122457   6.534   1.954   2.050
 7186SOL    HW222458   6.535   2.115   2.020
 7187SOL     OW22459   3.121   4.177   5.243
 7187SOL    HW122460   3.034   4.137   5.216
 7187SOL    HW222461   3.103   4.263   5.292
 7188SOL     OW22462   5.179   6.324   6.744
 7188SOL    HW122463   5.098   6.297   6.692
 7188SOL    HW222464   5.152   6.349   6.837
 7189SOL     OW22465   6.584   1.364   5.615
 7189SOL    HW122466   6.590   1.270   5.582
 7189SOL    HW222467   6.520   1.415   5.557
 7190SOL     OW22468   6.661   5.383   1.621
 7190SOL    HW122469   6.631   5.298   1.578
 7190SOL    HW222470   6.584   5.446   1.626
 7191SOL     OW22471   1.465   4.812   2.476
 7191SOL    HW122472   1.433   4.845   2.387
 7191SOL    HW222473   1.565   4.816   2.479
 7192SOL     OW22474   2.021   4.369   5.979
 7192SOL    HW122475   1.951   4.320   6.030
 7192SOL    HW222476   1.997   4.371   5.882
 7193SOL     OW22477   1.715   2.471   2.192
 7193SOL    HW122478   1.661   2.553   2.214
 7193SOL    HW222479   1.681   2.430   2.108
 7194SOL     OW22480   1.852   2.657   0.738
 7194SOL    HW122481   1.755   2.636   0.729
 7194SOL    HW222482   1.863   2.741   0.791
 7195SOL     OW22483   0.350   4.137   0.227
 7195SOL    HW122484   0.290   4.095   0.295
 7195SOL    HW222485   0.358   4.235   0.246
 7196SOL     OW22486   2.162   3.650   1.745
 7196SOL    HW122487   2.179   3.740   1.784
 7196SOL    HW222488   2.216   3.581   1.795
 7197SOL     OW22489   0.578   2.898   5.310
 7197SOL    HW122490   0.600   2.884   5.406
 7197SOL    HW222491   0.663   2.902   5.257
 7198SOL     OW22492   0.493   1.009   0.871
 7198SOL    HW122493   0.514   1.103   0.842
 7198SOL    HW222494   0.399   1.005   0.904
 7199SOL     OW22495   0.984   0.278   1.986
 7199SOL    HW122496   1.055   0.239   1.927
 7199SOL    HW222497   1.000   0.250   2.081
 7200SOL     OW22498   1.892   2.694   6.766
 7200SOL    HW122499   1.875   2.784   6.725
 7200SOL    HW222500   1.990   2.673   6.760
 7201SOL     OW22501   0.759   6.070   3.925
 7201SOL    HW122502   0.740   5.985   3.877
 7201SOL    HW222503   0.855   6.071   3.956
 7202SOL     OW22504   4.503   6.586   6.655
 7202SOL    HW122505   4.426   6.523   6.647
 7202SOL    HW222506   4.500   6.652   6.580
 7203SOL     OW22507   6.732   0.999   1.075
 7203SOL    HW122508   6.687   1.076   1.029
 7203SOL    HW222509   6.786   1.033   1.151
 7204SOL     OW22510   0.483   1.083   6.062
 7204SOL    HW122511   0.445   1.098   5.971
 7204SOL    HW222512   0.410   1.052   6.123
 7205SOL     OW22513   1.574   3.902   5.068
 7205SOL    HW122514   1.623   3.898   4.981
 7205SOL    HW222515   1.598   3.822   5.123
 7206SOL     OW22516   1.221   0.248   2.212
 7206SOL    HW122517   1.220   0.233   2.311
 7206SOL    HW222518   1.234   0.345   2.193
 7207SOL     OW22519   3.340   0.322   3.723
 7207SOL    HW122520   3.282   0.328   3.641
 7207SOL    HW222521   3.431   0.356   3.702
 7208SOL     OW22522   4.360   0.210   3.714
 7208SOL    HW122523   4.411   0.252   3.639
 7208SOL    HW222524   4.389   0.250   3.801
 7209SOL     OW22525   2.717   3.219   1.767
 7209SOL    HW122526   2.780   3.141   1.761
 7209SOL    HW222527   2.766   3.298   1.803
 7210SOL     OW22528   4.031   0.639   2.707
 7210SOL    HW122529   4.107   0.625   2.770
 7210SOL    HW222530   3.985   0.726   2.728
 7211SOL     OW22531   1.833   6.148   4.882
 7211SOL    HW122532   1.868   6.226   4.934
 7211SOL    HW222533   1.756   6.107   4.930
 7212SOL     OW22534   0.129   6.384   5.093
 7212SOL    HW122535   0.033   6.356   5.097
 7212SOL    HW222536   0.155   6.424   5.181
 7213SOL     OW22537   4.054   6.265   6.444
 7213SOL    HW122538   4.122   6.195   6.465
 7213SOL    HW222539   3.962   6.226   6.451
 7214SOL     OW22540   6.807   0.220   4.520
 7214SOL    HW122541   6.802   0.195   4.617
 7214SOL    HW222542   6.834   0.139   4.466
 7215SOL     OW22543   6.961   3.395   3.870
 7215SOL    HW122544   6.946   3.387   3.772
 7215SOL    HW222545   6.899   3.333   3.918
 7216SOL     OW22546   3.420   0.114   0.669
 7216SOL    HW122547   3.434   0.206   0.708
 7216SOL    HW222548   3.444   0.115   0.572
 7217SOL     OW22549   1.789   4.025   3.180
 7217SOL    HW122550   1.770   3.935   3.220
 7217SOL    HW222551   1.876   4.022   3.132
 7218SOL     OW22552   6.440   2.904   4.178
 7218SOL    HW122553   6.343   2.925   4.170
 7218SOL    HW222554   6.460   2.821   4.127
 7219SOL     OW22555   3.668   0.179   3.208
 7219SOL    HW122556   3.572   0.149   3.205
 7219SOL    HW222557   3.697   0.188   3.303
 7220SOL     OW22558   6.948   4.261   4.781
 7220SOL    HW122559   6.901   4.208   4.852
 7220SOL    HW222560   6.901   4.247   4.693
 7221SOL     OW22561   3.691   5.786   4.529
 7221SOL    HW122562   3.632   5.859   4.493
 7221SOL    HW222563   3.656   5.698   4.498
 7222SOL     OW22564   6.118   6.740   3.445
 7222SOL    HW122565   6.110   6.644   3.473
 7222SOL    HW222566   6.116   6.798   3.526
 7223SOL     OW22567   3.428   1.348   0.970
 7223SOL    HW122568   3.481   1.431   0.952
 7223SOL    HW222569   3.345   1.373   1.020
 7224SOL     OW22570   5.278   1.940   4.004
 7224SOL    HW122571   5.226   1.991   4.072
 7224SOL    HW222572   5.311   2.002   3.933
 7225SOL     OW22573   1.362   6.068   0.363
 7225SOL    HW122574   1.340   6.156   0.406
 7225SOL    HW222575   1.461   6.060   0.353
 7226SOL     OW22576   5.703   0.272   1.811
 7226SOL    HW122577   5.685   0.272   1.910
 7226SOL    HW222578   5.694   0.365   1.776
 7227SOL     OW22579   3.025   2.078   1.128
 7227SOL    HW122580   2.947   2.071   1.190
 7227SOL    HW222581   3.035   1.994   1.076
 7228SOL     OW22582   1.001   2.163   2.677
 7228SOL    HW122583   0.960   2.245   2.636
 7228SOL    HW222584   1.080   2.189   2.732
 7229SOL     OW22585   1.031   5.894   5.956
 7229SOL    HW122586   1.083   5.879   5.872
 7229SOL    HW222587   1.071   5.841   6.030
 7230SOL     OW22588   3.616   5.206   5.195
 7230SOL    HW122589   3.588   5.147   5.119
 7230SOL    HW222590   3.543   5.210   5.263
 7231SOL     OW22591   4.032   0.559   6.499
 7231SOL    HW122592   3.969   0.486   6.472
 7231SOL    HW222593   4.123   0.522   6.513
 7232SOL     OW22594   5.177   5.906   2.723
 7232SOL    HW122595   5.106   5.947   2.781
 7232SOL    HW222596   5.148   5.908   2.628
 7233SOL     OW22597   1.183   1.194   3.759
 7233SOL    HW122598   1.127   1.238   3.688
 7233SOL    HW222599   1.279   1.194   3.730
 7234SOL     OW22600   5.208   2.444   3.541
 7234SOL    HW122601   5.181   2.421   3.635
 7234SOL    HW222602   5.245   2.362   3.497
 7235SOL     OW22603   0.009   4.901   2.648
 7235SOL    HW122604   0.022   4.935   2.555
 7235SOL    HW222605   6.939   4.902   2.671
 7236SOL     OW22606   2.698   2.127   1.642
 7236SOL    HW122607   2.786   2.175   1.646
 7236SOL    HW222608   2.712   2.037   1.602
 7237SOL     OW22609   3.907   0.245   4.459
 7237SOL    HW122610   3.977   0.246   4.389
 7237SOL    HW222611   3.928   0.174   4.527
 7238SOL     OW22612   4.282   2.066   6.965
 7238SOL    HW122613   4.256   1.969   6.971
 7238SOL    HW222614   4.301   2.101   0.029
 7239SOL     OW22615   0.985   2.061   2.204
 7239SOL    HW122616   1.074   2.090   2.238
 7239SOL    HW222617   0.957   2.120   2.128
 7240SOL     OW22618   1.277   0.881   6.106
 7240SOL    HW122619   1.249   0.958   6.164
 7240SOL    HW222620   1.286   0.799   6.162
 7241SOL     OW22621   1.997   0.177   1.118
 7241SOL    HW122622   2.052   0.099   1.086
 7241SOL    HW222623   2.057   0.254   1.137
 7242SOL     OW22624   6.791   5.848   6.934
 7242SOL    HW122625   6.850   5.917   6.975
 7242SOL    HW222626   6.703   5.846   6.981
 7243SOL     OW22627   6.552   4.125   6.442
 7243SOL    HW122628   6.522   4.036   6.476
 7243SOL    HW222629   6.627   4.113   6.377
 7244SOL     OW22630   6.657   0.627   2.170
 7244SOL    HW122631   6.731   0.560   2.181
 7244SOL    HW222632   6.585   0.608   2.237
 7245SOL     OW22633   1.967   3.103   5.288
 7245SOL    HW122634   2.055   3.145   5.267
 7245SOL    HW222635   1.895   3.171   5.284
 7246SOL     OW22636   0.783   0.182   3.976
 7246SOL    HW122637   0.794   0.281   3.988
 7246SOL    HW222638   0.747   0.165   3.884
 7247SOL     OW22639   2.540   1.127   4.314
 7247SOL    HW122640   2.506   1.165   4.400
 7247SOL    HW222641   2.481   1.156   4.239
 7248SOL     OW22642   2.725   1.302   3.330
 7248SOL    HW122643   2.665   1.289   3.409
 7248SOL    HW222644   2.678   1.359   3.262
 7249SOL     OW22645   6.197   5.290   2.411
 7249SOL    HW122646   6.284   5.260   2.450
 7249SOL    HW222647   6.214   5.341   2.326
 7250SOL     OW22648   5.516   6.129   6.095
 7250SOL    HW122649   5.473   6.199   6.151
 7250SOL    HW222650   5.458   6.109   6.016
 7251SOL     OW22651   0.448   6.325   5.422
 7251SOL    HW122652   0.508   6.246   5.414
 7251SOL    HW222653   0.364   6.298   5.469
 7252SOL     OW22654   4.042   3.064   2.196
 7252SOL    HW122655   4.114   3.004   2.230
 7252SOL    HW222656   4.046   3.152   2.245
 7253SOL     OW22657   1.414   5.944   6.831
 7253SOL    HW122658   1.338   5.880   6.842
 7253SOL    HW222659   1.465   5.922   6.748
 7254SOL     OW22660   4.987   4.967   4.631
 7254SOL    HW122661   4.898   4.971   4.586
 7254SOL    HW222662   5.059   4.957   4.562
 7255SOL     OW22663   3.735   4.000   0.793
 7255SOL    HW122664   3.742   3.911   0.838
 7255SOL    HW222665   3.822   4.048   0.801
 7256SOL     OW22666   3.215   5.648   4.816
 7256SOL    HW122667   3.227   5.649   4.717
 7256SOL    HW222668   3.290   5.698   4.859
 7257SOL     OW22669   5.630   1.596   3.188
 7257SOL    HW122670   5.623   1.564   3.282
 7257SOL    HW222671   5.540   1.626   3.156
 7258SOL     OW22672   5.019   1.659   2.579
 7258SOL    HW122673   5.004   1.729   2.648
 7258SOL    HW222674   5.080   1.693   2.508
 7259SOL     OW22675   2.224   3.881   0.858
 7259SOL    HW122676   2.174   3.968   0.866
 7259SOL    HW222677   2.226   3.836   0.947
 7260SOL     OW22678   4.254   1.889   1.459
 7260SOL    HW122679   4.338   1.874   1.511
 7260SOL    HW222680   4.182   1.828   1.494
 7261SOL     OW22681   1.571   3.063   1.249
 7261SOL    HW122682   1.551   3.076   1.346
 7261SOL    HW222683   1.561   3.151   1.202
 7262SOL     OW22684   5.225   2.611   6.419
 7262SOL    HW122685   5.156   2.540   6.431
 7262SOL    HW222686   5.197   2.672   6.344
 7263SOL     OW22687   1.338   0.240   0.149
 7263SOL    HW122688   1.300   0.148   0.153
 7263SOL    HW222689   1.428   0.238   0.105
 7264SOL     OW22690   4.963   2.052   6.749
 7264SOL    HW122691   5.018   2.030   6.829
 7264SOL    HW222692   4.875   2.091   6.778
 7265SOL     OW22693   5.923   5.247   5.486
 7265SOL    HW122694   6.004   5.188   5.490
 7265SOL    HW222695   5.883   5.254   5.578
 7266SOL     OW22696   5.558   6.314   1.947
 7266SOL    HW122697   5.473   6.366   1.936
 7266SOL    HW222698   5.624   6.342   1.877
 7267SOL     OW22699   6.459   6.404   5.183
 7267SOL    HW122700   6.412   6.479   5.136
 7267SOL    HW222701   6.420   6.391   5.274
 7268SOL     OW22702   6.261   5.235   3.560
 7268SOL    HW122703   6.219   5.257   3.648
 7268SOL    HW222704   6.357   5.263   3.562
 7269SOL     OW22705   7.023   6.489   6.802
 7269SOL    HW122706   0.013   6.497   6.704
 7269SOL    HW222707   0.034   6.569   6.849
 7270SOL     OW22708   1.560   3.545   5.472
 7270SOL    HW122709   1.511   3.606   5.534
 7270SOL    HW222710   1.569   3.587   5.382
 7271SOL     OW22711   0.418   6.193   3.502
 7271SOL    HW122712   0.479   6.267   3.474
 7271SOL    HW222713   0.343   6.231   3.556
 7272SOL     OW22714   6.074   5.274   2.657
 7272SOL    HW122715   6.002   5.207   2.677
 7272SOL    HW222716   6.094   5.274   2.559
 7273SOL     OW22717   6.657   4.726   1.982
 7273SOL    HW122718   6.601   4.684   1.911
 7273SOL    HW222719   6.752   4.729   1.952
 7274SOL     OW22720   0.362   5.214   6.558
 7274SOL    HW122721   0.422   5.275   6.506
 7274SOL    HW222722   0.273   5.207   6.512
 7275SOL     OW22723   0.116   6.170   2.328
 7275SOL    HW122724   0.210   6.190   2.302
 7275SOL    HW222725   0.099   6.204   2.421
 7276SOL     OW22726   3.710   1.005   3.495
 7276SOL    HW122727   3.808   1.003   3.513
 7276SOL    HW222728   3.668   1.081   3.545
 7277SOL     OW22729   4.246   0.927   4.123
 7277SOL    HW122730   4.223   0.925   4.025
 7277SOL    HW222731   4.183   0.989   4.170
 7278SOL     OW22732   3.524   2.562   1.203
 7278SOL    HW122733   3.561   2.471   1.222
 7278SOL    HW222734   3.511   2.612   1.289
 7279SOL     OW22735   4.320   3.978   5.957
 7279SOL    HW122736   4.268   4.021   5.884
 7279SOL    HW222737   4.319   3.878   5.946
 7280SOL     OW22738   0.219   1.511   3.547
 7280SOL    HW122739   0.239   1.467   3.635
 7280SOL    HW222740   0.253   1.605   3.548
 7281SOL     OW22741   1.966   1.130   0.543
 7281SOL    HW122742   2.044   1.068   0.533
 7281SOL    HW222743   1.961   1.191   0.464
 7282SOL     OW22744   6.076   5.674   1.833
 7282SOL    HW122745   6.035   5.610   1.767
 7282SOL    HW222746   6.007   5.741   1.861
 7283SOL     OW22747   4.941   0.409   2.651
 7283SOL    HW122748   4.949   0.501   2.688
 7283SOL    HW222749   5.031   0.366   2.647
 7284SOL     OW22750   0.213   2.405   5.630
 7284SOL    HW122751   0.229   2.324   5.573
 7284SOL    HW222752   0.224   2.487   5.574
 7285SOL     OW22753   5.357   3.267   2.460
 7285SOL    HW122754   5.437   3.317   2.427
 7285SOL    HW222755   5.387   3.185   2.509
 7286SOL     OW22756   2.064   1.009   1.004
 7286SOL    HW122757   1.970   0.977   1.021
 7286SOL    HW222758   2.086   0.997   0.907
 7287SOL     OW22759   0.438   2.420   5.287
 7287SOL    HW122760   0.415   2.509   5.326
 7287SOL    HW222761   0.431   2.425   5.187
 7288SOL     OW22762   1.758   1.304   2.119
 7288SOL    HW122763   1.658   1.302   2.125
 7288SOL    HW222764   1.786   1.292   2.024
 7289SOL     OW22765   5.952   1.777   3.941
 7289SOL    HW122766   5.950   1.753   3.844
 7289SOL    HW222767   5.873   1.736   3.987
 7290SOL     OW22768   3.495   1.883   5.516
 7290SOL    HW122769   3.469   1.928   5.430
 7290SOL    HW222770   3.552   1.945   5.570
 7291SOL     OW22771   0.724   0.019   0.071
 7291SOL    HW122772   0.816   0.048   0.046
 7291SOL    HW222773   0.667   0.100   0.086
 7292SOL     OW22774   3.100   0.387   3.240
 7292SOL    HW122775   3.089   0.451   3.164
 7292SOL    HW222776   3.012   0.342   3.259
 7293SOL     OW22777   1.492   1.985   4.966
 7293SOL    HW122778   1.472   2.034   5.051
 7293SOL    HW222779   1.537   2.046   4.902
 7294SOL     OW22780   2.660   4.504   6.985
 7294SOL    HW122781   2.701   4.572   0.018
 7294SOL    HW222782   2.627   4.427   0.012
 7295SOL     OW22783   6.097   3.530   1.171
 7295SOL    HW122784   6.091   3.626   1.195
 7295SOL    HW222785   6.169   3.517   1.102
 7296SOL     OW22786   3.441   6.272   1.769
 7296SOL    HW122787   3.410   6.276   1.864
 7296SOL    HW222788   3.362   6.280   1.708
 7297SOL     OW22789   3.571   6.960   1.438
 7297SOL    HW122790   3.556   6.953   1.536
 7297SOL    HW222791   3.539   0.021   1.405
 7298SOL     OW22792   4.764   5.027   5.913
 7298SOL    HW122793   4.841   5.091   5.919
 7298SOL    HW222794   4.727   5.028   5.820
 7299SOL     OW22795   0.731   2.669   1.226
 7299SOL    HW122796   0.770   2.671   1.318
 7299SOL    HW222797   0.714   2.574   1.199
 7300SOL     OW22798   0.585   6.890   2.164
 7300SOL    HW122799   0.531   6.960   2.210
 7300SOL    HW222800   0.634   6.834   2.232
 7301SOL     OW22801   6.008   1.628   4.646
 7301SOL    HW122802   5.969   1.547   4.604
 7301SOL    HW222803   6.089   1.656   4.595
 7302SOL     OW22804   0.702   2.352   5.696
 7302SOL    HW122805   0.709   2.256   5.670
 7302SOL    HW222806   0.731   2.362   5.791
 7303SOL     OW22807   4.172   0.853   0.023
 7303SOL    HW122808   4.232   0.809   6.984
 7303SOL    HW222809   4.197   0.824   0.115
 7304SOL     OW22810   3.045   5.764   1.554
 7304SOL    HW122811   3.126   5.782   1.609
 7304SOL    HW222812   3.072   5.725   1.466
 7305SOL     OW22813   5.380   1.416   0.725
 7305SOL    HW122814   5.475   1.447   0.718
 7305SOL    HW222815   5.356   1.406   0.821
 7306SOL     OW22816   4.307   1.658   1.284
 7306SOL    HW122817   4.269   1.731   1.341
 7306SOL    HW222818   4.366   1.600   1.339
 7307SOL     OW22819   2.382   6.820   2.826
 7307SOL    HW122820   2.321   6.855   2.898
 7307SOL    HW222821   2.337   6.826   2.738
 7308SOL     OW22822   6.888   2.858   5.022
 7308SOL    HW122823   6.908   2.870   4.925
 7308SOL    HW222824   6.828   2.933   5.053
 7309SOL     OW22825   4.196   4.818   0.371
 7309SOL    HW122826   4.287   4.790   0.401
 7309SOL    HW222827   4.177   4.779   0.281
 7310SOL     OW22828   2.524   4.052   0.363
 7310SOL    HW122829   2.579   3.970   0.380
 7310SOL    HW222830   2.583   4.124   0.327
 7311SOL     OW22831   1.746   1.924   1.652
 7311SOL    HW122832   1.834   1.968   1.665
 7311SOL    HW222833   1.728   1.912   1.555
 7312SOL     OW22834   1.243   3.128   4.991
 7312SOL    HW122835   1.266   3.181   4.910
 7312SOL    HW222836   1.238   3.031   4.967
 7313SOL     OW22837   2.337   1.032   1.084
 7313SOL    HW122838   2.373   0.986   1.165
 7313SOL    HW222839   2.238   1.018   1.080
 7314SOL     OW22840   0.121   5.221   6.423
 7314SOL    HW122841   0.072   5.149   6.474
 7314SOL    HW222842   0.081   5.229   6.331
 7315SOL     OW22843   6.374   6.075   1.815
 7315SOL    HW122844   6.300   6.081   1.882
 7315SOL    HW222845   6.453   6.127   1.849
 7316SOL     OW22846   3.793   3.502   6.431
 7316SOL    HW122847   3.888   3.534   6.426
 7316SOL    HW222848   3.772   3.449   6.349
 7317SOL     OW22849   4.515   1.644   2.195
 7317SOL    HW122850   4.464   1.724   2.165
 7317SOL    HW222851   4.492   1.624   2.290
 7318SOL     OW22852   2.637   0.356   1.876
 7318SOL    HW122853   2.673   0.297   1.948
 7318SOL    HW222854   2.705   0.426   1.853
 7319SOL     OW22855   6.756   3.578   7.020
 7319SOL    HW122856   6.816   3.561   0.071
 7319SOL    HW222857   6.661   3.563   0.019
 7320SOL     OW22858   1.181   3.788   2.393
 7320SOL    HW122859   1.090   3.811   2.427
 7320SOL    HW222860   1.243   3.772   2.470
 7321SOL     OW22861   1.322   6.439   6.255
 7321SOL    HW122862   1.312   6.434   6.355
 7321SOL    HW222863   1.415   6.469   6.232
 7322SOL     OW22864   7.023   2.944   3.030
 7322SOL    HW122865   6.969   3.012   2.981
 7322SOL    HW222866   0.086   2.982   3.049
 7323SOL     OW22867   2.201   2.666   1.141
 7323SOL    HW122868   2.214   2.722   1.060
 7323SOL    HW222869   2.202   2.724   1.222
 7324SOL     OW22870   5.611   5.901   1.408
 7324SOL    HW122871   5.696   5.891   1.356
 7324SOL    HW222872   5.630   5.946   1.495
 7325SOL     OW22873   2.891   0.638   6.440
 7325SOL    HW122874   2.823   0.700   6.479
 7325SOL    HW222875   2.980   0.654   6.484
 7326SOL     OW22876   2.698   6.284   6.585
 7326SOL    HW122877   2.663   6.270   6.492
 7326SOL    HW222878   2.786   6.331   6.580
 7327SOL     OW22879   6.050   1.920   5.902
 7327SOL    HW122880   5.961   1.961   5.923
 7327SOL    HW222881   6.115   1.943   5.975
 7328SOL     OW22882   4.059   0.560   5.965
 7328SOL    HW122883   4.018   0.611   6.041
 7328SOL    HW222884   4.062   0.463   5.988
 7329SOL     OW22885   0.805   3.624   0.939
 7329SOL    HW122886   0.854   3.649   1.022
 7329SOL    HW222887   0.710   3.656   0.946
 7330SOL     OW22888   1.756   2.817   7.006
 7330SOL    HW122889   1.668   2.832   6.961
 7330SOL    HW222890   1.818   2.772   6.942
 7331SOL     OW22891   5.443   6.100   1.314
 7331SOL    HW122892   5.445   6.178   1.377
 7331SOL    HW222893   5.520   6.039   1.333
 7332SOL     OW22894   3.334   5.821   6.855
 7332SOL    HW122895   3.237   5.801   6.843
 7332SOL    HW222896   3.350   5.850   6.950
 7333SOL     OW22897   6.598   3.212   2.805
 7333SOL    HW122898   6.589   3.258   2.717
 7333SOL    HW222899   6.514   3.225   2.858
 7334SOL     OW22900   1.810   5.795   6.363
 7334SOL    HW122901   1.718   5.757   6.375
 7334SOL    HW222902   1.842   5.777   6.270
 7335SOL     OW22903   0.720   2.845   3.317
 7335SOL    HW122904   0.685   2.794   3.238
 7335SOL    HW222905   0.819   2.858   3.307
 7336SOL     OW22906   1.825   6.614   2.704
 7336SOL    HW122907   1.883   6.668   2.643
 7336SOL    HW222908   1.834   6.517   2.681
 7337SOL     OW22909   0.437   3.078   1.077
 7337SOL    HW122910   0.395   2.999   1.121
 7337SOL    HW222911   0.482   3.050   0.992
 7338SOL     OW22912   4.808   1.604   2.135
 7338SOL    HW122913   4.837   1.559   2.220
 7338SOL    HW222914   4.713   1.633   2.144
 7339SOL     OW22915   5.856   0.910   4.513
 7339SOL    HW122916   5.908   0.893   4.597
 7339SOL    HW222917   5.763   0.877   4.525
 7340SOL     OW22918   3.350   1.329   0.517
 7340SOL    HW122919   3.331   1.242   0.562
 7340SOL    HW222920   3.368   1.313   0.420
 7341SOL     OW22921   0.525   4.334   5.971
 7341SOL    HW122922   0.608   4.387   5.987
 7341SOL    HW222923   0.544   4.237   5.979
 7342SOL     OW22924   6.974   0.960   0.229
 7342SOL    HW122925   6.898   0.979   0.167
 7342SOL    HW222926   6.947   0.886   0.291
 7343SOL     OW22927   6.428   4.700   2.155
 7343SOL    HW122928   6.366   4.767   2.114
 7343SOL    HW222929   6.510   4.691   2.098
 7344SOL     OW22930   0.744   1.150   6.011
 7344SOL    HW122931   0.792   1.150   6.099
 7344SOL    HW222932   0.660   1.097   6.019
 7345SOL     OW22933   5.117   5.155   5.430
 7345SOL    HW122934   5.041   5.165   5.493
 7345SOL    HW222935   5.087   5.102   5.350
 7346SOL     OW22936   4.485   5.107   1.664
 7346SOL    HW122937   4.520   5.069   1.750
 7346SOL    HW222938   4.559   5.113   1.598
 7347SOL     OW22939   0.354   2.348   0.629
 7347SOL    HW122940   0.397   2.422   0.680
 7347SOL    HW222941   0.360   2.264   0.683
 7348SOL     OW22942   1.582   3.749   4.183
 7348SOL    HW122943   1.513   3.806   4.228
 7348SOL    HW222944   1.607   3.791   4.095
 7349SOL     OW22945   4.833   1.760   1.685
 7349SOL    HW122946   4.873   1.690   1.626
 7349SOL    HW222947   4.905   1.804   1.738
 7350SOL     OW22948   1.905   2.820   5.651
 7350SOL    HW122949   1.835   2.774   5.597
 7350SOL    HW222950   1.915   2.915   5.619
 7351SOL     OW22951   5.023   6.945   4.993
 7351SOL    HW122952   5.101   6.885   4.976
 7351SOL    HW222953   4.970   6.955   4.909
 7352SOL     OW22954   1.977   2.331   3.034
 7352SOL    HW122955   1.947   2.275   2.957
 7352SOL    HW222956   1.938   2.295   3.119
 7353SOL     OW22957   0.809   0.646   6.627
 7353SOL    HW122958   0.823   0.739   6.661
 7353SOL    HW222959   0.711   0.625   6.628
 7354SOL     OW22960   6.990   1.675   5.787
 7354SOL    HW122961   6.900   1.712   5.811
 7354SOL    HW222962   7.005   1.687   5.689
 7355SOL     OW22963   2.159   0.697   0.950
 7355SOL    HW122964   2.168   0.735   1.042
 7355SOL    HW222965   2.134   0.770   0.887
 7356SOL     OW22966   4.043   3.908   5.669
 7356SOL    HW122967   3.948   3.901   5.699
 7356SOL    HW222968   4.047   3.896   5.570
 7357SOL     OW22969   4.171   6.728   1.748
 7357SOL    HW122970   4.096   6.781   1.708
 7357SOL    HW222971   4.239   6.790   1.787
 7358SOL     OW22972   6.081   3.577   3.014
 7358SOL    HW122973   6.089   3.548   3.110
 7358SOL    HW222974   6.134   3.661   3.000
 7359SOL     OW22975   2.421   1.860   6.624
 7359SOL    HW122976   2.354   1.934   6.615
 7359SOL    HW222977   2.513   1.897   6.614
 7360SOL     OW22978   2.998   3.838   5.602
 7360SOL    HW122979   2.918   3.795   5.644
 7360SOL    HW222980   3.072   3.771   5.595
 7361SOL     OW22981   4.405   6.883   1.866
 7361SOL    HW122982   4.390   6.797   1.914
 7361SOL    HW222983   4.484   6.930   1.906
 7362SOL     OW22984   1.548   4.836   5.014
 7362SOL    HW122985   1.518   4.908   4.952
 7362SOL    HW222986   1.566   4.752   4.962
 7363SOL     OW22987   4.325   2.120   1.695
 7363SOL    HW122988   4.345   2.214   1.724
 7363SOL    HW222989   4.252   2.083   1.751
 7364SOL     OW22990   4.340   0.637   1.959
 7364SOL    HW122991   4.269   0.582   1.914
 7364SOL    HW222992   4.430   0.599   1.937
 7365SOL     OW22993   0.820   5.503   1.866
 7365SOL    HW122994   0.877   5.465   1.939
 7365SOL    HW222995   0.751   5.435   1.839
 7366SOL     OW22996   2.249   5.775   6.751
 7366SOL    HW122997   2.293   5.864   6.739
 7366SOL    HW222998   2.197   5.752   6.669
 7367SOL     OW22999   5.081   2.288   1.301
 7367SOL    HW123000   5.125   2.217   1.246
 7367SOL    HW223001   5.006   2.249   1.352
 7368SOL     OW23002   3.751   2.997   2.633
 7368SOL    HW123003   3.700   2.925   2.585
 7368SOL    HW223004   3.725   2.996   2.730
 7369SOL     OW23005   4.079   2.871   0.225
 7369SOL    HW123006   4.111   2.958   0.262
 7369SOL    HW223007   4.133   2.797   0.264
 7370SOL     OW23008   2.340   0.462   4.528
 7370SOL    HW123009   2.321   0.512   4.444
 7370SOL    HW223010   2.389   0.377   4.506
 7371SOL     OW23011   1.949   6.516   3.586
 7371SOL    HW123012   1.960   6.583   3.659
 7371SOL    HW223013   1.878   6.547   3.522
 7372SOL     OW23014   4.349   1.390   4.475
 7372SOL    HW123015   4.257   1.371   4.440
 7372SOL    HW223016   4.373   1.484   4.455
 7373SOL     OW23017   6.221   2.056   3.984
 7373SOL    HW123018   6.123   2.072   3.996
 7373SOL    HW223019   6.263   2.136   3.941
 7374SOL     OW23020   2.513   1.860   5.324
 7374SOL    HW123021   2.472   1.869   5.415
 7374SOL    HW223022   2.468   1.786   5.274
 7375SOL     OW23023   1.885   2.595   3.367
 7375SOL    HW123024   1.834   2.537   3.431
 7375SOL    HW223025   1.977   2.557   3.355
 7376SOL     OW23026   2.626   1.158   0.498
 7376SOL    HW123027   2.605   1.251   0.469
 7376SOL    HW223028   2.717   1.132   0.464
 7377SOL     OW23029   5.817   4.552   0.531
 7377SOL    HW123030   5.912   4.578   0.514
 7377SOL    HW223031   5.780   4.505   0.451
 7378SOL     OW23032   0.135   0.904   5.887
 7378SOL    HW123033   0.097   0.996   5.881
 7378SOL    HW223034   0.174   0.890   5.978
 7379SOL     OW23035   2.979   1.740   2.867
 7379SOL    HW123036   2.928   1.674   2.923
 7379SOL    HW223037   3.014   1.694   2.785
 7380SOL     OW23038   6.707   4.539   4.372
 7380SOL    HW123039   6.733   4.571   4.463
 7380SOL    HW223040   6.620   4.582   4.346
 7381SOL     OW23041   4.567   3.958   1.343
 7381SOL    HW123042   4.655   3.926   1.310
 7381SOL    HW223043   4.528   4.023   1.277
 7382SOL     OW23044   6.792   6.083   5.758
 7382SOL    HW123045   6.874   6.052   5.709
 7382SOL    HW223046   6.819   6.143   5.833
 7383SOL     OW23047   1.819   6.778   1.103
 7383SOL    HW123048   1.719   6.774   1.105
 7383SOL    HW223049   1.850   6.854   1.161
 7384SOL     OW23050   6.207   6.864   2.567
 7384SOL    HW123051   6.155   6.838   2.486
 7384SOL    HW223052   6.246   6.955   2.553
 7385SOL     OW23053   3.966   6.110   2.113
 7385SOL    HW123054   4.024   6.049   2.166
 7385SOL    HW223055   3.892   6.144   2.170
 7386SOL     OW23056   0.430   2.109   6.047
 7386SOL    HW123057   0.366   2.184   6.063
 7386SOL    HW223058   0.524   2.143   6.050
 7387SOL     OW23059   5.550   6.524   4.484
 7387SOL    HW123060   5.591   6.494   4.398
 7387SOL    HW223061   5.617   6.577   4.537
 7388SOL     OW23062   0.263   4.875   2.200
 7388SOL    HW123063   0.274   4.974   2.187
 7388SOL    HW223064   0.171   4.849   2.172
 7389SOL     OW23065   6.600   3.861   6.483
 7389SOL    HW123066   6.686   3.858   6.534
 7389SOL    HW223067   6.596   3.785   6.419
 7390SOL     OW23068   1.098   1.898   0.209
 7390SOL    HW123069   1.025   1.956   0.244
 7390SOL    HW223070   1.060   1.831   0.146
 7391SOL     OW23071   4.121   3.712   3.862
 7391SOL    HW123072   4.220   3.722   3.876
 7391SOL    HW223073   4.085   3.645   3.927
 7392SOL     OW23074   2.447   6.165   0.090
 7392SOL    HW123075   2.487   6.224   0.160
 7392SOL    HW223076   2.363   6.205   0.056
 7393SOL     OW23077   6.205   4.365   2.868
 7393SOL    HW123078   6.133   4.309   2.908
 7393SOL    HW223079   6.192   4.461   2.895
 7394SOL     OW23080   2.230   2.929   6.163
 7394SOL    HW123081   2.155   2.864   6.148
 7394SOL    HW223082   2.247   2.981   6.080
 7395SOL     OW23083   1.612   2.565   1.061
 7395SOL    HW123084   1.680   2.497   1.033
 7395SOL    HW223085   1.657   2.651   1.082
 7396SOL     OW23086   1.467   6.766   0.887
 7396SOL    HW123087   1.552   6.739   0.844
 7396SOL    HW223088   1.437   6.854   0.850
 7397SOL     OW23089   4.493   5.200   4.749
 7397SOL    HW123090   4.516   5.111   4.788
 7397SOL    HW223091   4.394   5.216   4.759
 7398SOL     OW23092   2.339   4.562   4.747
 7398SOL    HW123093   2.331   4.655   4.784
 7398SOL    HW223094   2.401   4.563   4.668
 7399SOL     OW23095   0.969   2.569   5.331
 7399SOL    HW123096   1.063   2.567   5.364
 7399SOL    HW223097   0.920   2.488   5.365
 7400SOL     OW23098   3.925   2.262   5.613
 7400SOL    HW123099   3.979   2.255   5.697
 7400SOL    HW223100   3.889   2.355   5.605
 7401SOL     OW23101   1.818   1.737   4.603
 7401SOL    HW123102   1.781   1.826   4.575
 7401SOL    HW223103   1.873   1.749   4.686
 7402SOL     OW23104   2.839   6.009   6.438
 7402SOL    HW123105   2.747   6.031   6.406
 7402SOL    HW223106   2.893   6.093   6.445
 7403SOL     OW23107   2.122   3.573   2.260
 7403SOL    HW123108   2.160   3.539   2.174
 7403SOL    HW223109   2.147   3.511   2.335
 7404SOL     OW23110   2.700   5.478   1.531
 7404SOL    HW123111   2.741   5.424   1.458
 7404SOL    HW223112   2.764   5.485   1.608
 7405SOL     OW23113   3.641   4.971   4.354
 7405SOL    HW123114   3.547   4.986   4.321
 7405SOL    HW223115   3.705   5.015   4.292
 7406SOL     OW23116   0.287   2.514   3.400
 7406SOL    HW123117   0.343   2.512   3.482
 7406SOL    HW223118   0.268   2.609   3.374
 7407SOL     OW23119   1.036   6.846   4.932
 7407SOL    HW123120   1.058   6.766   4.987
 7407SOL    HW223121   1.051   6.825   4.835
 7408SOL     OW23122   3.143   4.071   6.974
 7408SOL    HW123123   3.103   4.158   6.945
 7408SOL    HW223124   3.077   3.997   6.958
 7409SOL     OW23125   5.654   2.236   7.020
 7409SOL    HW123126   5.664   2.177   6.940
 7409SOL    HW223127   5.735   2.294   0.002
 7410SOL     OW23128   7.026   6.978   0.749
 7410SOL    HW123129   0.062   6.903   0.766
 7410SOL    HW223130   6.982   7.005   0.835
 7411SOL     OW23131   2.052   0.094   6.108
 7411SOL    HW123132   2.032   0.116   6.012
 7411SOL    HW223133   2.041   7.022   6.122
 7412SOL     OW23134   5.114   0.216   2.138
 7412SOL    HW123135   5.049   0.265   2.080
 7412SOL    HW223136   5.202   0.210   2.091
 7413SOL     OW23137   5.403   5.856   3.770
 7413SOL    HW123138   5.342   5.935   3.765
 7413SOL    HW223139   5.495   5.885   3.796
 7414SOL     OW23140   0.392   0.831   3.766
 7414SOL    HW123141   0.427   0.800   3.854
 7414SOL    HW223142   0.292   0.832   3.768
 7415SOL     OW23143   1.628   5.013   3.468
 7415SOL    HW123144   1.538   4.982   3.439
 7415SOL    HW223145   1.676   5.054   3.390
 7416SOL     OW23146   1.837   1.424   2.696
 7416SOL    HW123147   1.825   1.523   2.694
 7416SOL    HW223148   1.874   1.397   2.786
 7417SOL     OW23149   1.360   1.298   0.370
 7417SOL    HW123150   1.363   1.201   0.395
 7417SOL    HW223151   1.330   1.351   0.449
 7418SOL     OW23152   2.369   5.940   0.413
 7418SOL    HW123153   2.367   5.915   0.316
 7418SOL    HW223154   2.411   5.866   0.466
 7419SOL     OW23155   6.719   2.944   4.099
 7419SOL    HW123156   6.619   2.940   4.096
 7419SOL    HW223157   6.755   2.861   4.141
 7420SOL     OW23158   0.413   7.024   1.203
 7420SOL    HW123159   0.454   0.079   1.164
 7420SOL    HW223160   0.483   6.953   1.213
 7421SOL     OW23161   4.210   4.508   0.761
 7421SOL    HW123162   4.229   4.446   0.685
 7421SOL    HW223163   4.184   4.598   0.725
 7422SOL     OW23164   0.402   3.289   2.562
 7422SOL    HW123165   0.391   3.276   2.660
 7422SOL    HW223166   0.471   3.227   2.527
 7423SOL     OW23167   5.920   2.722   5.719
 7423SOL    HW123168   5.997   2.664   5.694
 7423SOL    HW223169   5.939   2.766   5.807
 7424SOL     OW23170   6.346   6.312   5.716
 7424SOL    HW123171   6.355   6.384   5.646
 7424SOL    HW223172   6.409   6.330   5.791
 7425SOL     OW23173   4.126   6.164   6.706
 7425SOL    HW123174   4.040   6.137   6.663
 7425SOL    HW223175   4.146   6.101   6.781
 7426SOL     OW23176   3.059   1.693   5.757
 7426SOL    HW123177   3.012   1.625   5.700
 7426SOL    HW223178   3.154   1.702   5.726
 7427SOL     OW23179   4.201   0.910   3.623
 7427SOL    HW123180   4.199   0.835   3.556
 7427SOL    HW223181   4.293   0.948   3.628
 7428SOL     OW23182   4.195   1.925   5.346
 7428SOL    HW123183   4.123   1.857   5.363
 7428SOL    HW223184   4.169   2.011   5.390
 7429SOL     OW23185   0.383   6.575   4.424
 7429SOL    HW123186   0.345   6.660   4.388
 7429SOL    HW223187   0.309   6.509   4.440
 7430SOL     OW23188   1.472   3.482   0.411
 7430SOL    HW123189   1.406   3.417   0.449
 7430SOL    HW223190   1.523   3.439   0.337
 7431SOL     OW23191   1.607   2.843   3.521
 7431SOL    HW123192   1.670   2.885   3.455
 7431SOL    HW223193   1.614   2.891   3.608
 7432SOL     OW23194   0.738   1.034   3.100
 7432SOL    HW123195   0.704   1.125   3.077
 7432SOL    HW223196   0.838   1.035   3.099
 7433SOL     OW23197   4.303   6.333   5.872
 7433SOL    HW123198   4.210   6.325   5.907
 7433SOL    HW223199   4.301   6.368   5.778
 7434SOL     OW23200   4.978   6.149   5.715
 7434SOL    HW123201   4.960   6.126   5.619
 7434SOL    HW223202   5.030   6.075   5.758
 7435SOL     OW23203   3.548   5.767   0.875
 7435SOL    HW123204   3.467   5.733   0.923
 7435SOL    HW223205   3.560   5.718   0.789
 7436SOL     OW23206   5.272   3.756   5.754
 7436SOL    HW123207   5.214   3.675   5.750
 7436SOL    HW223208   5.226   3.832   5.706
 7437SOL     OW23209   2.024   6.043   0.056
 7437SOL    HW123210   1.929   6.040   0.027
 7437SOL    HW223211   2.045   5.960   0.108
 7438SOL     OW23212   1.232   6.122   0.106
 7438SOL    HW123213   1.290   6.111   0.187
 7438SOL    HW223214   1.182   6.037   0.090
 7439SOL     OW23215   1.733   6.521   5.862
 7439SOL    HW123216   1.676   6.554   5.937
 7439SOL    HW223217   1.690   6.441   5.821
 7440SOL     OW23218   0.064   2.563   4.353
 7440SOL    HW123219   0.144   2.620   4.375
 7440SOL    HW223220   7.026   2.568   4.429
 7441SOL     OW23221   5.035   6.669   4.251
 7441SOL    HW123222   4.969   6.719   4.307
 7441SOL    HW223223   5.107   6.731   4.220
 7442SOL     OW23224   6.400   1.234   5.800
 7442SOL    HW123225   6.474   1.290   5.765
 7442SOL    HW223226   6.336   1.291   5.852
 7443SOL     OW23227   6.861   6.283   1.958
 7443SOL    HW123228   6.934   6.238   1.906
 7443SOL    HW223229   6.869   6.382   1.946
 7444SOL     OW23230   5.673   2.079   5.608
 7444SOL    HW123231   5.676   2.023   5.691
 7444SOL    HW223232   5.652   2.174   5.633
 7445SOL     OW23233   3.996   0.885   1.084
 7445SOL    HW123234   3.941   0.967   1.068
 7445SOL    HW223235   3.936   0.805   1.082
 7446SOL     OW23236   5.949   3.438   0.941
 7446SOL    HW123237   6.001   3.352   0.943
 7446SOL    HW223238   5.986   3.501   1.008
 7447SOL     OW23239   0.084   3.072   6.973
 7447SOL    HW123240   7.025   3.120   6.986
 7447SOL    HW223241   0.123   3.098   6.885
 7448SOL     OW23242   6.346   6.780   5.052
 7448SOL    HW123243   6.278   6.707   5.062
 7448SOL    HW223244   6.436   6.740   5.038
 7449SOL     OW23245   0.778   4.051   2.176
 7449SOL    HW123246   0.736   4.120   2.118
 7449SOL    HW223247   0.722   3.969   2.177
 7450SOL     OW23248   5.361   2.539   4.695
 7450SOL    HW123249   5.330   2.446   4.678
 7450SOL    HW223250   5.300   2.604   4.650
 7451SOL     OW23251   6.911   6.694   2.869
 7451SOL    HW123252   7.002   6.672   2.833
 7451SOL    HW223253   6.910   6.682   2.968
 7452SOL     OW23254   6.225   6.690   4.480
 7452SOL    HW123255   6.207   6.673   4.577
 7452SOL    HW223256   6.227   6.603   4.431
 7453SOL     OW23257   4.871   6.590   5.846
 7453SOL    HW123258   4.915   6.652   5.910
 7453SOL    HW223259   4.783   6.560   5.884
 7454SOL     OW23260   1.069   2.490   1.800
 7454SOL    HW123261   0.998   2.450   1.742
 7454SOL    HW223262   1.079   2.587   1.779
 7455SOL     OW23263   6.570   2.781   2.204
 7455SOL    HW123264   6.644   2.722   2.172
 7455SOL    HW223265   6.504   2.726   2.256
 7456SOL     OW23266   1.019   1.258   3.982
 7456SOL    HW123267   1.076   1.240   3.901
 7456SOL    HW223268   1.074   1.247   4.064
 7457SOL     OW23269   3.496   0.488   5.974
 7457SOL    HW123270   3.428   0.420   6.000
 7457SOL    HW223271   3.550   0.453   5.897
 7458SOL     OW23272   1.342   6.324   5.633
 7458SOL    HW123273   1.247   6.333   5.664
 7458SOL    HW223274   1.390   6.258   5.691
 7459SOL     OW23275   4.605   0.384   2.269
 7459SOL    HW123276   4.654   0.391   2.356
 7459SOL    HW223277   4.506   0.385   2.287
 7460SOL     OW23278   1.186   4.960   0.737
 7460SOL    HW123279   1.110   4.947   0.674
 7460SOL    HW223280   1.240   5.040   0.709
 7461SOL     OW23281   5.855   0.673   6.167
 7461SOL    HW123282   5.921   0.692   6.094
 7461SOL    HW223283   5.851   0.575   6.184
 7462SOL     OW23284   1.826   3.984   2.275
 7462SOL    HW123285   1.726   3.977   2.285
 7462SOL    HW223286   1.860   3.900   2.232
 7463SOL     OW23287   3.149   5.168   0.477
 7463SOL    HW123288   3.069   5.114   0.450
 7463SOL    HW223289   3.227   5.144   0.419
 7464SOL     OW23290   5.503   0.010   5.427
 7464SOL    HW123291   5.443   0.088   5.445
 7464SOL    HW223292   5.449   6.953   5.424
 7465SOL     OW23293   2.030   5.499   6.898
 7465SOL    HW123294   2.059   5.516   6.803
 7465SOL    HW223295   1.995   5.584   6.937
 7466SOL     OW23296   0.474   1.085   4.744
 7466SOL    HW123297   0.508   1.156   4.682
 7466SOL    HW223298   0.529   1.002   4.734
 7467SOL     OW23299   0.726   1.419   0.689
 7467SOL    HW123300   0.676   1.464   0.616
 7467SOL    HW223301   0.662   1.367   0.747
 7468SOL     OW23302   5.968   2.649   3.330
 7468SOL    HW123303   5.957   2.727   3.391
 7468SOL    HW223304   6.031   2.672   3.257
 7469SOL     OW23305   6.407   0.333   0.527
 7469SOL    HW123306   6.453   0.396   0.465
 7469SOL    HW223307   6.322   0.302   0.485
 7470SOL     OW23308   6.238   4.023   2.809
 7470SOL    HW123309   6.149   3.984   2.788
 7470SOL    HW223310   6.231   4.122   2.816
 7471SOL     OW23311   5.323   6.911   5.627
 7471SOL    HW123312   5.231   6.946   5.643
 7471SOL    HW223313   5.391   6.977   5.659
 7472SOL     OW23314   6.008   0.056   5.516
 7472SOL    HW123315   5.920   0.015   5.492
 7472SOL    HW223316   6.037   0.120   5.445
 7473SOL     OW23317   5.941   5.618   3.639
 7473SOL    HW123318   5.961   5.658   3.550
 7473SOL    HW223319   6.026   5.581   3.678
 7474SOL     OW23320   0.828   1.547   6.075
 7474SOL    HW123321   0.811   1.559   6.173
 7474SOL    HW223322   0.740   1.535   6.028
 7475SOL     OW23323   5.035   2.685   2.438
 7475SOL    HW123324   5.051   2.725   2.348
 7475SOL    HW223325   5.048   2.586   2.433
 7476SOL     OW23326   3.188   0.453   3.907
 7476SOL    HW123327   3.266   0.424   3.852
 7476SOL    HW223328   3.214   0.455   4.003
 7477SOL     OW23329   0.463   1.397   5.735
 7477SOL    HW123330   0.393   1.329   5.755
 7477SOL    HW223331   0.496   1.386   5.641
 7478SOL     OW23332   5.766   4.119   5.597
 7478SOL    HW123333   5.784   4.170   5.681
 7478SOL    HW223334   5.673   4.081   5.601
 7479SOL     OW23335   4.017   2.142   2.379
 7479SOL    HW123336   3.937   2.158   2.321
 7479SOL    HW223337   3.993   2.158   2.475
 7480SOL     OW23338   1.316   4.387   2.430
 7480SOL    HW123339   1.294   4.289   2.430
 7480SOL    HW223340   1.233   4.439   2.410
 7481SOL     OW23341   6.156   5.577   1.010
 7481SOL    HW123342   6.190   5.627   0.930
 7481SOL    HW223343   6.200   5.613   1.092
 7482SOL     OW23344   4.894   2.651   3.147
 7482SOL    HW123345   4.795   2.657   3.145
 7482SOL    HW223346   4.923   2.555   3.146
 7483SOL     OW23347   4.749   2.931   4.469
 7483SOL    HW123348   4.824   2.982   4.512
 7483SOL    HW223349   4.703   2.990   4.403
 7484SOL     OW23350   1.473   6.743   4.793
 7484SOL    HW123351   1.566   6.773   4.771
 7484SOL    HW223352   1.419   6.822   4.822
 7485SOL     OW23353   3.344   6.917   4.626
 7485SOL    HW123354   3.394   7.003   4.616
 7485SOL    HW223355   3.246   6.935   4.629
 7486SOL     OW23356   1.892   6.307   0.456
 7486SOL    HW123357   1.906   6.211   0.431
 7486SOL    HW223358   1.910   6.365   0.377
 7487SOL     OW23359   1.780   6.951   3.474
 7487SOL    HW123360   1.706   7.009   3.442
 7487SOL    HW223361   1.743   6.865   3.511
 7488SOL     OW23362   2.747   6.116   4.205
 7488SOL    HW123363   2.813   6.182   4.241
 7488SOL    HW223364   2.785   6.024   4.212
 7489SOL     OW23365   5.842   2.506   5.383
 7489SOL    HW123366   5.772   2.555   5.434
 7489SOL    HW223367   5.799   2.436   5.326
 7490SOL     OW23368   1.172   0.069   2.455
 7490SOL    HW123369   1.091   0.091   2.510
 7490SOL    HW223370   1.253   0.072   2.513
 7491SOL     OW23371   5.249   2.697   6.910
 7491SOL    HW123372   5.309   2.624   6.942
 7491SOL    HW223373   5.155   2.678   6.939
 7492SOL     OW23374   1.721   0.343   3.300
 7492SOL    HW123375   1.753   0.424   3.250
 7492SOL    HW223376   1.677   0.373   3.385
 7493SOL     OW23377   0.382   3.335   6.630
 7493SOL    HW123378   0.411   3.429   6.613
 7493SOL    HW223379   0.399   3.311   6.726
 7494SOL     OW23380   5.246   1.673   2.815
 7494SOL    HW123381   5.266   1.598   2.752
 7494SOL    HW223382   5.151   1.701   2.805
 7495SOL     OW23383   1.939   2.002   6.669
 7495SOL    HW123384   2.020   2.043   6.711
 7495SOL    HW223385   1.867   1.992   6.738
 7496SOL     OW23386   6.412   3.622   4.184
 7496SOL    HW123387   6.345   3.697   4.187
 7496SOL    HW223388   6.502   3.660   4.164
 7497SOL     OW23389   2.625   4.520   6.704
 7497SOL    HW123390   2.694   4.448   6.701
 7497SOL    HW223391   2.604   4.542   6.799
 7498SOL     OW23392   3.120   0.482   5.204
 7498SOL    HW123393   3.065   0.527   5.133
 7498SOL    HW223394   3.206   0.532   5.215
 7499SOL     OW23395   3.484   1.167   3.434
 7499SOL    HW123396   3.499   1.103   3.359
 7499SOL    HW223397   3.567   1.220   3.450
 7500SOL     OW23398   3.205   5.956   3.101
 7500SOL    HW123399   3.258   5.889   3.048
 7500SOL    HW223400   3.127   5.987   3.046
 7501SOL     OW23401   5.237   3.639   4.866
 7501SOL    HW123402   5.263   3.601   4.955
 7501SOL    HW223403   5.149   3.602   4.839
 7502SOL     OW23404   3.198   0.508   4.744
 7502SOL    HW123405   3.140   0.579   4.703
 7502SOL    HW223406   3.153   0.472   4.826
 7503SOL     OW23407   1.735   6.956   0.841
 7503SOL    HW123408   1.647   6.981   0.801
 7503SOL    HW223409   1.752   7.012   0.921
 7504SOL     OW23410   0.795   6.504   3.562
 7504SOL    HW123411   0.800   6.407   3.537
 7504SOL    HW223412   0.827   6.559   3.485
 7505SOL     OW23413   1.535   2.988   5.758
 7505SOL    HW123414   1.472   3.034   5.821
 7505SOL    HW223415   1.599   3.055   5.720
 7506SOL     OW23416   4.974   1.346   3.348
 7506SOL    HW123417   5.002   1.346   3.445
 7506SOL    HW223418   5.049   1.382   3.293
 7507SOL     OW23419   6.925   1.507   2.485
 7507SOL    HW123420   6.933   1.453   2.569
 7507SOL    HW223421   6.998   1.481   2.422
 7508SOL     OW23422   1.330   6.879   1.430
 7508SOL    HW123423   1.347   6.863   1.333
 7508SOL    HW223424   1.333   6.792   1.479
 7509SOL     OW23425   6.171   4.279   0.685
 7509SOL    HW123426   6.104   4.292   0.758
 7509SOL    HW223427   6.229   4.200   0.707
 7510SOL     OW23428   3.523   3.599   5.294
 7510SOL    HW123429   3.521   3.628   5.390
 7510SOL    HW223430   3.433   3.615   5.253
 7511SOL     OW23431   2.909   5.872   4.162
 7511SOL    HW123432   3.000   5.901   4.132
 7511SOL    HW223433   2.858   5.835   4.084
 7512SOL     OW23434   2.542   6.821   6.364
 7512SOL    HW123435   2.485   6.800   6.443
 7512SOL    HW223436   2.509   6.769   6.284
 7513SOL     OW23437   1.695   1.108   1.705
 7513SOL    HW123438   1.674   1.012   1.723
 7513SOL    HW223439   1.707   1.122   1.606
 7514SOL     OW23440   2.853   5.471   1.754
 7514SOL    HW123441   2.902   5.385   1.765
 7514SOL    HW223442   2.911   5.546   1.787
 7515SOL     OW23443   6.889   5.576   4.982
 7515SOL    HW123444   6.951   5.651   4.959
 7515SOL    HW223445   6.905   5.547   5.076
 7516SOL     OW23446   6.613   5.927   6.121
 7516SOL    HW123447   6.564   6.013   6.103
 7516SOL    HW223448   6.644   5.888   6.034
 7517SOL     OW23449   0.718   2.065   0.538
 7517SOL    HW123450   0.719   2.162   0.513
 7517SOL    HW223451   0.707   2.056   0.637
 7518SOL     OW23452   4.366   4.701   4.000
 7518SOL    HW123453   4.411   4.790   4.009
 7518SOL    HW223454   4.268   4.715   3.984
 7519SOL     OW23455   0.454   6.458   4.152
 7519SOL    HW123456   0.523   6.405   4.103
 7519SOL    HW223457   0.384   6.396   4.188
 7520SOL     OW23458   2.074   0.047   2.057
 7520SOL    HW123459   2.104   0.018   1.966
 7520SOL    HW223460   2.123   0.130   2.084
 7521SOL     OW23461   4.582   3.008   5.727
 7521SOL    HW123462   4.649   2.991   5.655
 7521SOL    HW223463   4.508   2.941   5.719
 7522SOL     OW23464   1.623   1.444   5.807
 7522SOL    HW123465   1.637   1.526   5.864
 7522SOL    HW223466   1.558   1.383   5.852
 7523SOL     OW23467   5.631   0.142   6.657
 7523SOL    HW123468   5.674   0.085   6.586
 7523SOL    HW223469   5.702   0.197   6.702
 7524SOL     OW23470   1.333   2.571   5.140
 7524SOL    HW123471   1.263   2.561   5.070
 7524SOL    HW223472   1.405   2.633   5.107
 7525SOL     OW23473   3.446   0.673   6.309
 7525SOL    HW123474   3.352   0.656   6.338
 7525SOL    HW223475   3.453   0.765   6.271
 7526SOL     OW23476   3.725   3.330   1.544
 7526SOL    HW123477   3.651   3.287   1.493
 7526SOL    HW223478   3.797   3.263   1.563
 7527SOL     OW23479   3.176   5.874   3.565
 7527SOL    HW123480   3.101   5.930   3.531
 7527SOL    HW223481   3.140   5.801   3.623
 7528SOL     OW23482   6.209   2.071   0.732
 7528SOL    HW123483   6.130   2.107   0.782
 7528SOL    HW223484   6.262   2.011   0.791
 7529SOL     OW23485   5.012   1.622   4.298
 7529SOL    HW123486   4.995   1.711   4.256
 7529SOL    HW223487   5.020   1.632   4.397
 7530SOL     OW23488   0.221   3.088   2.195
 7530SOL    HW123489   0.299   3.026   2.183
 7530SOL    HW223490   0.136   3.036   2.192
 7531SOL     OW23491   5.671   3.051   4.613
 7531SOL    HW123492   5.701   2.991   4.539
 7531SOL    HW223493   5.747   3.110   4.641
 7532SOL     OW23494   4.617   5.829   0.060
 7532SOL    HW123495   4.668   5.859   7.007
 7532SOL    HW223496   4.552   5.758   0.034
 7533SOL     OW23497   3.583   1.035   1.499
 7533SOL    HW123498   3.657   1.085   1.455
 7533SOL    HW223499   3.495   1.062   1.459
 7534SOL     OW23500   4.037   6.508   4.967
 7534SOL    HW123501   3.950   6.519   4.917
 7534SOL    HW223502   4.021   6.520   5.065
 7535SOL     OW23503   1.969   0.563   4.659
 7535SOL    HW123504   1.983   0.587   4.562
 7535SOL    HW223505   2.010   0.474   4.678
 7536SOL     OW23506   4.979   4.843   4.213
 7536SOL    HW123507   5.027   4.910   4.155
 7536SOL    HW223508   4.943   4.889   4.294
 7537SOL     OW23509   2.843   5.750   1.758
 7537SOL    HW123510   2.790   5.832   1.737
 7537SOL    HW223511   2.916   5.739   1.690
 7538SOL     OW23512   1.963   2.550   1.204
 7538SOL    HW123513   2.045   2.602   1.179
 7538SOL    HW223514   1.946   2.479   1.136
 7539SOL     OW23515   1.817   3.588   3.838
 7539SOL    HW123516   1.846   3.682   3.819
 7539SOL    HW223517   1.797   3.542   3.752
 7540SOL     OW23518   3.900   0.604   4.810
 7540SOL    HW123519   3.983   0.633   4.763
 7540SOL    HW223520   3.854   0.533   4.757
 7541SOL     OW23521   0.262   4.477   5.259
 7541SOL    HW123522   0.183   4.536   5.273
 7541SOL    HW223523   0.258   4.399   5.322
 7542SOL     OW23524   1.307   5.143   0.035
 7542SOL    HW123525   1.399   5.132   7.024
 7542SOL    HW223526   1.297   5.237   0.069
 7543SOL     OW23527   3.854   1.237   5.606
 7543SOL    HW123528   3.934   1.180   5.626
 7543SOL    HW223529   3.816   1.272   5.691
 7544SOL     OW23530   6.814   2.417   2.537
 7544SOL    HW123531   6.732   2.378   2.579
 7544SOL    HW223532   6.871   2.458   2.607
 7545SOL     OW23533   0.543   5.324   0.279
 7545SOL    HW123534   0.592   5.251   0.230
 7545SOL    HW223535   0.489   5.377   0.214
 7546SOL     OW23536   3.508   2.002   1.215
 7546SOL    HW123537   3.603   1.990   1.185
 7546SOL    HW223538   3.506   2.015   1.314
 7547SOL     OW23539   5.157   1.576   0.334
 7547SOL    HW123540   5.222   1.556   0.261
 7547SOL    HW223541   5.068   1.599   0.295
 7548SOL     OW23542   4.279   2.205   0.166
 7548SOL    HW123543   4.192   2.253   0.178
 7548SOL    HW223544   4.339   2.226   0.244
 7549SOL     OW23545   3.597   2.905   0.002
 7549SOL    HW123546   3.641   2.992   0.024
 7549SOL    HW223547   3.527   2.885   0.070
 7550SOL     OW23548   2.101   4.778   3.559
 7550SOL    HW123549   2.089   4.871   3.594
 7550SOL    HW223550   2.023   4.722   3.588
 7551SOL     OW23551   5.353   3.265   6.100
 7551SOL    HW123552   5.263   3.225   6.115
 7551SOL    HW223553   5.422   3.192   6.096
 7552SOL     OW23554   1.479   6.030   2.658
 7552SOL    HW123555   1.384   6.044   2.685
 7552SOL    HW223556   1.488   5.943   2.610
 7553SOL     OW23557   4.129   6.493   5.227
 7553SOL    HW123558   4.218   6.459   5.195
 7553SOL    HW223559   4.099   6.438   5.305
 7554SOL     OW23560   5.077   1.112   6.573
 7554SOL    HW123561   5.175   1.131   6.577
 7554SOL    HW223562   5.062   1.022   6.532
 7555SOL     OW23563   2.264   4.936   6.224
 7555SOL    HW123564   2.310   4.895   6.303
 7555SOL    HW223565   2.236   4.864   6.160
 7556SOL     OW23566   2.212   2.976   0.725
 7556SOL    HW123567   2.228   2.963   0.628
 7556SOL    HW223568   2.159   3.060   0.738
 7557SOL     OW23569   5.110   0.679   5.734
 7557SOL    HW123570   5.047   0.629   5.794
 7557SOL    HW223571   5.170   0.614   5.687
 7558SOL     OW23572   2.200   2.489   4.409
 7558SOL    HW123573   2.235   2.437   4.487
 7558SOL    HW223574   2.210   2.587   4.426
 7559SOL     OW23575   4.521   3.795   0.461
 7559SOL    HW123576   4.583   3.791   0.382
 7559SOL    HW223577   4.571   3.825   0.542
 7560SOL     OW23578   4.886   6.555   0.954
 7560SOL    HW123579   4.878   6.460   0.924
 7560SOL    HW223580   4.820   6.573   1.028
 7561SOL     OW23581   0.724   2.869   6.706
 7561SOL    HW123582   0.699   2.928   6.629
 7561SOL    HW223583   0.689   2.910   6.791
 7562SOL     OW23584   0.627   5.618   5.106
 7562SOL    HW123585   0.607   5.704   5.060
 7562SOL    HW223586   0.544   5.583   5.149
 7563SOL     OW23587   3.103   0.207   1.563
 7563SOL    HW123588   3.125   0.191   1.659
 7563SOL    HW223589   3.125   0.126   1.509
 7564SOL     OW23590   3.913   0.222   3.671
 7564SOL    HW123591   3.876   0.269   3.751
 7564SOL    HW223592   3.993   0.167   3.698
 7565SOL     OW23593   5.527   3.028   6.629
 7565SOL    HW123594   5.610   3.020   6.574
 7565SOL    HW223595   5.452   3.057   6.570
 7566SOL     OW23596   6.727   4.693   3.292
 7566SOL    HW123597   6.756   4.690   3.196
 7566SOL    HW223598   6.627   4.683   3.297
 7567SOL     OW23599   1.691   1.756   4.969
 7567SOL    HW123600   1.745   1.779   5.050
 7567SOL    HW223601   1.672   1.840   4.917
 7568SOL     OW23602   5.233   5.364   2.727
 7568SOL    HW123603   5.204   5.432   2.794
 7568SOL    HW223604   5.155   5.307   2.703
 7569SOL     OW23605   3.581   5.095   6.008
 7569SOL    HW123606   3.535   5.106   6.097
 7569SOL    HW223607   3.512   5.090   5.936
 7570SOL     OW23608   5.196   3.861   5.252
 7570SOL    HW123609   5.106   3.840   5.213
 7570SOL    HW223610   5.262   3.874   5.178
 7571SOL     OW23611   4.411   4.701   2.904
 7571SOL    HW123612   4.358   4.691   2.819
 7571SOL    HW223613   4.506   4.672   2.887
 7572SOL     OW23614   4.385   1.118   1.873
 7572SOL    HW123615   4.373   1.039   1.933
 7572SOL    HW223616   4.464   1.171   1.902
 7573SOL     OW23617   0.119   0.245   5.216
 7573SOL    HW123618   0.112   0.195   5.302
 7573SOL    HW223619   0.153   0.183   5.144
 7574SOL     OW23620   4.903   0.809   5.283
 7574SOL    HW123621   4.978   0.830   5.220
 7574SOL    HW223622   4.919   0.721   5.326
 7575SOL     OW23623   5.616   0.851   6.235
 7575SOL    HW123624   5.700   0.809   6.201
 7575SOL    HW223625   5.636   0.945   6.264
 7576SOL     OW23626   5.496   3.000   0.678
 7576SOL    HW123627   5.560   2.936   0.636
 7576SOL    HW223628   5.507   2.998   0.777
 7577SOL     OW23629   0.444   6.773   6.825
 7577SOL    HW123630   0.485   6.774   6.734
 7577SOL    HW223631   0.407   6.682   6.845
 7578SOL     OW23632   3.508   5.462   2.021
 7578SOL    HW123633   3.411   5.450   2.000
 7578SOL    HW223634   3.563   5.402   1.964
 7579SOL     OW23635   0.314   0.983   2.697
 7579SOL    HW123636   0.283   0.907   2.640
 7579SOL    HW223637   0.373   0.949   2.770
 7580SOL     OW23638   0.965   3.950   4.174
 7580SOL    HW123639   0.871   3.917   4.177
 7580SOL    HW223640   1.025   3.884   4.218
 7581SOL     OW23641   0.018   2.146   2.228
 7581SOL    HW123642   6.991   2.226   2.202
 7581SOL    HW223643   0.076   2.169   2.305
 7582SOL     OW23644   3.568   1.290   2.438
 7582SOL    HW123645   3.647   1.320   2.386
 7582SOL    HW223646   3.500   1.252   2.376
 7583SOL     OW23647   5.406   2.663   2.410
 7583SOL    HW123648   5.333   2.713   2.456
 7583SOL    HW223649   5.366   2.602   2.341
 7584SOL     OW23650   3.307   0.621   2.809
 7584SOL    HW123651   3.376   0.663   2.750
 7584SOL    HW223652   3.349   0.546   2.861
 7585SOL     OW23653   1.871   2.741   6.430
 7585SOL    HW123654   1.898   2.799   6.506
 7585SOL    HW223655   1.785   2.696   6.451
 7586SOL     OW23656   2.703   6.929   4.066
 7586SOL    HW123657   2.657   6.841   4.077
 7586SOL    HW223658   2.799   6.913   4.043
 7587SOL     OW23659   2.112   2.024   6.911
 7587SOL    HW123660   2.108   1.936   6.956
 7587SOL    HW223661   2.069   2.094   6.969
 7588SOL     OW23662   1.376   2.593   3.759
 7588SOL    HW123663   1.399   2.559   3.668
 7588SOL    HW223664   1.318   2.527   3.807
 7589SOL     OW23665   0.605   0.344   2.008
 7589SOL    HW123666   0.661   0.290   1.945
 7589SOL    HW223667   0.516   0.300   2.020
 7590SOL     OW23668   3.708   2.474   6.649
 7590SOL    HW123669   3.761   2.431   6.722
 7590SOL    HW223670   3.625   2.515   6.687
 7591SOL     OW23671   6.349   4.051   0.779
 7591SOL    HW123672   6.330   4.087   0.871
 7591SOL    HW223673   6.307   3.961   0.769
 7592SOL     OW23674   6.543   5.872   5.158
 7592SOL    HW123675   6.485   5.802   5.199
 7592SOL    HW223676   6.491   5.957   5.149
 7593SOL     OW23677   6.588   2.612   0.350
 7593SOL    HW123678   6.555   2.522   0.323
 7593SOL    HW223679   6.623   2.607   0.444
 7594SOL     OW23680   1.734   4.700   2.227
 7594SOL    HW123681   1.646   4.652   2.219
 7594SOL    HW223682   1.733   4.756   2.309
 7595SOL     OW23683   6.330   2.824   5.816
 7595SOL    HW123684   6.342   2.922   5.829
 7595SOL    HW223685   6.390   2.792   5.742
 7596SOL     OW23686   3.795   6.079   3.323
 7596SOL    HW123687   3.817   5.997   3.376
 7596SOL    HW223688   3.781   6.156   3.386
 7597SOL     OW23689   1.369   6.748   2.892
 7597SOL    HW123690   1.412   6.659   2.903
 7597SOL    HW223691   1.438   6.816   2.865
 7598SOL     OW23692   6.406   0.865   3.209
 7598SOL    HW123693   6.505   0.862   3.226
 7598SOL    HW223694   6.360   0.906   3.287
 7599SOL     OW23695   5.245   2.111   2.328
 7599SOL    HW123696   5.280   2.200   2.356
 7599SOL    HW223697   5.214   2.060   2.408
 7600SOL     OW23698   1.389   1.359   3.546
 7600SOL    HW123699   1.370   1.455   3.526
 7600SOL    HW223700   1.357   1.301   3.471
 7601SOL     OW23701   2.069   4.763   2.272
 7601SOL    HW123702   2.007   4.709   2.329
 7601SOL    HW223703   2.128   4.819   2.331
 7602SOL     OW23704   2.508   3.736   6.981
 7602SOL    HW123705   2.435   3.687   6.935
 7602SOL    HW223706   2.535   3.816   6.927
 7603SOL     OW23707   1.294   5.685   6.395
 7603SOL    HW123708   1.226   5.695   6.467
 7603SOL    HW223709   1.302   5.589   6.370
 7604SOL     OW23710   1.741   3.302   4.470
 7604SOL    HW123711   1.733   3.401   4.466
 7604SOL    HW223712   1.800   3.270   4.396
 7605SOL     OW23713   1.047   1.140   1.302
 7605SOL    HW123714   0.993   1.056   1.299
 7605SOL    HW223715   0.985   1.219   1.300
 7606SOL     OW23716   5.983   3.955   4.604
 7606SOL    HW123717   6.033   3.872   4.579
 7606SOL    HW223718   6.033   4.005   4.674
 7607SOL     OW23719   3.648   4.855   0.149
 7607SOL    HW123720   3.554   4.878   0.123
 7607SOL    HW223721   3.698   4.939   0.169
 7608SOL     OW23722   4.114   4.080   1.278
 7608SOL    HW123723   4.029   4.121   1.244
 7608SOL    HW223724   4.092   4.006   1.342
 7609SOL     OW23725   1.547   2.691   4.503
 7609SOL    HW123726   1.625   2.657   4.555
 7609SOL    HW223727   1.486   2.742   4.563
 7610SOL     OW23728   4.048   4.340   6.195
 7610SOL    HW123729   4.073   4.244   6.200
 7610SOL    HW223730   4.129   4.395   6.174
 7611SOL     OW23731   5.715   3.883   1.879
 7611SOL    HW123732   5.791   3.873   1.815
 7611SOL    HW223733   5.662   3.799   1.882
 7612SOL     OW23734   4.909   3.259   2.484
 7612SOL    HW123735   4.879   3.181   2.538
 7612SOL    HW223736   4.896   3.240   2.387
 7613SOL     OW23737   6.978   2.281   0.843
 7613SOL    HW123738   6.928   2.198   0.815
 7613SOL    HW223739   6.998   2.275   0.941
 7614SOL     OW23740   5.728   3.337   0.847
 7614SOL    HW123741   5.815   3.367   0.886
 7614SOL    HW223742   5.680   3.279   0.912
 7615SOL     OW23743   4.022   5.045   6.856
 7615SOL    HW123744   3.958   5.122   6.858
 7615SOL    HW223745   3.971   4.961   6.839
 7616SOL     OW23746   6.266   6.359   4.700
 7616SOL    HW123747   6.254   6.277   4.644
 7616SOL    HW223748   6.178   6.406   4.709
 7617SOL     OW23749   3.700   6.374   3.188
 7617SOL    HW123750   3.762   6.314   3.138
 7617SOL    HW223751   3.743   6.402   3.274
 7618SOL     OW23752   7.008   2.480   6.055
 7618SOL    HW123753   6.995   2.399   5.998
 7618SOL    HW223754   6.987   2.562   6.002
 7619SOL     OW23755   6.836   3.218   4.644
 7619SOL    HW123756   6.929   3.257   4.647
 7619SOL    HW223757   6.772   3.282   4.684
 7620SOL     OW23758   4.208   5.692   1.660
 7620SOL    HW123759   4.215   5.754   1.738
 7620SOL    HW223760   4.270   5.614   1.674
 7621SOL     OW23761   6.421   0.874   0.670
 7621SOL    HW123762   6.400   0.822   0.587
 7621SOL    HW223763   6.498   0.831   0.718
 7622SOL     OW23764   4.036   4.857   6.579
 7622SOL    HW123765   4.054   4.925   6.507
 7622SOL    HW223766   3.973   4.788   6.544
 7623SOL     OW23767   5.077   3.285   6.928
 7623SOL    HW123768   5.053   3.347   6.853
 7623SOL    HW223769   5.059   3.191   6.900
 7624SOL     OW23770   6.991   3.953   5.137
 7624SOL    HW123771   6.979   3.994   5.047
 7624SOL    HW223772   6.917   3.888   5.155
 7625SOL     OW23773   4.800   1.152   0.048
 7625SOL    HW123774   4.776   1.185   0.139
 7625SOL    HW223775   4.778   1.221   7.007
 7626SOL     OW23776   6.588   0.397   4.552
 7626SOL    HW123777   6.533   0.364   4.629
 7626SOL    HW223778   6.665   0.335   4.537
 7627SOL     OW23779   4.722   2.981   0.218
 7627SOL    HW123780   4.656   2.976   0.293
 7627SOL    HW223781   4.794   2.913   0.234
 7628SOL     OW23782   3.328   2.651   1.742
 7628SOL    HW123783   3.282   2.582   1.798
 7628SOL    HW223784   3.407   2.609   1.697
 7629SOL     OW23785   0.371   4.673   3.499
 7629SOL    HW123786   0.362   4.574   3.492
 7629SOL    HW223787   0.318   4.706   3.578
 7630SOL     OW23788   0.681   0.491   1.355
 7630SOL    HW123789   0.727   0.568   1.399
 7630SOL    HW223790   0.731   0.407   1.374
 7631SOL     OW23791   0.802   1.886   6.176
 7631SOL    HW123792   0.777   1.814   6.240
 7631SOL    HW223793   0.753   1.970   6.199
 7632SOL     OW23794   5.059   4.290   0.743
 7632SOL    HW123795   5.137   4.268   0.802
 7632SOL    HW223796   5.013   4.205   0.717
 7633SOL     OW23797   5.356   0.188   1.972
 7633SOL    HW123798   5.434   0.237   2.010
 7633SOL    HW223799   5.355   0.094   2.006
 7634SOL     OW23800   1.864   1.703   2.069
 7634SOL    HW123801   1.862   1.678   1.972
 7634SOL    HW223802   1.863   1.620   2.125
 7635SOL     OW23803   3.623   4.841   5.248
 7635SOL    HW123804   3.637   4.861   5.344
 7635SOL    HW223805   3.537   4.791   5.237
 7636SOL     OW23806   1.894   3.074   4.001
 7636SOL    HW123807   1.870   2.980   3.979
 7636SOL    HW223808   1.994   3.084   3.998
 7637SOL     OW23809   2.925   6.395   2.019
 7637SOL    HW123810   2.869   6.313   2.029
 7637SOL    HW223811   2.926   6.424   1.923
 7638SOL     OW23812   2.057   5.970   1.250
 7638SOL    HW123813   2.020   5.962   1.157
 7638SOL    HW223814   2.032   5.888   1.302
 7639SOL     OW23815   0.412   1.839   1.416
 7639SOL    HW123816   0.334   1.894   1.446
 7639SOL    HW223817   0.413   1.834   1.316
 7640SOL     OW23818   2.880   1.845   5.896
 7640SOL    HW123819   2.932   1.777   5.844
 7640SOL    HW223820   2.852   1.806   5.983
 7641SOL     OW23821   1.526   4.014   2.309
 7641SOL    HW123822   1.561   4.045   2.221
 7641SOL    HW223823   1.438   4.057   2.327
 7642SOL     OW23824   3.557   1.825   2.606
 7642SOL    HW123825   3.557   1.743   2.550
 7642SOL    HW223826   3.508   1.807   2.692
 7643SOL     OW23827   4.935   2.391   3.111
 7643SOL    HW123828   4.945   2.346   3.022
 7643SOL    HW223829   4.880   2.334   3.171
 7644SOL     OW23830   4.531   2.280   2.003
 7644SOL    HW123831   4.550   2.350   2.072
 7644SOL    HW223832   4.493   2.324   1.921
 7645SOL     OW23833   5.240   3.582   5.146
 7645SOL    HW123834   5.162   3.524   5.167
 7645SOL    HW223835   5.226   3.673   5.186
 7646SOL     OW23836   1.837   2.842   3.870
 7646SOL    HW123837   1.761   2.777   3.868
 7646SOL    HW223838   1.906   2.814   3.803
 7647SOL     OW23839   0.299   2.419   3.707
 7647SOL    HW123840   0.390   2.382   3.690
 7647SOL    HW223841   0.273   2.401   3.802
 7648SOL     OW23842   2.785   1.543   2.686
 7648SOL    HW123843   2.696   1.503   2.708
 7648SOL    HW223844   2.790   1.565   2.589
 7649SOL     OW23845   0.788   1.069   3.764
 7649SOL    HW123846   0.868   1.009   3.762
 7649SOL    HW223847   0.752   1.073   3.857
 7650SOL     OW23848   5.696   1.607   0.307
 7650SOL    HW123849   5.785   1.609   0.261
 7650SOL    HW223850   5.662   1.514   0.309
 7651SOL     OW23851   2.146   0.474   4.049
 7651SOL    HW123852   2.140   0.482   3.950
 7651SOL    HW223853   2.213   0.404   4.074
 7652SOL     OW23854   6.380   3.235   4.262
 7652SOL    HW123855   6.382   3.144   4.304
 7652SOL    HW223856   6.371   3.225   4.163
 7653SOL     OW23857   0.422   1.836   0.017
 7653SOL    HW123858   0.361   1.758   7.026
 7653SOL    HW223859   0.382   1.918   7.004
 7654SOL     OW23860   4.952   3.109   4.588
 7654SOL    HW123861   4.956   3.208   4.599
 7654SOL    HW223862   4.969   3.065   4.677
 7655SOL     OW23863   4.203   6.795   3.221
 7655SOL    HW123864   4.235   6.862   3.288
 7655SOL    HW223865   4.186   6.707   3.268
 7656SOL     OW23866   4.037   3.828   6.666
 7656SOL    HW123867   4.047   3.922   6.635
 7656SOL    HW223868   3.949   3.818   6.713
 7657SOL     OW23869   1.415   1.860   3.571
 7657SOL    HW123870   1.504   1.899   3.595
 7657SOL    HW223871   1.342   1.916   3.611
 7658SOL     OW23872   2.874   0.286   7.011
 7658SOL    HW123873   2.794   0.284   6.951
 7658SOL    HW223874   2.956   0.264   6.959
 7659SOL     OW23875   5.430   4.478   6.196
 7659SOL    HW123876   5.365   4.515   6.130
 7659SOL    HW223877   5.476   4.554   6.242
 7660SOL     OW23878   0.500   5.787   3.290
 7660SOL    HW123879   0.524   5.691   3.299
 7660SOL    HW223880   0.560   5.830   3.222
 7661SOL     OW23881   5.330   2.071   5.298
 7661SOL    HW123882   5.334   2.138   5.373
 7661SOL    HW223883   5.416   2.020   5.295
 7662SOL     OW23884   1.776   3.173   4.696
 7662SOL    HW123885   1.763   3.209   4.604
 7662SOL    HW223886   1.742   3.239   4.763
 7663SOL     OW23887   6.108   4.592   6.010
 7663SOL    HW123888   6.182   4.540   5.967
 7663SOL    HW223889   6.078   4.545   6.093
 7664SOL     OW23890   4.354   0.889   2.021
 7664SOL    HW123891   4.345   0.800   1.975
 7664SOL    HW223892   4.263   0.928   2.035
 7665SOL     OW23893   5.968   0.879   4.765
 7665SOL    HW123894   5.883   0.880   4.818
 7665SOL    HW223895   6.043   0.913   4.821
 7666SOL     OW23896   0.555   4.652   2.404
 7666SOL    HW123897   0.633   4.707   2.432
 7666SOL    HW223898   0.586   4.560   2.380
 7667SOL     OW23899   4.322   0.148   2.695
 7667SOL    HW123900   4.387   0.105   2.633
 7667SOL    HW223901   4.235   0.160   2.649
 7668SOL     OW23902   3.374   5.109   0.355
 7668SOL    HW123903   3.358   5.165   0.273
 7668SOL    HW223904   3.378   5.013   0.329
 7669SOL     OW23905   4.688   0.883   5.060
 7669SOL    HW123906   4.772   0.908   5.107
 7669SOL    HW223907   4.687   0.924   4.969
 7670SOL     OW23908   0.914   4.269   0.478
 7670SOL    HW123909   1.013   4.278   0.487
 7670SOL    HW223910   0.873   4.264   0.569
 7671SOL     OW23911   3.804   1.559   2.189
 7671SOL    HW123912   3.898   1.585   2.212
 7671SOL    HW223913   3.765   1.626   2.126
 7672SOL     OW23914   6.945   6.322   3.134
 7672SOL    HW123915   6.970   6.245   3.075
 7672SOL    HW223916   7.016   6.336   3.203
 7673SOL     OW23917   1.705   6.391   1.367
 7673SOL    HW123918   1.778   6.400   1.298
 7673SOL    HW223919   1.650   6.475   1.368
 7674SOL     OW23920   4.596   1.459   3.504
 7674SOL    HW123921   4.550   1.373   3.481
 7674SOL    HW223922   4.692   1.441   3.522
 7675SOL     OW23923   6.304   6.954   2.813
 7675SOL    HW123924   6.260   6.927   2.728
 7675SOL    HW223925   6.332   0.023   2.807
 7676SOL     OW23926   2.506   1.698   0.270
 7676SOL    HW123927   2.591   1.659   0.306
 7676SOL    HW223928   2.503   1.795   0.292
 7677SOL     OW23929   1.101   4.389   1.479
 7677SOL    HW123930   1.098   4.376   1.578
 7677SOL    HW223931   1.072   4.305   1.433
 7678SOL     OW23932   2.534   2.781   5.311
 7678SOL    HW123933   2.556   2.871   5.274
 7678SOL    HW223934   2.434   2.769   5.309
 7679SOL     OW23935   3.093   6.659   5.896
 7679SOL    HW123936   3.114   6.564   5.921
 7679SOL    HW223937   3.017   6.692   5.952
 7680SOL     OW23938   1.429   0.175   1.026
 7680SOL    HW123939   1.475   0.102   0.975
 7680SOL    HW223940   1.344   0.139   1.065
 7681SOL     OW23941   2.835   0.520   0.844
 7681SOL    HW123942   2.755   0.525   0.904
 7681SOL    HW223943   2.844   0.427   0.808
 7682SOL     OW23944   3.499   0.331   2.411
 7682SOL    HW123945   3.445   0.344   2.494
 7682SOL    HW223946   3.595   0.351   2.431
 7683SOL     OW23947   6.429   2.304   4.163
 7683SOL    HW123948   6.473   2.214   4.154
 7683SOL    HW223949   6.399   2.336   4.073
 7684SOL     OW23950   4.007   1.866   1.297
 7684SOL    HW123951   4.007   1.798   1.370
 7684SOL    HW223952   3.951   1.944   1.324
 7685SOL     OW23953   2.755   1.461   5.712
 7685SOL    HW123954   2.725   1.554   5.688
 7685SOL    HW223955   2.760   1.453   5.811
 7686SOL     OW23956   0.278   6.401   3.648
 7686SOL    HW123957   0.340   6.468   3.690
 7686SOL    HW223958   0.247   6.436   3.560
 7687SOL     OW23959   6.093   5.477   4.229
 7687SOL    HW123960   6.140   5.426   4.301
 7687SOL    HW223961   6.064   5.415   4.157
 7688SOL     OW23962   0.642   5.700   5.662
 7688SOL    HW123963   0.690   5.630   5.714
 7688SOL    HW223964   0.672   5.697   5.566
 7689SOL     OW23965   5.842   6.382   2.554
 7689SOL    HW123966   5.938   6.407   2.542
 7689SOL    HW223967   5.831   6.331   2.639
 7690SOL     OW23968   6.143   4.435   0.216
 7690SOL    HW123969   6.105   4.518   0.256
 7690SOL    HW223970   6.074   4.363   0.217
 7691SOL     OW23971   4.840   3.867   3.437
 7691SOL    HW123972   4.902   3.936   3.474
 7691SOL    HW223973   4.880   3.776   3.448
 7692SOL     OW23974   0.774   5.960   1.664
 7692SOL    HW123975   0.734   5.873   1.691
 7692SOL    HW223976   0.713   6.008   1.602
 7693SOL     OW23977   3.162   0.136   1.837
 7693SOL    HW123978   3.196   0.043   1.835
 7693SOL    HW223979   3.066   0.137   1.811
 7694SOL     OW23980   4.923   3.782   4.069
 7694SOL    HW123981   4.899   3.720   3.994
 7694SOL    HW223982   5.015   3.819   4.053
 7695SOL     OW23983   4.562   6.986   1.291
 7695SOL    HW123984   4.497   6.918   1.258
 7695SOL    HW223985   4.561   6.988   1.391
 7696SOL     OW23986   0.504   1.322   6.176
 7696SOL    HW123987   0.510   1.275   6.088
 7696SOL    HW223988   0.573   1.284   6.239
 7697SOL     OW23989   2.502   7.003   3.456
 7697SOL    HW123990   2.552   6.921   3.483
 7697SOL    HW223991   2.428   6.977   3.393
 7698SOL     OW23992   5.395   1.739   3.760
 7698SOL    HW123993   5.426   1.685   3.838
 7698SOL    HW223994   5.394   1.836   3.786
 7699SOL     OW23995   3.127   6.255   6.239
 7699SOL    HW123996   3.073   6.256   6.323
 7699SOL    HW223997   3.159   6.347   6.219
 7700SOL     OW23998   5.163   5.578   2.923
 7700SOL    HW123999   5.172   5.520   3.003
 7700SOL    HW224000   5.070   5.573   2.887
 7701SOL     OW24001   6.349   2.157   6.495
 7701SOL    HW124002   6.275   2.221   6.516
 7701SOL    HW224003   6.404   2.194   6.420
 7702SOL     OW24004   4.111   6.203   5.070
 7702SOL    HW124005   4.030   6.158   5.032
 7702SOL    HW224006   4.105   6.301   5.054
 7703SOL     OW24007   6.033   6.425   5.832
 7703SOL    HW124008   5.971   6.452   5.905
 7703SOL    HW224009   6.083   6.343   5.858
 7704SOL     OW24010   5.801   0.500   4.016
 7704SOL    HW124011   5.853   0.430   4.065
 7704SOL    HW224012   5.844   0.518   3.927
 7705SOL     OW24013   2.717   6.232   0.678
 7705SOL    HW124014   2.695   6.149   0.627
 7705SOL    HW224015   2.696   6.218   0.775
 7706SOL     OW24016   3.325   3.755   5.085
 7706SOL    HW124017   3.326   3.852   5.113
 7706SOL    HW224018   3.411   3.734   5.038
 7707SOL     OW24019   0.687   3.793   5.843
 7707SOL    HW124020   0.622   3.829   5.776
 7707SOL    HW224021   0.712   3.699   5.818
 7708SOL     OW24022   0.742   6.712   5.557
 7708SOL    HW124023   0.771   6.785   5.495
 7708SOL    HW224024   0.651   6.734   5.593
 7709SOL     OW24025   6.802   4.567   2.186
 7709SOL    HW124026   6.746   4.633   2.137
 7709SOL    HW224027   6.761   4.549   2.276
 7710SOL     OW24028   3.451   2.548   0.321
 7710SOL    HW124029   3.530   2.514   0.373
 7710SOL    HW224030   3.472   2.639   0.285
 7711SOL     OW24031   5.588   6.121   5.763
 7711SOL    HW124032   5.591   6.221   5.762
 7711SOL    HW224033   5.659   6.085   5.702
 7712SOL     OW24034   6.664   5.087   1.334
 7712SOL    HW124035   6.592   5.114   1.397
 7712SOL    HW224036   6.710   5.168   1.299
 7713SOL     OW24037   1.753   4.383   0.783
 7713SOL    HW124038   1.824   4.431   0.835
 7713SOL    HW224039   1.789   4.357   0.693
 7714SOL     OW24040   0.273   4.275   5.436
 7714SOL    HW124041   0.316   4.185   5.439
 7714SOL    HW224042   0.175   4.265   5.422
 7715SOL     OW24043   3.178   2.609   0.238
 7715SOL    HW124044   3.258   2.574   0.288
 7715SOL    HW224045   3.200   2.615   0.141
 7716SOL     OW24046   0.009   4.739   1.316
 7716SOL    HW124047   0.011   4.792   1.400
 7716SOL    HW224048   0.085   4.766   1.257
 7717SOL     OW24049   1.250   0.861   5.847
 7717SOL    HW124050   1.250   0.860   5.947
 7717SOL    HW224051   1.193   0.937   5.815
 7718SOL     OW24052   6.401   4.521   3.672
 7718SOL    HW124053   6.436   4.592   3.734
 7718SOL    HW224054   6.303   4.509   3.687
 7719SOL     OW24055   0.243   3.901   5.175
 7719SOL    HW124056   0.150   3.940   5.176
 7719SOL    HW224057   0.270   3.885   5.080
 7720SOL     OW24058   6.577   2.817   6.639
 7720SOL    HW124059   6.598   2.783   6.548
 7720SOL    HW224060   6.555   2.915   6.634
 7721SOL     OW24061   0.612   5.112   2.523
 7721SOL    HW124062   0.706   5.080   2.539
 7721SOL    HW224063   0.555   5.034   2.496
 7722SOL     OW24064   1.448   3.941   3.576
 7722SOL    HW124065   1.383   3.985   3.639
 7722SOL    HW224066   1.539   3.943   3.616
 7723SOL     OW24067   4.582   3.437   6.324
 7723SOL    HW124068   4.676   3.469   6.329
 7723SOL    HW224069   4.559   3.414   6.229
 7724SOL     OW24070   2.983   3.624   0.743
 7724SOL    HW124071   3.044   3.545   0.742
 7724SOL    HW224072   2.903   3.603   0.798
 7725SOL     OW24073   6.113   1.322   2.526
 7725SOL    HW124074   6.044   1.290   2.591
 7725SOL    HW224075   6.068   1.364   2.447
 7726SOL     OW24076   2.118   5.104   5.599
 7726SOL    HW124077   2.108   5.019   5.546
 7726SOL    HW224078   2.214   5.132   5.599
 7727SOL     OW24079   6.513   2.850   2.606
 7727SOL    HW124080   6.560   2.824   2.690
 7727SOL    HW224081   6.506   2.770   2.546
 7728SOL     OW24082   2.230   3.166   5.238
 7728SOL    HW124083   2.292   3.128   5.169
 7728SOL    HW224084   2.240   3.116   5.324
 7729SOL     OW24085   6.240   1.739   1.418
 7729SOL    HW124086   6.271   1.710   1.509
 7729SOL    HW224087   6.155   1.692   1.395
 7730SOL     OW24088   6.384   4.869   6.814
 7730SOL    HW124089   6.362   4.966   6.811
 7730SOL    HW224090   6.483   4.857   6.823
 7731SOL     OW24091   5.778   1.042   0.187
 7731SOL    HW124092   5.680   1.052   0.169
 7731SOL    HW224093   5.822   1.132   0.180
 7732SOL     OW24094   4.605   6.713   0.327
 7732SOL    HW124095   4.532   6.660   0.372
 7732SOL    HW224096   4.587   6.718   0.229
 7733SOL     OW24097   5.545   6.088   2.109
 7733SOL    HW124098   5.565   6.133   2.196
 7733SOL    HW224099   5.542   6.156   2.036
 7734SOL     OW24100   1.632   4.671   4.141
 7734SOL    HW124101   1.672   4.733   4.075
 7734SOL    HW224102   1.539   4.647   4.113
 7735SOL     OW24103   4.695   6.389   6.218
 7735SOL    HW124104   4.758   6.346   6.283
 7735SOL    HW224105   4.604   6.350   6.228
 7736SOL     OW24106   2.341   2.635   6.928
 7736SOL    HW124107   2.440   2.627   6.919
 7736SOL    HW224108   2.303   2.546   6.953
 7737SOL     OW24109   2.927   6.831   2.570
 7737SOL    HW124110   2.896   6.803   2.661
 7737SOL    HW224111   2.875   6.911   2.541
 7738SOL     OW24112   3.466   5.462   0.365
 7738SOL    HW124113   3.537   5.477   0.296
 7738SOL    HW224114   3.441   5.550   0.406
 7739SOL     OW24115   0.298   2.524   2.075
 7739SOL    HW124116   0.337   2.548   2.164
 7739SOL    HW224117   0.231   2.593   2.048
 7740SOL     OW24118   2.764   0.629   3.129
 7740SOL    HW124119   2.685   0.592   3.080
 7740SOL    HW224120   2.846   0.576   3.106
 7741SOL     OW24121   0.145   4.949   5.864
 7741SOL    HW124122   0.120   4.873   5.805
 7741SOL    HW224123   0.136   4.922   5.960
 7742SOL     OW24124   4.318   2.359   2.841
 7742SOL    HW124125   4.245   2.324   2.898
 7742SOL    HW224126   4.406   2.350   2.888
 7743SOL     OW24127   4.796   2.012   0.155
 7743SOL    HW124128   4.751   2.101   0.159
 7743SOL    HW224129   4.891   2.025   0.125
 7744SOL     OW24130   0.954   0.900   4.641
 7744SOL    HW124131   0.872   0.956   4.637
 7744SOL    HW224132   0.929   0.804   4.646
 7745SOL     OW24133   4.081   1.033   6.860
 7745SOL    HW124134   3.986   1.007   6.841
 7745SOL    HW224135   4.112   0.989   6.944
 7746SOL     OW24136   0.811   0.803   0.619
 7746SOL    HW124137   0.711   0.805   0.615
 7746SOL    HW224138   0.844   0.880   0.674
 7747SOL     OW24139   5.729   6.441   1.028
 7747SOL    HW124140   5.726   6.433   0.928
 7747SOL    HW224141   5.664   6.377   1.068
 7748SOL     OW24142   2.971   3.833   4.581
 7748SOL    HW124143   2.914   3.793   4.510
 7748SOL    HW224144   3.050   3.774   4.598
 7749SOL     OW24145   3.367   3.273   5.632
 7749SOL    HW124146   3.432   3.258   5.558
 7749SOL    HW224147   3.341   3.186   5.672
 7750SOL     OW24148   6.947   5.863   0.576
 7750SOL    HW124149   7.025   5.858   0.513
 7750SOL    HW224150   6.863   5.876   0.523
 7751SOL     OW24151   1.391   2.754   2.917
 7751SOL    HW124152   1.336   2.718   2.992
 7751SOL    HW224153   1.484   2.772   2.950
 7752SOL     OW24154   6.028   6.307   5.245
 7752SOL    HW124155   5.937   6.349   5.241
 7752SOL    HW224156   6.054   6.276   5.153
 7753SOL     OW24157   2.101   0.298   4.532
 7753SOL    HW124158   2.073   0.270   4.624
 7753SOL    HW224159   2.162   0.377   4.537
 7754SOL     OW24160   5.048   7.014   1.787
 7754SOL    HW124161   5.123   6.963   1.743
 7754SOL    HW224162   4.960   6.981   1.751
 7755SOL     OW24163   1.335   1.977   5.669
 7755SOL    HW124164   1.391   1.914   5.722
 7755SOL    HW224165   1.383   2.002   5.585
 7756SOL     OW24166   3.622   5.550   1.690
 7756SOL    HW124167   3.597   5.633   1.740
 7756SOL    HW224168   3.613   5.471   1.751
 7757SOL     OW24169   5.497   5.596   5.366
 7757SOL    HW124170   5.492   5.668   5.297
 7757SOL    HW224171   5.550   5.519   5.331
 7758SOL     OW24172   1.385   1.908   6.235
 7758SOL    HW124173   1.416   1.920   6.329
 7758SOL    HW224174   1.297   1.860   6.234
 7759SOL     OW24175   1.058   1.790   5.743
 7759SOL    HW124176   1.128   1.780   5.814
 7759SOL    HW224177   1.101   1.805   5.654
 7760SOL     OW24178   5.459   3.602   2.530
 7760SOL    HW124179   5.490   3.655   2.451
 7760SOL    HW224180   5.359   3.607   2.536
 7761SOL     OW24181   0.900   0.379   6.045
 7761SOL    HW124182   0.915   0.403   5.949
 7761SOL    HW224183   0.803   0.358   6.059
 7762SOL     OW24184   4.312   0.436   4.174
 7762SOL    HW124185   4.264   0.485   4.101
 7762SOL    HW224186   4.378   0.372   4.134
 7763SOL     OW24187   1.266   1.318   6.973
 7763SOL    HW124188   1.279   1.372   0.028
 7763SOL    HW224189   1.353   1.279   6.944
 7764SOL     OW24190   3.345   2.882   3.172
 7764SOL    HW124191   3.402   2.907   3.251
 7764SOL    HW224192   3.338   2.783   3.167
 7765SOL     OW24193   6.078   2.820   3.967
 7765SOL    HW124194   6.044   2.732   3.933
 7765SOL    HW224195   6.114   2.873   3.890
 7766SOL     OW24196   6.099   2.605   6.923
 7766SOL    HW124197   6.056   2.536   6.981
 7766SOL    HW224198   6.182   2.567   6.882
 7767SOL     OW24199   4.393   5.775   3.216
 7767SOL    HW124200   4.305   5.732   3.196
 7767SOL    HW224201   4.387   5.872   3.196
 7768SOL     OW24202   4.177   4.662   2.144
 7768SOL    HW124203   4.154   4.719   2.065
 7768SOL    HW224204   4.277   4.655   2.152
 7769SOL     OW24205   5.147   2.756   3.079
 7769SOL    HW124206   5.056   2.716   3.087
 7769SOL    HW224207   5.213   2.699   3.129
 7770SOL     OW24208   1.857   4.227   2.381
 7770SOL    HW124209   1.861   4.128   2.366
 7770SOL    HW224210   1.763   4.255   2.399
 7771SOL     OW24211   3.460   2.293   5.326
 7771SOL    HW124212   3.400   2.353   5.272
 7771SOL    HW224213   3.492   2.343   5.407
 7772SOL     OW24214   5.029   0.133   2.399
 7772SOL    HW124215   4.937   0.094   2.387
 7772SOL    HW224216   5.061   0.170   2.311
 7773SOL     OW24217   2.382   5.580   4.718
 7773SOL    HW124218   2.440   5.549   4.793
 7773SOL    HW224219   2.288   5.549   4.733
 7774SOL     OW24220   5.235   2.029   5.873
 7774SOL    HW124221   5.206   2.007   5.966
 7774SOL    HW224222   5.277   1.949   5.832
 7775SOL     OW24223   5.135   6.284   2.065
 7775SOL    HW124224   5.164   6.335   2.146
 7775SOL    HW224225   5.074   6.210   2.092
 7776SOL     OW24226   1.804   4.988   6.879
 7776SOL    HW124227   1.828   4.994   6.782
 7776SOL    HW224228   1.814   5.078   6.921
 7777SOL     OW24229   0.760   0.246   4.612
 7777SOL    HW124230   0.856   0.270   4.602
 7777SOL    HW224231   0.704   0.310   4.559
 7778SOL     OW24232   5.572   4.017   0.884
 7778SOL    HW124233   5.475   3.996   0.899
 7778SOL    HW224234   5.594   4.004   0.788
 7779SOL     OW24235   2.482   2.724   1.479
 7779SOL    HW124236   2.510   2.684   1.567
 7779SOL    HW224237   2.532   2.809   1.465
 7780SOL     OW24238   0.981   4.709   5.333
 7780SOL    HW124239   0.934   4.742   5.415
 7780SOL    HW224240   1.041   4.780   5.298
 7781SOL     OW24241   1.188   4.761   0.368
 7781SOL    HW124242   1.215   4.834   0.305
 7781SOL    HW224243   1.250   4.759   0.446
 7782SOL     OW24244   6.572   4.720   4.743
 7782SOL    HW124245   6.591   4.790   4.811
 7782SOL    HW224246   6.656   4.697   4.694
 7783SOL     OW24247   0.686   5.885   5.063
 7783SOL    HW124248   0.718   5.855   5.153
 7783SOL    HW224249   0.592   5.920   5.072
 7784SOL     OW24250   3.007   2.760   1.360
 7784SOL    HW124251   2.956   2.685   1.402
 7784SOL    HW224252   3.097   2.726   1.331
 7785SOL     OW24253   1.834   5.573   4.068
 7785SOL    HW124254   1.885   5.512   4.007
 7785SOL    HW224255   1.736   5.561   4.052
 7786SOL     OW24256   3.043   6.274   6.926
 7786SOL    HW124257   2.985   6.351   6.899
 7786SOL    HW224258   3.036   6.260   7.025
 7787SOL     OW24259   2.168   2.655   6.707
 7787SOL    HW124260   2.253   2.664   6.759
 7787SOL    HW224261   2.160   2.733   6.645
 7788SOL     OW24262   2.299   5.762   1.604
 7788SOL    HW124263   2.267   5.717   1.688
 7788SOL    HW224264   2.238   5.838   1.581
 7789SOL     OW24265   1.867   6.711   6.316
 7789SOL    HW124266   1.856   6.612   6.302
 7789SOL    HW224267   1.850   6.733   6.413
 7790SOL     OW24268   5.564   5.653   3.292
 7790SOL    HW124269   5.504   5.718   3.245
 7790SOL    HW224270   5.608   5.697   3.369
 7791SOL     OW24271   2.070   5.782   3.303
 7791SOL    HW124272   2.152   5.837   3.320
 7791SOL    HW224273   2.040   5.740   3.389
 7792SOL     OW24274   1.515   5.016   4.769
 7792SOL    HW124275   1.528   5.043   4.674
 7792SOL    HW224276   1.530   5.095   4.829
 7793SOL     OW24277   3.634   0.905   0.373
 7793SOL    HW124278   3.665   0.822   0.419
 7793SOL    HW224279   3.534   0.905   0.368
 7794SOL     OW24280   6.401   4.671   2.757
 7794SOL    HW124281   6.455   4.729   2.695
 7794SOL    HW224282   6.344   4.609   2.704
 7795SOL     OW24283   1.840   4.207   5.362
 7795SOL    HW124284   1.864   4.180   5.455
 7795SOL    HW224285   1.883   4.145   5.297
 7796SOL     OW24286   4.129   3.714   3.476
 7796SOL    HW124287   4.216   3.762   3.475
 7796SOL    HW224288   4.074   3.746   3.554
 7797SOL     OW24289   1.486   0.121   3.006
 7797SOL    HW124290   1.444   0.044   3.054
 7797SOL    HW224291   1.585   0.106   2.999
 7798SOL     OW24292   2.215   4.385   5.569
 7798SOL    HW124293   2.239   4.481   5.581
 7798SOL    HW224294   2.240   4.355   5.477
 7799SOL     OW24295   0.874   6.416   2.551
 7799SOL    HW124296   0.915   6.328   2.527
 7799SOL    HW224297   0.945   6.487   2.550
 7800SOL     OW24298   1.050   5.233   1.437
 7800SOL    HW124299   1.109   5.311   1.417
 7800SOL    HW224300   0.978   5.261   1.501
 7801SOL     OW24301   2.222   1.972   1.567
 7801SOL    HW124302   2.164   1.992   1.646
 7801SOL    HW224303   2.213   1.875   1.543
 7802SOL     OW24304   5.894   2.734   1.112
 7802SOL    HW124305   5.890   2.635   1.113
 7802SOL    HW224306   5.837   2.769   1.037
 7803SOL     OW24307   4.827   1.763   6.026
 7803SOL    HW124308   4.763   1.816   5.969
 7803SOL    HW224309   4.892   1.825   6.070
 7804SOL     OW24310   4.869   2.083   3.535
 7804SOL    HW124311   4.853   2.135   3.451
 7804SOL    HW224312   4.827   1.993   3.527
 7805SOL     OW24313   5.470   2.761   1.215
 7805SOL    HW124314   5.555   2.803   1.184
 7805SOL    HW224315   5.393   2.801   1.165
 7806SOL     OW24316   5.446   1.950   6.861
 7806SOL    HW124317   5.442   1.939   6.762
 7806SOL    HW224318   5.372   1.898   6.903
 7807SOL     OW24319   1.567   4.595   5.339
 7807SOL    HW124320   1.621   4.626   5.417
 7807SOL    HW224321   1.620   4.529   5.285
 7808SOL     OW24322   6.531   3.115   3.552
 7808SOL    HW124323   6.616   3.088   3.506
 7808SOL    HW224324   6.468   3.038   3.554
 7809SOL     OW24325   2.903   5.165   3.552
 7809SOL    HW124326   2.861   5.130   3.469
 7809SOL    HW224327   2.855   5.247   3.582
 7810SOL     OW24328   3.678   0.105   4.391
 7810SOL    HW124329   3.707   0.071   4.301
 7810SOL    HW224330   3.753   0.156   4.433
 7811SOL     OW24331   1.831   5.386   2.340
 7811SOL    HW124332   1.774   5.342   2.271
 7811SOL    HW224333   1.926   5.386   2.309
 7812SOL     OW24334   0.453   1.668   4.309
 7812SOL    HW124335   0.376   1.724   4.277
 7812SOL    HW224336   0.521   1.661   4.236
 7813SOL     OW24337   5.220   2.493   0.187
 7813SOL    HW124338   5.187   2.428   0.119
 7813SOL    HW224339   5.144   2.526   0.242
 7814SOL     OW24340   0.067   3.439   3.112
 7814SOL    HW124341   0.065   3.483   3.202
 7814SOL    HW224342   0.152   3.387   3.101
 7815SOL     OW24343   5.321   0.237   5.489
 7815SOL    HW124344   5.364   0.327   5.498
 7815SOL    HW224345   5.269   0.217   5.572
 7816SOL     OW24346   1.716   2.244   6.141
 7816SOL    HW124347   1.699   2.239   6.239
 7816SOL    HW224348   1.697   2.337   6.109
 7817SOL     OW24349   5.836   4.991   2.940
 7817SOL    HW124350   5.794   5.066   2.990
 7817SOL    HW224351   5.832   4.907   2.995
 7818SOL     OW24352   4.312   0.377   2.373
 7818SOL    HW124353   4.367   0.385   2.456
 7818SOL    HW224354   4.268   0.465   2.353
 7819SOL     OW24355   0.178   3.918   1.676
 7819SOL    HW124356   0.249   3.868   1.626
 7819SOL    HW224357   0.216   3.953   1.762
 7820SOL     OW24358   1.752   2.068   5.947
 7820SOL    HW124359   1.753   2.156   5.995
 7820SOL    HW224360   1.688   2.006   5.992
 7821SOL     OW24361   5.610   6.210   0.141
 7821SOL    HW124362   5.665   6.205   0.057
 7821SOL    HW224363   5.525   6.159   0.128
 7822SOL     OW24364   2.288   1.989   6.347
 7822SOL    HW124365   2.375   2.000   6.396
 7822SOL    HW224366   2.272   2.070   6.291
 7823SOL     OW24367   2.566   4.022   5.357
 7823SOL    HW124368   2.610   3.933   5.356
 7823SOL    HW224369   2.497   4.026   5.285
 7824SOL     OW24370   6.313   0.621   3.952
 7824SOL    HW124371   6.344   0.649   3.862
 7824SOL    HW224372   6.340   0.690   4.020
 7825SOL     OW24373   1.839   2.679   1.415
 7825SOL    HW124374   1.901   2.635   1.350
 7825SOL    HW224375   1.889   2.702   1.498
 7826SOL     OW24376   6.705   1.460   0.603
 7826SOL    HW124377   6.744   1.480   0.513
 7826SOL    HW224378   6.764   1.501   0.673
 7827SOL     OW24379   2.574   5.827   0.879
 7827SOL    HW124380   2.580   5.897   0.951
 7827SOL    HW224381   2.484   5.784   0.882
 7828SOL     OW24382   1.348   4.545   6.877
 7828SOL    HW124383   1.434   4.532   6.927
 7828SOL    HW224384   1.361   4.518   6.782
 7829SOL     OW24385   2.869   4.052   1.144
 7829SOL    HW124386   2.838   3.957   1.150
 7829SOL    HW224387   2.802   4.111   1.188
 7830SOL     OW24388   2.521   4.914   5.477
 7830SOL    HW124389   2.481   4.919   5.386
 7830SOL    HW224390   2.556   4.821   5.493
 7831SOL     OW24391   2.155   6.436   0.915
 7831SOL    HW124392   2.097   6.369   0.867
 7831SOL    HW224393   2.112   6.526   0.910
 7832SOL     OW24394   4.866   1.074   3.361
 7832SOL    HW124395   4.807   1.050   3.284
 7832SOL    HW224396   4.887   1.172   3.357
 7833SOL     OW24397   1.053   1.052   6.679
 7833SOL    HW124398   1.052   1.150   6.699
 7833SOL    HW224399   1.050   1.001   6.766
 7834SOL     OW24400   6.761   1.727   3.407
 7834SOL    HW124401   6.849   1.679   3.409
 7834SOL    HW224402   6.767   1.806   3.347
 7835SOL     OW24403   3.880   2.465   6.002
 7835SOL    HW124404   3.818   2.540   5.980
 7835SOL    HW224405   3.865   2.437   6.097
 7836SOL     OW24406   3.123   2.997   5.082
 7836SOL    HW124407   3.181   3.063   5.129
 7836SOL    HW224408   3.132   3.010   4.983
 7837SOL     OW24409   6.639   5.286   0.212
 7837SOL    HW124410   6.691   5.231   0.277
 7837SOL    HW224411   6.550   5.310   0.252
 7838SOL     OW24412   4.115   6.804   0.281
 7838SOL    HW124413   4.182   6.787   0.353
 7838SOL    HW224414   4.079   6.897   0.292
 7839SOL     OW24415   6.198   4.464   4.999
 7839SOL    HW124416   6.168   4.372   5.025
 7839SOL    HW224417   6.201   4.523   5.080
 7840SOL     OW24418   6.694   2.499   4.056
 7840SOL    HW124419   6.780   2.539   4.026
 7840SOL    HW224420   6.663   2.432   3.988
 7841SOL     OW24421   3.813   2.023   6.529
 7841SOL    HW124422   3.900   1.979   6.508
 7841SOL    HW224423   3.738   1.965   6.498
 7842SOL     OW24424   2.382   2.008   2.537
 7842SOL    HW124425   2.347   2.053   2.620
 7842SOL    HW224426   2.316   2.020   2.463
 7843SOL     OW24427   6.779   5.816   3.169
 7843SOL    HW124428   6.735   5.905   3.176
 7843SOL    HW224429   6.878   5.826   3.181
 7844SOL     OW24430   3.828   6.944   2.376
 7844SOL    HW124431   3.855   6.875   2.444
 7844SOL    HW224432   3.848   0.008   2.411
 7845SOL     OW24433   5.363   1.964   3.578
 7845SOL    HW124434   5.342   1.870   3.606
 7845SOL    HW224435   5.455   1.967   3.539
 7846SOL     OW24436   0.603   1.462   2.206
 7846SOL    HW124437   0.515   1.427   2.238
 7846SOL    HW224438   0.590   1.554   2.169
 7847SOL     OW24439   6.572   1.714   3.091
 7847SOL    HW124440   6.478   1.697   3.062
 7847SOL    HW224441   6.625   1.629   3.085
 7848SOL     OW24442   3.925   3.887   0.399
 7848SOL    HW124443   3.840   3.840   0.420
 7848SOL    HW224444   3.966   3.845   0.318
 7849SOL     OW24445   5.502   4.366   4.072
 7849SOL    HW124446   5.488   4.267   4.069
 7849SOL    HW224447   5.414   4.413   4.068
 7850SOL     OW24448   0.676   2.142   4.449
 7850SOL    HW124449   0.771   2.111   4.462
 7850SOL    HW224450   0.628   2.138   4.537
 7851SOL     OW24451   6.592   1.182   1.354
 7851SOL    HW124452   6.550   1.272   1.369
 7851SOL    HW224453   6.685   1.194   1.319
 7852SOL     OW24454   2.475   1.739   6.325
 7852SOL    HW124455   2.452   1.659   6.269
 7852SOL    HW224456   2.393   1.792   6.344
 7853SOL     OW24457   4.761   2.161   1.770
 7853SOL    HW124458   4.764   2.132   1.866
 7853SOL    HW224459   4.836   2.225   1.753
 7854SOL     OW24460   3.742   3.408   0.158
 7854SOL    HW124461   3.752   3.504   0.133
 7854SOL    HW224462   3.706   3.357   0.080
 7855SOL     OW24463   4.814   5.859   3.866
 7855SOL    HW124464   4.858   5.826   3.950
 7855SOL    HW224465   4.871   5.929   3.823
 7856SOL     OW24466   6.655   4.701   5.338
 7856SOL    HW124467   6.729   4.732   5.277
 7856SOL    HW224468   6.571   4.750   5.316
 7857SOL     OW24469   5.595   1.503   5.552
 7857SOL    HW124470   5.601   1.490   5.651
 7857SOL    HW224471   5.501   1.489   5.522
 7858SOL     OW24472   5.838   6.639   3.953
 7858SOL    HW124473   5.845   6.540   3.944
 7858SOL    HW224474   5.742   6.666   3.945
 7859SOL     OW24475   4.482   2.956   6.682
 7859SOL    HW124476   4.473   2.968   6.781
 7859SOL    HW224477   4.405   3.001   6.636
 7860SOL     OW24478   3.116   0.227   2.525
 7860SOL    HW124479   3.108   0.184   2.615
 7860SOL    HW224480   3.028   0.222   2.478
 7861SOL     OW24481   3.633   4.957   1.751
 7861SOL    HW124482   3.620   4.887   1.821
 7861SOL    HW224483   3.720   5.004   1.768
 7862SOL     OW24484   1.980   4.106   1.643
 7862SOL    HW124485   2.042   4.034   1.612
 7862SOL    HW224486   2.019   4.151   1.724
 7863SOL     OW24487   0.541   4.839   4.020
 7863SOL    HW124488   0.538   4.936   4.045
 7863SOL    HW224489   0.504   4.827   3.928
 7864SOL     OW24490   0.320   5.499   5.739
 7864SOL    HW124491   0.349   5.588   5.775
 7864SOL    HW224492   0.359   5.486   5.648
 7865SOL     OW24493   6.145   6.887   3.658
 7865SOL    HW124494   6.138   6.857   3.754
 7865SOL    HW224495   6.140   6.986   3.654
 7866SOL     OW24496   1.481   1.415   6.275
 7866SOL    HW124497   1.542   1.341   6.302
 7866SOL    HW224498   1.386   1.388   6.291
 7867SOL     OW24499   6.090   6.204   3.929
 7867SOL    HW124500   6.038   6.129   3.971
 7867SOL    HW224501   6.185   6.198   3.957
 7868SOL     OW24502   5.285   5.951   1.682
 7868SOL    HW124503   5.287   5.956   1.782
 7868SOL    HW224504   5.193   5.972   1.650
 7869SOL     OW24505   6.405   4.029   0.344
 7869SOL    HW124506   6.352   3.944   0.346
 7869SOL    HW224507   6.345   4.107   0.364
 7870SOL     OW24508   4.097   4.750   3.978
 7870SOL    HW124509   4.050   4.719   4.060
 7870SOL    HW224510   4.104   4.850   3.979
 7871SOL     OW24511   4.797   2.848   2.521
 7871SOL    HW124512   4.771   2.885   2.432
 7871SOL    HW224513   4.891   2.814   2.518
 7872SOL     OW24514   2.044   3.930   3.111
 7872SOL    HW124515   2.115   3.925   3.040
 7872SOL    HW224516   2.079   3.889   3.195
 7873SOL     OW24517   5.479   0.032   5.789
 7873SOL    HW124518   5.467   0.125   5.825
 7873SOL    HW224519   5.432   6.994   5.848
 7874SOL     OW24520   5.095   1.890   6.990
 7874SOL    HW124521   5.059   1.797   6.983
 7874SOL    HW224522   5.150   1.898   0.045
 7875SOL     OW24523   4.722   2.779   6.873
 7875SOL    HW124524   4.728   2.878   6.889
 7875SOL    HW224525   4.663   2.738   6.943
 7876SOL     OW24526   1.216   0.136   4.601
 7876SOL    HW124527   1.217   0.050   4.549
 7876SOL    HW224528   1.214   0.115   4.699
 7877SOL     OW24529   0.802   2.162   3.029
 7877SOL    HW124530   0.730   2.149   3.098
 7877SOL    HW224531   0.842   2.074   3.007
 7878SOL     OW24532   5.862   4.588   4.744
 7878SOL    HW124533   5.836   4.681   4.721
 7878SOL    HW224534   5.845   4.571   4.842
 7879SOL     OW24535   4.163   5.214   2.932
 7879SOL    HW124536   4.218   5.197   3.014
 7879SOL    HW224537   4.070   5.177   2.947
 7880SOL     OW24538   1.729   5.605   0.697
 7880SOL    HW124539   1.688   5.515   0.711
 7880SOL    HW224540   1.662   5.676   0.718
 7881SOL     OW24541   6.449   4.682   4.305
 7881SOL    HW124542   6.410   4.622   4.375
 7881SOL    HW224543   6.380   4.704   4.238
 7882SOL     OW24544   1.232   3.085   1.523
 7882SOL    HW124545   1.183   3.000   1.545
 7882SOL    HW224546   1.330   3.068   1.526
 7883SOL     OW24547   0.881   0.730   1.259
 7883SOL    HW124548   0.852   0.651   1.204
 7883SOL    HW224549   0.879   0.812   1.202
 7884SOL     OW24550   1.970   3.586   4.423
 7884SOL    HW124551   1.998   3.523   4.351
 7884SOL    HW224552   1.918   3.662   4.383
 7885SOL     OW24553   6.475   5.187   1.540
 7885SOL    HW124554   6.396   5.242   1.569
 7885SOL    HW224555   6.454   5.090   1.552
 7886SOL     OW24556   3.136   5.473   6.463
 7886SOL    HW124557   3.107   5.379   6.480
 7886SOL    HW224558   3.198   5.502   6.536
 7887SOL     OW24559   3.739   2.763   5.376
 7887SOL    HW124560   3.689   2.786   5.293
 7887SOL    HW224561   3.682   2.705   5.435
 7888SOL     OW24562   6.391   0.259   5.037
 7888SOL    HW124563   6.340   0.186   5.081
 7888SOL    HW224564   6.489   0.244   5.051
 7889SOL     OW24565   1.908   5.164   0.789
 7889SOL    HW124566   1.926   5.260   0.765
 7889SOL    HW224567   1.819   5.137   0.753
 7890SOL     OW24568   1.407   2.485   3.132
 7890SOL    HW124569   1.471   2.423   3.088
 7890SOL    HW224570   1.454   2.571   3.154
 7891SOL     OW24571   1.933   3.801   3.701
 7891SOL    HW124572   2.000   3.726   3.697
 7891SOL    HW224573   1.977   3.886   3.672
 7892SOL     OW24574   2.133   0.924   3.605
 7892SOL    HW124575   2.068   0.900   3.677
 7892SOL    HW224576   2.090   0.984   3.538
 7893SOL     OW24577   6.605   6.494   2.928
 7893SOL    HW124578   6.581   6.489   2.831
 7893SOL    HW224579   6.535   6.448   2.982
 7894SOL     OW24580   3.938   6.588   0.214
 7894SOL    HW124581   3.864   6.587   0.281
 7894SOL    HW224582   3.977   6.680   0.209
 7895SOL     OW24583   5.523   0.517   4.879
 7895SOL    HW124584   5.501   0.589   4.944
 7895SOL    HW224585   5.610   0.536   4.835
 7896SOL     OW24586   4.796   3.401   0.694
 7896SOL    HW124587   4.773   3.304   0.684
 7896SOL    HW224588   4.733   3.455   0.639
 7897SOL     OW24589   2.804   4.106   6.972
 7897SOL    HW124590   2.828   4.009   6.982
 7897SOL    HW224591   2.776   4.123   6.877
 7898SOL     OW24592   4.236   2.169   3.241
 7898SOL    HW124593   4.178   2.143   3.318
 7898SOL    HW224594   4.310   2.228   3.274
 7899SOL     OW24595   5.603   0.578   1.454
 7899SOL    HW124596   5.684   0.612   1.407
 7899SOL    HW224597   5.576   0.642   1.526
 7900SOL     OW24598   1.758   4.969   1.789
 7900SOL    HW124599   1.838   4.961   1.731
 7900SOL    HW224600   1.726   4.878   1.816
 7901SOL     OW24601   5.130   1.518   6.515
 7901SOL    HW124602   5.058   1.455   6.542
 7901SOL    HW224603   5.195   1.529   6.590
 7902SOL     OW24604   5.900   6.735   1.020
 7902SOL    HW124605   5.986   6.695   0.990
 7902SOL    HW224606   5.825   6.699   0.963
 7903SOL     OW24607   5.635   1.472   0.661
 7903SOL    HW124608   5.719   1.511   0.699
 7903SOL    HW224609   5.658   1.405   0.590
 7904SOL     OW24610   5.595   0.488   3.346
 7904SOL    HW124611   5.631   0.555   3.283
 7904SOL    HW224612   5.538   0.534   3.415
 7905SOL     OW24613   4.759   2.361   6.983
 7905SOL    HW124614   4.732   2.448   6.942
 7905SOL    HW224615   4.731   2.360   0.052
 7906SOL     OW24616   0.429   5.296   0.692
 7906SOL    HW124617   0.372   5.350   0.754
 7906SOL    HW224618   0.377   5.216   0.661
 7907SOL     OW24619   5.734   2.641   3.194
 7907SOL    HW124620   5.806   2.592   3.242
 7907SOL    HW224621   5.771   2.684   3.111
 7908SOL     OW24622   1.079   1.116   5.637
 7908SOL    HW124623   1.026   1.123   5.722
 7908SOL    HW224624   1.044   1.041   5.582
 7909SOL     OW24625   5.458   4.128   4.796
 7909SOL    HW124626   5.456   4.150   4.894
 7909SOL    HW224627   5.439   4.031   4.784
 7910SOL     OW24628   2.796   3.701   5.717
 7910SOL    HW124629   2.747   3.618   5.690
 7910SOL    HW224630   2.765   3.730   5.808
 7911SOL     OW24631   2.176   3.112   0.238
 7911SOL    HW124632   2.128   3.072   0.160
 7911SOL    HW224633   2.212   3.039   0.296
 7912SOL     OW24634   6.747   4.925   0.485
 7912SOL    HW124635   6.839   4.944   0.453
 7912SOL    HW224636   6.698   4.871   0.417
 7913SOL     OW24637   1.268   4.799   1.025
 7913SOL    HW124638   1.285   4.796   1.124
 7913SOL    HW224639   1.223   4.886   1.002
 7914SOL     OW24640   0.610   4.452   0.221
 7914SOL    HW124641   0.706   4.425   0.222
 7914SOL    HW224642   0.591   4.510   0.300
 7915SOL     OW24643   4.952   3.116   1.889
 7915SOL    HW124644   4.914   3.190   1.833
 7915SOL    HW224645   4.885   3.089   1.959
 7916SOL     OW24646   0.812   4.215   5.383
 7916SOL    HW124647   0.745   4.286   5.363
 7916SOL    HW224648   0.875   4.248   5.454
 7917SOL     OW24649   3.931   3.627   4.559
 7917SOL    HW124650   3.929   3.724   4.535
 7917SOL    HW224651   3.907   3.617   4.655
 7918SOL     OW24652   0.033   1.467   6.460
 7918SOL    HW124653   6.978   1.448   6.513
 7918SOL    HW224654   0.014   1.456   6.362
 7919SOL     OW24655   1.940   4.486   2.385
 7919SOL    HW124656   1.881   4.532   2.319
 7919SOL    HW224657   1.925   4.387   2.380
 7920SOL     OW24658   0.370   5.788   0.967
 7920SOL    HW124659   0.314   5.722   1.018
 7920SOL    HW224660   0.313   5.832   0.897
 7921SOL     OW24661   5.293   6.415   0.531
 7921SOL    HW124662   5.305   6.422   0.432
 7921SOL    HW224663   5.380   6.392   0.574
 7922SOL     OW24664   6.762   6.572   0.470
 7922SOL    HW124665   6.751   6.638   0.395
 7922SOL    HW224666   6.859   6.550   0.481
 7923SOL     OW24667   3.161   0.331   2.037
 7923SOL    HW124668   3.155   0.277   1.953
 7923SOL    HW224669   3.248   0.310   2.083
 7924SOL     OW24670   4.193   6.873   2.375
 7924SOL    HW124671   4.127   6.947   2.367
 7924SOL    HW224672   4.189   6.833   2.467
 7925SOL     OW24673   0.736   1.863   6.536
 7925SOL    HW124674   0.648   1.897   6.570
 7925SOL    HW224675   0.810   1.896   6.595
 7926SOL     OW24676   4.595   1.595   5.323
 7926SOL    HW124677   4.671   1.610   5.261
 7926SOL    HW224678   4.509   1.613   5.276
 7927SOL     OW24679   4.333   5.133   2.667
 7927SOL    HW124680   4.335   5.211   2.730
 7927SOL    HW224681   4.265   5.150   2.596
 7928SOL     OW24682   1.366   2.131   4.523
 7928SOL    HW124683   1.339   2.036   4.504
 7928SOL    HW224684   1.353   2.186   4.441
 7929SOL     OW24685   4.117   5.081   6.376
 7929SOL    HW124686   4.060   5.068   6.295
 7929SOL    HW224687   4.203   5.033   6.364
 7930SOL     OW24688   4.528   5.625   4.552
 7930SOL    HW124689   4.513   5.526   4.552
 7930SOL    HW224690   4.609   5.646   4.497
 7931SOL     OW24691   1.814   2.172   6.448
 7931SOL    HW124692   1.861   2.128   6.525
 7931SOL    HW224693   1.841   2.268   6.444
 7932SOL     OW24694   1.784   6.181   6.777
 7932SOL    HW124695   1.829   6.268   6.756
 7932SOL    HW224696   1.806   6.114   6.706
 7933SOL     OW24697   0.316   5.784   6.504
 7933SOL    HW124698   0.225   5.819   6.485
 7933SOL    HW224699   0.328   5.695   6.460
 7934SOL     OW24700   2.338   4.745   0.456
 7934SOL    HW124701   2.390   4.782   0.534
 7934SOL    HW224702   2.266   4.684   0.490
 7935SOL     OW24703   5.955   5.522   0.023
 7935SOL    HW124704   5.891   5.548   0.096
 7935SOL    HW224705   5.903   5.498   6.968
 7936SOL     OW24706   4.015   6.258   2.524
 7936SOL    HW124707   3.992   6.351   2.493
 7936SOL    HW224708   4.054   6.207   2.448
 7937SOL     OW24709   6.629   6.721   3.562
 7937SOL    HW124710   6.566   6.691   3.490
 7937SOL    HW224711   6.590   6.801   3.608
 7938SOL     OW24712   6.707   5.759   4.582
 7938SOL    HW124713   6.758   5.818   4.645
 7938SOL    HW224714   6.764   5.681   4.556
 7939SOL     OW24715   1.968   2.383   5.599
 7939SOL    HW124716   1.896   2.316   5.585
 7939SOL    HW224717   1.971   2.446   5.521
 7940SOL     OW24718   1.957   3.762   2.192
 7940SOL    HW124719   2.018   3.691   2.227
 7940SOL    HW224720   1.953   3.756   2.092
 7941SOL     OW24721   6.096   0.633   0.633
 7941SOL    HW124722   6.015   0.575   0.629
 7941SOL    HW224723   6.137   0.627   0.724
 7942SOL     OW24724   6.413   6.411   2.658
 7942SOL    HW124725   6.426   6.504   2.625
 7942SOL    HW224726   6.440   6.346   2.586
 7943SOL     OW24727   6.269   3.143   0.717
 7943SOL    HW124728   6.278   3.237   0.750
 7943SOL    HW224729   6.335   3.126   0.644
 7944SOL     OW24730   0.502   2.289   1.796
 7944SOL    HW124731   0.441   2.341   1.736
 7944SOL    HW224732   0.455   2.206   1.827
 7945SOL     OW24733   5.911   5.876   1.650
 7945SOL    HW124734   5.918   5.885   1.749
 7945SOL    HW224735   5.970   5.943   1.606
 7946SOL     OW24736   2.268   1.557   5.379
 7946SOL    HW124737   2.268   1.479   5.316
 7946SOL    HW224738   2.343   1.619   5.354
 7947SOL     OW24739   3.344   2.062   6.221
 7947SOL    HW124740   3.342   2.106   6.311
 7947SOL    HW224741   3.420   1.996   6.218
 7948SOL     OW24742   1.186   6.379   0.910
 7948SOL    HW124743   1.104   6.391   0.854
 7948SOL    HW224744   1.175   6.298   0.968
 7949SOL     OW24745   4.359   4.740   4.670
 7949SOL    HW124746   4.262   4.724   4.692
 7949SOL    HW224747   4.416   4.683   4.729
 7950SOL     OW24748   5.961   5.140   4.738
 7950SOL    HW124749   5.904   5.197   4.679
 7950SOL    HW224750   5.975   5.185   4.826
 7951SOL     OW24751   2.446   4.389   1.928
 7951SOL    HW124752   2.490   4.355   1.845
 7951SOL    HW224753   2.445   4.489   1.926
 7952SOL     OW24754   0.672   2.946   6.975
 7952SOL    HW124755   0.577   2.917   6.980
 7952SOL    HW224756   0.721   2.916   0.030
 7953SOL     OW24757   2.441   2.692   4.094
 7953SOL    HW124758   2.540   2.691   4.076
 7953SOL    HW224759   2.414   2.605   4.135
 7954SOL     OW24760   4.524   4.014   5.342
 7954SOL    HW124761   4.512   3.921   5.376
 7954SOL    HW224762   4.605   4.017   5.283
 7955SOL     OW24763   1.197   6.749   6.532
 7955SOL    HW124764   1.163   6.827   6.584
 7955SOL    HW224765   1.257   6.693   6.590
 7956SOL     OW24766   4.028   5.930   2.568
 7956SOL    HW124767   4.106   5.875   2.596
 7956SOL    HW224768   4.023   6.013   2.624
 7957SOL     OW24769   0.944   0.978   1.831
 7957SOL    HW124770   1.023   1.026   1.793
 7957SOL    HW224771   0.950   0.881   1.808
 7958SOL     OW24772   3.891   5.582   4.702
 7958SOL    HW124773   3.936   5.644   4.637
 7958SOL    HW224774   3.822   5.528   4.655
 7959SOL     OW24775   4.284   5.930   1.078
 7959SOL    HW124776   4.305   5.892   0.988
 7959SOL    HW224777   4.196   5.977   1.074
 7960SOL     OW24778   2.856   0.794   0.562
 7960SOL    HW124779   2.908   0.750   0.489
 7960SOL    HW224780   2.897   0.771   0.650
 7961SOL     OW24781   6.979   0.497   1.250
 7961SOL    HW124782   0.033   0.453   1.288
 7961SOL    HW224783   6.990   0.596   1.253
 7962SOL     OW24784   1.697   0.797   0.342
 7962SOL    HW124785   1.600   0.772   0.335
 7962SOL    HW224786   1.709   0.893   0.315
 7963SOL     OW24787   6.908   0.339   3.807
 7963SOL    HW124788   6.816   0.338   3.766
 7963SOL    HW224789   6.900   0.346   3.906
 7964SOL     OW24790   0.366   4.813   3.809
 7964SOL    HW124791   0.306   4.751   3.860
 7964SOL    HW224792   0.315   4.855   3.734
 7965SOL     OW24793   3.498   2.480   6.167
 7965SOL    HW124794   3.450   2.559   6.128
 7965SOL    HW224795   3.594   2.503   6.180
 7966SOL     OW24796   0.824   2.913   5.158
 7966SOL    HW124797   0.885   2.986   5.126
 7966SOL    HW224798   0.864   2.869   5.238
 7967SOL     OW24799   2.849   6.262   3.687
 7967SOL    HW124800   2.907   6.342   3.691
 7967SOL    HW224801   2.767   6.277   3.742
 7968SOL     OW24802   2.175   2.491   3.506
 7968SOL    HW124803   2.121   2.547   3.569
 7968SOL    HW224804   2.245   2.547   3.463
 7969SOL     OW24805   3.955   5.872   0.769
 7969SOL    HW124806   3.899   5.949   0.799
 7969SOL    HW224807   3.961   5.804   0.842
 7970SOL     OW24808   0.113   3.127   2.492
 7970SOL    HW124809   0.024   3.086   2.511
 7970SOL    HW224810   0.126   3.134   2.393
 7971SOL     OW24811   4.704   1.470   0.829
 7971SOL    HW124812   4.789   1.516   0.807
 7971SOL    HW224813   4.635   1.491   0.759
 7972SOL     OW24814   1.779   3.588   0.866
 7972SOL    HW124815   1.741   3.609   0.776
 7972SOL    HW224816   1.723   3.630   0.937
 7973SOL     OW24817   4.750   4.720   4.072
 7973SOL    HW124818   4.824   4.740   4.137
 7973SOL    HW224819   4.735   4.622   4.068
 7974SOL     OW24820   5.536   1.080   5.707
 7974SOL    HW124821   5.444   1.056   5.674
 7974SOL    HW224822   5.533   1.098   5.805
 7975SOL     OW24823   5.436   0.396   2.748
 7975SOL    HW124824   5.406   0.318   2.694
 7975SOL    HW224825   5.508   0.445   2.699
 7976SOL     OW24826   0.418   0.580   6.889
 7976SOL    HW124827   0.465   0.634   6.819
 7976SOL    HW224828   0.392   0.639   6.965
 7977SOL     OW24829   5.003   5.700   1.965
 7977SOL    HW124830   5.061   5.722   2.043
 7977SOL    HW224831   4.977   5.785   1.918
 7978SOL     OW24832   6.178   3.415   6.243
 7978SOL    HW124833   6.086   3.378   6.237
 7978SOL    HW224834   6.242   3.352   6.197
 7979SOL     OW24835   3.373   6.811   5.571
 7979SOL    HW124836   3.398   6.833   5.477
 7979SOL    HW224837   3.451   6.772   5.619
 7980SOL     OW24838   2.345   5.419   6.888
 7980SOL    HW124839   2.326   5.321   6.883
 7980SOL    HW224840   2.325   5.462   6.800
 7981SOL     OW24841   0.451   5.494   1.995
 7981SOL    HW124842   0.431   5.480   2.092
 7981SOL    HW224843   0.514   5.422   1.963
 7982SOL     OW24844   0.101   1.603   0.052
 7982SOL    HW124845   0.159   1.606   6.998
 7982SOL    HW224846   0.031   1.673   0.044
 7983SOL     OW24847   5.624   1.708   2.409
 7983SOL    HW124848   5.592   1.746   2.322
 7983SOL    HW224849   5.602   1.772   2.483
 7984SOL     OW24850   1.680   1.179   0.878
 7984SOL    HW124851   1.740   1.238   0.932
 7984SOL    HW224852   1.586   1.190   0.910
 7985SOL     OW24853   2.339   0.037   3.857
 7985SOL    HW124854   2.349   0.088   3.772
 7985SOL    HW224855   2.330   6.967   3.837
 7986SOL     OW24856   3.744   1.426   6.915
 7986SOL    HW124857   3.711   1.342   6.958
 7986SOL    HW224858   3.827   1.406   6.863
 7987SOL     OW24859   1.493   3.503   6.884
 7987SOL    HW124860   1.452   3.412   6.896
 7987SOL    HW224861   1.575   3.511   6.940
 7988SOL     OW24862   1.268   2.085   3.620
 7988SOL    HW124863   1.353   2.134   3.639
 7988SOL    HW224864   1.192   2.129   3.670
 7989SOL     OW24865   3.519   3.266   5.413
 7989SOL    HW124866   3.529   3.206   5.333
 7989SOL    HW224867   3.546   3.359   5.388
 7990SOL     OW24868   6.738   3.545   3.194
 7990SOL    HW124869   6.790   3.494   3.262
 7990SOL    HW224870   6.658   3.491   3.167
 7991SOL     OW24871   6.216   0.609   3.587
 7991SOL    HW124872   6.214   0.569   3.495
 7991SOL    HW224873   6.134   0.664   3.600
 7992SOL     OW24874   1.075   7.008   1.455
 7992SOL    HW124875   1.089   0.055   1.389
 7992SOL    HW224876   1.160   6.958   1.466
 7993SOL     OW24877   0.571   6.773   6.588
 7993SOL    HW124878   0.637   6.698   6.574
 7993SOL    HW224879   0.619   6.860   6.581
 7994SOL     OW24880   4.359   0.012   2.930
 7994SOL    HW124881   4.350   0.072   2.851
 7994SOL    HW224882   4.270   7.027   2.973
 7995SOL     OW24883   4.356   4.844   3.232
 7995SOL    HW124884   4.400   4.934   3.233
 7995SOL    HW224885   4.423   4.774   3.208
 7996SOL     OW24886   2.985   0.130   5.005
 7996SOL    HW124887   3.058   0.062   5.010
 7996SOL    HW224888   2.897   0.084   5.019
 7997SOL     OW24889   0.458   1.240   1.496
 7997SOL    HW124890   0.446   1.324   1.549
 7997SOL    HW224891   0.546   1.242   1.450
 7998SOL     OW24892   3.804   5.306   0.991
 7998SOL    HW124893   3.812   5.304   0.891
 7998SOL    HW224894   3.775   5.398   1.020
 7999SOL     OW24895   0.532   6.630   6.336
 7999SOL    HW124896   0.474   6.548   6.343
 7999SOL    HW224897   0.519   6.687   6.417
 8000SOL     OW24898   5.577   0.139   0.182
 8000SOL    HW124899   5.497   0.199   0.183
 8000SOL    HW224900   5.578   0.086   0.097
 8001SOL     OW24901   3.224   5.922   0.924
 8001SOL    HW124902   3.183   6.010   0.946
 8001SOL    HW224903   3.159   5.849   0.945
 8002SOL     OW24904   0.874   2.333   5.430
 8002SOL    HW124905   0.812   2.364   5.502
 8002SOL    HW224906   0.889   2.235   5.439
 8003SOL     OW24907   2.723   5.254   2.590
 8003SOL    HW124908   2.658   5.188   2.553
 8003SOL    HW224909   2.809   5.248   2.539
 8004SOL     OW24910   2.170   3.463   4.028
 8004SOL    HW124911   2.077   3.443   3.998
 8004SOL    HW224912   2.208   3.537   3.973
 8005SOL     OW24913   3.505   0.730   2.606
 8005SOL    HW124914   3.454   0.741   2.521
 8005SOL    HW224915   3.518   0.819   2.649
 8006SOL     OW24916   2.570   0.590   6.470
 8006SOL    HW124917   2.553   0.558   6.377
 8006SOL    HW224918   2.567   0.690   6.472
 8007SOL     OW24919   0.124   1.140   4.934
 8007SOL    HW124920   0.210   1.154   4.984
 8007SOL    HW224921   0.095   1.045   4.944
 8008SOL     OW24922   4.435   6.010   5.744
 8008SOL    HW124923   4.519   5.973   5.705
 8008SOL    HW224924   4.452   6.039   5.838
 8009SOL     OW24925   5.726   0.932   2.742
 8009SOL    HW124926   5.779   0.854   2.777
 8009SOL    HW224927   5.662   0.899   2.673
 8010SOL     OW24928   0.788   1.303   6.958
 8010SOL    HW124929   0.800   1.217   7.007
 8010SOL    HW224930   0.843   1.302   6.874
 8011SOL     OW24931   3.513   2.386   0.768
 8011SOL    HW124932   3.508   2.317   0.697
 8011SOL    HW224933   3.431   2.383   0.825
 8012SOL     OW24934   2.201   4.748   1.562
 8012SOL    HW124935   2.213   4.653   1.532
 8012SOL    HW224936   2.274   4.804   1.524
 8013SOL     OW24937   1.302   5.101   3.209
 8013SOL    HW124938   1.232   5.172   3.198
 8013SOL    HW224939   1.267   5.015   3.172
 8014SOL     OW24940   0.912   6.595   5.292
 8014SOL    HW124941   0.813   6.581   5.297
 8014SOL    HW224942   0.958   6.528   5.350
 8015SOL     OW24943   2.693   0.564   0.406
 8015SOL    HW124944   2.726   0.655   0.379
 8015SOL    HW224945   2.673   0.510   0.325
 8016SOL     OW24946   5.063   0.285   6.005
 8016SOL    HW124947   4.994   0.214   5.991
 8016SOL    HW224948   5.041   0.365   5.949
 8017SOL     OW24949   6.545   6.835   0.821
 8017SOL    HW124950   6.524   6.765   0.890
 8017SOL    HW224951   6.610   6.798   0.755
 8018SOL     OW24952   3.039   2.338   6.136
 8018SOL    HW124953   2.999   2.253   6.100
 8018SOL    HW224954   3.137   2.339   6.115
 8019SOL     OW24955   2.347   4.202   5.744
 8019SOL    HW124956   2.361   4.235   5.838
 8019SOL    HW224957   2.296   4.270   5.692
 8020SOL     OW24958   6.055   6.341   0.634
 8020SOL    HW124959   6.017   6.425   0.595
 8020SOL    HW224960   6.081   6.358   0.729
 8021SOL     OW24961   1.469   1.527   0.963
 8021SOL    HW124962   1.426   1.492   1.047
 8021SOL    HW224963   1.528   1.604   0.986
 8022SOL     OW24964   4.869   6.583   2.632
 8022SOL    HW124965   4.910   6.662   2.587
 8022SOL    HW224966   4.894   6.584   2.729
 8023SOL     OW24967   6.338   5.143   3.098
 8023SOL    HW124968   6.281   5.063   3.078
 8023SOL    HW224969   6.363   5.142   3.195
 8024SOL     OW24970   3.225   5.556   6.948
 8024SOL    HW124971   3.169   5.626   6.993
 8024SOL    HW224972   3.249   5.587   6.856
 8025SOL     OW24973   2.539   6.259   6.328
 8025SOL    HW124974   2.503   6.167   6.343
 8025SOL    HW224975   2.478   6.309   6.267
 8026SOL     OW24976   1.444   4.207   6.789
 8026SOL    HW124977   1.538   4.235   6.811
 8026SOL    HW224978   1.400   4.278   6.734
 8027SOL     OW24979   4.557   1.110   5.365
 8027SOL    HW124980   4.601   1.178   5.306
 8027SOL    HW224981   4.471   1.148   5.401
 8028SOL     OW24982   3.250   4.970   4.504
 8028SOL    HW124983   3.158   4.966   4.465
 8028SOL    HW224984   3.244   4.996   4.600
 8029SOL     OW24985   5.018   3.292   1.102
 8029SOL    HW124986   4.928   3.300   1.061
 8029SOL    HW224987   5.009   3.290   1.202
 8030SOL     OW24988   4.262   4.489   7.013
 8030SOL    HW124989   4.247   4.391   6.995
 8030SOL    HW224990   4.189   4.542   6.972
 8031SOL     OW24991   5.177   6.456   2.957
 8031SOL    HW124992   5.151   6.405   3.040
 8031SOL    HW224993   5.197   6.551   2.981
 8032SOL     OW24994   5.716   4.326   6.325
 8032SOL    HW124995   5.699   4.259   6.253
 8032SOL    HW224996   5.726   4.417   6.284
 8033SOL     OW24997   4.587   2.657   6.173
 8033SOL    HW124998   4.644   2.575   6.165
 8033SOL    HW224999   4.563   2.671   6.269
 8034SOL     OW25000   6.039   0.531   4.692
 8034SOL    HW125001   6.089   0.451   4.657
 8034SOL    HW225002   6.070   0.551   4.785
 8035SOL     OW25003   4.684   1.890   4.318
 8035SOL    HW125004   4.719   1.938   4.398
 8035SOL    HW225005   4.753   1.893   4.245
 8036SOL     OW25006   0.881   4.525   2.589
 8036SOL    HW125007   0.843   4.567   2.671
 8036SOL    HW225008   0.846   4.432   2.580
 8037SOL     OW25009   1.273   3.153   1.081
 8037SOL    HW125010   1.343   3.184   1.016
 8037SOL    HW225011   1.272   3.053   1.084
 8038SOL     OW25012   3.605   0.759   3.502
 8038SOL    HW125013   3.510   0.778   3.527
 8038SOL    HW225014   3.655   0.846   3.496
 8039SOL     OW25015   0.651   1.562   4.501
 8039SOL    HW125016   0.625   1.510   4.582
 8039SOL    HW225017   0.571   1.576   4.443
 8040SOL     OW25018   1.598   6.352   0.464
 8040SOL    HW125019   1.685   6.308   0.442
 8040SOL    HW225020   1.544   6.364   0.380
 8041SOL     OW25021   2.895   1.712   1.619
 8041SOL    HW125022   2.947   1.696   1.535
 8041SOL    HW225023   2.944   1.779   1.676
 8042SOL     OW25024   3.227   2.990   3.860
 8042SOL    HW125025   3.235   2.940   3.946
 8042SOL    HW225026   3.155   3.058   3.868
 8043SOL     OW25027   4.267   6.776   2.704
 8043SOL    HW125028   4.278   6.745   2.798
 8043SOL    HW225029   4.172   6.806   2.690
 8044SOL     OW25030   3.737   2.865   1.220
 8044SOL    HW125031   3.646   2.863   1.262
 8044SOL    HW225032   3.785   2.779   1.241
 8045SOL     OW25033   5.333   0.796   1.160
 8045SOL    HW125034   5.411   0.854   1.136
 8045SOL    HW225035   5.352   0.702   1.131
 8046SOL     OW25036   0.444   5.010   0.850
 8046SOL    HW125037   0.536   5.030   0.816
 8046SOL    HW225038   0.378   5.071   0.806
 8047SOL     OW25039   3.530   5.573   4.435
 8047SOL    HW125040   3.559   5.479   4.424
 8047SOL    HW225041   3.477   5.602   4.355
 8048SOL     OW25042   5.061   1.018   5.955
 8048SOL    HW125043   5.105   1.068   6.029
 8048SOL    HW225044   5.117   0.938   5.931
 8049SOL     OW25045   0.873   0.506   0.199
 8049SOL    HW125046   0.948   0.445   0.173
 8049SOL    HW225047   0.905   0.570   0.269
 8050SOL     OW25048   1.784   3.970   2.623
 8050SOL    HW125049   1.813   3.952   2.718
 8050SOL    HW225050   1.782   3.884   2.572
 8051SOL     OW25051   4.955   5.786   3.101
 8051SOL    HW125052   4.939   5.733   3.184
 8051SOL    HW225053   5.053   5.801   3.089
 8052SOL     OW25054   4.644   1.647   1.867
 8052SOL    HW125055   4.708   1.577   1.898
 8052SOL    HW225056   4.695   1.728   1.838
 8053SOL     OW25057   3.282   3.918   3.659
 8053SOL    HW125058   3.279   3.897   3.561
 8053SOL    HW225059   3.321   3.840   3.708
 8054SOL     OW25060   4.391   0.095   4.611
 8054SOL    HW125061   4.482   0.129   4.633
 8054SOL    HW225062   4.360   0.135   4.525
 8055SOL     OW25063   0.497   0.204   5.746
 8055SOL    HW125064   0.464   0.290   5.784
 8055SOL    HW225065   0.436   0.130   5.774
 8056SOL     OW25066   4.157   2.145   3.778
 8056SOL    HW125067   4.059   2.163   3.766
 8056SOL    HW225068   4.208   2.230   3.766
 8057SOL     OW25069   3.093   1.953   3.186
 8057SOL    HW125070   3.098   2.026   3.119
 8057SOL    HW225071   3.137   1.871   3.150
 8058SOL     OW25072   4.748   0.623   2.188
 8058SOL    HW125073   4.810   0.665   2.254
 8058SOL    HW225074   4.717   0.534   2.223
 8059SOL     OW25075   4.370   2.398   4.601
 8059SOL    HW125076   4.375   2.459   4.679
 8059SOL    HW225077   4.276   2.366   4.590
 8060SOL     OW25078   0.905   2.594   3.628
 8060SOL    HW125079   0.932   2.677   3.676
 8060SOL    HW225080   0.878   2.524   3.695
 8061SOL     OW25081   0.067   0.415   2.337
 8061SOL    HW125082   0.088   0.372   2.249
 8061SOL    HW225083   0.153   0.439   2.383
 8062SOL     OW25084   3.552   5.284   4.381
 8062SOL    HW125085   3.490   5.206   4.370
 8062SOL    HW225086   3.557   5.335   4.295
 8063SOL     OW25087   0.660   2.805   0.507
 8063SOL    HW125088   0.695   2.723   0.461
 8063SOL    HW225089   0.680   2.886   0.452
 8064SOL     OW25090   0.245   4.552   1.290
 8064SOL    HW125091   0.327   4.601   1.321
 8064SOL    HW225092   0.234   4.564   1.191
 8065SOL     OW25093   3.532   5.994   4.429
 8065SOL    HW125094   3.445   5.955   4.457
 8065SOL    HW225095   3.549   5.973   4.332
 8066SOL     OW25096   0.364   1.984   5.777
 8066SOL    HW125097   0.374   2.021   5.870
 8066SOL    HW225098   0.369   1.884   5.781
 8067SOL     OW25099   4.771   2.754   1.925
 8067SOL    HW125100   4.739   2.750   1.830
 8067SOL    HW225101   4.756   2.846   1.961
 8068SOL     OW25102   6.865   4.715   0.315
 8068SOL    HW125103   6.933   4.658   0.269
 8068SOL    HW225104   6.789   4.733   0.252
 8069SOL     OW25105   2.111   6.301   1.157
 8069SOL    HW125106   2.133   6.319   1.061
 8069SOL    HW225107   2.027   6.349   1.182
 8070SOL     OW25108   3.149   3.479   0.207
 8070SOL    HW125109   3.105   3.407   0.261
 8070SOL    HW225110   3.084   3.554   0.193
 8071SOL     OW25111   2.684   6.370   4.775
 8071SOL    HW125112   2.752   6.420   4.828
 8071SOL    HW225113   2.726   6.334   4.691
 8072SOL     OW25114   3.571   0.852   0.070
 8072SOL    HW125115   3.633   0.904   0.129
 8072SOL    HW225116   3.478   0.885   0.083
 8073SOL     OW25117   4.172   5.962   5.249
 8073SOL    HW125118   4.176   6.057   5.217
 8073SOL    HW225119   4.165   5.901   5.171
 8074SOL     OW25120   3.831   2.772   0.905
 8074SOL    HW125121   3.749   2.715   0.898
 8074SOL    HW225122   3.907   2.726   0.859
 8075SOL     OW25123   6.369   1.063   0.316
 8075SOL    HW125124   6.270   1.080   0.311
 8075SOL    HW225125   6.414   1.144   0.355
 8076SOL     OW25126   5.061   2.601   5.772
 8076SOL    HW125127   5.115   2.533   5.821
 8076SOL    HW225128   5.113   2.687   5.768
 8077SOL     OW25129   1.706   5.591   1.920
 8077SOL    HW125130   1.707   5.502   1.875
 8077SOL    HW225131   1.634   5.593   1.989
 8078SOL     OW25132   5.946   1.627   0.218
 8078SOL    HW125133   5.973   1.558   0.151
 8078SOL    HW225134   5.975   1.717   0.187
 8079SOL     OW25135   4.804   1.531   3.210
 8079SOL    HW125136   4.829   1.470   3.135
 8079SOL    HW225137   4.837   1.495   3.296
 8080SOL     OW25138   0.453   3.076   0.145
 8080SOL    HW125139   0.436   2.994   0.091
 8080SOL    HW225140   0.366   3.109   0.183
 8081SOL     OW25141   5.250   6.800   4.117
 8081SOL    HW125142   5.299   6.744   4.183
 8081SOL    HW225143   5.224   6.887   4.160
 8082SOL     OW25144   5.485   6.845   1.835
 8082SOL    HW125145   5.482   6.944   1.850
 8082SOL    HW225146   5.439   6.823   1.749
 8083SOL     OW25147   5.169   3.877   2.285
 8083SOL    HW125148   5.181   3.972   2.313
 8083SOL    HW225149   5.242   3.851   2.223
 8084SOL     OW25150   5.099   0.307   6.930
 8084SOL    HW125151   5.152   0.267   6.855
 8084SOL    HW225152   5.031   0.371   6.893
 8085SOL     OW25153   5.732   6.953   2.585
 8085SOL    HW125154   5.731   0.020   2.618
 8085SOL    HW225155   5.642   6.931   2.546
 8086SOL     OW25156   4.582   1.177   3.763
 8086SOL    HW125157   4.526   1.129   3.831
 8086SOL    HW225158   4.527   1.195   3.681
 8087SOL     OW25159   2.949   1.014   0.969
 8087SOL    HW125160   2.876   1.051   1.026
 8087SOL    HW225161   2.938   1.045   0.875
 8088SOL     OW25162   5.228   2.893   1.105
 8088SOL    HW125163   5.190   2.868   1.194
 8088SOL    HW225164   5.153   2.918   1.043
 8089SOL     OW25165   5.016   2.839   0.499
 8089SOL    HW125166   4.986   2.914   0.557
 8089SOL    HW225167   4.937   2.787   0.467
 8090SOL     OW25168   3.951   2.203   6.724
 8090SOL    HW125169   3.905   2.163   6.645
 8090SOL    HW225170   4.050   2.202   6.710
 8091SOL     OW25171   2.688   4.007   6.269
 8091SOL    HW125172   2.604   3.961   6.297
 8091SOL    HW225173   2.739   3.948   6.207
 8092SOL     OW25174   7.000   2.562   5.389
 8092SOL    HW125175   6.932   2.551   5.317
 8092SOL    HW225176   6.956   2.551   5.478
 8093SOL     OW25177   4.904   5.595   2.760
 8093SOL    HW125178   4.822   5.646   2.785
 8093SOL    HW225179   4.878   5.508   2.720
 8094SOL     OW25180   1.543   3.646   5.236
 8094SOL    HW125181   1.580   3.559   5.206
 8094SOL    HW225182   1.443   3.643   5.233
 8095SOL     OW25183   6.579   4.057   4.494
 8095SOL    HW125184   6.619   4.011   4.415
 8095SOL    HW225185   6.479   4.050   4.489
 8096SOL     OW25186   2.859   5.801   3.670
 8096SOL    HW125187   2.885   5.835   3.580
 8096SOL    HW225188   2.781   5.739   3.661
 8097SOL     OW25189   4.752   6.655   3.569
 8097SOL    HW125190   4.673   6.651   3.507
 8097SOL    HW225191   4.723   6.686   3.659
 8098SOL     OW25192   2.311   6.562   3.974
 8098SOL    HW125193   2.333   6.481   3.919
 8098SOL    HW225194   2.281   6.533   4.065
 8099SOL     OW25195   4.391   6.791   3.951
 8099SOL    HW125196   4.369   6.787   3.854
 8099SOL    HW225197   4.317   6.750   4.004
 8100SOL     OW25198   6.398   0.321   0.188
 8100SOL    HW125199   6.403   0.294   0.092
 8100SOL    HW225200   6.303   0.335   0.214
 8101SOL     OW25201   2.034   6.856   4.072
 8101SOL    HW125202   1.937   6.837   4.088
 8101SOL    HW225203   2.088   6.776   4.097
 8102SOL     OW25204   0.490   4.833   4.422
 8102SOL    HW125205   0.583   4.812   4.453
 8102SOL    HW225206   0.473   4.788   4.335
 8103SOL     OW25207   4.569   0.502   0.975
 8103SOL    HW125208   4.523   0.434   0.919
 8103SOL    HW225209   4.607   0.458   1.057
 8104SOL     OW25210   2.970   6.790   6.106
 8104SOL    HW125211   3.033   6.866   6.123
 8104SOL    HW225212   2.880   6.826   6.079
 8105SOL     OW25213   0.853   2.269   3.486
 8105SOL    HW125214   0.832   2.362   3.456
 8105SOL    HW225215   0.918   2.228   3.422
 8106SOL     OW25216   2.386   6.021   3.083
 8106SOL    HW125217   2.386   5.930   3.041
 8106SOL    HW225218   2.307   6.073   3.049
 8107SOL     OW25219   0.075   5.443   5.284
 8107SOL    HW125220   0.119   5.416   5.198
 8107SOL    HW225221   0.145   5.478   5.347
 8108SOL     OW25222   6.664   3.986   4.719
 8108SOL    HW125223   6.622   4.014   4.632
 8108SOL    HW225224   6.595   3.941   4.776
 8109SOL     OW25225   1.555   3.647   4.498
 8109SOL    HW125226   1.532   3.714   4.569
 8109SOL    HW225227   1.606   3.693   4.425
 8110SOL     OW25228   3.146   6.382   0.591
 8110SOL    HW125229   3.131   6.283   0.587
 8110SOL    HW225230   3.058   6.429   0.591
 8111SOL     OW25231   4.155   0.787   4.864
 8111SOL    HW125232   4.157   0.743   4.774
 8111SOL    HW225233   4.121   0.722   4.932
 8112SOL     OW25234   2.248   1.914   4.678
 8112SOL    HW125235   2.259   1.839   4.612
 8112SOL    HW225236   2.311   1.900   4.755
 8113SOL     OW25237   3.463   3.373   0.999
 8113SOL    HW125238   3.409   3.390   1.082
 8113SOL    HW225239   3.403   3.368   0.920
 8114SOL     OW25240   2.217   3.746   1.457
 8114SOL    HW125241   2.224   3.843   1.480
 8114SOL    HW225242   2.263   3.692   1.527
 8115SOL     OW25243   3.702   0.045   0.218
 8115SOL    HW125244   3.770   0.092   0.162
 8115SOL    HW225245   3.619   0.100   0.222
 8116SOL     OW25246   4.738   6.265   5.168
 8116SOL    HW125247   4.682   6.345   5.146
 8116SOL    HW225248   4.739   6.203   5.090
 8117SOL     OW25249   1.744   1.073   4.035
 8117SOL    HW125250   1.734   1.000   3.967
 8117SOL    HW225251   1.837   1.110   4.030
 8118SOL     OW25252   6.299   2.888   5.407
 8118SOL    HW125253   6.211   2.865   5.448
 8118SOL    HW225254   6.345   2.956   5.464
 8119SOL     OW25255   6.151   5.710   5.473
 8119SOL    HW125256   6.118   5.618   5.453
 8119SOL    HW225257   6.211   5.708   5.553
 8120SOL     OW25258   3.373   4.676   6.980
 8120SOL    HW125259   3.425   4.758   7.000
 8120SOL    HW225260   3.419   4.596   7.020
 8121SOL     OW25261   0.440   5.610   1.746
 8121SOL    HW125262   0.419   5.601   1.843
 8121SOL    HW225263   0.386   5.543   1.694
 8122SOL     OW25264   1.726   5.579   2.498
 8122SOL    HW125265   1.748   5.487   2.469
 8122SOL    HW225266   1.783   5.645   2.448
 8123SOL     OW25267   6.912   0.259   0.137
 8123SOL    HW125268   6.997   0.226   0.096
 8123SOL    HW225269   6.874   0.333   0.082
 8124SOL     OW25270   7.003   6.457   0.566
 8124SOL    HW125271   0.052   6.520   0.577
 8124SOL    HW225272   6.986   6.408   0.651
 8125SOL     OW25273   1.293   0.642   3.136
 8125SOL    HW125274   1.369   0.632   3.073
 8125SOL    HW225275   1.319   0.703   3.211
 8126SOL     OW25276   5.923   4.458   2.659
 8126SOL    HW125277   6.004   4.462   2.718
 8126SOL    HW225278   5.875   4.372   2.674
 8127SOL     OW25279   3.149   5.751   0.097
 8127SOL    HW125280   3.145   5.851   0.099
 8127SOL    HW225281   3.206   5.718   0.172
 8128SOL     OW25282   3.031   3.048   1.200
 8128SOL    HW125283   3.016   3.103   1.119
 8128SOL    HW225284   3.042   2.952   1.174
 8129SOL     OW25285   4.105   1.266   5.768
 8129SOL    HW125286   4.094   1.207   5.848
 8129SOL    HW225287   4.149   1.215   5.694
 8130SOL     OW25288   0.052   4.335   6.701
 8130SOL    HW125289   7.023   4.352   6.621
 8130SOL    HW225290   0.103   4.418   6.724
 8131SOL     OW25291   3.597   1.176   0.812
 8131SOL    HW125292   3.526   1.229   0.857
 8131SOL    HW225293   3.590   1.187   0.713
 8132SOL     OW25294   5.295   6.225   6.292
 8132SOL    HW125295   5.391   6.242   6.313
 8132SOL    HW225296   5.248   6.191   6.373
 8133SOL     OW25297   3.301   5.149   1.486
 8133SOL    HW125298   3.348   5.176   1.571
 8133SOL    HW225299   3.213   5.108   1.509
 8134SOL     OW25300   0.860   2.193   4.810
 8134SOL    HW125301   0.808   2.277   4.828
 8134SOL    HW225302   0.956   2.216   4.797
 8135SOL     OW25303   1.981   5.871   1.022
 8135SOL    HW125304   1.991   5.883   0.923
 8135SOL    HW225305   2.042   5.798   1.052
 8136SOL     OW25306   5.026   4.613   2.685
 8136SOL    HW125307   4.927   4.602   2.677
 8136SOL    HW225308   5.049   4.633   2.780
 8137SOL     OW25309   2.975   1.416   4.650
 8137SOL    HW125310   2.985   1.347   4.578
 8137SOL    HW225311   3.055   1.475   4.650
 8138SOL     OW25312   5.355   2.290   0.641
 8138SOL    HW125313   5.394   2.288   0.548
 8138SOL    HW225314   5.324   2.199   0.666
 8139SOL     OW25315   1.921   1.906   4.078
 8139SOL    HW125316   1.997   1.943   4.132
 8139SOL    HW225317   1.941   1.811   4.054
 8140SOL     OW25318   4.591   6.751   0.057
 8140SOL    HW125319   4.525   6.821   0.028
 8140SOL    HW225320   4.636   6.713   7.003
 8141SOL     OW25321   4.241   0.117   5.603
 8141SOL    HW125322   4.269   0.025   5.578
 8141SOL    HW225323   4.237   0.175   5.521
 8142SOL     OW25324   1.817   5.243   0.409
 8142SOL    HW125325   1.840   5.192   0.327
 8142SOL    HW225326   1.890   5.308   0.430
 8143SOL     OW25327   6.187   5.197   0.249
 8143SOL    HW125328   6.222   5.285   0.282
 8143SOL    HW225329   6.114   5.213   0.182
 8144SOL     OW25330   0.563   6.340   6.069
 8144SOL    HW125331   0.519   6.276   6.132
 8144SOL    HW225332   0.535   6.319   5.975
 8145SOL     OW25333   5.715   5.436   0.631
 8145SOL    HW125334   5.623   5.472   0.613
 8145SOL    HW225335   5.708   5.356   0.691
 8146SOL     OW25336   5.012   0.216   5.180
 8146SOL    HW125337   5.026   0.119   5.158
 8146SOL    HW225338   5.099   0.264   5.178
 8147SOL     OW25339   6.188   0.907   1.349
 8147SOL    HW125340   6.217   0.820   1.389
 8147SOL    HW225341   6.208   0.982   1.413
 8148SOL     OW25342   5.488   4.874   0.531
 8148SOL    HW125343   5.545   4.956   0.524
 8148SOL    HW225344   5.413   4.881   0.465
 8149SOL     OW25345   1.674   6.717   3.592
 8149SOL    HW125346   1.583   6.756   3.582
 8149SOL    HW225347   1.673   6.646   3.663
 8150SOL     OW25348   1.816   4.093   0.710
 8150SOL    HW125349   1.896   4.136   0.669
 8150SOL    HW225350   1.768   4.039   0.641
 8151SOL     OW25351   6.099   5.166   3.316
 8151SOL    HW125352   6.112   5.243   3.254
 8151SOL    HW225353   6.155   5.178   3.398
 8152SOL     OW25354   6.339   2.942   3.372
 8152SOL    HW125355   6.391   2.974   3.293
 8152SOL    HW225356   6.381   2.859   3.408
 8153SOL     OW25357   1.438   1.511   3.784
 8153SOL    HW125358   1.429   1.455   3.866
 8153SOL    HW225359   1.487   1.460   3.713
 8154SOL     OW25360   3.742   6.176   2.232
 8154SOL    HW125361   3.654   6.167   2.185
 8154SOL    HW225362   3.728   6.159   2.330
 8155SOL     OW25363   1.556   3.674   2.197
 8155SOL    HW125364   1.557   3.700   2.294
 8155SOL    HW225365   1.573   3.576   2.189
 8156SOL     OW25366   4.274   6.248   0.803
 8156SOL    HW125367   4.258   6.306   0.883
 8156SOL    HW225368   4.267   6.152   0.829
 8157SOL     OW25369   6.391   4.348   6.378
 8157SOL    HW125370   6.455   4.273   6.393
 8157SOL    HW225371   6.309   4.332   6.434
 8158SOL     OW25372   5.090   3.988   0.492
 8158SOL    HW125373   5.163   3.957   0.431
 8158SOL    HW225374   5.008   4.008   0.439
 8159SOL     OW25375   2.509   5.477   3.213
 8159SOL    HW125376   2.446   5.484   3.291
 8159SOL    HW225377   2.600   5.453   3.247
 8160SOL     OW25378   5.117   0.487   3.625
 8160SOL    HW125379   5.088   0.469   3.719
 8160SOL    HW225380   5.095   0.581   3.601
 8161SOL     OW25381   6.112   2.882   5.979
 8161SOL    HW125382   6.170   2.859   5.901
 8161SOL    HW225383   6.044   2.950   5.951
 8162SOL     OW25384   6.611   6.611   0.044
 8162SOL    HW125385   6.591   6.589   0.139
 8162SOL    HW225386   6.707   6.638   0.035
 8163SOL     OW25387   2.564   4.591   5.183
 8163SOL    HW125388   2.636   4.528   5.213
 8163SOL    HW225389   2.602   4.682   5.171
 8164SOL     OW25390   5.002   2.025   0.391
 8164SOL    HW125391   4.991   1.931   0.358
 8164SOL    HW225392   5.044   2.081   0.320
 8165SOL     OW25393   6.758   3.452   5.521
 8165SOL    HW125394   6.713   3.467   5.433
 8165SOL    HW225395   6.830   3.519   5.534
 8166SOL     OW25396   1.000   0.659   3.530
 8166SOL    HW125397   0.938   0.641   3.606
 8166SOL    HW225398   1.095   0.648   3.560
 8167SOL     OW25399   6.779   0.939   3.959
 8167SOL    HW125400   6.873   0.905   3.967
 8167SOL    HW225401   6.715   0.865   3.982
 8168SOL     OW25402   2.272   1.723   1.455
 8168SOL    HW125403   2.260   1.649   1.520
 8168SOL    HW225404   2.350   1.703   1.395
 8169SOL     OW25405   4.755   2.121   0.443
 8169SOL    HW125406   4.847   2.090   0.422
 8169SOL    HW225407   4.690   2.046   0.428
 8170SOL     OW25408   1.674   5.349   1.782
 8170SOL    HW125409   1.634   5.261   1.808
 8170SOL    HW225410   1.773   5.339   1.772
 8171SOL     OW25411   1.928   1.494   6.533
 8171SOL    HW125412   1.870   1.524   6.457
 8171SOL    HW225413   1.960   1.574   6.584
 8172SOL     OW25414   6.625   1.932   2.638
 8172SOL    HW125415   6.695   1.942   2.568
 8172SOL    HW225416   6.649   1.986   2.718
 8173SOL     OW25417   5.416   2.222   1.915
 8173SOL    HW125418   5.473   2.174   1.982
 8173SOL    HW225419   5.468   2.235   1.830
 8174SOL     OW25420   6.835   0.420   2.222
 8174SOL    HW125421   6.929   0.409   2.252
 8174SOL    HW225422   6.773   0.390   2.294
 8175SOL     OW25423   0.047   3.340   5.554
 8175SOL    HW125424   0.143   3.365   5.544
 8175SOL    HW225425   0.010   3.383   5.636
 8176SOL     OW25426   2.486   4.962   1.208
 8176SOL    HW125427   2.423   4.919   1.143
 8176SOL    HW225428   2.579   4.934   1.189
 8177SOL     OW25429   4.144   0.297   3.908
 8177SOL    HW125430   4.093   0.380   3.928
 8177SOL    HW225431   4.208   0.279   3.983
 8178SOL     OW25432   3.491   6.845   0.659
 8178SOL    HW125433   3.465   6.917   0.595
 8178SOL    HW225434   3.409   6.808   0.703
 8179SOL     OW25435   4.756   1.623   4.268
 8179SOL    HW125436   4.849   1.587   4.277
 8179SOL    HW225437   4.748   1.709   4.319
 8180SOL     OW25438   6.089   0.891   5.689
 8180SOL    HW125439   6.004   0.941   5.673
 8180SOL    HW225440   6.167   0.950   5.667
 8181SOL     OW25441   1.020   1.690   0.424
 8181SOL    HW125442   1.055   1.743   0.347
 8181SOL    HW225443   0.928   1.657   0.403
 8182SOL     OW25444   3.200   3.506   5.604
 8182SOL    HW125445   3.262   3.431   5.629
 8182SOL    HW225446   3.178   3.500   5.507
 8183SOL     OW25447   6.140   2.338   4.904
 8183SOL    HW125448   6.065   2.332   4.838
 8183SOL    HW225449   6.120   2.409   4.971
 8184SOL     OW25450   6.605   7.023   0.555
 8184SOL    HW125451   6.675   6.973   0.607
 8184SOL    HW225452   6.639   0.014   0.463
 8185SOL     OW25453   2.196   0.337   6.712
 8185SOL    HW125454   2.199   0.400   6.634
 8185SOL    HW225455   2.265   0.266   6.700
 8186SOL     OW25456   3.313   4.755   5.288
 8186SOL    HW125457   3.311   4.851   5.317
 8186SOL    HW225458   3.248   4.742   5.213
 8187SOL     OW25459   2.278   1.195   4.935
 8187SOL    HW125460   2.315   1.107   4.962
 8187SOL    HW225461   2.178   1.191   4.936
 8188SOL     OW25462   5.150   3.309   3.828
 8188SOL    HW125463   5.082   3.363   3.779
 8188SOL    HW225464   5.138   3.212   3.804
 8189SOL     OW25465   5.237   5.095   2.822
 8189SOL    HW125466   5.168   5.081   2.893
 8189SOL    HW225467   5.257   5.193   2.813
 8190SOL     OW25468   4.917   4.135   4.468
 8190SOL    HW125469   4.982   4.072   4.509
 8190SOL    HW225470   4.930   4.226   4.508
 8191SOL     OW25471   3.909   6.383   1.679
 8191SOL    HW125472   3.952   6.444   1.613
 8191SOL    HW225473   3.941   6.289   1.664
 8192SOL     OW25474   3.388   5.006   0.674
 8192SOL    HW125475   3.345   5.006   0.764
 8192SOL    HW225476   3.378   5.097   0.633
 8193SOL     OW25477   5.904   5.574   5.878
 8193SOL    HW125478   5.884   5.640   5.806
 8193SOL    HW225479   5.818   5.546   5.923
 8194SOL     OW25480   5.157   1.845   1.085
 8194SOL    HW125481   5.088   1.776   1.106
 8194SOL    HW225482   5.219   1.810   1.015
 8195SOL     OW25483   1.020   6.967   3.401
 8195SOL    HW125484   1.013   0.012   3.332
 8195SOL    HW225485   1.109   6.974   3.448
 8196SOL     OW25486   4.474   5.811   6.288
 8196SOL    HW125487   4.408   5.869   6.241
 8196SOL    HW225488   4.545   5.867   6.329
 8197SOL     OW25489   4.098   1.518   0.607
 8197SOL    HW125490   4.109   1.617   0.618
 8197SOL    HW225491   4.049   1.500   0.522
 8198SOL     OW25492   2.773   6.403   2.856
 8198SOL    HW125493   2.809   6.417   2.763
 8198SOL    HW225494   2.673   6.407   2.854
 8199SOL     OW25495   5.956   2.276   5.816
 8199SOL    HW125496   6.026   2.302   5.750
 8199SOL    HW225497   5.998   2.226   5.891
 8200SOL     OW25498   5.849   5.087   2.239
 8200SOL    HW125499   5.794   5.036   2.172
 8200SOL    HW225500   5.873   5.176   2.201
 8201SOL     OW25501   5.655   0.607   4.241
 8201SOL    HW125502   5.695   0.567   4.158
 8201SOL    HW225503   5.725   0.609   4.313
 8202SOL     OW25504   0.067   5.600   3.807
 8202SOL    HW125505   0.001   5.527   3.789
 8202SOL    HW225506   0.159   5.563   3.810
 8203SOL     OW25507   3.368   2.372   6.977
 8203SOL    HW125508   3.463   2.399   6.963
 8203SOL    HW225509   3.316   2.389   6.893
 8204SOL     OW25510   3.408   4.958   0.003
 8204SOL    HW125511   3.441   5.002   6.946
 8204SOL    HW225512   3.343   5.019   0.048
 8205SOL     OW25513   0.715   4.682   0.691
 8205SOL    HW125514   0.660   4.610   0.734
 8205SOL    HW225515   0.757   4.739   0.761
 8206SOL     OW25516   4.940   1.792   6.618
 8206SOL    HW125517   4.884   1.809   6.536
 8206SOL    HW225518   4.942   1.875   6.674
 8207SOL     OW25519   2.886   3.652   4.402
 8207SOL    HW125520   2.900   3.554   4.409
 8207SOL    HW225521   2.837   3.673   4.317
 8208SOL     OW25522   1.321   0.616   1.316
 8208SOL    HW125523   1.275   0.528   1.329
 8208SOL    HW225524   1.418   0.607   1.338
 8209SOL     OW25525   0.824   1.762   4.851
 8209SOL    HW125526   0.760   1.701   4.897
 8209SOL    HW225527   0.814   1.855   4.887
 8210SOL     OW25528   1.999   1.234   1.294
 8210SOL    HW125529   2.006   1.182   1.209
 8210SOL    HW225530   1.947   1.318   1.278
 8211SOL     OW25531   3.676   4.224   1.810
 8211SOL    HW125532   3.615   4.297   1.778
 8211SOL    HW225533   3.752   4.214   1.745
 8212SOL     OW25534   2.064   2.278   1.705
 8212SOL    HW125535   2.140   2.276   1.770
 8212SOL    HW225536   2.049   2.186   1.668
 8213SOL     OW25537   6.762   4.522   2.741
 8213SOL    HW125538   6.685   4.458   2.754
 8213SOL    HW225539   6.819   4.520   2.823
 8214SOL     OW25540   5.897   5.382   4.597
 8214SOL    HW125541   5.964   5.452   4.621
 8214SOL    HW225542   5.893   5.373   4.497
 8215SOL     OW25543   2.810   5.765   5.890
 8215SOL    HW125544   2.730   5.733   5.941
 8215SOL    HW225545   2.882   5.791   5.955
 8216SOL     OW25546   5.478   5.163   3.824
 8216SOL    HW125547   5.555   5.223   3.844
 8216SOL    HW225548   5.396   5.197   3.870
 8217SOL     OW25549   2.021   3.766   0.669
 8217SOL    HW125550   2.001   3.796   0.762
 8217SOL    HW225551   1.940   3.721   0.631
 8218SOL     OW25552   6.697   7.022   5.344
 8218SOL    HW125553   6.763   6.964   5.392
 8218SOL    HW225554   6.605   6.983   5.355
 8219SOL     OW25555   4.367   3.088   0.599
 8219SOL    HW125556   4.270   3.097   0.578
 8219SOL    HW225557   4.378   3.044   0.689
 8220SOL     OW25558   3.085   3.224   3.849
 8220SOL    HW125559   3.071   3.219   3.750
 8220SOL    HW225560   3.169   3.274   3.869
 8221SOL     OW25561   5.684   6.757   3.727
 8221SOL    HW125562   5.632   6.745   3.642
 8221SOL    HW225563   5.633   6.717   3.803
 8222SOL     OW25564   6.043   1.313   1.402
 8222SOL    HW125565   6.096   1.314   1.317
 8222SOL    HW225566   5.992   1.227   1.408
 8223SOL     OW25567   1.029   4.429   5.290
 8223SOL    HW125568   1.032   4.372   5.372
 8223SOL    HW225569   1.003   4.522   5.315
 8224SOL     OW25570   5.511   1.206   2.165
 8224SOL    HW125571   5.593   1.169   2.210
 8224SOL    HW225572   5.514   1.306   2.167
 8225SOL     OW25573   3.157   1.468   1.011
 8225SOL    HW125574   3.097   1.426   1.080
 8225SOL    HW225575   3.145   1.421   0.924
 8226SOL     OW25576   3.732   6.630   0.369
 8226SOL    HW125577   3.693   6.615   0.459
 8226SOL    HW225578   3.689   6.710   0.326
 8227SOL     OW25579   6.900   0.954   2.672
 8227SOL    HW125580   6.870   0.867   2.632
 8227SOL    HW225581   6.926   0.939   2.768
 8228SOL     OW25582   6.715   1.758   6.005
 8228SOL    HW125583   6.692   1.661   5.995
 8228SOL    HW225584   6.763   1.771   6.092
 8229SOL     OW25585   4.981   3.104   0.618
 8229SOL    HW125586   5.028   3.110   0.530
 8229SOL    HW225587   5.042   3.136   0.690
 8230SOL     OW25588   3.609   0.150   5.172
 8230SOL    HW125589   3.620   0.200   5.258
 8230SOL    HW225590   3.647   0.204   5.097
 8231SOL     OW25591   3.106   3.856   0.726
 8231SOL    HW125592   3.061   3.769   0.707
 8231SOL    HW225593   3.037   3.928   0.737
 8232SOL     OW25594   4.519   1.641   1.520
 8232SOL    HW125595   4.605   1.591   1.512
 8232SOL    HW225596   4.535   1.727   1.569
 8233SOL     OW25597   0.782   6.264   5.798
 8233SOL    HW125598   0.760   6.186   5.739
 8233SOL    HW225599   0.788   6.233   5.893
 8234SOL     OW25600   2.971   3.914   6.560
 8234SOL    HW125601   2.925   3.826   6.553
 8234SOL    HW225602   3.024   3.931   6.477
 8235SOL     OW25603   0.655   2.586   0.355
 8235SOL    HW125604   0.562   2.609   0.383
 8235SOL    HW225605   0.664   2.600   0.257
 8236SOL     OW25606   0.790   4.299   0.722
 8236SOL    HW125607   0.730   4.374   0.750
 8236SOL    HW225608   0.775   4.220   0.782
 8237SOL     OW25609   4.582   6.615   5.150
 8237SOL    HW125610   4.498   6.567   5.124
 8237SOL    HW225611   4.651   6.602   5.078
 8238SOL     OW25612   0.529   5.302   6.390
 8238SOL    HW125613   0.531   5.325   6.293
 8238SOL    HW225614   0.622   5.307   6.427
 8239SOL     OW25615   6.955   0.899   5.579
 8239SOL    HW125616   6.910   0.968   5.637
 8239SOL    HW225617   6.983   0.822   5.636
 8240SOL     OW25618   3.263   3.775   2.324
 8240SOL    HW125619   3.333   3.756   2.255
 8240SOL    HW225620   3.184   3.715   2.309
 8241SOL     OW25621   3.662   6.379   5.834
 8241SOL    HW125622   3.660   6.281   5.854
 8241SOL    HW225623   3.611   6.398   5.750
 8242SOL     OW25624   0.750   4.157   6.213
 8242SOL    HW125625   0.668   4.207   6.240
 8242SOL    HW225626   0.735   4.117   6.122
 8243SOL     OW25627   0.369   2.974   0.448
 8243SOL    HW125628   0.304   3.029   0.396
 8243SOL    HW225629   0.319   2.919   0.515
 8244SOL     OW25630   0.307   0.825   4.728
 8244SOL    HW125631   0.364   0.903   4.702
 8244SOL    HW225632   0.283   0.772   4.647
 8245SOL     OW25633   3.853   1.250   2.314
 8245SOL    HW125634   3.948   1.234   2.343
 8245SOL    HW225635   3.852   1.321   2.244
 8246SOL     OW25636   1.432   3.152   6.168
 8246SOL    HW125637   1.504   3.204   6.214
 8246SOL    HW225638   1.433   3.173   6.070
 8247SOL     OW25639   1.299   0.961   2.599
 8247SOL    HW125640   1.373   1.017   2.637
 8247SOL    HW225641   1.214   1.014   2.599
 8248SOL     OW25642   0.005   5.504   4.720
 8248SOL    HW125643   0.068   5.435   4.753
 8248SOL    HW225644   6.944   5.493   4.765
 8249SOL     OW25645   2.016   2.395   5.868
 8249SOL    HW125646   2.041   2.304   5.901
 8249SOL    HW225647   1.990   2.389   5.772
 8250SOL     OW25648   3.217   4.017   1.577
 8250SOL    HW125649   3.129   4.061   1.556
 8250SOL    HW225650   3.266   4.071   1.646
 8251SOL     OW25651   4.987   3.397   4.590
 8251SOL    HW125652   5.085   3.411   4.599
 8251SOL    HW225653   4.956   3.431   4.502
 8252SOL     OW25654   3.307   1.705   5.661
 8252SOL    HW125655   3.333   1.787   5.611
 8252SOL    HW225656   3.384   1.641   5.661
 8253SOL     OW25657   4.455   5.228   5.955
 8253SOL    HW125658   4.513   5.306   5.976
 8253SOL    HW225659   4.432   5.229   5.857
 8254SOL     OW25660   4.685   4.334   5.166
 8254SOL    HW125661   4.781   4.322   5.190
 8254SOL    HW225662   4.655   4.257   5.109
 8255SOL     OW25663   1.913   6.970   4.962
 8255SOL    HW125664   2.009   6.995   4.946
 8255SOL    HW225665   1.898   6.961   5.061
 8256SOL     OW25666   6.721   6.255   1.376
 8256SOL    HW125667   6.623   6.261   1.392
 8256SOL    HW225668   6.764   6.205   1.452
 8257SOL     OW25669   5.155   4.430   3.005
 8257SOL    HW125670   5.214   4.373   3.062
 8257SOL    HW225671   5.167   4.405   2.909
 8258SOL     OW25672   5.532   2.497   1.136
 8258SOL    HW125673   5.486   2.575   1.179
 8258SOL    HW225674   5.476   2.463   1.060
 8259SOL     OW25675   3.859   1.661   4.220
 8259SOL    HW125676   3.820   1.673   4.129
 8259SOL    HW225677   3.957   1.681   4.217
 8260SOL     OW25678   2.300   6.817   0.863
 8260SOL    HW125679   2.352   6.796   0.946
 8260SOL    HW225680   2.340   6.770   0.785
 8261SOL     OW25681   5.848   7.015   1.770
 8261SOL    HW125682   5.948   7.015   1.761
 8261SOL    HW225683   5.814   0.081   1.768
 8262SOL     OW25684   1.108   2.400   0.047
 8262SOL    HW125685   1.110   2.500   0.040
 8262SOL    HW225686   1.078   2.361   6.988
 8263SOL     OW25687   0.470   2.664   6.335
 8263SOL    HW125688   0.501   2.742   6.280
 8263SOL    HW225689   0.373   2.673   6.355
 8264SOL     OW25690   1.858   6.358   2.015
 8264SOL    HW125691   1.767   6.363   1.975
 8264SOL    HW225692   1.926   6.387   1.948
 8265SOL     OW25693   6.462   0.925   1.257
 8265SOL    HW125694   6.516   0.990   1.309
 8265SOL    HW225695   6.388   0.889   1.314
 8266SOL     OW25696   2.370   1.158   4.095
 8266SOL    HW125697   2.358   1.233   4.030
 8266SOL    HW225698   2.297   1.162   4.163
 8267SOL     OW25699   1.987   3.568   1.069
 8267SOL    HW125700   1.924   3.601   0.998
 8267SOL    HW225701   2.014   3.474   1.049
 8268SOL     OW25702   1.989   6.846   6.118
 8268SOL    HW125703   1.951   6.840   6.026
 8268SOL    HW225704   1.931   6.795   6.181
 8269SOL     OW25705   4.633   1.261   2.141
 8269SOL    HW125706   4.665   1.276   2.234
 8269SOL    HW225707   4.565   1.330   2.117
 8270SOL     OW25708   3.011   6.152   5.142
 8270SOL    HW125709   2.931   6.118   5.092
 8270SOL    HW225710   2.994   6.146   5.241
 8271SOL     OW25711   0.475   6.931   4.106
 8271SOL    HW125712   0.420   6.953   4.187
 8271SOL    HW225713   0.468   7.006   4.040
 8272SOL     OW25714   6.366   2.140   2.923
 8272SOL    HW125715   6.278   2.180   2.895
 8272SOL    HW225716   6.359   2.040   2.924
 8273SOL     OW25717   2.600   0.867   1.067
 8273SOL    HW125718   2.632   0.956   1.098
 8273SOL    HW225719   2.522   0.838   1.123
 8274SOL     OW25720   4.341   5.319   3.892
 8274SOL    HW125721   4.374   5.225   3.882
 8274SOL    HW225722   4.272   5.323   3.964
 8275SOL     OW25723   5.756   1.342   4.837
 8275SOL    HW125724   5.677   1.282   4.851
 8275SOL    HW225725   5.819   1.299   4.771
 8276SOL     OW25726   0.826   2.405   4.184
 8276SOL    HW125727   0.879   2.320   4.184
 8276SOL    HW225728   0.785   2.420   4.274
 8277SOL     OW25729   0.127   6.324   6.359
 8277SOL    HW125730   0.118   6.272   6.444
 8277SOL    HW225731   0.110   6.263   6.281
 8278SOL     OW25732   3.028   1.324   6.601
 8278SOL    HW125733   3.007   1.229   6.579
 8278SOL    HW225734   3.073   1.368   6.524
 8279SOL     OW25735   1.139   6.146   4.672
 8279SOL    HW125736   1.079   6.216   4.711
 8279SOL    HW225737   1.213   6.191   4.621
 8280SOL     OW25738   2.567   3.060   0.455
 8280SOL    HW125739   2.535   3.140   0.505
 8280SOL    HW225740   2.494   2.992   0.449
 8281SOL     OW25741   2.797   4.521   1.594
 8281SOL    HW125742   2.814   4.610   1.551
 8281SOL    HW225743   2.860   4.508   1.671
 8282SOL     OW25744   5.004   3.644   0.170
 8282SOL    HW125745   5.009   3.743   0.173
 8282SOL    HW225746   4.930   3.613   0.231
 8283SOL     OW25747   1.055   5.167   5.232
 8283SOL    HW125748   1.092   5.075   5.243
 8283SOL    HW225749   1.130   5.233   5.230
 8284SOL     OW25750   1.092   3.929   1.464
 8284SOL    HW125751   1.121   3.921   1.369
 8284SOL    HW225752   1.162   3.977   1.517
 8285SOL     OW25753   3.312   4.030   5.118
 8285SOL    HW125754   3.251   4.089   5.171
 8285SOL    HW225755   3.358   4.085   5.048
 8286SOL     OW25756   5.174   1.953   5.536
 8286SOL    HW125757   5.210   1.985   5.448
 8286SOL    HW225758   5.116   2.025   5.576
 8287SOL     OW25759   1.337   4.730   4.484
 8287SOL    HW125760   1.381   4.708   4.570
 8287SOL    HW225761   1.401   4.779   4.425
 8288SOL     OW25762   3.021   2.079   2.054
 8288SOL    HW125763   3.059   2.061   2.145
 8288SOL    HW225764   2.964   2.161   2.057
 8289SOL     OW25765   0.867   6.351   6.784
 8289SOL    HW125766   0.848   6.315   6.693
 8289SOL    HW225767   0.911   6.280   6.840
 8290SOL     OW25768   5.319   1.459   0.987
 8290SOL    HW125769   5.395   1.433   1.047
 8290SOL    HW225770   5.313   1.559   0.983
 8291SOL     OW25771   4.426   5.927   4.900
 8291SOL    HW125772   4.518   5.907   4.868
 8291SOL    HW225773   4.378   5.842   4.921
 8292SOL     OW25774   3.111   6.631   6.624
 8292SOL    HW125775   3.172   6.570   6.572
 8292SOL    HW225776   3.165   6.703   6.667
 8293SOL     OW25777   2.285   5.665   0.583
 8293SOL    HW125778   2.199   5.639   0.627
 8293SOL    HW225779   2.276   5.655   0.484
 8294SOL     OW25780   5.979   3.781   5.236
 8294SOL    HW125781   6.060   3.728   5.259
 8294SOL    HW225782   5.952   3.837   5.315
 8295SOL     OW25783   5.171   5.235   1.833
 8295SOL    HW125784   5.079   5.253   1.799
 8295SOL    HW225785   5.166   5.182   1.918
 8296SOL     OW25786   2.097   4.819   6.603
 8296SOL    HW125787   2.101   4.759   6.523
 8296SOL    HW225788   2.184   4.867   6.612
 8297SOL     OW25789   0.241   3.187   2.827
 8297SOL    HW125790   0.222   3.088   2.830
 8297SOL    HW225791   0.156   3.236   2.805
 8298SOL     OW25792   6.058   1.481   1.081
 8298SOL    HW125793   6.013   1.496   0.993
 8298SOL    HW225794   6.068   1.383   1.097
 8299SOL     OW25795   0.373   2.526   2.430
 8299SOL    HW125796   0.273   2.525   2.435
 8299SOL    HW225797   0.411   2.488   2.513
 8300SOL     OW25798   6.752   5.510   4.199
 8300SOL    HW125799   6.707   5.590   4.240
 8300SOL    HW225800   6.794   5.537   4.112
 8301SOL     OW25801   3.759   1.437   0.584
 8301SOL    HW125802   3.689   1.379   0.541
 8301SOL    HW225803   3.787   1.396   0.670
 8302SOL     OW25804   5.436   7.012   6.530
 8302SOL    HW125805   5.425   6.938   6.596
 8302SOL    HW225806   5.477   0.064   6.576
 8303SOL     OW25807   6.025   0.788   3.862
 8303SOL    HW125808   6.017   0.884   3.833
 8303SOL    HW225809   6.054   0.785   3.958
 8304SOL     OW25810   6.124   3.219   0.974
 8304SOL    HW125811   6.122   3.156   1.052
 8304SOL    HW225812   6.204   3.199   0.917
 8305SOL     OW25813   4.404   4.945   3.567
 8305SOL    HW125814   4.396   4.846   3.555
 8305SOL    HW225815   4.486   4.966   3.621
 8306SOL     OW25816   5.399   1.551   4.907
 8306SOL    HW125817   5.488   1.578   4.871
 8306SOL    HW225818   5.375   1.609   4.985
 8307SOL     OW25819   3.602   5.175   1.328
 8307SOL    HW125820   3.600   5.149   1.232
 8307SOL    HW225821   3.589   5.093   1.384
 8308SOL     OW25822   2.571   5.727   1.212
 8308SOL    HW125823   2.548   5.696   1.304
 8308SOL    HW225824   2.600   5.649   1.157
 8309SOL     OW25825   6.641   5.676   3.762
 8309SOL    HW125826   6.598   5.586   3.773
 8309SOL    HW225827   6.710   5.688   3.833
 8310SOL     OW25828   0.367   5.457   1.528
 8310SOL    HW125829   0.417   5.507   1.458
 8310SOL    HW225830   0.277   5.431   1.493
 8311SOL     OW25831   0.574   2.208   5.254
 8311SOL    HW125832   0.528   2.296   5.259
 8311SOL    HW225833   0.557   2.165   5.166
 8312SOL     OW25834   4.800   0.226   6.798
 8312SOL    HW125835   4.815   0.174   6.883
 8312SOL    HW225836   4.865   0.195   6.729
 8313SOL     OW25837   5.251   0.059   0.374
 8313SOL    HW125838   5.319   7.015   0.359
 8313SOL    HW225839   5.206   0.081   0.288
 8314SOL     OW25840   4.970   0.315   0.345
 8314SOL    HW125841   4.996   0.372   0.423
 8314SOL    HW225842   4.892   0.257   0.370
 8315SOL     OW25843   4.538   3.048   1.060
 8315SOL    HW125844   4.471   3.085   1.123
 8315SOL    HW225845   4.511   2.956   1.032
 8316SOL     OW25846   1.412   2.150   1.883
 8316SOL    HW125847   1.496   2.180   1.928
 8316SOL    HW225848   1.424   2.057   1.849
 8317SOL     OW25849   1.374   2.796   2.484
 8317SOL    HW125850   1.309   2.785   2.409
 8317SOL    HW225851   1.460   2.750   2.462
 8318SOL     OW25852   3.942   1.695   6.026
 8318SOL    HW125853   4.020   1.678   5.966
 8318SOL    HW225854   3.966   1.766   6.092
 8319SOL     OW25855   1.450   1.685   0.655
 8319SOL    HW125856   1.459   1.586   0.668
 8319SOL    HW225857   1.354   1.707   0.637
 8320SOL     OW25858   3.024   3.312   2.354
 8320SOL    HW125859   2.957   3.303   2.280
 8320SOL    HW225860   3.028   3.227   2.406
 8321SOL     OW25861   7.015   0.037   6.623
 8321SOL    HW125862   7.018   6.969   6.654
 8321SOL    HW225863   0.077   0.079   6.635
 8322SOL     OW25864   6.358   0.224   0.761
 8322SOL    HW125865   6.380   0.246   0.666
 8322SOL    HW225866   6.395   0.294   0.822
 8323SOL     OW25867   5.627   5.881   1.936
 8323SOL    HW125868   5.619   5.940   2.016
 8323SOL    HW225869   5.565   5.804   1.944
 8324SOL     OW25870   5.927   6.853   1.357
 8324SOL    HW125871   5.860   6.925   1.375
 8324SOL    HW225872   5.880   6.772   1.324
 8325SOL     OW25873   2.216   4.002   5.340
 8325SOL    HW125874   2.139   3.968   5.285
 8325SOL    HW225875   2.288   4.036   5.279
 8326SOL     OW25876   5.109   3.157   6.176
 8326SOL    HW125877   5.028   3.199   6.136
 8326SOL    HW225878   5.096   3.146   6.275
 8327SOL     OW25879   6.789   0.576   5.939
 8327SOL    HW125880   6.759   0.536   6.025
 8327SOL    HW225881   6.846   0.657   5.957
 8328SOL     OW25882   2.432   6.428   6.136
 8328SOL    HW125883   2.352   6.413   6.077
 8328SOL    HW225884   2.466   6.521   6.124
 8329SOL     OW25885   1.228   2.948   6.175
 8329SOL    HW125886   1.272   2.864   6.142
 8329SOL    HW225887   1.298   3.019   6.187
 8330SOL     OW25888   2.633   1.195   6.255
 8330SOL    HW125889   2.611   1.263   6.185
 8330SOL    HW225890   2.667   1.241   6.336
 8331SOL     OW25891   3.301   0.704   1.382
 8331SOL    HW125892   3.299   0.727   1.285
 8331SOL    HW225893   3.209   0.712   1.420
 8332SOL     OW25894   5.265   5.344   2.397
 8332SOL    HW125895   5.224   5.408   2.331
 8332SOL    HW225896   5.205   5.264   2.408
 8333SOL     OW25897   0.012   5.598   6.339
 8333SOL    HW125898   6.945   5.578   6.363
 8333SOL    HW225899   0.068   5.597   6.422
 8334SOL     OW25900   3.950   1.179   4.226
 8334SOL    HW125901   3.975   1.118   4.151
 8334SOL    HW225902   3.867   1.147   4.270
 8335SOL     OW25903   5.155   0.848   0.065
 8335SOL    HW125904   5.134   0.905   7.013
 8335SOL    HW225905   5.129   0.895   0.149
 8336SOL     OW25906   0.350   4.551   3.163
 8336SOL    HW125907   0.391   4.633   3.204
 8336SOL    HW225908   0.271   4.522   3.217
 8337SOL     OW25909   1.882   6.664   3.164
 8337SOL    HW125910   1.830   6.634   3.245
 8337SOL    HW225911   1.908   6.760   3.175
 8338SOL     OW25912   3.626   5.305   1.816
 8338SOL    HW125913   3.549   5.257   1.775
 8338SOL    HW225914   3.704   5.242   1.823
 8339SOL     OW25915   6.483   0.297   1.877
 8339SOL    HW125916   6.579   0.296   1.847
 8339SOL    HW225917   6.480   0.310   1.976
 8340SOL     OW25918   5.081   3.205   0.840
 8340SOL    HW125919   5.012   3.225   0.909
 8340SOL    HW225920   5.166   3.253   0.863
 8341SOL     OW25921   3.182   6.800   0.138
 8341SOL    HW125922   3.226   6.872   0.191
 8341SOL    HW225923   3.232   6.714   0.152
 8342SOL     OW25924   4.395   6.689   0.781
 8342SOL    HW125925   4.398   6.594   0.751
 8342SOL    HW225926   4.461   6.703   0.855
 8343SOL     OW25927   0.984   5.229   4.578
 8343SOL    HW125928   1.047   5.155   4.554
 8343SOL    HW225929   0.983   5.242   4.677
 8344SOL     OW25930   4.809   5.646   4.939
 8344SOL    HW125931   4.781   5.671   5.032
 8344SOL    HW225932   4.754   5.569   4.907
 8345SOL     OW25933   4.333   1.340   2.751
 8345SOL    HW125934   4.278   1.262   2.725
 8345SOL    HW225935   4.295   1.423   2.710
 8346SOL     OW25936   4.187   4.970   0.028
 8346SOL    HW125937   4.139   4.887   0.057
 8346SOL    HW225938   4.131   5.020   6.989
 8347SOL     OW25939   4.060   5.735   3.787
 8347SOL    HW125940   4.019   5.673   3.854
 8347SOL    HW225941   4.025   5.713   3.695
 8348SOL     OW25942   2.093   1.373   1.846
 8348SOL    HW125943   2.155   1.388   1.770
 8348SOL    HW225944   2.145   1.357   1.930
 8349SOL     OW25945   6.147   6.674   1.726
 8349SOL    HW125946   6.147   6.641   1.632
 8349SOL    HW225947   6.230   6.643   1.772
 8350SOL     OW25948   3.246   6.891   6.042
 8350SOL    HW125949   3.216   6.802   6.008
 8350SOL    HW225950   3.290   6.880   6.131
 8351SOL     OW25951   5.691   5.316   4.160
 8351SOL    HW125952   5.677   5.220   4.136
 8351SOL    HW225953   5.616   5.371   4.123
 8352SOL     OW25954   0.463   0.259   3.648
 8352SOL    HW125955   0.539   0.224   3.702
 8352SOL    HW225956   0.396   0.186   3.634
 8353SOL     OW25957   6.930   3.622   1.466
 8353SOL    HW125958   6.905   3.658   1.555
 8353SOL    HW225959   6.941   3.698   1.401
 8354SOL     OW25960   4.312   6.880   5.499
 8354SOL    HW125961   4.358   6.794   5.477
 8354SOL    HW225962   4.225   6.885   5.451
 8355SOL     OW25963   2.345   0.758   5.942
 8355SOL    HW125964   2.407   0.689   5.907
 8355SOL    HW225965   2.395   0.824   5.997
 8356SOL     OW25966   0.796   6.664   0.974
 8356SOL    HW125967   0.843   6.711   0.899
 8356SOL    HW225968   0.864   6.626   1.036
 8357SOL     OW25969   3.294   6.725   4.942
 8357SOL    HW125970   3.211   6.751   4.892
 8357SOL    HW225971   3.272   6.648   5.002
 8358SOL     OW25972   1.570   4.164   4.969
 8358SOL    HW125973   1.590   4.092   5.035
 8358SOL    HW225974   1.586   4.130   4.877
 8359SOL     OW25975   3.010   0.713   5.025
 8359SOL    HW125976   3.037   0.806   5.000
 8359SOL    HW225977   2.939   0.681   4.963
 8360SOL     OW25978   3.813   6.151   0.803
 8360SOL    HW125979   3.863   6.211   0.864
 8360SOL    HW225980   3.823   6.182   0.709
 8361SOL     OW25981   3.207   0.480   2.519
 8361SOL    HW125982   3.210   0.386   2.487
 8361SOL    HW225983   3.204   0.481   2.619
 8362SOL     OW25984   4.107   2.279   0.987
 8362SOL    HW125985   4.132   2.265   1.083
 8362SOL    HW225986   4.077   2.192   0.948
 8363SOL     OW25987   6.250   3.042   6.518
 8363SOL    HW125988   6.239   3.118   6.582
 8363SOL    HW225989   6.244   2.956   6.568
 8364SOL     OW25990   1.137   2.496   3.505
 8364SOL    HW125991   1.042   2.521   3.522
 8364SOL    HW225992   1.173   2.549   3.428
 8365SOL     OW25993   1.548   3.024   2.176
 8365SOL    HW125994   1.599   2.938   2.170
 8365SOL    HW225995   1.450   3.004   2.179
 8366SOL     OW25996   2.003   5.911   1.896
 8366SOL    HW125997   2.031   5.914   1.800
 8366SOL    HW225998   1.904   5.912   1.902
 8367SOL     OW25999   4.406   5.774   3.954
 8367SOL    HW126000   4.482   5.837   3.970
 8367SOL    HW226001   4.352   5.806   3.877
 8368SOL     OW26002   1.560   5.680   6.450
 8368SOL    HW126003   1.460   5.683   6.450
 8368SOL    HW226004   1.591   5.588   6.425
 8369SOL     OW26005   1.057   6.867   6.296
 8369SOL    HW126006   1.103   6.817   6.369
 8369SOL    HW226007   1.049   6.809   6.216
 8370SOL     OW26008   3.023   1.251   6.084
 8370SOL    HW126009   2.974   1.172   6.049
 8370SOL    HW226010   3.121   1.238   6.070
 8371SOL     OW26011   2.437   4.608   0.896
 8371SOL    HW126012   2.439   4.547   0.817
 8371SOL    HW226013   2.375   4.571   0.965
 8372SOL     OW26014   2.131   5.101   1.840
 8372SOL    HW126015   2.064   5.067   1.906
 8372SOL    HW226016   2.205   5.147   1.888
 8373SOL     OW26017   1.511   0.028   4.560
 8373SOL    HW126018   1.606   0.003   4.539
 8373SOL    HW226019   1.469   0.070   4.480
 8374SOL     OW26020   0.089   0.859   5.359
 8374SOL    HW126021   0.133   0.772   5.383
 8374SOL    HW226022   0.008   0.872   5.416
 8375SOL     OW26023   2.928   6.417   5.290
 8375SOL    HW126024   2.925   6.326   5.331
 8375SOL    HW226025   3.023   6.441   5.267
 8376SOL     OW26026   1.164   1.235   4.219
 8376SOL    HW126027   1.181   1.139   4.240
 8376SOL    HW226028   1.160   1.288   4.304
 8377SOL     OW26029   4.930   6.288   0.896
 8377SOL    HW126030   4.962   6.326   0.809
 8377SOL    HW226031   4.967   6.196   0.907
 8378SOL     OW26032   4.631   5.720   2.798
 8378SOL    HW126033   4.548   5.666   2.806
 8378SOL    HW226034   4.632   5.792   2.867
 8379SOL     OW26035   5.701   3.138   1.103
 8379SOL    HW126036   5.701   3.077   1.182
 8379SOL    HW226037   5.659   3.225   1.128
 8380SOL     OW26038   0.423   0.545   2.681
 8380SOL    HW126039   0.441   0.630   2.632
 8380SOL    HW226040   0.504   0.518   2.733
 8381SOL     OW26041   0.437   2.678   5.039
 8381SOL    HW126042   0.532   2.690   5.011
 8381SOL    HW226043   0.384   2.758   5.012
 8382SOL     OW26044   2.845   0.438   2.845
 8382SOL    HW126045   2.746   0.453   2.849
 8382SOL    HW226046   2.878   0.457   2.752
 8383SOL     OW26047   2.740   6.941   6.083
 8383SOL    HW126048   2.798   7.021   6.073
 8383SOL    HW226049   2.645   6.970   6.099
 8384SOL     OW26050   6.352   0.738   1.483
 8384SOL    HW126051   6.410   0.681   1.424
 8384SOL    HW226052   6.387   0.735   1.576
 8385SOL     OW26053   5.799   2.445   1.041
 8385SOL    HW126054   5.802   2.465   0.943
 8385SOL    HW226055   5.705   2.422   1.067
 8386SOL     OW26056   2.453   5.660   1.971
 8386SOL    HW126057   2.446   5.748   2.018
 8386SOL    HW226058   2.365   5.638   1.929
 8387SOL     OW26059   1.336   1.375   1.478
 8387SOL    HW126060   1.355   1.328   1.564
 8387SOL    HW226061   1.250   1.424   1.485
 8388SOL     OW26062   2.163   6.245   0.168
 8388SOL    HW126063   2.118   6.168   0.122
 8388SOL    HW226064   2.212   6.211   0.249
 8389SOL     OW26065   0.315   3.552   2.657
 8389SOL    HW126066   0.265   3.536   2.742
 8389SOL    HW226067   0.354   3.465   2.625
 8390SOL     OW26068   4.614   1.419   0.120
 8390SOL    HW126069   4.526   1.460   0.140
 8390SOL    HW226070   4.608   1.367   0.035
 8391SOL     OW26071   6.506   5.282   1.040
 8391SOL    HW126072   6.558   5.335   1.107
 8391SOL    HW226073   6.564   5.262   0.961
 8392SOL     OW26074   6.673   4.352   4.872
 8392SOL    HW126075   6.641   4.367   4.778
 8392SOL    HW226076   6.726   4.431   4.902
 8393SOL     OW26077   0.066   6.158   2.715
 8393SOL    HW126078   0.159   6.150   2.753
 8393SOL    HW226079   0.051   6.253   2.687
 8394SOL     OW26080   6.739   2.989   1.937
 8394SOL    HW126081   6.729   3.019   2.032
 8394SOL    HW226082   6.651   2.995   1.890
 8395SOL     OW26083   2.232   6.753   5.159
 8395SOL    HW126084   2.295   6.824   5.126
 8395SOL    HW226085   2.173   6.724   5.083
 8396SOL     OW26086   5.062   5.183   2.148
 8396SOL    HW126087   5.129   5.189   2.222
 8396SOL    HW226088   4.981   5.237   2.171
 8397SOL     OW26089   1.742   0.499   2.707
 8397SOL    HW126090   1.656   0.509   2.657
 8397SOL    HW226091   1.761   0.583   2.757
 8398SOL     OW26092   3.716   1.901   6.927
 8398SOL    HW126093   3.813   1.916   6.946
 8398SOL    HW226094   3.705   1.824   6.865
 8399SOL     OW26095   5.803   6.223   6.951
 8399SOL    HW126096   5.798   6.207   6.852
 8399SOL    HW226097   5.828   6.139   6.998
 8400SOL     OW26098   1.571   1.253   4.164
 8400SOL    HW126099   1.520   1.236   4.249
 8400SOL    HW226100   1.613   1.168   4.133
 8401SOL     OW26101   2.547   1.389   6.044
 8401SOL    HW126102   2.486   1.419   6.119
 8401SOL    HW226103   2.497   1.326   5.985
 8402SOL     OW26104   4.234   1.675   5.601
 8402SOL    HW126105   4.214   1.599   5.663
 8402SOL    HW226106   4.153   1.733   5.591
 8403SOL     OW26107   1.124   2.584   4.658
 8403SOL    HW126108   1.151   2.539   4.573
 8403SOL    HW226109   1.167   2.674   4.663
 8404SOL     OW26110   4.146   6.870   5.754
 8404SOL    HW126111   4.231   6.904   5.793
 8404SOL    HW226112   4.161   6.842   5.659
 8405SOL     OW26113   1.596   0.926   5.515
 8405SOL    HW126114   1.585   0.853   5.447
 8405SOL    HW226115   1.584   0.889   5.606
 8406SOL     OW26116   4.699   0.532   0.516
 8406SOL    HW126117   4.768   0.551   0.586
 8406SOL    HW226118   4.656   0.444   0.534
 8407SOL     OW26119   3.564   6.542   3.541
 8407SOL    HW126120   3.646   6.529   3.485
 8407SOL    HW226121   3.502   6.464   3.528
 8408SOL     OW26122   6.338   4.201   1.838
 8408SOL    HW126123   6.339   4.120   1.898
 8408SOL    HW226124   6.254   4.253   1.855
 8409SOL     OW26125   5.793   2.360   3.532
 8409SOL    HW126126   5.845   2.326   3.611
 8409SOL    HW226127   5.775   2.458   3.543
 8410SOL     OW26128   5.044   0.657   1.843
 8410SOL    HW126129   5.031   0.594   1.768
 8410SOL    HW226130   5.035   0.608   1.930
 8411SOL     OW26131   0.797   4.704   0.302
 8411SOL    HW126132   0.767   4.769   0.371
 8411SOL    HW226133   0.742   4.716   0.219
 8412SOL     OW26134   3.552   1.396   1.382
 8412SOL    HW126135   3.639   1.392   1.430
 8412SOL    HW226136   3.565   1.365   1.287
 8413SOL     OW26137   4.315   5.638   6.791
 8413SOL    HW126138   4.290   5.613   6.697
 8413SOL    HW226139   4.316   5.738   6.800
 8414SOL     OW26140   3.942   5.423   3.157
 8414SOL    HW126141   3.870   5.480   3.197
 8414SOL    HW226142   3.944   5.437   3.058
 8415SOL     OW26143   7.013   6.448   4.063
 8415SOL    HW126144   6.929   6.396   4.047
 8415SOL    HW226145   0.043   6.444   3.981
 8416SOL     OW26146   5.419   3.470   2.240
 8416SOL    HW126147   5.328   3.505   2.262
 8416SOL    HW226148   5.488   3.535   2.271
 8417SOL     OW26149   1.424   4.138   5.613
 8417SOL    HW126150   1.466   4.109   5.527
 8417SOL    HW226151   1.457   4.081   5.688
 8418SOL     OW26152   5.855   5.040   1.106
 8418SOL    HW126153   5.815   4.949   1.097
 8418SOL    HW226154   5.944   5.041   1.061
 8419SOL     OW26155   5.756   6.858   1.975
 8419SOL    HW126156   5.695   6.779   1.965
 8419SOL    HW226157   5.756   6.912   1.890
 8420SOL     OW26158   4.306   0.510   6.703
 8420SOL    HW126159   4.259   0.557   6.778
 8420SOL    HW226160   4.384   0.460   6.741
 8421SOL     OW26161   2.200   4.957   6.949
 8421SOL    HW126162   2.229   4.929   6.858
 8421SOL    HW226163   2.113   4.913   6.972
 8422SOL     OW26164   3.975   1.133   1.621
 8422SOL    HW126165   3.927   1.046   1.632
 8422SOL    HW226166   4.023   1.132   1.533
 8423SOL     OW26167   3.052   4.894   5.473
 8423SOL    HW126168   2.965   4.933   5.445
 8423SOL    HW226169   3.127   4.935   5.421
 8424SOL     OW26170   2.536   1.943   2.326
 8424SOL    HW126171   2.499   1.968   2.237
 8424SOL    HW226172   2.482   1.986   2.398
 8425SOL     OW26173   5.168   4.996   5.980
 8425SOL    HW126174   5.104   5.064   6.015
 8425SOL    HW226175   5.227   5.038   5.910
 8426SOL     OW26176   3.443   3.511   3.272
 8426SOL    HW126177   3.351   3.537   3.243
 8426SOL    HW226178   3.448   3.412   3.284
 8427SOL     OW26179   3.711   4.170   4.885
 8427SOL    HW126180   3.614   4.154   4.863
 8427SOL    HW226181   3.718   4.249   4.946
 8428SOL     OW26182   0.828   5.592   1.524
 8428SOL    HW126183   0.858   5.508   1.570
 8428SOL    HW226184   0.768   5.643   1.586
 8429SOL     OW26185   0.935   5.854   4.047
 8429SOL    HW126186   0.925   5.780   3.982
 8429SOL    HW226187   0.943   5.816   4.140
 8430SOL     OW26188   3.381   5.408   3.196
 8430SOL    HW126189   3.362   5.451   3.108
 8430SOL    HW226190   3.357   5.311   3.191
 8431SOL     OW26191   3.051   4.717   0.376
 8431SOL    HW126192   3.016   4.637   0.327
 8431SOL    HW226193   3.148   4.729   0.355
 8432SOL     OW26194   5.808   6.748   6.052
 8432SOL    HW126195   5.723   6.798   6.070
 8432SOL    HW226196   5.849   6.780   5.967
 8433SOL     OW26197   5.307   2.547   0.625
 8433SOL    HW126198   5.344   2.455   0.638
 8433SOL    HW226199   5.309   2.571   0.528
 8434SOL     OW26200   2.581   6.290   5.051
 8434SOL    HW126201   2.546   6.351   4.981
 8434SOL    HW226202   2.508   6.228   5.081
 8435SOL     OW26203   6.205   0.717   1.860
 8435SOL    HW126204   6.166   0.804   1.890
 8435SOL    HW226205   6.299   0.731   1.829
 8436SOL     OW26206   3.068   6.326   3.254
 8436SOL    HW126207   3.060   6.281   3.343
 8436SOL    HW226208   3.123   6.269   3.192
 8437SOL     OW26209   2.674   0.969   4.527
 8437SOL    HW126210   2.589   0.973   4.580
 8437SOL    HW226211   2.687   1.056   4.478
 8438SOL     OW26212   2.214   4.932   2.490
 8438SOL    HW126213   2.269   4.909   2.571
 8438SOL    HW226214   2.206   5.031   2.482
 8439SOL     OW26215   6.778   4.714   3.022
 8439SOL    HW126216   6.704   4.647   3.022
 8439SOL    HW226217   6.760   4.784   2.952
 8440SOL     OW26218   1.639   2.010   3.619
 8440SOL    HW126219   1.593   2.095   3.644
 8440SOL    HW226220   1.700   1.982   3.693
 8441SOL     OW26221   6.259   6.479   0.422
 8441SOL    HW126222   6.197   6.551   0.390
 8441SOL    HW226223   6.241   6.395   0.371
 8442SOL     OW26224   2.870   2.220   4.983
 8442SOL    HW126225   2.967   2.230   5.007
 8442SOL    HW226226   2.815   2.227   5.066
 8443SOL     OW26227   2.215   4.656   3.343
 8443SOL    HW126228   2.168   4.707   3.415
 8443SOL    HW226229   2.182   4.561   3.343
 8444SOL     OW26230   3.001   6.164   3.932
 8444SOL    HW126231   2.938   6.190   3.858
 8444SOL    HW226232   3.073   6.105   3.895
 8445SOL     OW26233   3.740   6.613   1.229
 8445SOL    HW126234   3.676   6.688   1.211
 8445SOL    HW226235   3.740   6.592   1.327
 8446SOL     OW26236   4.737   4.868   6.805
 8446SOL    HW126237   4.782   4.782   6.781
 8446SOL    HW226238   4.718   4.870   6.903
 8447SOL     OW26239   4.962   1.445   2.368
 8447SOL    HW126240   4.949   1.520   2.434
 8447SOL    HW226241   5.057   1.443   2.338
 8448SOL     OW26242   4.690   5.758   4.370
 8448SOL    HW126243   4.634   5.840   4.360
 8448SOL    HW226244   4.676   5.699   4.291
 8449SOL     OW26245   0.282   2.771   3.550
 8449SOL    HW126246   0.381   2.770   3.538
 8449SOL    HW226247   0.246   2.860   3.521
 8450SOL     OW26248   0.342   6.691   1.236
 8450SOL    HW126249   0.261   6.749   1.237
 8450SOL    HW226250   0.328   6.615   1.172
 8451SOL     OW26251   3.729   1.773   0.265
 8451SOL    HW126252   3.804   1.727   0.219
 8451SOL    HW226253   3.765   1.851   0.318
 8452SOL     OW26254   6.110   1.864   2.608
 8452SOL    HW126255   6.080   1.956   2.582
 8452SOL    HW226256   6.035   1.815   2.651
 8453SOL     OW26257   0.585   4.150   6.861
 8453SOL    HW126258   0.684   4.154   6.850
 8453SOL    HW226259   0.561   4.067   6.913
 8454SOL     OW26260   6.637   6.466   1.743
 8454SOL    HW126261   6.698   6.429   1.813
 8454SOL    HW226262   6.687   6.530   1.685
 8455SOL     OW26263   6.167   2.464   2.192
 8455SOL    HW126264   6.112   2.430   2.115
 8455SOL    HW226265   6.107   2.507   2.260
 8456SOL     OW26266   3.712   5.983   2.883
 8456SOL    HW126267   3.644   6.035   2.934
 8456SOL    HW226268   3.695   5.885   2.894
 8457SOL     OW26269   6.502   6.804   4.333
 8457SOL    HW126270   6.420   6.788   4.278
 8457SOL    HW226271   6.538   6.896   4.314
 8458SOL     OW26272   3.305   0.823   6.996
 8458SOL    HW126273   3.282   0.911   6.953
 8458SOL    HW226274   3.280   0.749   6.934
 8459SOL     OW26275   3.079   5.971   2.087
 8459SOL    HW126276   3.170   5.930   2.074
 8459SOL    HW226277   3.081   6.032   2.166
 8460SOL     OW26278   3.979   4.195   5.203
 8460SOL    HW126279   4.039   4.275   5.196
 8460SOL    HW226280   3.977   4.146   5.117
 8461SOL     OW26281   0.801   4.109   4.931
 8461SOL    HW126282   0.798   4.199   4.975
 8461SOL    HW226283   0.714   4.091   4.885
 8462SOL     OW26284   2.657   2.584   6.978
 8462SOL    HW126285   2.724   2.652   7.008
 8462SOL    HW226286   2.674   2.561   6.882
 8463SOL     OW26287   6.637   0.003   1.425
 8463SOL    HW126288   6.643   6.938   1.387
 8463SOL    HW226289   6.618   0.068   1.352
 8464SOL     OW26290   5.613   3.541   4.272
 8464SOL    HW126291   5.626   3.470   4.202
 8464SOL    HW226292   5.649   3.507   4.360
 8465SOL     OW26293   0.971   3.054   0.744
 8465SOL    HW126294   0.953   3.112   0.824
 8465SOL    HW226295   1.063   3.017   0.749
 8466SOL     OW26296   0.884   6.397   3.927
 8466SOL    HW126297   0.811   6.451   3.885
 8466SOL    HW226298   0.955   6.458   3.962
 8467SOL     OW26299   3.981   6.920   6.495
 8467SOL    HW126300   4.055   6.973   6.454
 8467SOL    HW226301   4.006   6.895   6.589
 8468SOL     OW26302   3.561   2.253   6.782
 8468SOL    HW126303   3.615   2.290   6.857
 8468SOL    HW226304   3.525   2.164   6.808
 8469SOL     OW26305   3.385   2.045   6.869
 8469SOL    HW126306   3.382   1.962   6.925
 8469SOL    HW226307   3.398   2.125   6.927
 8470SOL     OW26308   1.726   4.006   7.015
 8470SOL    HW126309   1.682   4.077   0.043
 8470SOL    HW226310   1.689   4.008   6.922
 8471SOL     OW26311   3.126   1.132   3.732
 8471SOL    HW126312   3.140   1.060   3.800
 8471SOL    HW226313   3.028   1.152   3.726
 8472SOL     OW26314   6.881   0.992   4.801
 8472SOL    HW126315   6.938   0.984   4.720
 8472SOL    HW226316   6.888   0.908   4.855
 8473SOL     OW26317   6.443   6.415   6.659
 8473SOL    HW126318   6.402   6.337   6.707
 8473SOL    HW226319   6.485   6.384   6.574
 8474SOL     OW26320   3.380   3.251   1.840
 8474SOL    HW126321   3.320   3.191   1.893
 8474SOL    HW226322   3.461   3.273   1.895
 8475SOL     OW26323   0.546   2.813   3.520
 8475SOL    HW126324   0.577   2.834   3.613
 8475SOL    HW226325   0.621   2.830   3.456
 8476SOL     OW26326   6.829   2.046   0.780
 8476SOL    HW126327   6.736   2.059   0.744
 8476SOL    HW226328   6.851   1.949   0.781
 8477SOL     OW26329   5.106   6.663   1.590
 8477SOL    HW126330   5.110   6.567   1.620
 8477SOL    HW226331   5.090   6.666   1.492
 8478SOL     OW26332   1.040   6.645   6.129
 8478SOL    HW126333   0.958   6.593   6.107
 8478SOL    HW226334   1.090   6.599   6.203
 8479SOL     OW26335   0.309   2.877   1.195
 8479SOL    HW126336   0.370   2.817   1.143
 8479SOL    HW226337   0.311   2.850   1.292
 8480SOL     OW26338   4.447   1.624   0.152
 8480SOL    HW126339   4.447   1.724   0.159
 8480SOL    HW226340   4.462   1.584   0.242
 8481SOL     OW26341   4.499   2.076   3.537
 8481SOL    HW126342   4.413   2.026   3.545
 8481SOL    HW226343   4.511   2.136   3.617
 8482SOL     OW26344   4.530   5.679   2.108
 8482SOL    HW126345   4.551   5.772   2.078
 8482SOL    HW226346   4.603   5.617   2.078
 8483SOL     OW26347   4.194   6.143   2.287
 8483SOL    HW126348   4.249   6.218   2.252
 8483SOL    HW226349   4.176   6.077   2.214
 8484SOL     OW26350   0.917   5.988   3.141
 8484SOL    HW126351   0.917   5.961   3.237
 8484SOL    HW226352   0.832   5.959   3.098
 8485SOL     OW26353   3.744   3.300   0.632
 8485SOL    HW126354   3.765   3.386   0.679
 8485SOL    HW226355   3.783   3.301   0.540
 8486SOL     OW26356   3.541   0.955   3.267
 8486SOL    HW126357   3.610   0.957   3.339
 8486SOL    HW226358   3.510   0.861   3.252
 8487SOL     OW26359   5.406   2.273   5.804
 8487SOL    HW126360   5.332   2.211   5.832
 8487SOL    HW226361   5.367   2.360   5.774
 8488SOL     OW26362   5.878   5.536   6.780
 8488SOL    HW126363   5.784   5.501   6.767
 8488SOL    HW226364   5.924   5.540   6.691
 8489SOL     OW26365   6.458   1.670   1.277
 8489SOL    HW126366   6.374   1.704   1.320
 8489SOL    HW226367   6.528   1.655   1.347
 8490SOL     OW26368   4.008   6.733   3.896
 8490SOL    HW126369   3.916   6.771   3.895
 8490SOL    HW226370   4.070   6.797   3.941
 8491SOL     OW26371   2.463   6.715   0.658
 8491SOL    HW126372   2.495   6.623   0.636
 8491SOL    HW226373   2.459   6.770   0.575
 8492SOL     OW26374   4.605   4.137   5.992
 8492SOL    HW126375   4.517   4.101   5.960
 8492SOL    HW226376   4.589   4.221   6.044
 8493SOL     OW26377   2.883   2.776   6.375
 8493SOL    HW126378   2.800   2.729   6.405
 8493SOL    HW226379   2.947   2.709   6.338
 8494SOL     OW26380   2.967   5.242   1.133
 8494SOL    HW126381   2.958   5.289   1.046
 8494SOL    HW226382   3.061   5.212   1.146
 8495SOL     OW26383   6.863   4.873   1.764
 8495SOL    HW126384   6.880   4.897   1.669
 8495SOL    HW226385   6.810   4.945   1.808
 8496SOL     OW26386   0.772   2.006   2.354
 8496SOL    HW126387   0.716   2.084   2.325
 8496SOL    HW226388   0.846   1.993   2.288
 8497SOL     OW26389   6.273   1.084   3.720
 8497SOL    HW126390   6.313   1.024   3.789
 8497SOL    HW226391   6.324   1.075   3.635
 8498SOL     OW26392   0.521   6.165   2.777
 8498SOL    HW126393   0.433   6.138   2.816
 8498SOL    HW226394   0.570   6.222   2.844
 8499SOL     OW26395   2.389   4.833   6.442
 8499SOL    HW126396   2.488   4.819   6.447
 8499SOL    HW226397   2.351   4.829   6.534
 8500SOL     OW26398   2.222   6.405   4.784
 8500SOL    HW126399   2.271   6.321   4.760
 8500SOL    HW226400   2.269   6.451   4.859
 8501SOL     OW26401   0.684   1.656   6.852
 8501SOL    HW126402   0.618   1.728   6.829
 8501SOL    HW226403   0.774   1.697   6.870
 8502SOL     OW26404   2.071   4.858   1.365
 8502SOL    HW126405   2.056   4.796   1.288
 8502SOL    HW226406   2.124   4.812   1.436
 8503SOL     OW26407   1.642   0.067   4.123
 8503SOL    HW126408   1.591   0.153   4.116
 8503SOL    HW226409   1.612   0.005   4.051
 8504SOL     OW26410   2.729   5.294   2.857
 8504SOL    HW126411   2.728   5.394   2.857
 8504SOL    HW226412   2.712   5.260   2.764
 8505SOL     OW26413   4.898   3.390   3.644
 8505SOL    HW126414   4.834   3.417   3.572
 8505SOL    HW226415   4.889   3.292   3.662
 8506SOL     OW26416   6.472   1.284   6.944
 8506SOL    HW126417   6.500   1.195   6.907
 8506SOL    HW226418   6.536   1.354   6.913
 8507SOL     OW26419   3.551   0.780   5.564
 8507SOL    HW126420   3.500   0.838   5.629
 8507SOL    HW226421   3.560   0.688   5.602
 8508SOL     OW26422   6.084   1.848   4.778
 8508SOL    HW126423   6.015   1.909   4.817
 8508SOL    HW226424   6.040   1.765   4.745
 8509SOL     OW26425   4.450   1.839   3.149
 8509SOL    HW126426   4.377   1.879   3.093
 8509SOL    HW226427   4.415   1.816   3.239
 8510SOL     OW26428   5.594   4.064   2.973
 8510SOL    HW126429   5.594   3.972   2.935
 8510SOL    HW226430   5.593   4.059   3.073
 8511SOL     OW26431   6.505   3.762   1.498
 8511SOL    HW126432   6.594   3.805   1.504
 8511SOL    HW226433   6.516   3.663   1.489
 8512SOL     OW26434   3.469   2.100   1.474
 8512SOL    HW126435   3.464   2.093   1.573
 8512SOL    HW226436   3.508   2.189   1.449
 8513SOL     OW26437   4.596   4.537   1.784
 8513SOL    HW126438   4.498   4.547   1.803
 8513SOL    HW226439   4.614   4.444   1.753
 8514SOL     OW26440   2.729   2.400   4.004
 8514SOL    HW126441   2.811   2.418   4.059
 8514SOL    HW226442   2.649   2.394   4.065
 8515SOL     OW26443   5.446   1.698   0.686
 8515SOL    HW126444   5.506   1.623   0.659
 8515SOL    HW226445   5.472   1.781   0.637
 8516SOL     OW26446   6.855   1.740   1.335
 8516SOL    HW126447   6.787   1.671   1.315
 8516SOL    HW226448   6.916   1.707   1.408
 8517SOL     OW26449   1.666   3.415   6.588
 8517SOL    HW126450   1.572   3.447   6.601
 8517SOL    HW226451   1.729   3.493   6.595
 8518SOL     OW26452   5.398   4.144   0.265
 8518SOL    HW126453   5.349   4.091   0.196
 8518SOL    HW226454   5.332   4.191   0.325
 8519SOL     OW26455   1.345   4.216   1.324
 8519SOL    HW126456   1.351   4.180   1.231
 8519SOL    HW226457   1.436   4.215   1.365
 8520SOL     OW26458   3.409   3.405   0.221
 8520SOL    HW126459   3.319   3.446   0.238
 8520SOL    HW226460   3.397   3.320   0.169
 8521SOL     OW26461   1.985   5.327   5.558
 8521SOL    HW126462   2.040   5.248   5.583
 8521SOL    HW226463   2.037   5.411   5.573
 8522SOL     OW26464   1.143   6.400   1.741
 8522SOL    HW126465   1.129   6.307   1.707
 8522SOL    HW226466   1.118   6.466   1.670
 8523SOL     OW26467   1.928   6.448   6.712
 8523SOL    HW126468   1.878   6.519   6.762
 8523SOL    HW226469   1.988   6.492   6.644
 8524SOL     OW26470   0.410   2.689   5.316
 8524SOL    HW126471   0.423   2.677   5.218
 8524SOL    HW226472   0.453   2.775   5.345
 8525SOL     OW26473   6.501   4.339   2.576
 8525SOL    HW126474   6.467   4.254   2.536
 8525SOL    HW226475   6.473   4.416   2.519
 8526SOL     OW26476   4.283   6.103   6.493
 8526SOL    HW126477   4.241   6.133   6.579
 8526SOL    HW226478   4.270   6.005   6.482
 8527SOL     OW26479   2.584   0.878   6.025
 8527SOL    HW126480   2.662   0.818   6.043
 8527SOL    HW226481   2.555   0.923   6.109
 8528SOL     OW26482   3.650   1.225   6.518
 8528SOL    HW126483   3.648   1.241   6.616
 8528SOL    HW226484   3.561   1.249   6.478
 8529SOL     OW26485   0.784   0.571   1.039
 8529SOL    HW126486   0.724   0.503   1.083
 8529SOL    HW226487   0.768   0.571   0.941
 8530SOL     OW26488   3.812   4.096   5.393
 8530SOL    HW126489   3.770   4.176   5.436
 8530SOL    HW226490   3.888   4.125   5.335
 8531SOL     OW26491   6.630   5.283   2.815
 8531SOL    HW126492   6.667   5.341   2.743
 8531SOL    HW226493   6.540   5.317   2.842
 8532SOL     OW26494   4.335   4.999   5.071
 8532SOL    HW126495   4.399   4.997   4.994
 8532SOL    HW226496   4.260   4.935   5.054
 8533SOL     OW26497   1.250   0.192   6.686
 8533SOL    HW126498   1.158   0.181   6.647
 8533SOL    HW226499   1.285   0.102   6.712
 8534SOL     OW26500   6.795   3.044   3.786
 8534SOL    HW126501   6.830   3.133   3.759
 8534SOL    HW226502   6.818   2.976   3.716
 8535SOL     OW26503   6.197   2.019   4.397
 8535SOL    HW126504   6.182   2.114   4.421
 8535SOL    HW226505   6.153   1.999   4.310
 8536SOL     OW26506   0.397   2.417   4.998
 8536SOL    HW126507   0.389   2.517   4.993
 8536SOL    HW226508   0.474   2.387   4.941
 8537SOL     OW26509   5.062   1.232   2.005
 8537SOL    HW126510   5.121   1.229   1.924
 8537SOL    HW226511   4.980   1.178   1.988
 8538SOL     OW26512   0.589   0.665   0.206
 8538SOL    HW126513   0.507   0.650   0.151
 8538SOL    HW226514   0.666   0.686   0.145
 8539SOL     OW26515   5.093   0.649   2.848
 8539SOL    HW126516   5.119   0.553   2.862
 8539SOL    HW226517   5.165   0.708   2.886
 8540SOL     OW26518   4.564   0.369   6.446
 8540SOL    HW126519   4.635   0.324   6.391
 8540SOL    HW226520   4.603   0.449   6.491
 8541SOL     OW26521   2.799   1.642   4.136
 8541SOL    HW126522   2.773   1.546   4.132
 8541SOL    HW226523   2.746   1.688   4.208
 8542SOL     OW26524   3.842   4.814   6.863
 8542SOL    HW126525   3.798   4.731   6.895
 8542SOL    HW226526   3.783   4.893   6.880
 8543SOL     OW26527   3.248   0.711   1.099
 8543SOL    HW126528   3.257   0.803   1.059
 8543SOL    HW226529   3.179   0.660   1.050
 8544SOL     OW26530   5.327   3.274   4.823
 8544SOL    HW126531   5.383   3.357   4.814
 8544SOL    HW226532   5.269   3.282   4.904
 8545SOL     OW26533   4.673   6.822   4.916
 8545SOL    HW126534   4.691   6.847   4.821
 8545SOL    HW226535   4.719   6.736   4.938
 8546SOL     OW26536   6.797   1.693   3.677
 8546SOL    HW126537   6.774   1.737   3.590
 8546SOL    HW226538   6.872   1.628   3.662
 8547SOL     OW26539   1.301   0.038   6.219
 8547SOL    HW126540   1.232   0.109   6.236
 8547SOL    HW226541   1.333   0.046   6.124
 8548SOL     OW26542   5.716   2.719   5.533
 8548SOL    HW126543   5.723   2.795   5.469
 8548SOL    HW226544   5.794   2.721   5.596
 8549SOL     OW26545   1.371   2.673   4.299
 8549SOL    HW126546   1.413   2.729   4.228
 8549SOL    HW226547   1.443   2.633   4.356
 8550SOL     OW26548   1.812   4.864   0.354
 8550SOL    HW126549   1.871   4.882   0.432
 8550SOL    HW226550   1.867   4.839   0.275
 8551SOL     OW26551   3.350   3.624   6.706
 8551SOL    HW126552   3.396   3.628   6.794
 8551SOL    HW226553   3.357   3.532   6.668
 8552SOL     OW26554   2.405   0.558   3.845
 8552SOL    HW126555   2.315   0.521   3.819
 8552SOL    HW226556   2.458   0.485   3.889
 8553SOL     OW26557   4.237   4.240   6.925
 8553SOL    HW126558   4.305   4.176   6.890
 8553SOL    HW226559   4.171   4.191   6.983
 8554SOL     OW26560   0.974   4.603   0.585
 8554SOL    HW126561   0.875   4.612   0.597
 8554SOL    HW226562   1.020   4.627   0.671
 8555SOL     OW26563   2.124   1.666   3.178
 8555SOL    HW126564   2.171   1.753   3.162
 8555SOL    HW226565   2.037   1.683   3.224
 8556SOL     OW26566   1.582   6.024   5.000
 8556SOL    HW126567   1.533   5.997   4.916
 8556SOL    HW226568   1.532   5.991   5.080
 8557SOL     OW26569   5.626   6.656   3.238
 8557SOL    HW126570   5.604   6.664   3.140
 8557SOL    HW226571   5.714   6.700   3.255
 8558SOL     OW26572   3.037   5.039   3.210
 8558SOL    HW126573   3.029   5.016   3.307
 8558SOL    HW226574   2.971   4.985   3.157
 8559SOL     OW26575   0.813   0.314   2.450
 8559SOL    HW126576   0.821   0.241   2.382
 8559SOL    HW226577   0.902   0.327   2.495
 8560SOL     OW26578   6.566   6.192   1.969
 8560SOL    HW126579   6.652   6.231   2.004
 8560SOL    HW226580   6.489   6.244   2.006
 8561SOL     OW26581   3.092   0.851   2.475
 8561SOL    HW126582   3.136   0.941   2.487
 8561SOL    HW226583   3.062   0.816   2.563
 8562SOL     OW26584   3.957   5.672   5.792
 8562SOL    HW126585   4.015   5.735   5.844
 8562SOL    HW226586   3.962   5.581   5.834
 8563SOL     OW26587   2.006   4.274   6.772
 8563SOL    HW126588   1.965   4.184   6.757
 8563SOL    HW226589   2.105   4.267   6.759
 8564SOL     OW26590   3.186   1.227   5.451
 8564SOL    HW126591   3.264   1.253   5.393
 8564SOL    HW226592   3.149   1.308   5.496
 8565SOL     OW26593   4.159   5.555   1.060
 8565SOL    HW126594   4.222   5.554   1.138
 8565SOL    HW226595   4.199   5.503   0.984
 8566SOL     OW26596   1.908   0.479   1.254
 8566SOL    HW126597   1.970   0.465   1.331
 8566SOL    HW226598   1.909   0.575   1.227
 8567SOL     OW26599   0.449   2.413   2.681
 8567SOL    HW126600   0.400   2.327   2.693
 8567SOL    HW226601   0.537   2.408   2.728
 8568SOL     OW26602   5.387   1.427   6.178
 8568SOL    HW126603   5.434   1.511   6.203
 8568SOL    HW226604   5.312   1.410   6.241
 8569SOL     OW26605   4.892   1.004   6.220
 8569SOL    HW126606   4.982   1.031   6.188
 8569SOL    HW226607   4.825   1.075   6.198
 8570SOL     OW26608   1.865   2.353   5.195
 8570SOL    HW126609   1.819   2.348   5.284
 8570SOL    HW226610   1.914   2.267   5.178
 8571SOL     OW26611   1.105   5.623   5.520
 8571SOL    HW126612   1.084   5.530   5.551
 8571SOL    HW226613   1.127   5.622   5.423
 8572SOL     OW26614   2.709   4.768   6.725
 8572SOL    HW126615   2.649   4.688   6.723
 8572SOL    HW226616   2.685   4.830   6.651
 8573SOL     OW26617   3.641   6.068   6.278
 8573SOL    HW126618   3.692   6.153   6.295
 8573SOL    HW226619   3.543   6.086   6.287
 8574SOL     OW26620   6.783   5.483   5.832
 8574SOL    HW126621   6.712   5.478   5.902
 8574SOL    HW226622   6.855   5.546   5.860
 8575SOL     OW26623   2.492   2.572   4.890
 8575SOL    HW126624   2.505   2.626   4.972
 8575SOL    HW226625   2.575   2.519   4.871
 8576SOL     OW26626   1.807   5.250   6.529
 8576SOL    HW126627   1.726   5.193   6.547
 8576SOL    HW226628   1.882   5.220   6.589
 8577SOL     OW26629   6.844   6.611   4.352
 8577SOL    HW126630   6.789   6.547   4.298
 8577SOL    HW226631   6.819   6.705   4.328
 8578SOL     OW26632   5.396   1.043   4.202
 8578SOL    HW126633   5.480   1.004   4.165
 8578SOL    HW226634   5.399   1.142   4.196
 8579SOL     OW26635   1.729   0.567   2.198
 8579SOL    HW126636   1.738   0.629   2.119
 8579SOL    HW226637   1.768   0.478   2.175
 8580SOL     OW26638   1.807   0.058   1.996
 8580SOL    HW126639   1.902   0.037   2.021
 8580SOL    HW226640   1.785   0.015   1.909
 8581SOL     OW26641   3.015   3.982   2.059
 8581SOL    HW126642   2.973   3.892   2.055
 8581SOL    HW226643   2.973   4.036   2.132
 8582SOL     OW26644   4.570   4.675   3.204
 8582SOL    HW126645   4.534   4.582   3.194
 8582SOL    HW226646   4.669   4.675   3.188
 8583SOL     OW26647   5.282   0.342   4.540
 8583SOL    HW126648   5.333   0.304   4.618
 8583SOL    HW226649   5.331   0.421   4.504
 8584SOL     OW26650   1.173   4.571   6.024
 8584SOL    HW126651   1.170   4.475   5.998
 8584SOL    HW226652   1.081   4.603   6.045
 8585SOL     OW26653   0.121   6.074   6.185
 8585SOL    HW126654   0.139   5.984   6.224
 8585SOL    HW226655   0.032   6.075   6.139
 8586SOL     OW26656   2.510   0.123   2.739
 8586SOL    HW126657   2.574   0.185   2.694
 8586SOL    HW226658   2.544   0.030   2.733
 8587SOL     OW26659   1.446   6.858   4.200
 8587SOL    HW126660   1.507   6.798   4.252
 8587SOL    HW226661   1.494   6.893   4.120
 8588SOL     OW26662   2.858   1.043   0.417
 8588SOL    HW126663   2.941   1.093   0.442
 8588SOL    HW226664   2.852   0.959   0.471
 8589SOL     OW26665   4.710   2.957   5.124
 8589SOL    HW126666   4.770   2.889   5.083
 8589SOL    HW226667   4.650   2.995   5.054
 8590SOL     OW26668   6.813   6.222   4.086
 8590SOL    HW126669   6.733   6.166   4.064
 8590SOL    HW226670   6.862   6.180   4.163
 8591SOL     OW26671   0.554   3.910   6.993
 8591SOL    HW126672   0.516   3.899   0.057
 8591SOL    HW226673   0.575   3.821   6.955
 8592SOL     OW26674   6.957   2.515   6.323
 8592SOL    HW126675   6.980   2.491   6.229
 8592SOL    HW226676   6.979   2.611   6.340
 8593SOL     OW26677   2.896   0.233   0.822
 8593SOL    HW126678   2.984   0.194   0.796
 8593SOL    HW226679   2.836   0.239   0.742
 8594SOL     OW26680   4.336   2.255   5.602
 8594SOL    HW126681   4.343   2.287   5.508
 8594SOL    HW226682   4.406   2.185   5.619
 8595SOL     OW26683   0.989   2.830   3.281
 8595SOL    HW126684   1.083   2.820   3.315
 8595SOL    HW226685   0.989   2.826   3.181
 8596SOL     OW26686   0.385   5.374   3.364
 8596SOL    HW126687   0.329   5.425   3.429
 8596SOL    HW226688   0.343   5.285   3.347
 8597SOL     OW26689   4.579   1.512   1.112
 8597SOL    HW126690   4.501   1.450   1.113
 8597SOL    HW226691   4.635   1.494   1.032
 8598SOL     OW26692   5.806   6.513   0.733
 8598SOL    HW126693   5.858   6.551   0.656
 8598SOL    HW226694   5.757   6.587   0.780
 8599SOL     OW26695   0.832   2.767   4.320
 8599SOL    HW126696   0.803   2.777   4.415
 8599SOL    HW226697   0.930   2.751   4.316
 8600SOL     OW26698   4.618   5.016   5.656
 8600SOL    HW126699   4.575   4.960   5.586
 8600SOL    HW226700   4.563   5.099   5.671
 8601SOL     OW26701   0.717   1.373   5.121
 8601SOL    HW126702   0.807   1.415   5.119
 8601SOL    HW226703   0.716   1.296   5.184
 8602SOL     OW26704   2.791   5.512   2.501
 8602SOL    HW126705   2.811   5.530   2.405
 8602SOL    HW226706   2.784   5.413   2.516
 8603SOL     OW26707   3.895   5.636   0.204
 8603SOL    HW126708   3.966   5.586   0.155
 8603SOL    HW226709   3.905   5.734   0.186
 8604SOL     OW26710   0.510   2.581   4.366
 8604SOL    HW126711   0.441   2.535   4.311
 8604SOL    HW226712   0.593   2.527   4.368
 8605SOL     OW26713   3.024   5.558   4.492
 8605SOL    HW126714   2.967   5.636   4.468
 8605SOL    HW226715   2.970   5.490   4.541
 8606SOL     OW26716   1.637   3.120   6.525
 8606SOL    HW126717   1.670   3.109   6.432
 8606SOL    HW226718   1.684   3.197   6.569
 8607SOL     OW26719   3.493   5.865   0.499
 8607SOL    HW126720   3.445   5.928   0.560
 8607SOL    HW226721   3.590   5.890   0.495
 8608SOL     OW26722   4.351   5.641   2.782
 8608SOL    HW126723   4.319   5.607   2.693
 8608SOL    HW226724   4.349   5.741   2.782
 8609SOL     OW26725   5.461   1.214   3.182
 8609SOL    HW126726   5.559   1.220   3.166
 8609SOL    HW226727   5.412   1.245   3.101
 8610SOL     OW26728   1.917   2.193   2.785
 8610SOL    HW126729   1.922   2.153   2.694
 8610SOL    HW226730   1.840   2.257   2.789
 8611SOL     OW26731   2.971   1.958   4.694
 8611SOL    HW126732   2.971   1.898   4.774
 8611SOL    HW226733   3.007   1.908   4.616
 8612SOL     OW26734   3.511   3.266   1.385
 8612SOL    HW126735   3.459   3.348   1.362
 8612SOL    HW226736   3.465   3.217   1.459
 8613SOL     OW26737   2.205   1.792   1.172
 8613SOL    HW126738   2.134   1.732   1.210
 8613SOL    HW226739   2.233   1.858   1.241
 8614SOL     OW26740   1.233   3.001   2.139
 8614SOL    HW126741   1.271   2.917   2.177
 8614SOL    HW226742   1.159   3.034   2.197
 8615SOL     OW26743   4.815   1.623   5.161
 8615SOL    HW126744   4.777   1.690   5.098
 8615SOL    HW226745   4.890   1.574   5.117
 8616SOL     OW26746   3.188   4.474   1.691
 8616SOL    HW126747   3.221   4.567   1.675
 8616SOL    HW226748   3.091   4.477   1.713
 8617SOL     OW26749   6.722   0.972   6.599
 8617SOL    HW126750   6.677   0.896   6.553
 8617SOL    HW226751   6.771   1.028   6.532
 8618SOL     OW26752   6.049   5.614   0.641
 8618SOL    HW126753   5.967   5.616   0.699
 8618SOL    HW226754   6.065   5.520   0.610
 8619SOL     OW26755   3.782   4.898   2.106
 8619SOL    HW126756   3.783   4.882   2.205
 8619SOL    HW226757   3.701   4.855   2.066
 8620SOL     OW26758   1.140   0.089   4.232
 8620SOL    HW126759   1.181   0.027   4.298
 8620SOL    HW226760   1.083   0.037   4.168
 8621SOL     OW26761   5.718   1.258   3.092
 8621SOL    HW126762   5.780   1.335   3.104
 8621SOL    HW226763   5.662   1.272   3.011
 8622SOL     OW26764   5.463   3.574   0.137
 8622SOL    HW126765   5.370   3.551   0.164
 8622SOL    HW226766   5.527   3.544   0.208
 8623SOL     OW26767   0.993   3.484   4.029
 8623SOL    HW126768   0.954   3.536   4.105
 8623SOL    HW226769   0.930   3.410   4.004
 8624SOL     OW26770   1.170   3.824   4.802
 8624SOL    HW126771   1.143   3.913   4.764
 8624SOL    HW226772   1.094   3.785   4.853
 8625SOL     OW26773   4.643   0.235   6.085
 8625SOL    HW126774   4.598   0.292   6.016
 8625SOL    HW226775   4.677   0.152   6.042
 8626SOL     OW26776   3.944   3.226   5.491
 8626SOL    HW126777   3.965   3.195   5.398
 8626SOL    HW226778   3.977   3.159   5.557
 8627SOL     OW26779   0.486   1.225   3.378
 8627SOL    HW126780   0.454   1.170   3.301
 8627SOL    HW226781   0.423   1.214   3.455
 8628SOL     OW26782   6.364   6.167   0.551
 8628SOL    HW126783   6.427   6.125   0.485
 8628SOL    HW226784   6.331   6.254   0.515
 8629SOL     OW26785   1.385   4.800   5.244
 8629SOL    HW126786   1.404   4.831   5.151
 8629SOL    HW226787   1.457   4.736   5.273
 8630SOL     OW26788   5.290   4.212   3.486
 8630SOL    HW126789   5.309   4.310   3.474
 8630SOL    HW226790   5.376   4.163   3.500
 8631SOL     OW26791   1.983   4.991   5.896
 8631SOL    HW126792   1.977   4.943   5.984
 8631SOL    HW226793   2.043   5.070   5.905
 8632SOL     OW26794   3.512   6.328   3.792
 8632SOL    HW126795   3.578   6.369   3.854
 8632SOL    HW226796   3.533   6.231   3.779
 8633SOL     OW26797   4.908   1.779   5.353
 8633SOL    HW126798   4.875   1.710   5.288
 8633SOL    HW226799   5.001   1.806   5.328
 8634SOL     OW26800   5.651   3.466   0.340
 8634SOL    HW126801   5.721   3.433   0.403
 8634SOL    HW226802   5.596   3.389   0.309
 8635SOL     OW26803   5.581   4.364   6.582
 8635SOL    HW126804   5.623   4.381   6.493
 8635SOL    HW226805   5.621   4.281   6.622
 8636SOL     OW26806   4.912   5.960   0.897
 8636SOL    HW126807   4.815   5.981   0.912
 8636SOL    HW226808   4.927   5.940   0.800
 8637SOL     OW26809   2.366   1.086   0.298
 8637SOL    HW126810   2.392   1.047   0.387
 8637SOL    HW226811   2.281   1.137   0.308
 8638SOL     OW26812   2.464   3.184   6.650
 8638SOL    HW126813   2.429   3.109   6.706
 8638SOL    HW226814   2.542   3.152   6.596
 8639SOL     OW26815   5.463   2.479   1.702
 8639SOL    HW126816   5.421   2.482   1.611
 8639SOL    HW226817   5.471   2.572   1.739
 8640SOL     OW26818   4.860   4.064   0.341
 8640SOL    HW126819   4.785   4.074   0.406
 8640SOL    HW226820   4.823   4.037   0.252
 8641SOL     OW26821   5.574   5.114   4.449
 8641SOL    HW126822   5.659   5.090   4.402
 8641SOL    HW226823   5.568   5.064   4.535
 8642SOL     OW26824   2.427   6.830   3.169
 8642SOL    HW126825   2.333   6.811   3.198
 8642SOL    HW226826   2.459   6.756   3.110
 8643SOL     OW26827   2.896   0.121   6.651
 8643SOL    HW126828   2.887   0.061   6.571
 8643SOL    HW226829   2.806   0.138   6.690
 8644SOL     OW26830   4.870   2.064   5.343
 8644SOL    HW126831   4.874   1.965   5.358
 8644SOL    HW226832   4.776   2.090   5.321
 8645SOL     OW26833   4.568   4.759   1.597
 8645SOL    HW126834   4.480   4.804   1.611
 8645SOL    HW226835   4.593   4.709   1.680
 8646SOL     OW26836   6.556   1.002   1.562
 8646SOL    HW126837   6.602   0.929   1.511
 8646SOL    HW226838   6.571   1.089   1.515
 8647SOL     OW26839   2.630   5.590   6.011
 8647SOL    HW126840   2.561   5.610   5.941
 8647SOL    HW226841   2.654   5.493   6.009
 8648SOL     OW26842   6.313   0.289   3.257
 8648SOL    HW126843   6.364   0.237   3.326
 8648SOL    HW226844   6.255   0.227   3.205
 8649SOL     OW26845   5.531   5.159   6.166
 8649SOL    HW126846   5.533   5.059   6.155
 8649SOL    HW226847   5.439   5.188   6.192
 8650SOL     OW26848   2.138   5.204   4.799
 8650SOL    HW126849   2.162   5.296   4.770
 8650SOL    HW226850   2.134   5.200   4.898
 8651SOL     OW26851   3.426   0.220   0.240
 8651SOL    HW126852   3.357   0.194   0.173
 8651SOL    HW226853   3.470   0.305   0.212
 8652SOL     OW26854   1.821   4.420   4.047
 8652SOL    HW126855   1.879   4.435   4.127
 8652SOL    HW226856   1.756   4.346   4.066
 8653SOL     OW26857   6.052   0.498   6.545
 8653SOL    HW126858   6.103   0.437   6.485
 8653SOL    HW226859   5.957   0.504   6.514
 8654SOL     OW26860   1.401   5.158   1.318
 8654SOL    HW126861   1.393   5.253   1.288
 8654SOL    HW226862   1.349   5.098   1.257
 8655SOL     OW26863   6.361   1.469   3.632
 8655SOL    HW126864   6.294   1.423   3.689
 8655SOL    HW226865   6.321   1.492   3.544
 8656SOL     OW26866   6.435   0.720   1.055
 8656SOL    HW126867   6.453   0.805   1.104
 8656SOL    HW226868   6.493   0.716   0.973
 8657SOL     OW26869   5.289   4.513   0.506
 8657SOL    HW126870   5.304   4.585   0.437
 8657SOL    HW226871   5.377   4.489   0.548
 8658SOL     OW26872   5.260   6.730   0.331
 8658SOL    HW126873   5.321   6.652   0.320
 8658SOL    HW226874   5.225   6.733   0.424
 8659SOL     OW26875   4.576   1.706   2.862
 8659SOL    HW126876   4.497   1.759   2.830
 8659SOL    HW226877   4.565   1.610   2.837
 8660SOL     OW26878   6.106   4.320   1.587
 8660SOL    HW126879   6.044   4.326   1.665
 8660SOL    HW226880   6.107   4.226   1.553
 8661SOL     OW26881   5.738   4.172   1.394
 8661SOL    HW126882   5.731   4.104   1.320
 8661SOL    HW226883   5.785   4.131   1.472
 8662SOL     OW26884   4.292   6.378   1.049
 8662SOL    HW126885   4.376   6.371   1.103
 8662SOL    HW226886   4.229   6.441   1.094
 8663SOL     OW26887   3.266   5.771   1.710
 8663SOL    HW126888   3.307   5.720   1.634
 8663SOL    HW226889   3.307   5.740   1.796
 8664SOL     OW26890   1.934   5.885   0.711
 8664SOL    HW126891   1.969   5.793   0.727
 8664SOL    HW226892   1.990   5.930   0.641
 8665SOL     OW26893   5.072   6.493   4.903
 8665SOL    HW126894   5.011   6.443   4.841
 8665SOL    HW226895   5.092   6.437   4.983
 8666SOL     OW26896   4.927   1.841   4.188
 8666SOL    HW126897   4.908   1.860   4.092
 8666SOL    HW226898   4.991   1.910   4.224
 8667SOL     OW26899   4.590   2.660   3.102
 8667SOL    HW126900   4.521   2.731   3.088
 8667SOL    HW226901   4.573   2.585   3.038
 8668SOL     OW26902   5.371   3.738   3.674
 8668SOL    HW126903   5.407   3.681   3.747
 8668SOL    HW226904   5.446   3.790   3.632
 8669SOL     OW26905   1.684   6.412   6.970
 8669SOL    HW126906   1.773   6.396   7.012
 8669SOL    HW226907   1.627   6.331   6.979
 8670SOL     OW26908   3.930   4.039   4.976
 8670SOL    HW126909   3.847   4.091   4.955
 8670SOL    HW226910   3.960   3.990   4.895
 8671SOL     OW26911   5.118   1.656   3.690
 8671SOL    HW126912   5.091   1.671   3.785
 8671SOL    HW226913   5.218   1.653   3.684
 8672SOL     OW26914   1.744   4.819   3.899
 8672SOL    HW126915   1.782   4.909   3.877
 8672SOL    HW226916   1.665   4.801   3.841
 8673SOL     OW26917   5.949   2.524   0.547
 8673SOL    HW126918   5.989   2.462   0.479
 8673SOL    HW226919   5.850   2.512   0.550
 8674SOL     OW26920   5.981   5.961   3.747
 8674SOL    HW126921   6.040   5.922   3.677
 8674SOL    HW226922   6.023   6.044   3.784
 8675SOL     OW26923   2.796   2.240   4.324
 8675SOL    HW126924   2.885   2.232   4.369
 8675SOL    HW226925   2.737   2.302   4.377
 8676SOL     OW26926   4.449   0.510   2.558
 8676SOL    HW126927   4.548   0.506   2.555
 8676SOL    HW226928   4.418   0.603   2.538
 8677SOL     OW26929   2.134   5.921   5.336
 8677SOL    HW126930   2.205   5.914   5.406
 8677SOL    HW226931   2.082   6.005   5.349
 8678SOL     OW26932   6.480   0.586   1.306
 8678SOL    HW126933   6.462   0.629   1.217
 8678SOL    HW226934   6.554   0.519   1.296
 8679SOL     OW26935   0.252   2.322   2.999
 8679SOL    HW126936   0.261   2.232   3.042
 8679SOL    HW226937   0.315   2.329   2.922
 8680SOL     OW26938   1.194   3.885   1.140
 8680SOL    HW126939   1.224   3.805   1.193
 8680SOL    HW226940   1.273   3.941   1.116
 8681SOL     OW26941   5.163   5.233   0.092
 8681SOL    HW126942   5.077   5.182   0.091
 8681SOL    HW226943   5.212   5.218   0.006
 8682SOL     OW26944   4.815   0.011   2.302
 8682SOL    HW126945   4.850   0.000   2.209
 8682SOL    HW226946   4.757   6.960   2.325
 8683SOL     OW26947   1.622   2.095   2.880
 8683SOL    HW126948   1.674   2.168   2.925
 8683SOL    HW226949   1.551   2.062   2.941
 8684SOL     OW26950   0.243   2.869   4.950
 8684SOL    HW126951   0.205   2.943   5.005
 8684SOL    HW226952   0.295   2.907   4.873
 8685SOL     OW26953   0.354   1.858   6.152
 8685SOL    HW126954   0.337   1.804   6.070
 8685SOL    HW226955   0.391   1.947   6.127
 8686SOL     OW26956   0.314   1.794   2.059
 8686SOL    HW126957   0.329   1.854   2.138
 8686SOL    HW226958   0.276   1.848   1.984
 8687SOL     OW26959   4.855   5.365   2.249
 8687SOL    HW126960   4.807   5.305   2.313
 8687SOL    HW226961   4.902   5.437   2.300
 8688SOL     OW26962   2.443   5.511   0.107
 8688SOL    HW126963   2.479   5.600   0.078
 8688SOL    HW226964   2.396   5.468   0.030
 8689SOL     OW26965   3.888   4.145   1.631
 8689SOL    HW126966   3.938   4.090   1.698
 8689SOL    HW226967   3.851   4.086   1.560
 8690SOL     OW26968   1.779   3.072   3.164
 8690SOL    HW126969   1.694   3.094   3.116
 8690SOL    HW226970   1.853   3.131   3.131
 8691SOL     OW26971   2.932   2.117   5.989
 8691SOL    HW126972   2.844   2.165   5.988
 8691SOL    HW226973   2.920   2.023   5.955
 8692SOL     OW26974   2.374   1.661   4.265
 8692SOL    HW126975   2.457   1.684   4.316
 8692SOL    HW226976   2.361   1.562   4.265
 8693SOL     OW26977   5.747   0.780   0.233
 8693SOL    HW126978   5.752   0.874   0.199
 8693SOL    HW226979   5.818   0.766   0.302
 8694SOL     OW26980   4.769   1.217   4.937
 8694SOL    HW126981   4.710   1.183   4.863
 8694SOL    HW226982   4.717   1.220   5.022
 8695SOL     OW26983   4.222   2.557   6.135
 8695SOL    HW126984   4.230   2.538   6.233
 8695SOL    HW226985   4.144   2.618   6.120
 8696SOL     OW26986   2.358   5.121   0.056
 8696SOL    HW126987   2.441   5.153   0.012
 8696SOL    HW226988   2.301   5.073   7.017
 8697SOL     OW26989   6.988   2.675   6.797
 8697SOL    HW126990   6.909   2.627   6.759
 8697SOL    HW226991   6.958   2.731   6.874
 8698SOL     OW26992   5.438   6.258   5.434
 8698SOL    HW126993   5.339   6.275   5.441
 8698SOL    HW226994   5.479   6.268   5.524
 8699SOL     OW26995   2.402   2.574   5.641
 8699SOL    HW126996   2.395   2.474   5.646
 8699SOL    HW226997   2.331   2.615   5.697
 8700SOL     OW26998   0.631   0.839   4.725
 8700SOL    HW126999   0.688   0.862   4.804
 8700SOL    HW227000   0.566   0.767   4.751
 8701SOL     OW27001   0.429   1.558   0.874
 8701SOL    HW127002   0.410   1.576   0.971
 8701SOL    HW227003   0.391   1.632   0.818
 8702SOL     OW27004   5.312   5.224   1.591
 8702SOL    HW127005   5.326   5.297   1.524
 8702SOL    HW227006   5.277   5.263   1.676
 8703SOL     OW27007   2.865   4.991   7.002
 8703SOL    HW127008   2.886   4.951   6.912
 8703SOL    HW227009   2.895   4.929   0.046
 8704SOL     OW27010   0.382   3.694   3.076
 8704SOL    HW127011   0.428   3.612   3.108
 8704SOL    HW227012   0.394   3.703   2.977
 8705SOL     OW27013   5.216   1.644   6.101
 8705SOL    HW127014   5.280   1.591   6.156
 8705SOL    HW227015   5.231   1.742   6.118
 8706SOL     OW27016   4.731   2.151   6.832
 8706SOL    HW127017   4.675   2.079   6.873
 8706SOL    HW227018   4.733   2.230   6.893
 8707SOL     OW27019   0.233   2.185   6.542
 8707SOL    HW127020   0.172   2.121   6.496
 8707SOL    HW227021   0.185   2.229   6.618
 8708SOL     OW27022   4.592   2.265   2.676
 8708SOL    HW127023   4.584   2.182   2.731
 8708SOL    HW227024   4.519   2.267   2.608
 8709SOL     OW27025   0.146   6.256   6.987
 8709SOL    HW127026   0.106   6.324   0.021
 8709SOL    HW227027   0.198   6.302   6.915
 8710SOL     OW27028   2.072   3.403   4.254
 8710SOL    HW127029   2.125   3.424   4.172
 8710SOL    HW227030   2.110   3.322   4.299
 8711SOL     OW27031   1.215   6.816   3.157
 8711SOL    HW127032   1.266   6.790   3.075
 8711SOL    HW227033   1.163   6.738   3.191
 8712SOL     OW27034   4.218   2.259   4.874
 8712SOL    HW127035   4.201   2.337   4.933
 8712SOL    HW227036   4.132   2.210   4.857
 8713SOL     OW27037   6.785   2.521   4.389
 8713SOL    HW127038   6.803   2.446   4.325
 8713SOL    HW227039   6.828   2.501   4.477
 8714SOL     OW27040   1.117   1.081   6.384
 8714SOL    HW127041   1.154   0.988   6.392
 8714SOL    HW227042   1.103   1.119   6.475
 8715SOL     OW27043   4.994   0.329   1.083
 8715SOL    HW127044   5.053   0.284   1.151
 8715SOL    HW227045   4.919   0.375   1.129
 8716SOL     OW27046   6.524   6.842   1.926
 8716SOL    HW127047   6.495   6.932   1.892
 8716SOL    HW227048   6.619   6.826   1.899
 8717SOL     OW27049   3.792   3.510   4.096
 8717SOL    HW127050   3.729   3.482   4.169
 8717SOL    HW227051   3.744   3.572   4.033
 8718SOL     OW27052   0.987   3.736   5.307
 8718SOL    HW127053   0.908   3.789   5.336
 8718SOL    HW227054   0.957   3.644   5.281
 8719SOL     OW27055   3.403   0.030   6.298
 8719SOL    HW127056   3.474   6.990   6.279
 8719SOL    HW227057   3.332   7.016   6.355
 8720SOL     OW27058   6.701   4.921   6.261
 8720SOL    HW127059   6.614   4.877   6.286
 8720SOL    HW227060   6.696   5.019   6.280
 8721SOL     OW27061   6.935   3.187   2.277
 8721SOL    HW127062   6.878   3.110   2.248
 8721SOL    HW227063   6.894   3.229   2.359
 8722SOL     OW27064   3.888   1.586   0.151
 8722SOL    HW127065   3.969   1.579   0.092
 8722SOL    HW227066   3.831   1.505   0.141
 8723SOL     OW27067   5.100   5.610   0.765
 8723SOL    HW127068   5.117   5.613   0.864
 8723SOL    HW227069   5.145   5.688   0.722
 8724SOL     OW27070   4.586   0.163   5.185
 8724SOL    HW127071   4.492   0.189   5.206
 8724SOL    HW227072   4.594   0.063   5.190
 8725SOL     OW27073   1.594   6.322   6.139
 8725SOL    HW127074   1.633   6.254   6.076
 8725SOL    HW227075   1.547   6.393   6.086
 8726SOL     OW27076   0.211   0.757   2.564
 8726SOL    HW127077   0.113   0.757   2.546
 8726SOL    HW227078   0.261   0.739   2.480
 8727SOL     OW27079   6.668   6.202   2.711
 8727SOL    HW127080   6.656   6.211   2.612
 8727SOL    HW227081   6.602   6.137   2.747
 8728SOL     OW27082   5.224   0.362   2.972
 8728SOL    HW127083   5.289   0.348   2.897
 8728SOL    HW227084   5.270   0.408   3.048
 8729SOL     OW27085   4.629   5.804   4.751
 8729SOL    HW127086   4.697   5.742   4.789
 8729SOL    HW227087   4.567   5.753   4.691
 8730SOL     OW27088   6.789   3.772   2.130
 8730SOL    HW127089   6.867   3.783   2.069
 8730SOL    HW227090   6.707   3.810   2.086
 8731SOL     OW27091   2.024   2.593   2.747
 8731SOL    HW127092   2.122   2.580   2.733
 8731SOL    HW227093   2.010   2.653   2.826
 8732SOL     OW27094   6.016   4.962   1.670
 8732SOL    HW127095   6.002   4.914   1.584
 8732SOL    HW227096   6.102   5.013   1.666
 8733SOL     OW27097   1.266   5.494   0.810
 8733SOL    HW127098   1.353   5.514   0.855
 8733SOL    HW227099   1.201   5.568   0.831
 8734SOL     OW27100   2.105   3.966   2.040
 8734SOL    HW127101   2.107   3.885   2.098
 8734SOL    HW227102   2.032   4.028   2.072
 8735SOL     OW27103   1.072   2.653   0.718
 8735SOL    HW127104   0.982   2.691   0.739
 8735SOL    HW227105   1.067   2.553   0.716
 8736SOL     OW27106   0.237   5.758   6.791
 8736SOL    HW127107   0.168   5.831   6.793
 8736SOL    HW227108   0.280   5.756   6.700
 8737SOL     OW27109   1.638   6.691   6.545
 8737SOL    HW127110   1.655   6.676   6.643
 8737SOL    HW227111   1.584   6.775   6.533
 8738SOL     OW27112   2.085   5.362   4.471
 8738SOL    HW127113   2.151   5.401   4.406
 8738SOL    HW227114   2.127   5.286   4.519
 8739SOL     OW27115   5.090   5.873   6.387
 8739SOL    HW127116   5.178   5.833   6.411
 8739SOL    HW227117   5.016   5.825   6.435
 8740SOL     OW27118   4.763   1.029   4.437
 8740SOL    HW127119   4.705   1.028   4.355
 8740SOL    HW227120   4.705   1.024   4.518
 8741SOL     OW27121   2.453   1.430   2.203
 8741SOL    HW127122   2.474   1.359   2.271
 8741SOL    HW227123   2.436   1.517   2.251
 8742SOL     OW27124   6.020   6.445   0.906
 8742SOL    HW127125   5.924   6.464   0.889
 8742SOL    HW227126   6.029   6.393   0.991
 8743SOL     OW27127   0.835   0.088   2.271
 8743SOL    HW127128   0.751   0.038   2.249
 8743SOL    HW227129   0.902   0.024   2.310
 8744SOL     OW27130   3.265   2.723   6.500
 8744SOL    HW127131   3.288   2.633   6.462
 8744SOL    HW227132   3.345   2.783   6.493
 8745SOL     OW27133   5.873   2.548   6.181
 8745SOL    HW127134   5.950   2.607   6.205
 8745SOL    HW227135   5.798   2.563   6.246
 8746SOL     OW27136   4.903   4.548   4.276
 8746SOL    HW127137   4.957   4.477   4.231
 8746SOL    HW227138   4.949   4.637   4.265
 8747SOL     OW27139   0.894   2.788   3.035
 8747SOL    HW127140   0.903   2.859   2.965
 8747SOL    HW227141   0.798   2.772   3.054
 8748SOL     OW27142   7.022   1.514   5.006
 8748SOL    HW127143   0.063   1.445   5.032
 8748SOL    HW227144   6.931   1.475   5.017
 8749SOL     OW27145   2.463   0.846   5.586
 8749SOL    HW127146   2.535   0.784   5.618
 8749SOL    HW227147   2.414   0.803   5.510
 8750SOL     OW27148   3.533   3.878   5.712
 8750SOL    HW127149   3.541   3.841   5.805
 8750SOL    HW227150   3.454   3.940   5.708
 8751SOL     OW27151   5.696   1.149   1.875
 8751SOL    HW127152   5.755   1.178   1.800
 8751SOL    HW227153   5.728   1.061   1.911
 8752SOL     OW27154   2.742   3.494   0.582
 8752SOL    HW127155   2.667   3.556   0.606
 8752SOL    HW227156   2.828   3.544   0.586
 8753SOL     OW27157   4.006   1.840   5.561
 8753SOL    HW127158   4.021   1.914   5.628
 8753SOL    HW227159   3.909   1.816   5.560
 8754SOL     OW27160   1.808   3.436   5.588
 8754SOL    HW127161   1.719   3.479   5.604
 8754SOL    HW227162   1.867   3.499   5.538
 8755SOL     OW27163   2.231   0.266   0.680
 8755SOL    HW127164   2.236   0.218   0.767
 8755SOL    HW227165   2.224   0.364   0.697
 8756SOL     OW27166   1.325   2.902   3.519
 8756SOL    HW127167   1.288   2.910   3.612
 8756SOL    HW227168   1.424   2.906   3.522
 8757SOL     OW27169   3.977   5.498   6.164
 8757SOL    HW127170   4.013   5.568   6.226
 8757SOL    HW227171   4.052   5.446   6.124
 8758SOL     OW27172   4.645   6.296   2.815
 8758SOL    HW127173   4.605   6.284   2.724
 8758SOL    HW227174   4.744   6.304   2.807
 8759SOL     OW27175   4.410   2.498   0.140
 8759SOL    HW127176   4.363   2.514   0.226
 8759SOL    HW227177   4.360   2.429   0.088
 8760SOL     OW27178   1.993   1.231   5.334
 8760SOL    HW127179   1.946   1.305   5.286
 8760SOL    HW227180   1.925   1.165   5.368
 8761SOL     OW27181   5.870   2.233   1.802
 8761SOL    HW127182   5.841   2.142   1.829
 8761SOL    HW227183   5.914   2.229   1.712
 8762SOL     OW27184   1.674   3.714   3.009
 8762SOL    HW127185   1.628   3.718   3.098
 8762SOL    HW227186   1.732   3.633   3.004
 8763SOL     OW27187   0.061   0.075   5.995
 8763SOL    HW127188   0.011   0.159   5.974
 8763SOL    HW227189   0.001   7.024   5.980
 8764SOL     OW27190   4.941   0.742   4.859
 8764SOL    HW127191   4.994   0.672   4.812
 8764SOL    HW227192   4.857   0.701   4.895
 8765SOL     OW27193   5.576   6.727   3.964
 8765SOL    HW127194   5.481   6.724   3.933
 8765SOL    HW227195   5.583   6.786   4.045
 8766SOL     OW27196   4.680   4.250   3.559
 8766SOL    HW127197   4.584   4.221   3.565
 8766SOL    HW227198   4.725   4.233   3.647
 8767SOL     OW27199   5.054   6.379   2.543
 8767SOL    HW127200   5.067   6.379   2.444
 8767SOL    HW227201   4.989   6.450   2.569
 8768SOL     OW27202   1.267   2.682   0.519
 8768SOL    HW127203   1.219   2.657   0.603
 8768SOL    HW227204   1.205   2.732   0.459
 8769SOL     OW27205   0.502   0.850   4.401
 8769SOL    HW127206   0.448   0.771   4.427
 8769SOL    HW227207   0.595   0.820   4.377
 8770SOL     OW27208   4.773   4.472   2.609
 8770SOL    HW127209   4.846   4.479   2.541
 8770SOL    HW227210   4.762   4.376   2.636
 8771SOL     OW27211   0.810   0.993   6.573
 8771SOL    HW127212   0.760   1.009   6.658
 8771SOL    HW227213   0.908   0.995   6.592
 8772SOL     OW27214   5.032   0.216   6.301
 8772SOL    HW127215   5.112   0.196   6.358
 8772SOL    HW227216   5.057   0.207   6.205
 8773SOL     OW27217   4.645   2.488   3.338
 8773SOL    HW127218   4.619   2.536   3.254
 8773SOL    HW227219   4.661   2.555   3.410
 8774SOL     OW27220   1.034   0.960   6.950
 8774SOL    HW127221   1.021   1.025   7.025
 8774SOL    HW227222   1.130   0.962   6.920
 8775SOL     OW27223   5.887   6.981   5.088
 8775SOL    HW127224   5.802   6.943   5.052
 8775SOL    HW227225   5.960   6.969   5.021
 8776SOL     OW27226   3.647   3.165   6.630
 8776SOL    HW127227   3.578   3.237   6.640
 8776SOL    HW227228   3.678   3.162   6.535
 8777SOL     OW27229   0.018   4.179   1.542
 8777SOL    HW127230   0.062   4.261   1.578
 8777SOL    HW227231   0.082   4.102   1.544
 8778SOL     OW27232   6.690   2.961   4.737
 8778SOL    HW127233   6.756   2.987   4.666
 8778SOL    HW227234   6.649   2.872   4.714
 8779SOL     OW27235   3.082   5.434   2.312
 8779SOL    HW127236   3.139   5.493   2.369
 8779SOL    HW227237   3.024   5.490   2.253
 8780SOL     OW27238   0.942   6.181   2.385
 8780SOL    HW127239   0.949   6.081   2.382
 8780SOL    HW227240   0.875   6.212   2.318
 8781SOL     OW27241   5.203   1.447   3.183
 8781SOL    HW127242   5.249   1.371   3.136
 8781SOL    HW227243   5.208   1.529   3.128
 8782SOL     OW27244   5.769   6.413   1.369
 8782SOL    HW127245   5.802   6.319   1.364
 8782SOL    HW227246   5.770   6.444   1.464
 8783SOL     OW27247   6.558   4.159   3.053
 8783SOL    HW127248   6.499   4.175   2.974
 8783SOL    HW227249   6.649   4.195   3.035
 8784SOL     OW27250   6.077   4.049   6.418
 8784SOL    HW127251   6.116   4.012   6.502
 8784SOL    HW227252   6.017   4.126   6.440
 8785SOL     OW27253   5.750   3.153   0.057
 8785SOL    HW127254   5.789   3.241   0.086
 8785SOL    HW227255   5.710   3.163   6.994
 8786SOL     OW27256   2.011   0.435   0.245
 8786SOL    HW127257   1.980   0.345   0.215
 8786SOL    HW227258   2.073   0.424   0.323
 8787SOL     OW27259   3.131   2.375   1.391
 8787SOL    HW127260   3.040   2.408   1.369
 8787SOL    HW227261   3.162   2.312   1.319
 8788SOL     OW27262   6.844   1.765   6.242
 8788SOL    HW127263   6.807   1.674   6.258
 8788SOL    HW227264   6.944   1.764   6.252
 8789SOL     OW27265   6.285   0.045   5.167
 8789SOL    HW127266   6.287   6.988   5.114
 8789SOL    HW227267   6.194   0.056   5.208
 8790SOL     OW27268   0.564   0.248   0.089
 8790SOL    HW127269   0.620   0.319   0.048
 8790SOL    HW227270   0.468   0.262   0.065
 8791SOL     OW27271   5.398   0.218   4.749
 8791SOL    HW127272   5.493   0.247   4.743
 8791SOL    HW227273   5.362   0.239   4.839
 8792SOL     OW27274   2.477   6.568   3.332
 8792SOL    HW127275   2.441   6.476   3.315
 8792SOL    HW227276   2.475   6.620   3.246
 8793SOL     OW27277   1.538   4.148   3.233
 8793SOL    HW127278   1.633   4.123   3.212
 8793SOL    HW227279   1.533   4.190   3.324
 8794SOL     OW27280   4.579   6.291   2.267
 8794SOL    HW127281   4.543   6.198   2.269
 8794SOL    HW227282   4.516   6.353   2.312
 8795SOL     OW27283   1.466   5.281   5.596
 8795SOL    HW127284   1.488   5.263   5.500
 8795SOL    HW227285   1.366   5.278   5.608
 8796SOL     OW27286   3.884   2.014   4.626
 8796SOL    HW127287   3.792   2.051   4.638
 8796SOL    HW227288   3.883   1.943   4.556
 8797SOL     OW27289   6.898   6.860   6.796
 8797SOL    HW127290   6.836   6.839   6.721
 8797SOL    HW227291   6.893   6.958   6.818
 8798SOL     OW27292   5.022   5.852   5.692
 8798SOL    HW127293   4.973   5.830   5.607
 8798SOL    HW227294   5.075   5.772   5.721
 8799SOL     OW27295   2.727   5.020   3.813
 8799SOL    HW127296   2.798   5.069   3.762
 8799SOL    HW227297   2.666   4.974   3.748
 8800SOL     OW27298   6.167   3.681   5.461
 8800SOL    HW127299   6.135   3.760   5.514
 8800SOL    HW227300   6.260   3.657   5.489
 8801SOL     OW27301   0.315   2.005   4.907
 8801SOL    HW127302   0.237   1.942   4.912
 8801SOL    HW227303   0.292   2.090   4.954
 8802SOL     OW27304   1.764   6.900   0.558
 8802SOL    HW127305   1.790   6.852   0.475
 8802SOL    HW227306   1.843   6.909   0.618
 8803SOL     OW27307   6.449   5.822   6.831
 8803SOL    HW127308   6.469   5.838   6.928
 8803SOL    HW227309   6.388   5.743   6.822
 8804SOL     OW27310   2.873   0.376   2.103
 8804SOL    HW127311   2.853   0.473   2.087
 8804SOL    HW227312   2.971   0.359   2.087
 8805SOL     OW27313   2.804   6.854   4.365
 8805SOL    HW127314   2.845   6.890   4.281
 8805SOL    HW227315   2.739   6.920   4.402
 8806SOL     OW27316   2.734   5.761   2.668
 8806SOL    HW127317   2.815   5.819   2.661
 8806SOL    HW227318   2.752   5.673   2.625
 8807SOL     OW27319   5.321   0.215   6.794
 8807SOL    HW127320   5.333   0.267   6.710
 8807SOL    HW227321   5.383   0.250   6.864
 8808SOL     OW27322   5.902   2.793   6.906
 8808SOL    HW127323   5.902   2.842   6.993
 8808SOL    HW227324   5.989   2.745   6.895
 8809SOL     OW27325   4.950   5.310   3.212
 8809SOL    HW127326   4.953   5.303   3.312
 8809SOL    HW227327   4.894   5.236   3.175
 8810SOL     OW27328   5.214   0.799   5.963
 8810SOL    HW127329   5.196   0.719   6.021
 8810SOL    HW227330   5.196   0.776   5.868
 8811SOL     OW27331   3.041   0.900   3.358
 8811SOL    HW127332   2.956   0.952   3.371
 8811SOL    HW227333   3.114   0.940   3.413
 8812SOL     OW27334   2.160   7.002   1.026
 8812SOL    HW127335   2.236   7.024   1.087
 8812SOL    HW227336   2.194   6.951   0.947
 8813SOL     OW27337   2.415   4.902   1.456
 8813SOL    HW127338   2.439   4.913   1.359
 8813SOL    HW227339   2.406   4.991   1.499
 8814SOL     OW27340   5.514   0.095   1.767
 8814SOL    HW127341   5.440   0.152   1.803
 8814SOL    HW227342   5.601   0.145   1.777
 8815SOL     OW27343   5.675   6.989   0.776
 8815SOL    HW127344   5.665   6.974   0.874
 8815SOL    HW227345   5.588   6.970   0.730
 8816SOL     OW27346   1.117   6.926   6.980
 8816SOL    HW127347   1.132   6.902   0.049
 8816SOL    HW227348   1.044   6.868   6.943
 8817SOL     OW27349   0.504   5.089   4.494
 8817SOL    HW127350   0.590   5.088   4.544
 8817SOL    HW227351   0.487   4.998   4.456
 8818SOL     OW27352   0.182   4.357   5.007
 8818SOL    HW127353   0.213   4.337   5.100
 8818SOL    HW227354   0.123   4.438   5.009
 8819SOL     OW27355   5.421   5.057   5.053
 8819SOL    HW127356   5.505   5.086   5.006
 8819SOL    HW227357   5.430   4.962   5.080
 8820SOL     OW27358   2.209   1.201   5.513
 8820SOL    HW127359   2.147   1.213   5.435
 8820SOL    HW227360   2.202   1.106   5.546
 8821SOL     OW27361   2.321   6.209   0.406
 8821SOL    HW127362   2.340   6.111   0.414
 8821SOL    HW227363   2.325   6.251   0.497
 8822SOL     OW27364   0.236   0.265   4.681
 8822SOL    HW127365   0.191   0.332   4.740
 8822SOL    HW227366   0.319   0.231   4.726
 8823SOL     OW27367   2.452   0.809   1.343
 8823SOL    HW127368   2.411   0.883   1.398
 8823SOL    HW227369   2.504   0.748   1.403
 8824SOL     OW27370   1.083   2.363   0.745
 8824SOL    HW127371   1.156   2.295   0.755
 8824SOL    HW227372   1.060   2.375   0.649
 8825SOL     OW27373   2.352   0.672   1.879
 8825SOL    HW127374   2.301   0.689   1.795
 8825SOL    HW227375   2.428   0.736   1.886
 8826SOL     OW27376   6.750   3.386   0.649
 8826SOL    HW127377   6.708   3.390   0.740
 8826SOL    HW227378   6.767   3.291   0.624
 8827SOL     OW27379   3.883   1.676   2.553
 8827SOL    HW127380   3.955   1.608   2.539
 8827SOL    HW227381   3.895   1.750   2.487
 8828SOL     OW27382   4.892   5.869   5.929
 8828SOL    HW127383   4.945   5.855   5.845
 8828SOL    HW227384   4.861   5.964   5.933
 8829SOL     OW27385   5.183   2.601   0.949
 8829SOL    HW127386   5.085   2.597   0.969
 8829SOL    HW227387   5.207   2.692   0.916
 8830SOL     OW27388   1.222   1.692   2.671
 8830SOL    HW127389   1.222   1.675   2.572
 8830SOL    HW227390   1.129   1.684   2.707
 8831SOL     OW27391   4.138   2.214   4.195
 8831SOL    HW127392   4.048   2.219   4.152
 8831SOL    HW227393   4.181   2.127   4.172
 8832SOL     OW27394   0.028   5.833   3.265
 8832SOL    HW127395   7.026   5.812   3.358
 8832SOL    HW227396   0.080   5.755   3.229
 8833SOL     OW27397   2.454   5.258   5.138
 8833SOL    HW127398   2.550   5.230   5.130
 8833SOL    HW227399   2.440   5.305   5.225
 8834SOL     OW27400   5.405   3.867   4.799
 8834SOL    HW127401   5.339   3.802   4.836
 8834SOL    HW227402   5.493   3.821   4.784
 8835SOL     OW27403   4.769   0.949   5.912
 8835SOL    HW127404   4.854   0.921   5.867
 8835SOL    HW227405   4.791   1.003   5.994
 8836SOL     OW27406   5.582   2.847   6.992
 8836SOL    HW127407   5.490   2.884   6.979
 8836SOL    HW227408   5.650   2.919   6.973
 8837SOL     OW27409   6.883   6.151   2.894
 8837SOL    HW127410   6.956   6.102   2.847
 8837SOL    HW227411   6.815   6.182   2.828
 8838SOL     OW27412   2.155   5.595   3.103
 8838SOL    HW127413   2.072   5.539   3.092
 8838SOL    HW227414   2.147   5.650   3.186
 8839SOL     OW27415   5.800   5.322   3.320
 8839SOL    HW127416   5.882   5.342   3.265
 8839SOL    HW227417   5.824   5.321   3.417
 8840SOL     OW27418   6.690   2.247   2.319
 8840SOL    HW127419   6.723   2.220   2.228
 8840SOL    HW227420   6.755   2.311   2.360
 8841SOL     OW27421   0.999   1.273   5.423
 8841SOL    HW127422   1.006   1.223   5.509
 8841SOL    HW227423   0.954   1.361   5.439
 8842SOL     OW27424   3.630   3.170   2.404
 8842SOL    HW127425   3.695   3.190   2.330
 8842SOL    HW227426   3.679   3.131   2.481
 8843SOL     OW27427   1.703   3.162   5.657
 8843SOL    HW127428   1.775   3.098   5.628
 8843SOL    HW227429   1.740   3.255   5.656
 8844SOL     OW27430   6.773   2.033   6.447
 8844SOL    HW127431   6.676   2.011   6.437
 8844SOL    HW227432   6.792   2.121   6.404
 8845SOL     OW27433   4.164   3.607   0.457
 8845SOL    HW127434   4.122   3.634   0.370
 8845SOL    HW227435   4.121   3.659   0.532
 8846SOL     OW27436   3.501   5.452   4.156
 8846SOL    HW127437   3.450   5.536   4.171
 8846SOL    HW227438   3.451   5.393   4.092
 8847SOL     OW27439   2.650   0.826   3.277
 8847SOL    HW127440   2.559   0.851   3.243
 8847SOL    HW227441   2.690   0.758   3.217
 8848SOL     OW27442   2.390   1.678   1.749
 8848SOL    HW127443   2.370   1.583   1.773
 8848SOL    HW227444   2.485   1.687   1.722
 8849SOL     OW27445   3.055   6.185   3.494
 8849SOL    HW127446   3.139   6.191   3.548
 8849SOL    HW227447   2.976   6.202   3.553
 8850SOL     OW27448   1.299   2.166   0.385
 8850SOL    HW127449   1.366   2.214   0.328
 8850SOL    HW227450   1.346   2.107   0.451
 8851SOL     OW27451   1.230   4.161   3.436
 8851SOL    HW127452   1.200   4.098   3.507
 8851SOL    HW227453   1.326   4.186   3.451
 8852SOL     OW27454   6.805   2.597   5.106
 8852SOL    HW127455   6.773   2.543   5.029
 8852SOL    HW227456   6.835   2.687   5.074
 8853SOL     OW27457   3.101   1.220   1.387
 8853SOL    HW127458   3.052   1.215   1.474
 8853SOL    HW227459   3.041   1.260   1.317
 8854SOL     OW27460   3.152   2.579   5.903
 8854SOL    HW127461   3.121   2.488   5.875
 8854SOL    HW227462   3.112   2.647   5.842
 8855SOL     OW27463   0.027   5.284   1.530
 8855SOL    HW127464   0.114   5.295   1.483
 8855SOL    HW227465   6.991   5.356   1.502
 8856SOL     OW27466   0.016   6.584   6.309
 8856SOL    HW127467   0.089   6.652   6.298
 8856SOL    HW227468   0.057   6.492   6.309
 8857SOL     OW27469   6.923   1.633   4.397
 8857SOL    HW127470   6.844   1.578   4.370
 8857SOL    HW227471   6.991   1.574   4.440
 8858SOL     OW27472   0.820   3.547   5.175
 8858SOL    HW127473   0.756   3.551   5.252
 8858SOL    HW227474   0.839   3.451   5.153
 8859SOL     OW27475   0.652   0.683   3.689
 8859SOL    HW127476   0.671   0.664   3.593
 8859SOL    HW227477   0.581   0.753   3.696
 8860SOL     OW27478   6.816   2.836   2.427
 8860SOL    HW127479   6.761   2.873   2.352
 8860SOL    HW227480   6.759   2.773   2.482
 8861SOL     OW27481   4.542   1.623   6.338
 8861SOL    HW127482   4.595   1.553   6.290
 8861SOL    HW227483   4.556   1.613   6.437
 8862SOL     OW27484   4.943   0.315   3.505
 8862SOL    HW127485   4.855   0.330   3.550
 8862SOL    HW227486   5.011   0.379   3.542
 8863SOL     OW27487   2.319   4.871   3.752
 8863SOL    HW127488   2.256   4.946   3.730
 8863SOL    HW227489   2.286   4.787   3.710
 8864SOL     OW27490   2.689   5.204   6.529
 8864SOL    HW127491   2.697   5.255   6.444
 8864SOL    HW227492   2.769   5.222   6.587
 8865SOL     OW27493   3.024   0.397   4.920
 8865SOL    HW127494   3.037   0.314   4.975
 8865SOL    HW227495   2.929   0.403   4.892
 8866SOL     OW27496   4.782   0.158   2.655
 8866SOL    HW127497   4.815   0.253   2.656
 8866SOL    HW227498   4.858   0.096   2.672
 8867SOL     OW27499   6.044   4.790   3.116
 8867SOL    HW127500   6.030   4.695   3.085
 8867SOL    HW227501   6.106   4.836   3.053
 8868SOL     OW27502   0.208   3.297   1.373
 8868SOL    HW127503   0.181   3.342   1.458
 8868SOL    HW227504   0.308   3.285   1.372
 8869SOL     OW27505   3.864   5.841   5.268
 8869SOL    HW127506   3.886   5.762   5.211
 8869SOL    HW227507   3.927   5.845   5.346
 8870SOL     OW27508   2.772   6.943   0.894
 8870SOL    HW127509   2.737   6.987   0.977
 8870SOL    HW227510   2.768   7.008   0.818
 8871SOL     OW27511   2.113   0.932   4.095
 8871SOL    HW127512   2.152   0.921   4.187
 8871SOL    HW227513   2.172   0.885   4.029
 8872SOL     OW27514   1.777   4.603   5.112
 8872SOL    HW127515   1.790   4.504   5.109
 8872SOL    HW227516   1.715   4.630   5.039
 8873SOL     OW27517   0.581   6.481   2.202
 8873SOL    HW127518   0.514   6.472   2.129
 8873SOL    HW227519   0.534   6.499   2.288
 8874SOL     OW27520   2.157   6.108   2.988
 8874SOL    HW127521   2.091   6.149   3.051
 8874SOL    HW227522   2.113   6.094   2.899
 8875SOL     OW27523   0.319   3.967   4.764
 8875SOL    HW127524   0.362   3.952   4.674
 8875SOL    HW227525   0.292   3.879   4.802
 8876SOL     OW27526   2.028   6.460   5.711
 8876SOL    HW127527   1.962   6.449   5.786
 8876SOL    HW227528   2.061   6.370   5.683
 8877SOL     OW27529   2.844   1.860   3.967
 8877SOL    HW127530   2.847   1.769   4.008
 8877SOL    HW227531   2.830   1.929   4.038
 8878SOL     OW27532   6.029   4.519   1.082
 8878SOL    HW127533   5.986   4.608   1.070
 8878SOL    HW227534   6.126   4.532   1.104
 8879SOL     OW27535   4.941   4.387   2.407
 8879SOL    HW127536   4.933   4.483   2.382
 8879SOL    HW227537   4.871   4.334   2.358
 8880SOL     OW27538   4.447   6.259   4.726
 8880SOL    HW127539   4.433   6.241   4.823
 8880SOL    HW227540   4.389   6.198   4.672
 8881SOL     OW27541   5.133   6.788   3.675
 8881SOL    HW127542   5.113   6.886   3.682
 8881SOL    HW227543   5.074   6.747   3.606
 8882SOL     OW27544   5.073   0.791   1.339
 8882SOL    HW127545   5.023   0.874   1.314
 8882SOL    HW227546   5.156   0.784   1.285
 8883SOL     OW27547   1.509   6.190   6.362
 8883SOL    HW127548   1.586   6.129   6.380
 8883SOL    HW227549   1.535   6.256   6.292
 8884SOL     OW27550   6.094   4.178   5.017
 8884SOL    HW127551   6.134   4.110   5.078
 8884SOL    HW227552   6.035   4.239   5.070
 8885SOL     OW27553   5.636   4.233   1.743
 8885SOL    HW127554   5.710   4.166   1.729
 8885SOL    HW227555   5.622   4.284   1.658
 8886SOL     OW27556   2.983   5.731   4.963
 8886SOL    HW127557   3.071   5.685   4.954
 8886SOL    HW227558   2.975   5.802   4.893
 8887SOL     OW27559   3.954   0.609   0.741
 8887SOL    HW127560   3.913   0.528   0.700
 8887SOL    HW227561   4.045   0.587   0.776
 8888SOL     OW27562   2.043   1.446   5.672
 8888SOL    HW127563   2.026   1.498   5.589
 8888SOL    HW227564   2.121   1.385   5.658
 8889SOL     OW27565   6.566   0.101   0.255
 8889SOL    HW127566   6.543   0.197   0.241
 8889SOL    HW227567   6.494   0.057   0.310
 8890SOL     OW27568   0.407   6.209   5.850
 8890SOL    HW127569   0.434   6.120   5.887
 8890SOL    HW227570   0.337   6.196   5.780
 8891SOL     OW27571   4.061   3.398   6.678
 8891SOL    HW127572   4.025   3.381   6.770
 8891SOL    HW227573   4.161   3.399   6.682
 8892SOL     OW27574   3.519   5.287   2.332
 8892SOL    HW127575   3.613   5.256   2.348
 8892SOL    HW227576   3.520   5.382   2.301
 8893SOL     OW27577   0.800   5.584   3.821
 8893SOL    HW127578   0.838   5.537   3.900
 8893SOL    HW227579   0.724   5.642   3.850
 8894SOL     OW27580   2.956   2.389   6.627
 8894SOL    HW127581   2.890   2.396   6.553
 8894SOL    HW227582   3.035   2.335   6.597
 8895SOL     OW27583   6.691   3.027   2.228
 8895SOL    HW127584   6.619   2.960   2.214
 8895SOL    HW227585   6.654   3.119   2.216
 8896SOL     OW27586   2.356   3.047   5.435
 8896SOL    HW127587   2.424   3.040   5.363
 8896SOL    HW227588   2.320   2.957   5.457
 8897SOL     OW27589   2.331   2.783   3.585
 8897SOL    HW127590   2.369   2.744   3.501
 8897SOL    HW227591   2.356   2.726   3.663
 8898SOL     OW27592   4.926   3.775   2.399
 8898SOL    HW127593   4.996   3.829   2.352
 8898SOL    HW227594   4.887   3.708   2.336
 8899SOL     OW27595   1.162   4.909   1.515
 8899SOL    HW127596   1.155   4.928   1.417
 8899SOL    HW227597   1.255   4.877   1.536
 8900SOL     OW27598   5.761   2.942   3.052
 8900SOL    HW127599   5.774   2.857   3.002
 8900SOL    HW227600   5.720   3.011   2.992
 8901SOL     OW27601   1.259   1.017   4.856
 8901SOL    HW127602   1.324   1.087   4.885
 8901SOL    HW227603   1.219   1.042   4.768
 8902SOL     OW27604   1.070   5.916   0.652
 8902SOL    HW127605   1.014   5.967   0.717
 8902SOL    HW227606   1.011   5.867   0.588
 8903SOL     OW27607   0.563   1.980   4.207
 8903SOL    HW127608   0.626   2.018   4.275
 8903SOL    HW227609   0.608   1.903   4.160
 8904SOL     OW27610   6.622   1.005   4.942
 8904SOL    HW127611   6.707   1.035   4.898
 8904SOL    HW227612   6.549   1.004   4.874
 8905SOL     OW27613   2.148   3.537   3.351
 8905SOL    HW127614   2.078   3.511   3.419
 8905SOL    HW227615   2.131   3.488   3.266
 8906SOL     OW27616   1.054   6.537   6.877
 8906SOL    HW127617   1.045   6.504   6.972
 8906SOL    HW227618   1.033   6.462   6.814
 8907SOL     OW27619   2.856   2.835   5.563
 8907SOL    HW127620   2.831   2.901   5.491
 8907SOL    HW227621   2.786   2.764   5.570
 8908SOL     OW27622   1.460   5.368   0.041
 8908SOL    HW127623   1.409   5.394   6.987
 8908SOL    HW227624   1.558   5.372   0.022
 8909SOL     OW27625   2.371   1.379   5.656
 8909SOL    HW127626   2.317   1.332   5.586
 8909SOL    HW227627   2.384   1.317   5.734
 8910SOL     OW27628   0.268   2.841   5.944
 8910SOL    HW127629   0.323   2.801   5.870
 8910SOL    HW227630   0.325   2.854   6.024
 8911SOL     OW27631   4.684   2.634   4.238
 8911SOL    HW127632   4.643   2.579   4.166
 8911SOL    HW227633   4.727   2.715   4.198
 8912SOL     OW27634   3.592   3.407   6.855
 8912SOL    HW127635   3.555   3.464   6.927
 8912SOL    HW227636   3.576   3.451   6.766
 8913SOL     OW27637   4.446   5.743   5.881
 8913SOL    HW127638   4.413   5.679   5.812
 8913SOL    HW227639   4.500   5.815   5.838
 8914SOL     OW27640   4.153   6.898   4.763
 8914SOL    HW127641   4.202   6.898   4.850
 8914SOL    HW227642   4.216   6.874   4.689
 8915SOL     OW27643   1.090   2.278   3.712
 8915SOL    HW127644   0.996   2.287   3.744
 8915SOL    HW227645   1.106   2.343   3.637
 8916SOL     OW27646   0.119   3.114   1.214
 8916SOL    HW127647   0.188   3.049   1.181
 8916SOL    HW227648   0.160   3.173   1.283
 8917SOL     OW27649   6.552   2.989   0.775
 8917SOL    HW127650   6.487   3.016   0.704
 8917SOL    HW227651   6.643   3.024   0.751
 8918SOL     OW27652   6.891   3.995   1.010
 8918SOL    HW127653   6.875   3.898   0.996
 8918SOL    HW227654   6.805   4.045   0.994
 8919SOL     OW27655   4.522   4.239   0.141
 8919SOL    HW127656   4.488   4.331   0.158
 8919SOL    HW227657   4.477   4.174   0.202
 8920SOL     OW27658   0.277   1.413   6.615
 8920SOL    HW127659   0.243   1.365   6.696
 8920SOL    HW227660   0.203   1.421   6.548
 8921SOL     OW27661   1.865   2.777   2.017
 8921SOL    HW127662   1.887   2.874   2.020
 8921SOL    HW227663   1.947   2.725   1.995
 8922SOL     OW27664   4.322   4.929   1.560
 8922SOL    HW127665   4.273   4.966   1.481
 8922SOL    HW227666   4.395   4.993   1.586
 8923SOL     OW27667   2.334   1.580   6.672
 8923SOL    HW127668   2.350   1.675   6.645
 8923SOL    HW227669   2.288   1.578   6.761
 8924SOL     OW27670   4.471   6.170   5.394
 8924SOL    HW127671   4.511   6.138   5.480
 8924SOL    HW227672   4.495   6.106   5.321
 8925SOL     OW27673   1.013   0.989   3.129
 8925SOL    HW127674   1.023   0.968   3.227
 8925SOL    HW227675   1.018   0.904   3.076
 8926SOL     OW27676   6.898   2.891   5.882
 8926SOL    HW127677   6.952   2.807   5.871
 8926SOL    HW227678   6.933   2.962   5.821
 8927SOL     OW27679   0.081   0.874   4.989
 8927SOL    HW127680   0.002   0.826   4.950
 8927SOL    HW227681   0.163   0.852   4.937
 8928SOL     OW27682   1.057   6.976   6.039
 8928SOL    HW127683   1.072   6.955   6.135
 8928SOL    HW227684   1.140   6.957   5.987
 8929SOL     OW27685   5.865   1.665   5.134
 8929SOL    HW127686   5.788   1.641   5.193
 8929SOL    HW227687   5.938   1.597   5.146
 8930SOL     OW27688   1.738   2.816   4.895
 8930SOL    HW127689   1.754   2.758   4.815
 8930SOL    HW227690   1.825   2.839   4.937
 8931SOL     OW27691   2.976   3.271   0.670
 8931SOL    HW127692   2.926   3.323   0.738
 8931SOL    HW227693   2.977   3.174   0.695
 8932SOL     OW27694   6.305   2.251   1.513
 8932SOL    HW127695   6.360   2.289   1.439
 8932SOL    HW227696   6.363   2.234   1.593
 8933SOL     OW27697   2.475   2.713   6.668
 8933SOL    HW127698   2.552   2.761   6.711
 8933SOL    HW227699   2.502   2.620   6.645
 8934SOL     OW27700   2.433   5.144   4.565
 8934SOL    HW127701   2.516   5.090   4.561
 8934SOL    HW227702   2.456   5.240   4.585
 8935SOL     OW27703   0.471   4.609   0.438
 8935SOL    HW127704   0.532   4.652   0.505
 8935SOL    HW227705   0.453   4.514   0.466
 8936SOL     OW27706   1.317   3.737   2.632
 8936SOL    HW127707   1.286   3.799   2.704
 8936SOL    HW227708   1.350   3.652   2.674
 8937SOL     OW27709   0.499   0.472   5.879
 8937SOL    HW127710   0.550   0.557   5.865
 8937SOL    HW227711   0.402   0.487   5.861
 8938SOL     OW27712   0.679   6.345   0.387
 8938SOL    HW127713   0.709   6.263   0.435
 8938SOL    HW227714   0.639   6.320   0.299
 8939SOL     OW27715   5.090   4.394   4.137
 8939SOL    HW127716   5.036   4.428   4.060
 8939SOL    HW227717   5.089   4.294   4.136
 8940SOL     OW27718   0.143   1.114   1.860
 8940SOL    HW127719   0.090   1.182   1.810
 8940SOL    HW227720   0.166   1.039   1.798
 8941SOL     OW27721   6.191   2.578   5.181
 8941SOL    HW127722   6.204   2.666   5.136
 8941SOL    HW227723   6.154   2.592   5.273
 8942SOL     OW27724   6.366   4.973   5.555
 8942SOL    HW127725   6.448   5.030   5.561
 8942SOL    HW227726   6.338   4.947   5.647
 8943SOL     OW27727   3.835   5.370   6.565
 8943SOL    HW127728   3.837   5.470   6.559
 8943SOL    HW227729   3.793   5.333   6.482
 8944SOL     OW27730   5.600   5.119   5.596
 8944SOL    HW127731   5.512   5.166   5.604
 8944SOL    HW227732   5.671   5.172   5.642
 8945SOL     OW27733   1.072   0.747   3.005
 8945SOL    HW127734   1.101   0.754   2.910
 8945SOL    HW227735   1.147   0.712   3.061
 8946SOL     OW27736   3.205   1.751   5.293
 8946SOL    HW127737   3.255   1.735   5.208
 8946SOL    HW227738   3.171   1.845   5.294
 8947SOL     OW27739   1.898   2.938   6.677
 8947SOL    HW127740   1.807   2.973   6.697
 8947SOL    HW227741   1.958   3.013   6.652
 8948SOL     OW27742   5.772   5.726   4.915
 8948SOL    HW127743   5.679   5.762   4.905
 8948SOL    HW227744   5.838   5.791   4.878
 8949SOL     OW27745   2.895   6.444   0.568
 8949SOL    HW127746   2.836   6.379   0.616
 8949SOL    HW227747   2.870   6.537   0.594
 8950SOL     OW27748   4.876   4.286   6.368
 8950SOL    HW127749   4.858   4.349   6.292
 8950SOL    HW227750   4.816   4.206   6.360
 8951SOL     OW27751   1.161   1.610   5.306
 8951SOL    HW127752   1.062   1.619   5.294
 8951SOL    HW227753   1.206   1.616   5.217
 8952SOL     OW27754   1.466   6.437   2.578
 8952SOL    HW127755   1.433   6.527   2.550
 8952SOL    HW227756   1.467   6.431   2.678
 8953SOL     OW27757   1.890   4.033   6.733
 8953SOL    HW127758   1.799   3.994   6.742
 8953SOL    HW227759   1.958   3.963   6.753
 8954SOL     OW27760   0.905   7.005   4.649
 8954SOL    HW127761   0.926   6.956   4.564
 8954SOL    HW227762   0.860   0.064   4.626
 8955SOL     OW27763   0.009   5.011   2.396
 8955SOL    HW127764   6.968   5.062   2.345
 8955SOL    HW227765   0.094   5.064   2.401
 8956SOL     OW27766   1.585   1.088   6.682
 8956SOL    HW127767   1.627   1.036   6.757
 8956SOL    HW227768   1.653   1.149   6.642
 8957SOL     OW27769   2.957   5.001   0.767
 8957SOL    HW127770   3.006   4.946   0.835
 8957SOL    HW227771   3.010   5.005   0.682
 8958SOL     OW27772   0.299   1.634   4.944
 8958SOL    HW127773   0.333   1.611   4.853
 8958SOL    HW227774   0.269   1.551   4.991
 8959SOL     OW27775   1.920   4.603   2.062
 8959SOL    HW127776   1.840   4.635   2.112
 8959SOL    HW227777   1.919   4.639   1.969
 8960SOL     OW27778   4.584   4.710   2.352
 8960SOL    HW127779   4.560   4.625   2.400
 8960SOL    HW227780   4.509   4.776   2.362
 8961SOL     OW27781   2.490   0.827   4.295
 8961SOL    HW127782   2.537   0.892   4.355
 8961SOL    HW227783   2.471   0.872   4.207
 8962SOL     OW27784   6.731   5.872   2.676
 8962SOL    HW127785   6.773   5.790   2.715
 8962SOL    HW227786   6.700   5.932   2.749
 8963SOL     OW27787   4.071   6.284   4.124
 8963SOL    HW127788   3.988   6.235   4.151
 8963SOL    HW227789   4.092   6.266   4.028
 8964SOL     OW27790   5.087   3.577   3.152
 8964SOL    HW127791   5.185   3.564   3.139
 8964SOL    HW227792   5.039   3.492   3.131
 8965SOL     OW27793   2.650   4.538   0.433
 8965SOL    HW127794   2.711   4.477   0.382
 8965SOL    HW227795   2.654   4.630   0.393
 8966SOL     OW27796   0.077   4.497   0.196
 8966SOL    HW127797   0.147   4.499   0.124
 8966SOL    HW227798   0.110   4.444   0.274
 8967SOL     OW27799   4.220   0.245   1.477
 8967SOL    HW127800   4.229   0.234   1.378
 8967SOL    HW227801   4.151   0.182   1.511
 8968SOL     OW27802   4.540   5.171   2.888
 8968SOL    HW127803   4.486   5.087   2.888
 8968SOL    HW227804   4.603   5.170   2.810
 8969SOL     OW27805   6.579   1.238   4.727
 8969SOL    HW127806   6.529   1.313   4.770
 8969SOL    HW227807   6.677   1.261   4.723
 8970SOL     OW27808   2.640   2.790   0.198
 8970SOL    HW127809   2.601   2.866   0.145
 8970SOL    HW227810   2.714   2.748   0.147
 8971SOL     OW27811   5.939   5.314   1.210
 8971SOL    HW127812   5.996   5.278   1.284
 8971SOL    HW227813   5.920   5.241   1.144
 8972SOL     OW27814   5.192   4.248   6.904
 8972SOL    HW127815   5.171   4.181   6.832
 8972SOL    HW227816   5.289   4.272   6.900
 8973SOL     OW27817   0.678   3.144   2.634
 8973SOL    HW127818   0.635   3.172   2.719
 8973SOL    HW227819   0.777   3.152   2.642
 8974SOL     OW27820   1.337   4.515   5.246
 8974SOL    HW127821   1.290   4.599   5.217
 8974SOL    HW227822   1.420   4.538   5.296
 8975SOL     OW27823   1.347   6.754   5.878
 8975SOL    HW127824   1.387   6.759   5.787
 8975SOL    HW227825   1.264   6.699   5.876
 8976SOL     OW27826   6.858   4.940   5.971
 8976SOL    HW127827   6.808   4.873   6.025
 8976SOL    HW227828   6.808   5.027   5.971
 8977SOL     OW27829   6.126   2.597   0.171
 8977SOL    HW127830   6.138   2.676   0.112
 8977SOL    HW227831   6.037   2.603   0.217
 8978SOL     OW27832   5.795   0.048   4.063
 8978SOL    HW127833   5.808   0.019   3.968
 8978SOL    HW227834   5.736   0.129   4.066
 8979SOL     OW27835   1.210   3.994   4.485
 8979SOL    HW127836   1.218   3.895   4.474
 8979SOL    HW227837   1.288   4.039   4.441
 8980SOL     OW27838   3.519   2.628   5.499
 8980SOL    HW127839   3.515   2.534   5.533
 8980SOL    HW227840   3.446   2.644   5.433
 8981SOL     OW27841   3.990   0.958   5.727
 8981SOL    HW127842   3.940   0.921   5.649
 8981SOL    HW227843   4.070   0.902   5.745
 8982SOL     OW27844   0.776   2.250   1.753
 8982SOL    HW127845   0.822   2.223   1.838
 8982SOL    HW227846   0.681   2.273   1.773
 8983SOL     OW27847   1.104   5.891   0.037
 8983SOL    HW127848   1.153   5.831   7.002
 8983SOL    HW227849   1.071   5.839   0.116
 8984SOL     OW27850   6.516   6.997   3.786
 8984SOL    HW127851   6.577   7.025   3.861
 8984SOL    HW227852   6.483   6.904   3.803
 8985SOL     OW27853   2.864   1.891   0.850
 8985SOL    HW127854   2.959   1.881   0.882
 8985SOL    HW227855   2.858   1.964   0.783
 8986SOL     OW27856   4.462   5.026   1.934
 8986SOL    HW127857   4.363   5.026   1.923
 8986SOL    HW227858   4.495   4.932   1.936
 8987SOL     OW27859   5.154   6.867   1.006
 8987SOL    HW127860   5.113   6.775   1.004
 8987SOL    HW227861   5.082   6.936   0.999
 8988SOL     OW27862   1.015   3.849   6.003
 8988SOL    HW127863   0.916   3.833   5.993
 8988SOL    HW227864   1.052   3.786   6.072
 8989SOL     OW27865   4.582   4.015   1.604
 8989SOL    HW127866   4.637   3.950   1.657
 8989SOL    HW227867   4.589   3.993   1.507
 8990SOL     OW27868   1.904   5.873   3.068
 8990SOL    HW127869   1.837   5.801   3.045
 8990SOL    HW227870   1.964   5.840   3.141
 8991SOL     OW27871   1.429   1.557   6.737
 8991SOL    HW127872   1.418   1.555   6.638
 8991SOL    HW227873   1.485   1.480   6.767
 8992SOL     OW27874   5.920   2.045   7.017
 8992SOL    HW127875   5.826   2.056   6.983
 8992SOL    HW227876   5.955   1.955   6.989
 8993SOL     OW27877   4.536   2.363   2.383
 8993SOL    HW127878   4.575   2.271   2.377
 8993SOL    HW227879   4.453   2.360   2.438
 8994SOL     OW27880   1.265   4.932   4.742
 8994SOL    HW127881   1.360   4.953   4.763
 8994SOL    HW227882   1.233   4.991   4.668
 8995SOL     OW27883   0.776   2.207   0.166
 8995SOL    HW127884   0.834   2.274   0.213
 8995SOL    HW227885   0.782   2.119   0.214
 8996SOL     OW27886   6.377   5.044   1.055
 8996SOL    HW127887   6.430   5.125   1.029
 8996SOL    HW227888   6.438   4.965   1.061
 8997SOL     OW27889   4.541   1.333   5.965
 8997SOL    HW127890   4.522   1.420   5.919
 8997SOL    HW227891   4.533   1.259   5.899
 8998SOL     OW27892   6.810   4.091   4.957
 8998SOL    HW127893   6.770   4.024   4.894
 8998SOL    HW227894   6.744   4.164   4.974
 8999SOL     OW27895   5.128   6.175   0.157
 8999SOL    HW127896   5.109   6.122   0.240
 8999SOL    HW227897   5.062   6.250   0.150
 9000SOL     OW27898   2.344   4.223   1.016
 9000SOL    HW127899   2.271   4.226   1.085
 9000SOL    HW227900   2.400   4.142   1.032
 9001SOL     OW27901   1.132   5.292   2.423
 9001SOL    HW127902   1.144   5.355   2.347
 9001SOL    HW227903   1.221   5.275   2.467
 9002SOL     OW27904   0.095   4.911   5.347
 9002SOL    HW127905   0.004   4.930   5.382
 9002SOL    HW227906   0.161   4.915   5.422
 9003SOL     OW27907   5.163   2.791   1.341
 9003SOL    HW127908   5.159   2.787   1.441
 9003SOL    HW227909   5.192   2.702   1.305
 9004SOL     OW27910   4.293   6.348   1.461
 9004SOL    HW127911   4.211   6.292   1.469
 9004SOL    HW227912   4.278   6.420   1.394
 9005SOL     OW27913   5.310   2.504   4.290
 9005SOL    HW127914   5.359   2.468   4.369
 9005SOL    HW227915   5.317   2.603   4.288
 9006SOL     OW27916   2.770   6.671   0.613
 9006SOL    HW127917   2.783   6.690   0.710
 9006SOL    HW227918   2.813   6.742   0.558
 9007SOL     OW27919   3.702   1.009   4.281
 9007SOL    HW127920   3.756   0.964   4.352
 9007SOL    HW227921   3.650   0.940   4.230
 9008SOL     OW27922   1.177   6.037   3.020
 9008SOL    HW127923   1.096   5.980   3.027
 9008SOL    HW227924   1.175   6.090   2.935
 9009SOL     OW27925   3.188   0.514   0.686
 9009SOL    HW127926   3.189   0.519   0.786
 9009SOL    HW227927   3.280   0.491   0.653
 9010SOL     OW27928   1.407   6.287   3.874
 9010SOL    HW127929   1.440   6.369   3.921
 9010SOL    HW227930   1.478   6.253   3.812
 9011SOL     OW27931   4.954   2.600   2.069
 9011SOL    HW127932   5.014   2.677   2.089
 9011SOL    HW227933   4.868   2.633   2.032
 9012SOL     OW27934   2.687   4.562   1.303
 9012SOL    HW127935   2.617   4.515   1.250
 9012SOL    HW227936   2.652   4.582   1.394
 9013SOL     OW27937   6.960   6.592   5.407
 9013SOL    HW127938   6.961   6.664   5.337
 9013SOL    HW227939   6.874   6.598   5.458
 9014SOL     OW27940   6.502   1.868   0.246
 9014SOL    HW127941   6.429   1.931   0.272
 9014SOL    HW227942   6.585   1.891   0.297
 9015SOL     OW27943   5.346   1.551   1.369
 9015SOL    HW127944   5.256   1.511   1.349
 9015SOL    HW227945   5.404   1.541   1.288
 9016SOL     OW27946   0.702   0.006   6.642
 9016SOL    HW127947   0.691   0.084   6.581
 9016SOL    HW227948   0.642   0.017   6.722
 9017SOL     OW27949   4.244   1.973   3.036
 9017SOL    HW127950   4.223   2.024   3.120
 9017SOL    HW227951   4.160   1.956   2.985
 9018SOL     OW27952   4.184   1.939   0.269
 9018SOL    HW127953   4.243   2.018   0.252
 9018SOL    HW227954   4.105   1.968   0.324
 9019SOL     OW27955   1.442   0.544   2.322
 9019SOL    HW127956   1.532   0.519   2.285
 9019SOL    HW227957   1.452   0.623   2.383
 9020SOL     OW27958   0.607   3.959   1.592
 9020SOL    HW127959   0.681   3.902   1.556
 9020SOL    HW227960   0.604   4.045   1.541
 9021SOL     OW27961   6.647   0.057   4.277
 9021SOL    HW127962   6.600   0.091   4.196
 9021SOL    HW227963   6.673   0.133   4.336
 9022SOL     OW27964   3.214   2.607   6.993
 9022SOL    HW127965   3.289   2.543   6.973
 9022SOL    HW227966   3.147   2.604   6.919
 9023SOL     OW27967   3.044   3.052   2.465
 9023SOL    HW127968   2.973   2.987   2.493
 9023SOL    HW227969   3.126   3.035   2.519
 9024SOL     OW27970   0.606   4.425   5.007
 9024SOL    HW127971   0.526   4.391   4.957
 9024SOL    HW227972   0.581   4.508   5.056
 9025SOL     OW27973   0.846   5.084   0.379
 9025SOL    HW127974   0.903   5.164   0.398
 9025SOL    HW227975   0.850   5.062   0.282
 9026SOL     OW27976   4.246   3.375   1.351
 9026SOL    HW127977   4.204   3.329   1.430
 9026SOL    HW227978   4.175   3.419   1.296
 9027SOL     OW27979   1.191   2.487   4.395
 9027SOL    HW127980   1.132   2.505   4.316
 9027SOL    HW227981   1.273   2.543   4.388
 9028SOL     OW27982   2.363   3.556   5.531
 9028SOL    HW127983   2.332   3.493   5.602
 9028SOL    HW227984   2.414   3.631   5.573
 9029SOL     OW27985   3.422   6.143   5.307
 9029SOL    HW127986   3.449   6.064   5.362
 9029SOL    HW227987   3.472   6.224   5.338
 9030SOL     OW27988   2.237   1.961   3.420
 9030SOL    HW127989   2.168   1.948   3.348
 9030SOL    HW227990   2.328   1.960   3.379
 9031SOL     OW27991   4.344   5.837   4.494
 9031SOL    HW127992   4.401   5.907   4.452
 9031SOL    HW227993   4.396   5.752   4.503
 9032SOL     OW27994   4.057   3.365   0.578
 9032SOL    HW127995   4.056   3.314   0.491
 9032SOL    HW227996   4.100   3.454   0.564
 9033SOL     OW27997   1.054   3.821   3.346
 9033SOL    HW127998   1.011   3.873   3.420
 9033SOL    HW227999   1.074   3.728   3.378
 9034SOL     OW28000   2.789   0.177   5.704
 9034SOL    HW128001   2.715   0.206   5.765
 9034SOL    HW228002   2.759   0.096   5.652
 9035SOL     OW28003   1.181   4.983   6.053
 9035SOL    HW128004   1.241   4.913   6.014
 9035SOL    HW228005   1.129   4.942   6.129
 9036SOL     OW28006   1.737   1.331   5.550
 9036SOL    HW128007   1.664   1.364   5.610
 9036SOL    HW228008   1.823   1.374   5.576
 9037SOL     OW28009   1.183   4.107   5.481
 9037SOL    HW128010   1.263   4.124   5.539
 9037SOL    HW228011   1.201   4.137   5.388
 9038SOL     OW28012   4.393   6.888   5.883
 9038SOL    HW128013   4.486   6.861   5.861
 9038SOL    HW228014   4.392   6.942   5.967
 9039SOL     OW28015   2.697   5.510   5.154
 9039SOL    HW128016   2.757   5.451   5.100
 9039SOL    HW228017   2.745   5.594   5.177
 9040SOL     OW28018   3.391   1.638   2.474
 9040SOL    HW128019   3.366   1.706   2.405
 9040SOL    HW228020   3.481   1.601   2.452
 9041SOL     OW28021   0.887   2.718   1.495
 9041SOL    HW128022   0.969   2.774   1.491
 9041SOL    HW228023   0.911   2.624   1.519
 9042SOL     OW28024   2.835   0.158   4.060
 9042SOL    HW128025   2.858   0.232   3.997
 9042SOL    HW228026   2.881   0.172   4.147
 9043SOL     OW28027   1.438   1.007   0.147
 9043SOL    HW128028   1.514   1.043   0.201
 9043SOL    HW228029   1.352   1.029   0.191
 9044SOL     OW28030   6.227   1.055   0.694
 9044SOL    HW128031   6.293   0.982   0.680
 9044SOL    HW228032   6.257   1.137   0.644
 9045SOL     OW28033   2.260   1.373   2.587
 9045SOL    HW128034   2.245   1.449   2.650
 9045SOL    HW228035   2.174   1.324   2.573
 9046SOL     OW28036   3.688   3.609   3.288
 9046SOL    HW128037   3.600   3.566   3.267
 9046SOL    HW228038   3.686   3.647   3.380
 9047SOL     OW28039   1.380   3.249   5.897
 9047SOL    HW128040   1.296   3.220   5.853
 9047SOL    HW228041   1.432   3.308   5.835
 9048SOL     OW28042   5.538   2.807   6.210
 9048SOL    HW128043   5.525   2.735   6.142
 9048SOL    HW228044   5.589   2.770   6.288
 9049SOL     OW28045   3.484   0.233   5.839
 9049SOL    HW128046   3.426   0.159   5.804
 9049SOL    HW228047   3.549   0.259   5.768
 9050SOL     OW28048   0.018   3.322   0.095
 9050SOL    HW128049   6.968   3.284   0.043
 9050SOL    HW228050   7.011   3.387   0.163
 9051SOL     OW28051   4.180   6.827   0.820
 9051SOL    HW128052   4.259   6.772   0.793
 9051SOL    HW228053   4.159   6.893   0.749
 9052SOL     OW28054   2.389   2.377   3.795
 9052SOL    HW128055   2.358   2.301   3.739
 9052SOL    HW228056   2.436   2.341   3.876
 9053SOL     OW28057   2.193   1.496   2.822
 9053SOL    HW128058   2.225   1.588   2.846
 9053SOL    HW228059   2.106   1.478   2.867
 9054SOL     OW28060   2.641   5.927   2.883
 9054SOL    HW128061   2.666   5.871   2.804
 9054SOL    HW228062   2.592   6.008   2.852
 9055SOL     OW28063   5.787   2.881   4.232
 9055SOL    HW128064   5.811   2.862   4.327
 9055SOL    HW228065   5.793   2.797   4.178
 9056SOL     OW28066   0.340   1.408   2.306
 9056SOL    HW128067   0.326   1.329   2.245
 9056SOL    HW228068   0.264   1.472   2.295
 9057SOL     OW28069   5.478   4.716   5.877
 9057SOL    HW128070   5.547   4.654   5.839
 9057SOL    HW228071   5.390   4.699   5.835
 9058SOL     OW28072   2.848   1.932   2.582
 9058SOL    HW128073   2.800   1.871   2.646
 9058SOL    HW228074   2.829   1.903   2.488
 9059SOL     OW28075   1.028   2.171   4.217
 9059SOL    HW128076   1.029   2.082   4.264
 9059SOL    HW228077   1.065   2.160   4.125
 9060SOL     OW28078   6.444   2.704   3.469
 9060SOL    HW128079   6.521   2.642   3.458
 9060SOL    HW228080   6.359   2.651   3.476
 9061SOL     OW28081   2.448   5.908   2.241
 9061SOL    HW128082   2.535   5.912   2.194
 9061SOL    HW228083   2.391   5.985   2.213
 9062SOL     OW28084   1.599   6.056   2.210
 9062SOL    HW128085   1.558   6.140   2.247
 9062SOL    HW228086   1.698   6.066   2.210
 9063SOL     OW28087   1.905   0.196   3.146
 9063SOL    HW128088   1.856   0.248   3.217
 9063SOL    HW228089   1.951   0.259   3.085
 9064SOL     OW28090   6.162   2.092   5.188
 9064SOL    HW128091   6.206   2.070   5.101
 9064SOL    HW228092   6.201   2.035   5.260
 9065SOL     OW28093   3.082   0.022   5.690
 9065SOL    HW128094   3.002   6.991   5.705
 9065SOL    HW228095   3.108   0.066   5.776
 9066SOL     OW28096   4.657   6.228   0.636
 9066SOL    HW128097   4.743   6.177   0.641
 9066SOL    HW228098   4.614   6.211   0.547
 9067SOL     OW28099   6.764   1.062   4.280
 9067SOL    HW128100   6.736   1.131   4.214
 9067SOL    HW228101   6.738   1.091   4.372
 9068SOL     OW28102   2.070   6.293   4.540
 9068SOL    HW128103   2.108   6.335   4.622
 9068SOL    HW228104   1.994   6.233   4.566
 9069SOL     OW28105   1.549   3.339   1.955
 9069SOL    HW128106   1.537   3.240   1.955
 9069SOL    HW228107   1.624   3.364   1.893
 9070SOL     OW28108   1.065   4.104   4.834
 9070SOL    HW128109   0.973   4.108   4.873
 9070SOL    HW228110   1.076   4.177   4.767
 9071SOL     OW28111   5.036   0.477   1.652
 9071SOL    HW128112   5.030   0.387   1.695
 9071SOL    HW228113   5.042   0.465   1.552
 9072SOL     OW28114   0.225   1.485   1.969
 9072SOL    HW128115   0.168   1.506   2.048
 9072SOL    HW228116   0.166   1.456   1.893
 9073SOL     OW28117   2.629   6.676   2.534
 9073SOL    HW128118   2.696   6.750   2.535
 9073SOL    HW228119   2.538   6.712   2.554
 9074SOL     OW28120   1.493   1.899   1.794
 9074SOL    HW128121   1.513   1.824   1.857
 9074SOL    HW228122   1.579   1.934   1.755
 9075SOL     OW28123   0.838   1.424   2.346
 9075SOL    HW128124   0.752   1.434   2.296
 9075SOL    HW228125   0.820   1.385   2.436
 9076SOL     OW28126   6.560   1.983   6.007
 9076SOL    HW128127   6.627   1.910   5.991
 9076SOL    HW228128   6.584   2.063   5.951
 9077SOL     OW28129   4.558   7.022   0.081
 9077SOL    HW128130   4.619   0.004   0.003
 9077SOL    HW228131   4.610   6.996   0.162
 9078SOL     OW28132   4.539   3.407   6.058
 9078SOL    HW128133   4.621   3.455   6.027
 9078SOL    HW228134   4.459   3.466   6.047
 9079SOL     OW28135   3.210   0.154   4.375
 9079SOL    HW128136   3.236   0.157   4.278
 9079SOL    HW228137   3.292   0.150   4.431
 9080SOL     OW28138   4.735   2.551   6.700
 9080SOL    HW128139   4.637   2.530   6.697
 9080SOL    HW228140   4.749   2.631   6.758
 9081SOL     OW28141   3.893   6.456   2.364
 9081SOL    HW128142   3.839   6.530   2.406
 9081SOL    HW228143   3.837   6.410   2.295
 9082SOL     OW28144   2.198   0.181   5.534
 9082SOL    HW128145   2.149   0.146   5.614
 9082SOL    HW228146   2.166   0.136   5.452
 9083SOL     OW28147   3.316   6.054   6.216
 9083SOL    HW128148   3.232   6.106   6.236
 9083SOL    HW228149   3.301   5.998   6.134
 9084SOL     OW28150   3.178   4.013   4.580
 9084SOL    HW128151   3.098   3.958   4.601
 9084SOL    HW228152   3.170   4.050   4.487
 9085SOL     OW28153   2.507   6.452   1.802
 9085SOL    HW128154   2.514   6.517   1.727
 9085SOL    HW228155   2.422   6.400   1.794
 9086SOL     OW28156   1.171   4.328   0.519
 9086SOL    HW128157   1.232   4.251   0.497
 9086SOL    HW228158   1.158   4.333   0.618
 9087SOL     OW28159   4.456   2.475   1.483
 9087SOL    HW128160   4.519   2.445   1.555
 9087SOL    HW228161   4.473   2.572   1.462
 9088SOL     OW28162   6.803   6.807   0.996
 9088SOL    HW128163   6.731   6.794   0.927
 9088SOL    HW228164   6.879   6.745   0.977
 9089SOL     OW28165   5.213   5.651   5.751
 9089SOL    HW128166   5.301   5.674   5.791
 9089SOL    HW228167   5.225   5.620   5.657
 9090SOL     OW28168   0.081   1.304   4.255
 9090SOL    HW128169   0.116   1.326   4.346
 9090SOL    HW228170   0.076   1.205   4.244
 9091SOL     OW28171   3.421   4.370   6.736
 9091SOL    HW128172   3.459   4.407   6.821
 9091SOL    HW228173   3.351   4.432   6.701
 9092SOL     OW28174   6.500   0.865   0.157
 9092SOL    HW128175   6.449   0.942   0.195
 9092SOL    HW228176   6.479   0.857   0.059
 9093SOL     OW28177   0.827   6.034   6.111
 9093SOL    HW128178   0.865   6.093   6.183
 9093SOL    HW228179   0.898   6.013   6.044
 9094SOL     OW28180   6.649   5.076   3.111
 9094SOL    HW128181   6.642   4.982   3.078
 9094SOL    HW228182   6.561   5.122   3.102
 9095SOL     OW28183   4.548   4.560   5.857
 9095SOL    HW128184   4.588   4.630   5.916
 9095SOL    HW228185   4.605   4.548   5.776
 9096SOL     OW28186   5.970   4.815   2.773
 9096SOL    HW128187   5.902   4.862   2.829
 9096SOL    HW228188   5.963   4.846   2.678
 9097SOL     OW28189   1.175   1.668   0.876
 9097SOL    HW128190   1.269   1.643   0.896
 9097SOL    HW228191   1.166   1.687   0.778
 9098SOL     OW28192   3.202   2.143   4.676
 9098SOL    HW128193   3.147   2.059   4.678
 9098SOL    HW228194   3.246   2.157   4.765
 9099SOL     OW28195   3.492   2.922   5.919
 9099SOL    HW128196   3.400   2.946   5.888
 9099SOL    HW228197   3.559   2.969   5.861
 9100SOL     OW28198   0.128   3.301   3.615
 9100SOL    HW128199   0.183   3.218   3.604
 9100SOL    HW228200   0.031   3.276   3.623
 9101SOL     OW28201   2.713   2.481   1.743
 9101SOL    HW128202   2.670   2.393   1.762
 9101SOL    HW228203   2.790   2.495   1.805
 9102SOL     OW28204   3.789   6.372   1.968
 9102SOL    HW128205   3.813   6.342   1.876
 9102SOL    HW228206   3.811   6.300   2.034
 9103SOL     OW28207   6.346   2.471   6.651
 9103SOL    HW128208   6.250   2.455   6.627
 9103SOL    HW228209   6.405   2.438   6.578
 9104SOL     OW28210   6.836   6.043   1.790
 9104SOL    HW128211   6.833   5.944   1.800
 9104SOL    HW228212   6.786   6.086   1.865
 9105SOL     OW28213   0.593   0.963   6.394
 9105SOL    HW128214   0.676   0.938   6.442
 9105SOL    HW228215   0.608   1.049   6.344
 9106SOL     OW28216   5.863   4.096   1.681
 9106SOL    HW128217   5.867   4.059   1.774
 9106SOL    HW228218   5.949   4.077   1.634
 9107SOL     OW28219   2.398   0.536   6.783
 9107SOL    HW128220   2.308   0.565   6.817
 9107SOL    HW228221   2.398   0.541   6.683
 9108SOL     OW28222   5.061   4.503   5.125
 9108SOL    HW128223   5.074   4.600   5.105
 9108SOL    HW228224   5.066   4.450   5.040
 9109SOL     OW28225   6.290   3.779   2.945
 9109SOL    HW128226   6.289   3.870   2.904
 9109SOL    HW228227   6.346   3.780   3.028
 9110SOL     OW28228   2.291   4.496   4.059
 9110SOL    HW128229   2.214   4.456   4.108
 9110SOL    HW228230   2.260   4.528   3.969
 9111SOL     OW28231   4.950   2.544   0.326
 9111SOL    HW128232   4.874   2.553   0.261
 9111SOL    HW228233   4.953   2.451   0.361
 9112SOL     OW28234   1.749   6.010   2.650
 9112SOL    HW128235   1.769   5.958   2.567
 9112SOL    HW228236   1.650   6.013   2.665
 9113SOL     OW28237   5.269   2.875   2.540
 9113SOL    HW128238   5.245   2.922   2.455
 9113SOL    HW228239   5.185   2.849   2.588
 9114SOL     OW28240   0.006   5.426   3.458
 9114SOL    HW128241   0.028   5.478   3.376
 9114SOL    HW228242   6.935   5.426   3.473
 9115SOL     OW28243   6.317   5.259   5.251
 9115SOL    HW128244   6.370   5.200   5.189
 9115SOL    HW228245   6.276   5.333   5.198
 9116SOL     OW28246   0.595   6.925   2.938
 9116SOL    HW128247   0.660   6.994   2.968
 9116SOL    HW228248   0.580   6.932   2.840
 9117SOL     OW28249   3.380   2.681   6.029
 9117SOL    HW128250   3.295   2.661   5.981
 9117SOL    HW228251   3.435   2.745   5.975
 9118SOL     OW28252   6.511   3.472   0.093
 9118SOL    HW128253   6.448   3.491   0.168
 9118SOL    HW228254   6.466   3.488   0.006
 9119SOL     OW28255   3.404   1.138   2.284
 9119SOL    HW128256   3.317   1.147   2.234
 9119SOL    HW228257   3.451   1.056   2.253
 9120SOL     OW28258   6.958   1.997   5.901
 9120SOL    HW128259   7.013   2.011   5.818
 9120SOL    HW228260   6.991   1.916   5.950
 9121SOL     OW28261   3.296   6.076   4.743
 9121SOL    HW128262   3.262   6.168   4.724
 9121SOL    HW228263   3.302   6.062   4.842
 9122SOL     OW28264   2.522   4.558   2.161
 9122SOL    HW128265   2.582   4.587   2.235
 9122SOL    HW228266   2.554   4.599   2.075
 9123SOL     OW28267   1.894   0.656   4.399
 9123SOL    HW128268   1.884   0.612   4.310
 9123SOL    HW228269   1.804   0.668   4.441
 9124SOL     OW28270   4.024   5.208   0.537
 9124SOL    HW128271   4.096   5.270   0.569
 9124SOL    HW228272   4.046   5.178   0.444
 9125SOL     OW28273   3.991   4.771   1.134
 9125SOL    HW128274   4.090   4.774   1.151
 9125SOL    HW228275   3.948   4.852   1.173
 9126SOL     OW28276   5.319   4.073   1.576
 9126SOL    HW128277   5.355   4.034   1.661
 9126SOL    HW228278   5.238   4.022   1.547
 9127SOL     OW28279   6.715   1.539   6.228
 9127SOL    HW128280   6.729   1.466   6.295
 9127SOL    HW228281   6.638   1.514   6.168
 9128SOL     OW28282   6.300   2.335   5.228
 9128SOL    HW128283   6.252   2.250   5.205
 9128SOL    HW228284   6.247   2.413   5.194
 9129SOL     OW28285   6.295   1.987   0.491
 9129SOL    HW128286   6.241   1.910   0.457
 9129SOL    HW228287   6.259   2.016   0.579
 9130SOL     OW28288   1.721   4.463   6.609
 9130SOL    HW128289   1.701   4.558   6.632
 9130SOL    HW228290   1.767   4.458   6.521
 9131SOL     OW28291   5.376   3.587   6.130
 9131SOL    HW128292   5.380   3.684   6.156
 9131SOL    HW228293   5.282   3.554   6.140
 9132SOL     OW28294   0.765   5.468   4.312
 9132SOL    HW128295   0.811   5.489   4.398
 9132SOL    HW228296   0.696   5.397   4.327
 9133SOL     OW28297   3.810   0.018   0.771
 9133SOL    HW128298   3.816   6.945   0.769
 9133SOL    HW228299   3.738   0.048   0.708
 9134SOL     OW28300   4.044   5.367   1.216
 9134SOL    HW128301   3.955   5.330   1.190
 9134SOL    HW228302   4.071   5.437   1.150
 9135SOL     OW28303   0.620   6.934   1.575
 9135SOL    HW128304   0.692   6.928   1.644
 9135SOL    HW228305   0.658   6.964   1.488
 9136SOL     OW28306   4.781   6.447   5.628
 9136SOL    HW128307   4.827   6.511   5.566
 9136SOL    HW228308   4.803   6.472   5.723
 9137SOL     OW28309   3.962   0.549   6.896
 9137SOL    HW128310   3.884   0.566   6.837
 9137SOL    HW228311   3.947   0.594   6.984
 9138SOL     OW28312   1.138   4.263   6.708
 9138SOL    HW128313   1.211   4.199   6.684
 9138SOL    HW228314   1.134   4.272   6.808
 9139SOL     OW28315   1.095   1.405   2.343
 9139SOL    HW128316   1.129   1.496   2.364
 9139SOL    HW228317   0.996   1.402   2.356
 9140SOL     OW28318   1.120   4.168   1.973
 9140SOL    HW128319   1.070   4.249   1.942
 9140SOL    HW228320   1.055   4.095   1.996
 9141SOL     OW28321   6.152   6.684   0.948
 9141SOL    HW128322   6.117   6.590   0.938
 9141SOL    HW228323   6.180   6.719   0.859
 9142SOL     OW28324   0.710   3.814   1.167
 9142SOL    HW128325   0.665   3.759   1.097
 9142SOL    HW228326   0.704   3.767   1.255
 9143SOL     OW28327   6.651   3.550   0.902
 9143SOL    HW128328   6.644   3.639   0.946
 9143SOL    HW228329   6.613   3.480   0.963
 9144SOL     OW28330   3.713   5.203   4.805
 9144SOL    HW128331   3.671   5.127   4.756
 9144SOL    HW228332   3.741   5.273   4.740
 9145SOL     OW28333   0.443   6.019   6.531
 9145SOL    HW128334   0.402   5.930   6.511
 9145SOL    HW228335   0.508   6.011   6.606
 9146SOL     OW28336   5.164   3.735   2.845
 9146SOL    HW128337   5.240   3.773   2.897
 9146SOL    HW228338   5.145   3.642   2.877
 9147SOL     OW28339   6.810   0.635   5.168
 9147SOL    HW128340   6.818   0.538   5.191
 9147SOL    HW228341   6.830   0.691   5.248
 9148SOL     OW28342   5.938   6.585   2.136
 9148SOL    HW128343   5.959   6.682   2.143
 9148SOL    HW228344   5.846   6.568   2.171
 9149SOL     OW28345   5.449   3.300   1.776
 9149SOL    HW128346   5.357   3.262   1.780
 9149SOL    HW228347   5.477   3.331   1.868
 9150SOL     OW28348   3.381   4.411   0.491
 9150SOL    HW128349   3.455   4.450   0.437
 9150SOL    HW228350   3.326   4.485   0.530
 9151SOL     OW28351   2.031   4.156   3.346
 9151SOL    HW128352   1.985   4.089   3.289
 9151SOL    HW228353   1.968   4.232   3.364
 9152SOL     OW28354   1.722   4.337   4.488
 9152SOL    HW128355   1.804   4.296   4.526
 9152SOL    HW228356   1.645   4.274   4.498
 9153SOL     OW28357   0.210   2.570   6.730
 9153SOL    HW128358   0.206   2.480   6.772
 9153SOL    HW228359   0.126   2.620   6.751
 9154SOL     OW28360   4.737   4.188   4.267
 9154SOL    HW128361   4.777   4.170   4.357
 9154SOL    HW228362   4.688   4.275   4.270
 9155SOL     OW28363   2.592   4.815   2.534
 9155SOL    HW128364   2.626   4.908   2.552
 9155SOL    HW228365   2.542   4.782   2.614
 9156SOL     OW28366   6.766   2.096   1.650
 9156SOL    HW128367   6.866   2.089   1.658
 9156SOL    HW228368   6.736   2.053   1.565
 9157SOL     OW28369   3.469   4.039   6.701
 9157SOL    HW128370   3.469   4.139   6.689
 9157SOL    HW228371   3.377   4.004   6.684
 9158SOL     OW28372   6.639   3.868   3.827
 9158SOL    HW128373   6.685   3.950   3.795
 9158SOL    HW228374   6.706   3.803   3.864
 9159SOL     OW28375   2.035   0.014   3.855
 9159SOL    HW128376   2.030   6.959   3.913
 9159SOL    HW228377   2.127   0.052   3.859
 9160SOL     OW28378   0.186   6.117   5.714
 9160SOL    HW128379   0.124   6.192   5.736
 9160SOL    HW228380   0.178   6.094   5.617
 9161SOL     OW28381   6.473   4.899   3.430
 9161SOL    HW128382   6.540   4.865   3.496
 9161SOL    HW228383   6.458   4.829   3.359
 9162SOL     OW28384   3.671   0.305   2.812
 9162SOL    HW128385   3.589   0.327   2.866
 9162SOL    HW228386   3.690   0.379   2.748
 9163SOL     OW28387   6.857   3.492   2.793
 9163SOL    HW128388   6.871   3.471   2.890
 9163SOL    HW228389   6.762   3.517   2.777
 9164SOL     OW28390   2.062   0.806   6.724
 9164SOL    HW128391   1.975   0.762   6.744
 9164SOL    HW228392   2.073   0.887   6.782
 9165SOL     OW28393   4.471   1.769   6.052
 9165SOL    HW128394   4.497   1.734   6.142
 9165SOL    HW228395   4.400   1.839   6.062
 9166SOL     OW28396   4.682   5.362   1.580
 9166SOL    HW128397   4.736   5.390   1.500
 9166SOL    HW228398   4.632   5.440   1.616
 9167SOL     OW28399   1.399   2.450   6.033
 9167SOL    HW128400   1.497   2.465   6.040
 9167SOL    HW228401   1.381   2.376   5.967
 9168SOL     OW28402   6.811   6.408   6.950
 9168SOL    HW128403   6.878   6.451   6.889
 9168SOL    HW228404   6.779   6.477   7.015
 9169SOL     OW28405   6.387   6.077   6.147
 9169SOL    HW128406   6.391   6.151   6.079
 9169SOL    HW228407   6.348   6.111   6.232
 9170SOL     OW28408   1.778   0.532   6.322
 9170SOL    HW128409   1.830   0.612   6.350
 9170SOL    HW228410   1.828   0.449   6.345
 9171SOL     OW28411   3.417   5.283   0.609
 9171SOL    HW128412   3.393   5.342   0.533
 9171SOL    HW228413   3.414   5.335   0.695
 9172SOL     OW28414   4.424   2.088   4.478
 9172SOL    HW128415   4.435   1.993   4.504
 9172SOL    HW228416   4.498   2.143   4.518
 9173SOL     OW28417   5.972   2.972   4.682
 9173SOL    HW128418   5.930   3.057   4.650
 9173SOL    HW228419   6.018   2.926   4.606
 9174SOL     OW28420   0.586   5.953   6.749
 9174SOL    HW128421   0.564   6.006   6.831
 9174SOL    HW228422   0.673   5.985   6.711
 9175SOL     OW28423   1.568   0.085   0.103
 9175SOL    HW128424   1.653   0.125   0.137
 9175SOL    HW228425   1.589   0.004   0.048
 9176SOL     OW28426   2.335   0.033   1.227
 9176SOL    HW128427   2.403   0.106   1.224
 9176SOL    HW228428   2.297   0.027   1.319
 9177SOL     OW28429   1.674   2.604   3.817
 9177SOL    HW128430   1.580   2.583   3.790
 9177SOL    HW228431   1.693   2.565   3.906
 9178SOL     OW28432   2.120   5.558   6.095
 9178SOL    HW128433   2.093   5.494   6.167
 9178SOL    HW228434   2.192   5.618   6.129
 9179SOL     OW28435   1.704   5.951   5.248
 9179SOL    HW128436   1.706   5.991   5.156
 9179SOL    HW228437   1.760   5.868   5.249
 9180SOL     OW28438   6.707   2.593   3.452
 9180SOL    HW128439   6.780   2.564   3.390
 9180SOL    HW228440   6.701   2.529   3.528
 9181SOL     OW28441   4.828   2.954   3.637
 9181SOL    HW128442   4.772   2.881   3.596
 9181SOL    HW228443   4.892   2.989   3.569
 9182SOL     OW28444   3.125   0.558   3.520
 9182SOL    HW128445   3.142   0.461   3.537
 9182SOL    HW228446   3.048   0.567   3.456
 9183SOL     OW28447   5.357   4.243   6.322
 9183SOL    HW128448   5.427   4.172   6.330
 9183SOL    HW228449   5.395   4.322   6.274
 9184SOL     OW28450   3.979   2.014   0.930
 9184SOL    HW128451   3.970   1.915   0.924
 9184SOL    HW228452   3.949   2.055   0.844
 9185SOL     OW28453   0.311   6.589   5.662
 9185SOL    HW128454   0.212   6.604   5.657
 9185SOL    HW228455   0.333   6.542   5.747
 9186SOL     OW28456   4.657   0.602   5.314
 9186SOL    HW128457   4.711   0.538   5.260
 9186SOL    HW228458   4.708   0.688   5.324
 9187SOL     OW28459   4.552   2.000   6.954
 9187SOL    HW128460   4.586   1.906   6.956
 9187SOL    HW228461   4.453   1.999   6.938
 9188SOL     OW28462   0.983   0.687   1.782
 9188SOL    HW128463   0.912   0.645   1.839
 9188SOL    HW228464   1.056   0.621   1.764
 9189SOL     OW28465   2.799   6.975   3.667
 9189SOL    HW128466   2.797   6.875   3.672
 9189SOL    HW228467   2.729   7.013   3.726
 9190SOL     OW28468   0.011   3.239   5.260
 9190SOL    HW128469   0.023   3.262   5.356
 9190SOL    HW228470   0.073   3.165   5.235
 9191SOL     OW28471   5.363   6.901   6.304
 9191SOL    HW128472   5.388   6.946   6.390
 9191SOL    HW228473   5.311   6.964   6.247
 9192SOL     OW28474   6.274   3.204   6.088
 9192SOL    HW128475   6.317   3.154   6.013
 9192SOL    HW228476   6.220   3.141   6.144
 9193SOL     OW28477   3.519   3.875   3.941
 9193SOL    HW128478   3.456   3.924   4.001
 9193SOL    HW228479   3.467   3.824   3.872
 9194SOL     OW28480   3.791   5.910   2.018
 9194SOL    HW128481   3.761   5.967   1.942
 9194SOL    HW228482   3.846   5.965   2.081
 9195SOL     OW28483   2.271   2.450   4.156
 9195SOL    HW128484   2.241   2.462   4.251
 9195SOL    HW228485   2.202   2.487   4.094
 9196SOL     OW28486   5.541   0.347   3.786
 9196SOL    HW128487   5.622   0.383   3.739
 9196SOL    HW228488   5.570   0.279   3.854
 9197SOL     OW28489   3.823   5.279   0.064
 9197SOL    HW128490   3.785   5.208   0.123
 9197SOL    HW228491   3.793   5.264   6.997
 9198SOL     OW28492   5.668   4.317   6.027
 9198SOL    HW128493   5.580   4.349   5.993
 9198SOL    HW228494   5.661   4.220   6.048
 9199SOL     OW28495   0.039   2.769   6.358
 9199SOL    HW128496   0.009   2.827   6.282
 9199SOL    HW228497   0.098   2.822   6.419
 9200SOL     OW28498   1.572   5.913   6.596
 9200SOL    HW128499   1.667   5.941   6.583
 9200SOL    HW228500   1.557   5.826   6.550
 9201SOL     OW28501   0.431   3.477   0.908
 9201SOL    HW128502   0.497   3.401   0.910
 9201SOL    HW228503   0.403   3.494   0.814
 9202SOL     OW28504   1.322   5.589   4.069
 9202SOL    HW128505   1.403   5.554   4.022
 9202SOL    HW228506   1.349   5.657   4.137
 9203SOL     OW28507   5.188   2.118   6.586
 9203SOL    HW128508   5.177   2.146   6.491
 9203SOL    HW228509   5.100   2.085   6.621
 9204SOL     OW28510   5.017   3.639   3.465
 9204SOL    HW128511   4.971   3.561   3.422
 9204SOL    HW228512   5.105   3.654   3.419
 9205SOL     OW28513   5.101   4.157   2.450
 9205SOL    HW128514   5.049   4.242   2.438
 9205SOL    HW228515   5.092   4.126   2.544
 9206SOL     OW28516   2.942   0.048   4.288
 9206SOL    HW128517   2.889   0.052   4.373
 9206SOL    HW228518   3.039   0.045   4.311
 9207SOL     OW28519   3.747   5.996   6.026
 9207SOL    HW128520   3.738   6.029   6.120
 9207SOL    HW228521   3.832   6.032   5.987
 9208SOL     OW28522   5.826   4.565   2.150
 9208SOL    HW128523   5.779   4.632   2.208
 9208SOL    HW228524   5.758   4.510   2.102
 9209SOL     OW28525   4.107   0.391   1.751
 9209SOL    HW128526   4.026   0.334   1.761
 9209SOL    HW228527   4.166   0.353   1.679
 9210SOL     OW28528   0.587   1.030   1.722
 9210SOL    HW128529   0.528   1.087   1.666
 9210SOL    HW228530   0.670   1.008   1.671
 9211SOL     OW28531   5.213   2.856   5.746
 9211SOL    HW128532   5.258   2.862   5.657
 9211SOL    HW228533   5.282   2.856   5.818
 9212SOL     OW28534   4.732   4.000   5.150
 9212SOL    HW128535   4.769   3.909   5.134
 9212SOL    HW228536   4.796   4.069   5.117
 9213SOL     OW28537   5.088   5.848   3.969
 9213SOL    HW128538   5.123   5.912   3.900
 9213SOL    HW228539   5.070   5.897   4.054
 9214SOL     OW28540   0.053   2.286   5.293
 9214SOL    HW128541   7.004   2.224   5.277
 9214SOL    HW228542   0.023   2.363   5.348
 9215SOL     OW28543   0.598   4.820   2.751
 9215SOL    HW128544   0.525   4.859   2.696
 9215SOL    HW228545   0.559   4.775   2.831
 9216SOL     OW28546   2.540   6.587   4.627
 9216SOL    HW128547   2.553   6.492   4.656
 9216SOL    HW228548   2.551   6.593   4.528
 9217SOL     OW28549   5.215   1.809   6.685
 9217SOL    HW128550   5.123   1.811   6.646
 9217SOL    HW228551   5.280   1.850   6.620
 9218SOL     OW28552   4.350   1.411   7.027
 9218SOL    HW128553   4.405   1.414   6.944
 9218SOL    HW228554   4.355   1.499   0.047
 9219SOL     OW28555   4.434   3.533   5.764
 9219SOL    HW128556   4.363   3.523   5.834
 9219SOL    HW228557   4.476   3.443   5.746
 9220SOL     OW28558   2.127   6.017   2.606
 9220SOL    HW128559   2.139   5.932   2.556
 9220SOL    HW228560   2.083   5.998   2.694
 9221SOL     OW28561   2.428   6.953   5.482
 9221SOL    HW128562   2.360   7.026   5.471
 9221SOL    HW228563   2.395   6.870   5.436
 9222SOL     OW28564   2.616   4.729   4.855
 9222SOL    HW128565   2.628   4.695   4.762
 9222SOL    HW228566   2.679   4.681   4.916
 9223SOL     OW28567   1.228   2.439   3.918
 9223SOL    HW128568   1.202   2.470   4.010
 9223SOL    HW228569   1.153   2.387   3.878
 9224SOL     OW28570   1.619   3.238   3.666
 9224SOL    HW128571   1.595   3.244   3.569
 9224SOL    HW228572   1.603   3.145   3.699
 9225SOL     OW28573   4.051   6.076   6.206
 9225SOL    HW128574   4.011   6.102   6.118
 9225SOL    HW228575   4.060   6.157   6.264
 9226SOL     OW28576   0.999   0.514   1.386
 9226SOL    HW128577   0.981   0.603   1.343
 9226SOL    HW228578   1.078   0.471   1.342
 9227SOL     OW28579   1.739   6.282   1.647
 9227SOL    HW128580   1.722   6.185   1.627
 9227SOL    HW228581   1.697   6.339   1.577
 9228SOL     OW28582   1.666   2.506   6.796
 9228SOL    HW128583   1.600   2.553   6.737
 9228SOL    HW228584   1.745   2.565   6.812
 9229SOL     OW28585   0.614   5.040   6.134
 9229SOL    HW128586   0.558   5.061   6.054
 9229SOL    HW228587   0.664   5.122   6.162
 9230SOL     OW28588   4.765   2.860   2.975
 9230SOL    HW128589   4.727   2.814   3.055
 9230SOL    HW228590   4.750   2.803   2.893
 9231SOL     OW28591   0.878   4.361   5.049
 9231SOL    HW128592   0.782   4.389   5.057
 9231SOL    HW228593   0.927   4.384   5.133
 9232SOL     OW28594   2.911   5.883   1.170
 9232SOL    HW128595   2.925   5.962   1.229
 9232SOL    HW228596   2.814   5.857   1.171
 9233SOL     OW28597   0.937   0.032   0.394
 9233SOL    HW128598   1.013   0.097   0.398
 9233SOL    HW228599   0.921   0.005   0.298
 9234SOL     OW28600   2.262   6.039   0.692
 9234SOL    HW128601   2.251   5.971   0.764
 9234SOL    HW228602   2.236   5.999   0.604
 9235SOL     OW28603   2.322   2.704   2.804
 9235SOL    HW128604   2.375   2.680   2.885
 9235SOL    HW228605   2.329   2.631   2.736
 9236SOL     OW28606   2.418   3.471   6.654
 9236SOL    HW128607   2.503   3.518   6.679
 9236SOL    HW228608   2.414   3.383   6.702
 9237SOL     OW28609   0.562   5.519   2.551
 9237SOL    HW128610   0.608   5.607   2.565
 9237SOL    HW228611   0.504   5.499   2.630
 9238SOL     OW28612   2.440   2.552   6.072
 9238SOL    HW128613   2.422   2.627   6.008
 9238SOL    HW228614   2.378   2.476   6.051
 9239SOL     OW28615   0.149   4.601   6.774
 9239SOL    HW128616   0.230   4.646   6.737
 9239SOL    HW228617   0.103   4.662   6.839
 9240SOL     OW28618   5.096   2.841   2.201
 9240SOL    HW128619   5.004   2.868   2.170
 9240SOL    HW228620   5.133   2.913   2.260
 9241SOL     OW28621   0.690   5.787   0.858
 9241SOL    HW128622   0.662   5.788   0.954
 9241SOL    HW228623   0.719   5.695   0.832
 9242SOL     OW28624   2.082   3.344   1.787
 9242SOL    HW128625   2.092   3.409   1.712
 9242SOL    HW228626   2.116   3.385   1.872
 9243SOL     OW28627   0.392   0.275   1.776
 9243SOL    HW128628   0.393   0.281   1.876
 9243SOL    HW228629   0.361   0.185   1.748
 9244SOL     OW28630   2.503   6.689   6.115
 9244SOL    HW128631   2.423   6.718   6.063
 9244SOL    HW228632   2.576   6.664   6.051
 9245SOL     OW28633   0.376   4.384   3.549
 9245SOL    HW128634   0.356   4.326   3.470
 9245SOL    HW228635   0.314   4.360   3.624
 9246SOL     OW28636   5.726   0.758   3.753
 9246SOL    HW128637   5.764   0.677   3.708
 9246SOL    HW228638   5.792   0.793   3.819
 9247SOL     OW28639   3.810   5.176   3.199
 9247SOL    HW128640   3.868   5.258   3.201
 9247SOL    HW228641   3.860   5.101   3.156
 9248SOL     OW28642   2.889   1.870   5.120
 9248SOL    HW128643   2.840   1.953   5.091
 9248SOL    HW228644   2.869   1.852   5.217
 9249SOL     OW28645   4.974   5.620   1.688
 9249SOL    HW128646   4.929   5.532   1.707
 9249SOL    HW228647   5.027   5.648   1.768
 9250SOL     OW28648   6.984   2.981   4.203
 9250SOL    HW128649   6.957   2.885   4.196
 9250SOL    HW228650   6.909   3.039   4.170
 9251SOL     OW28651   4.237   1.798   2.070
 9251SOL    HW128652   4.255   1.895   2.056
 9251SOL    HW228653   4.278   1.746   1.995
 9252SOL     OW28654   5.741   0.562   4.671
 9252SOL    HW128655   5.841   0.559   4.674
 9252SOL    HW228656   5.711   0.657   4.663
 9253SOL     OW28657   5.110   5.496   5.213
 9253SOL    HW128658   5.125   5.399   5.234
 9253SOL    HW228659   5.021   5.507   5.169
 9254SOL     OW28660   4.831   4.931   2.443
 9254SOL    HW128661   4.826   4.855   2.507
 9254SOL    HW228662   4.750   4.930   2.384
 9255SOL     OW28663   5.346   3.163   6.475
 9255SOL    HW128664   5.268   3.112   6.440
 9255SOL    HW228665   5.388   3.216   6.401
 9256SOL     OW28666   1.962   0.286   1.711
 9256SOL    HW128667   1.886   0.348   1.693
 9256SOL    HW228668   1.954   0.204   1.654
 9257SOL     OW28669   5.982   5.758   3.372
 9257SOL    HW128670   5.892   5.798   3.387
 9257SOL    HW228671   5.985   5.712   3.283
 9258SOL     OW28672   3.930   3.599   1.555
 9258SOL    HW128673   3.985   3.517   1.568
 9258SOL    HW228674   3.836   3.582   1.586
 9259SOL     OW28675   2.126   0.872   0.488
 9259SOL    HW128676   2.214   0.833   0.460
 9259SOL    HW228677   2.054   0.833   0.430
 9260SOL     OW28678   6.745   2.866   5.557
 9260SOL    HW128679   6.775   2.787   5.611
 9260SOL    HW228680   6.824   2.907   5.511
 9261SOL     OW28681   4.565   1.076   6.772
 9261SOL    HW128682   4.512   1.068   6.688
 9261SOL    HW228683   4.657   1.038   6.757
 9262SOL     OW28684   1.057   5.941   4.967
 9262SOL    HW128685   1.024   5.866   5.023
 9262SOL    HW228686   0.990   5.961   4.895
 9263SOL     OW28687   3.264   5.252   2.194
 9263SOL    HW128688   3.194   5.306   2.242
 9263SOL    HW228689   3.350   5.257   2.244
 9264SOL     OW28690   4.826   3.237   0.284
 9264SOL    HW128691   4.923   3.231   0.306
 9264SOL    HW228692   4.792   3.146   0.258
 9265SOL     OW28693   3.919   2.450   6.854
 9265SOL    HW128694   3.968   2.533   6.826
 9265SOL    HW228695   3.951   2.373   6.798
 9266SOL     OW28696   0.494   6.154   1.029
 9266SOL    HW128697   0.533   6.239   0.992
 9266SOL    HW228698   0.491   6.085   0.957
 9267SOL     OW28699   1.046   1.915   4.358
 9267SOL    HW128700   0.996   1.952   4.436
 9267SOL    HW228701   1.137   1.886   4.388
 9268SOL     OW28702   1.011   6.909   2.319
 9268SOL    HW128703   1.054   6.857   2.245
 9268SOL    HW228704   1.081   6.960   2.369
 9269SOL     OW28705   3.943   0.039   6.166
 9269SOL    HW128706   3.859   0.052   6.219
 9269SOL    HW228707   3.922   0.041   6.068
 9270SOL     OW28708   3.771   0.320   5.386
 9270SOL    HW128709   3.820   0.280   5.308
 9270SOL    HW228710   3.798   0.272   5.470
 9271SOL     OW28711   6.168   0.330   0.326
 9271SOL    HW128712   6.100   0.393   0.287
 9271SOL    HW228713   6.125   0.275   0.397
 9272SOL     OW28714   0.546   6.204   6.382
 9272SOL    HW128715   0.645   6.218   6.386
 9272SOL    HW228716   0.520   6.131   6.446
 9273SOL     OW28717   6.015   6.105   3.437
 9273SOL    HW128718   5.934   6.137   3.387
 9273SOL    HW228719   6.038   6.013   3.407
 9274SOL     OW28720   6.645   2.241   6.930
 9274SOL    HW128721   6.689   2.208   6.847
 9274SOL    HW228722   6.556   2.281   6.907
 9275SOL     OW28723   6.896   6.735   0.290
 9275SOL    HW128724   6.982   6.739   0.340
 9275SOL    HW228725   6.840   6.815   0.313
 9276SOL     OW28726   2.012   5.219   6.686
 9276SOL    HW128727   1.980   5.204   6.780
 9276SOL    HW228728   2.112   5.216   6.684
 9277SOL     OW28729   4.097   4.830   2.358
 9277SOL    HW128730   4.060   4.898   2.294
 9277SOL    HW228731   4.106   4.742   2.312
 9278SOL     OW28732   1.496   0.555   5.619
 9278SOL    HW128733   1.572   0.550   5.554
 9278SOL    HW228734   1.456   0.465   5.630
 9279SOL     OW28735   3.800   0.028   1.900
 9279SOL    HW128736   3.875   0.038   1.965
 9279SOL    HW228737   3.827   6.994   1.826
 9280SOL     OW28738   2.511   1.639   2.536
 9280SOL    HW128739   2.607   1.622   2.516
 9280SOL    HW228740   2.467   1.679   2.456
 9281SOL     OW28741   3.627   4.292   6.585
 9281SOL    HW128742   3.620   4.282   6.486
 9281SOL    HW228743   3.542   4.330   6.621
 9282SOL     OW28744   4.406   0.686   4.149
 9282SOL    HW128745   4.381   0.625   4.074
 9282SOL    HW228746   4.364   0.776   4.134
 9283SOL     OW28747   5.023   0.594   5.359
 9283SOL    HW128748   5.114   0.624   5.390
 9283SOL    HW228749   5.033   0.540   5.275
 9284SOL     OW28750   2.673   3.771   5.364
 9284SOL    HW128751   2.769   3.794   5.347
 9284SOL    HW228752   2.629   3.746   5.277
 9285SOL     OW28753   5.050   3.496   0.649
 9285SOL    HW128754   5.111   3.416   0.648
 9285SOL    HW228755   4.956   3.465   0.663
 9286SOL     OW28756   5.125   5.134   0.411
 9286SOL    HW128757   5.107   5.065   0.481
 9286SOL    HW228758   5.119   5.225   0.452
 9287SOL     OW28759   3.649   4.790   5.930
 9287SOL    HW128760   3.681   4.841   6.010
 9287SOL    HW228761   3.710   4.713   5.912
 9288SOL     OW28762   4.304   1.796   2.499
 9288SOL    HW128763   4.287   1.893   2.481
 9288SOL    HW228764   4.402   1.777   2.489
 9289SOL     OW28765   4.644   0.790   0.473
 9289SOL    HW128766   4.649   0.799   0.374
 9289SOL    HW228767   4.680   0.701   0.500
 9290SOL     OW28768   5.996   1.315   4.014
 9290SOL    HW128769   5.973   1.389   4.078
 9290SOL    HW228770   5.913   1.285   3.967
 9291SOL     OW28771   1.205   5.768   6.156
 9291SOL    HW128772   1.279   5.751   6.091
 9291SOL    HW228773   1.240   5.758   6.249
 9292SOL     OW28774   2.300   1.129   6.645
 9292SOL    HW128775   2.290   1.118   6.744
 9292SOL    HW228776   2.295   1.226   6.621
 9293SOL     OW28777   5.596   3.393   6.602
 9293SOL    HW128778   5.504   3.425   6.626
 9293SOL    HW228779   5.592   3.334   6.522
 9294SOL     OW28780   4.895   0.888   6.459
 9294SOL    HW128781   4.892   0.936   6.371
 9294SOL    HW228782   4.859   0.795   6.448
 9295SOL     OW28783   6.309   0.789   4.947
 9295SOL    HW128784   6.303   0.764   4.850
 9295SOL    HW228785   6.369   0.724   4.994
 9296SOL     OW28786   1.965   4.949   0.568
 9296SOL    HW128787   1.958   5.030   0.626
 9296SOL    HW228788   2.042   4.960   0.506
 9297SOL     OW28789   0.696   6.913   3.265
 9297SOL    HW128790   0.615   6.964   3.236
 9297SOL    HW228791   0.752   6.891   3.185
 9298SOL     OW28792   0.863   6.385   6.496
 9298SOL    HW128793   0.952   6.419   6.528
 9298SOL    HW228794   0.864   6.379   6.396
 9299SOL     OW28795   1.107   1.874   4.090
 9299SOL    HW128796   1.083   1.905   4.182
 9299SOL    HW228797   1.187   1.815   4.095
 9300SOL     OW28798   6.928   5.223   5.248
 9300SOL    HW128799   7.003   5.289   5.255
 9300SOL    HW228800   6.849   5.266   5.204
 9301SOL     OW28801   6.801   4.390   5.231
 9301SOL    HW128802   6.790   4.439   5.145
 9301SOL    HW228803   6.887   4.418   5.274
 9302SOL     OW28804   1.991   3.460   4.884
 9302SOL    HW128805   2.062   3.486   4.818
 9302SOL    HW228806   2.034   3.419   4.965
 9303SOL     OW28807   2.640   4.268   0.126
 9303SOL    HW128808   2.657   4.258   0.028
 9303SOL    HW228809   2.704   4.210   0.177
 9304SOL     OW28810   4.657   5.009   0.485
 9304SOL    HW128811   4.636   5.069   0.408
 9304SOL    HW228812   4.659   4.914   0.454
 9305SOL     OW28813   3.874   0.863   0.703
 9305SOL    HW128814   3.839   0.899   0.790
 9305SOL    HW228815   3.896   0.767   0.713
 9306SOL     OW28816   0.852   4.828   5.547
 9306SOL    HW128817   0.838   4.887   5.626
 9306SOL    HW228818   0.816   4.737   5.566
 9307SOL     OW28819   1.647   4.228   0.426
 9307SOL    HW128820   1.693   4.140   0.435
 9307SOL    HW228821   1.699   4.298   0.475
 9308SOL     OW28822   1.505   4.456   1.896
 9308SOL    HW128823   1.549   4.369   1.874
 9308SOL    HW228824   1.426   4.440   1.956
 9309SOL     OW28825   3.841   6.497   5.607
 9309SOL    HW128826   3.922   6.524   5.658
 9309SOL    HW228827   3.867   6.444   5.527
 9310SOL     OW28828   5.629   6.383   5.752
 9310SOL    HW128829   5.716   6.377   5.702
 9310SOL    HW228830   5.594   6.476   5.747
 9311SOL     OW28831   5.516   4.563   1.597
 9311SOL    HW128832   5.478   4.475   1.566
 9311SOL    HW228833   5.511   4.629   1.522
 9312SOL     OW28834   1.485   1.915   0.798
 9312SOL    HW128835   1.569   1.956   0.760
 9312SOL    HW228836   1.481   1.818   0.773
 9313SOL     OW28837   0.182   6.917   1.514
 9313SOL    HW128838   0.200   6.833   1.566
 9313SOL    HW228839   0.149   6.892   1.423
 9314SOL     OW28840   6.967   3.531   0.491
 9314SOL    HW128841   7.016   3.444   0.486
 9314SOL    HW228842   6.871   3.514   0.513
 9315SOL     OW28843   5.875   0.159   5.771
 9315SOL    HW128844   5.964   0.139   5.730
 9315SOL    HW228845   5.807   0.094   5.737
 9316SOL     OW28846   5.430   7.004   5.130
 9316SOL    HW128847   5.409   6.934   5.198
 9316SOL    HW228848   5.389   0.063   5.158
 9317SOL     OW28849   3.940   5.710   2.842
 9317SOL    HW128850   3.993   5.631   2.874
 9317SOL    HW228851   3.844   5.697   2.865
 9318SOL     OW28852   4.825   6.890   0.139
 9318SOL    HW128853   4.902   6.832   0.164
 9318SOL    HW228854   4.745   6.833   0.120
 9319SOL     OW28855   2.793   2.939   0.886
 9319SOL    HW128856   2.774   2.841   0.888
 9319SOL    HW228857   2.734   2.985   0.953
 9320SOL     OW28858   4.425   0.818   5.023
 9320SOL    HW128859   4.514   0.860   5.038
 9320SOL    HW228860   4.426   0.767   4.937
 9321SOL     OW28861   0.953   0.999   5.870
 9321SOL    HW128862   0.859   1.029   5.886
 9321SOL    HW228863   1.015   1.053   5.928
 9322SOL     OW28864   0.227   4.247   6.445
 9322SOL    HW128865   0.278   4.240   6.531
 9322SOL    HW228866   0.134   4.280   6.464
 9323SOL     OW28867   2.089   1.773   5.038
 9323SOL    HW128868   2.046   1.711   4.972
 9323SOL    HW228869   2.121   1.721   5.117
 9324SOL     OW28870   2.083   3.727   2.500
 9324SOL    HW128871   1.992   3.720   2.460
 9324SOL    HW228872   2.152   3.715   2.429
 9325SOL     OW28873   0.153   6.758   0.814
 9325SOL    HW128874   0.248   6.770   0.843
 9325SOL    HW228875   0.150   6.697   0.735
 9326SOL     OW28876   3.149   4.924   6.635
 9326SOL    HW128877   3.182   4.859   6.566
 9326SOL    HW228878   3.080   4.880   6.691
 9327SOL     OW28879   4.561   6.853   2.689
 9327SOL    HW128880   4.466   6.820   2.693
 9327SOL    HW228881   4.610   6.824   2.771
 9328SOL     OW28882   1.902   0.695   4.883
 9328SOL    HW128883   1.878   0.648   4.968
 9328SOL    HW228884   1.929   0.628   4.814
 9329SOL     OW28885   6.621   5.963   0.743
 9329SOL    HW128886   6.568   5.922   0.668
 9329SOL    HW228887   6.605   5.912   0.827
 9330SOL     OW28888   0.177   0.380   6.119
 9330SOL    HW128889   0.233   0.299   6.139
 9330SOL    HW228890   0.085   0.366   6.156
 9331SOL     OW28891   1.852   1.494   6.079
 9331SOL    HW128892   1.819   1.483   6.173
 9331SOL    HW228893   1.812   1.577   6.040
 9332SOL     OW28894   4.410   5.489   0.880
 9332SOL    HW128895   4.442   5.403   0.841
 9332SOL    HW228896   4.365   5.543   0.809
 9333SOL     OW28897   3.844   5.640   6.572
 9333SOL    HW128898   3.935   5.668   6.604
 9333SOL    HW228899   3.810   5.708   6.507
 9334SOL     OW28900   4.827   6.866   4.343
 9334SOL    HW128901   4.791   6.959   4.343
 9334SOL    HW228902   4.808   6.823   4.432
 9335SOL     OW28903   2.105   1.540   0.255
 9335SOL    HW128904   2.018   1.591   0.254
 9335SOL    HW228905   2.173   1.590   0.202
 9336SOL     OW28906   5.304   0.058   4.216
 9336SOL    HW128907   5.323   0.156   4.215
 9336SOL    HW228908   5.215   0.041   4.258
 9337SOL     OW28909   5.228   1.308   6.375
 9337SOL    HW128910   5.162   1.373   6.412
 9337SOL    HW228911   5.270   1.256   6.449
 9338SOL     OW28912   6.705   6.536   1.195
 9338SOL    HW128913   6.670   6.619   1.151
 9338SOL    HW228914   6.766   6.561   1.269
 9339SOL     OW28915   5.684   5.863   0.572
 9339SOL    HW128916   5.669   5.844   0.475
 9339SOL    HW228917   5.656   5.957   0.592
 9340SOL     OW28918   4.309   4.660   2.641
 9340SOL    HW128919   4.372   4.608   2.583
 9340SOL    HW228920   4.269   4.735   2.588
 9341SOL     OW28921   6.785   4.027   0.729
 9341SOL    HW128922   6.715   4.099   0.729
 9341SOL    HW228923   6.763   3.959   0.799
 9342SOL     OW28924   2.331   0.656   4.741
 9342SOL    HW128925   2.337   0.594   4.663
 9342SOL    HW228926   2.423   0.670   4.779
 9343SOL     OW28927   5.017   3.467   2.011
 9343SOL    HW128928   5.112   3.498   2.016
 9343SOL    HW228929   4.987   3.470   1.915
 9344SOL     OW28930   5.394   5.555   0.018
 9344SOL    HW128931   5.362   5.552   6.951
 9344SOL    HW228932   5.316   5.550   0.080
 9345SOL     OW28933   6.911   4.506   1.389
 9345SOL    HW128934   6.820   4.532   1.421
 9345SOL    HW228935   6.952   4.582   1.338
 9346SOL     OW28936   5.311   6.970   2.104
 9346SOL    HW128937   5.212   6.969   2.120
 9346SOL    HW228938   5.343   6.876   2.092
 9347SOL     OW28939   2.718   5.620   0.285
 9347SOL    HW128940   2.808   5.608   0.241
 9347SOL    HW228941   2.728   5.611   0.384
 9348SOL     OW28942   2.700   5.566   2.860
 9348SOL    HW128943   2.687   5.656   2.819
 9348SOL    HW228944   2.757   5.574   2.942
 9349SOL     OW28945   6.672   5.910   2.431
 9349SOL    HW128946   6.694   5.895   2.527
 9349SOL    HW228947   6.576   5.889   2.414
 9350SOL     OW28948   0.133   2.008   4.054
 9350SOL    HW128949   0.223   2.042   4.026
 9350SOL    HW228950   0.105   1.934   3.993
 9351SOL     OW28951   2.532   0.486   6.228
 9351SOL    HW128952   2.510   0.398   6.269
 9351SOL    HW228953   2.456   0.517   6.171
 9352SOL     OW28954   3.140   3.288   5.885
 9352SOL    HW128955   3.085   3.204   5.890
 9352SOL    HW228956   3.090   3.357   5.833
 9353SOL     OW28957   1.795   3.918   1.649
 9353SOL    HW128958   1.849   4.002   1.645
 9353SOL    HW228959   1.698   3.940   1.655
 9354SOL     OW28960   6.560   2.000   0.580
 9354SOL    HW128961   6.463   2.008   0.554
 9354SOL    HW228962   6.617   2.002   0.497
 9355SOL     OW28963   6.233   1.649   4.245
 9355SOL    HW128964   6.312   1.640   4.184
 9355SOL    HW228965   6.256   1.613   4.335
 9356SOL     OW28966   4.400   5.441   1.366
 9356SOL    HW128967   4.468   5.500   1.410
 9356SOL    HW228968   4.319   5.495   1.343
 9357SOL     OW28969   3.398   3.449   6.378
 9357SOL    HW128970   3.319   3.402   6.340
 9357SOL    HW228971   3.480   3.424   6.326
 9358SOL     OW28972   6.496   3.516   2.293
 9358SOL    HW128973   6.476   3.432   2.344
 9358SOL    HW228974   6.580   3.557   2.327
 9359SOL     OW28975   1.254   3.481   6.005
 9359SOL    HW128976   1.220   3.533   5.926
 9359SOL    HW228977   1.276   3.388   5.976
 9360SOL     OW28978   0.857   6.947   5.812
 9360SOL    HW128979   0.930   6.900   5.762
 9360SOL    HW228980   0.890   6.969   5.904
 9361SOL     OW28981   2.434   6.092   3.783
 9361SOL    HW128982   2.494   6.069   3.706
 9361SOL    HW228983   2.429   6.191   3.793
 9362SOL     OW28984   1.106   1.904   1.919
 9362SOL    HW128985   1.120   1.814   1.876
 9362SOL    HW228986   1.069   1.892   2.011
 9363SOL     OW28987   4.262   5.280   1.885
 9363SOL    HW128988   4.176   5.329   1.897
 9363SOL    HW228989   4.248   5.183   1.905
 9364SOL     OW28990   4.352   3.225   5.993
 9364SOL    HW128991   4.359   3.136   6.039
 9364SOL    HW228992   4.428   3.283   6.021
 9365SOL     OW28993   2.812   2.298   5.318
 9365SOL    HW128994   2.911   2.293   5.325
 9365SOL    HW228995   2.786   2.385   5.276
 9366SOL     OW28996   2.867   0.585   0.011
 9366SOL    HW128997   2.768   0.583   0.019
 9366SOL    HW228998   2.894   0.538   6.954
 9367SOL     OW28999   0.155   6.073   3.139
 9367SOL    HW129000   0.091   6.002   3.169
 9367SOL    HW229001   0.244   6.059   3.184
 9368SOL     OW29002   2.490   1.641   3.613
 9368SOL    HW129003   2.434   1.615   3.535
 9368SOL    HW229004   2.521   1.735   3.602
 9369SOL     OW29005   0.182   0.606   5.482
 9369SOL    HW129006   0.215   0.621   5.575
 9369SOL    HW229007   0.256   0.571   5.425
 9370SOL     OW29008   4.728   0.510   2.499
 9370SOL    HW129009   4.743   0.606   2.521
 9370SOL    HW229010   4.804   0.456   2.537
 9371SOL     OW29011   2.451   4.815   0.700
 9371SOL    HW129012   2.547   4.819   0.673
 9371SOL    HW229013   2.443   4.762   0.785
 9372SOL     OW29014   5.379   6.074   3.076
 9372SOL    HW129015   5.374   5.996   3.014
 9372SOL    HW229016   5.385   6.041   3.171
 9373SOL     OW29017   4.172   2.117   2.726
 9373SOL    HW129018   4.137   2.038   2.776
 9373SOL    HW229019   4.147   2.201   2.774
 9374SOL     OW29020   0.350   3.425   0.384
 9374SOL    HW129021   0.410   3.367   0.329
 9374SOL    HW229022   0.266   3.375   0.405
 9375SOL     OW29023   6.279   1.802   2.830
 9375SOL    HW129024   6.189   1.766   2.851
 9375SOL    HW229025   6.278   1.846   2.740
 9376SOL     OW29026   2.849   4.336   1.327
 9376SOL    HW129027   2.777   4.275   1.294
 9376SOL    HW229028   2.809   4.426   1.345
 9377SOL     OW29029   1.807   5.573   3.607
 9377SOL    HW129030   1.800   5.556   3.509
 9377SOL    HW229031   1.817   5.671   3.624
 9378SOL     OW29032   1.219   0.665   5.229
 9378SOL    HW129033   1.170   0.625   5.150
 9378SOL    HW229034   1.169   0.745   5.261
 9379SOL     OW29035   4.621   5.540   5.361
 9379SOL    HW129036   4.576   5.613   5.310
 9379SOL    HW229037   4.692   5.580   5.420
 9380SOL     OW29038   5.582   4.475   4.793
 9380SOL    HW129039   5.656   4.520   4.843
 9380SOL    HW229040   5.534   4.412   4.854
 9381SOL     OW29041   2.938   3.066   5.949
 9381SOL    HW129042   2.947   3.031   6.042
 9381SOL    HW229043   2.844   3.097   5.935
 9382SOL     OW29044   3.246   1.027   3.504
 9382SOL    HW129045   3.327   1.081   3.478
 9382SOL    HW229046   3.182   1.085   3.554
 9383SOL     OW29047   1.820   5.886   4.755
 9383SOL    HW129048   1.824   5.977   4.798
 9383SOL    HW229049   1.836   5.894   4.657
 9384SOL     OW29050   2.976   6.056   1.424
 9384SOL    HW129051   3.022   6.051   1.513
 9384SOL    HW229052   2.878   6.070   1.438
 9385SOL     OW29053   3.986   0.826   3.320
 9385SOL    HW129054   3.935   0.748   3.283
 9385SOL    HW229055   4.055   0.856   3.253
 9386SOL     OW29056   2.765   6.230   4.551
 9386SOL    HW129057   2.830   6.259   4.481
 9386SOL    HW229058   2.784   6.135   4.577
 9387SOL     OW29059   3.135   1.891   6.993
 9387SOL    HW129060   3.214   1.841   0.001
 9387SOL    HW229061   3.149   1.989   7.005
 9388SOL     OW29062   1.852   5.303   2.798
 9388SOL    HW129063   1.814   5.261   2.716
 9388SOL    HW229064   1.902   5.235   2.851
 9389SOL     OW29065   1.445   6.487   5.264
 9389SOL    HW129066   1.471   6.452   5.174
 9389SOL    HW229067   1.394   6.573   5.252
 9390SOL     OW29068   3.884   4.963   4.752
 9390SOL    HW129069   3.807   4.917   4.708
 9390SOL    HW229070   3.880   5.061   4.732
 9391SOL     OW29071   2.155   0.836   4.640
 9391SOL    HW129072   2.204   0.779   4.705
 9391SOL    HW229073   2.124   0.920   4.685
 9392SOL     OW29074   0.076   0.330   4.961
 9392SOL    HW129075   0.111   0.421   4.937
 9392SOL    HW229076   0.083   0.317   5.059
 9393SOL     OW29077   2.592   6.737   5.061
 9393SOL    HW129078   2.638   6.675   5.125
 9393SOL    HW229079   2.526   6.793   5.110
 9394SOL     OW29080   0.152   1.613   2.216
 9394SOL    HW129081   0.183   1.701   2.182
 9394SOL    HW229082   0.162   1.609   2.315
 9395SOL     OW29083   2.865   1.490   0.154
 9395SOL    HW129084   2.926   1.428   0.204
 9395SOL    HW229085   2.786   1.438   0.121
 9396SOL     OW29086   1.959   5.353   3.647
 9396SOL    HW129087   1.930   5.448   3.635
 9396SOL    HW229088   1.881   5.292   3.633
 9397SOL     OW29089   3.328   0.417   0.035
 9397SOL    HW129090   3.283   0.328   0.029
 9397SOL    HW229091   3.399   0.424   6.992
 9398SOL     OW29092   0.565   0.522   5.374
 9398SOL    HW129093   0.660   0.521   5.343
 9398SOL    HW229094   0.505   0.544   5.297
 9399SOL     OW29095   6.738   1.748   6.522
 9399SOL    HW129096   6.794   1.705   6.593
 9399SOL    HW229097   6.796   1.803   6.462
 9400SOL     OW29098   3.963   1.184   1.881
 9400SOL    HW129099   3.864   1.184   1.891
 9400SOL    HW229100   3.987   1.171   1.785
 9401SOL     OW29101   5.433   7.007   3.366
 9401SOL    HW129102   5.414   0.001   3.462
 9401SOL    HW229103   5.495   0.047   3.328
 9402SOL     OW29104   1.277   4.467   3.717
 9402SOL    HW129105   1.204   4.399   3.717
 9402SOL    HW229106   1.308   4.483   3.623
 9403SOL     OW29107   6.297   1.702   2.447
 9403SOL    HW129108   6.233   1.746   2.510
 9403SOL    HW229109   6.324   1.613   2.484
 9404SOL     OW29110   1.360   3.459   6.555
 9404SOL    HW129111   1.340   3.367   6.522
 9404SOL    HW229112   1.296   3.524   6.513
 9405SOL     OW29113   1.262   5.788   2.356
 9405SOL    HW129114   1.269   5.860   2.287
 9405SOL    HW229115   1.254   5.699   2.310
 9406SOL     OW29116   6.700   2.587   6.054
 9406SOL    HW129117   6.733   2.621   5.966
 9406SOL    HW229118   6.721   2.653   6.125
 9407SOL     OW29119   2.655   5.369   3.565
 9407SOL    HW129120   2.559   5.343   3.558
 9407SOL    HW229121   2.694   5.377   3.473
 9408SOL     OW29122   4.365   1.990   6.672
 9408SOL    HW129123   4.391   1.908   6.724
 9408SOL    HW229124   4.388   1.977   6.576
 9409SOL     OW29125   5.946   4.570   6.679
 9409SOL    HW129126   6.006   4.642   6.714
 9409SOL    HW229127   5.952   4.567   6.579
 9410SOL     OW29128   2.924   6.852   2.047
 9410SOL    HW129129   2.859   6.780   2.019
 9410SOL    HW229130   3.016   6.813   2.050
 9411SOL     OW29131   3.392   3.444   2.132
 9411SOL    HW129132   3.299   3.413   2.116
 9411SOL    HW229133   3.414   3.434   2.229
 9412SOL     OW29134   6.959   2.661   1.754
 9412SOL    HW129135   6.981   2.751   1.792
 9412SOL    HW229136   6.932   2.671   1.658
 9413SOL     OW29137   3.297   6.030   4.090
 9413SOL    HW129138   3.273   6.022   3.993
 9413SOL    HW229139   3.377   6.089   4.100
 9414SOL     OW29140   2.892   0.595   3.381
 9414SOL    HW129141   2.884   0.632   3.288
 9414SOL    HW229142   2.873   0.497   3.379
 9415SOL     OW29143   2.671   0.031   1.852
 9415SOL    HW129144   2.684   7.017   1.942
 9415SOL    HW229145   2.633   6.991   1.790
 9416SOL     OW29146   0.435   2.170   0.798
 9416SOL    HW129147   0.482   2.086   0.827
 9416SOL    HW229148   0.458   2.244   0.861
 9417SOL     OW29149   3.754   6.611   5.965
 9417SOL    HW129150   3.806   6.621   5.880
 9417SOL    HW229151   3.687   6.537   5.954
 9418SOL     OW29152   3.702   6.324   1.206
 9418SOL    HW129153   3.717   6.419   1.180
 9418SOL    HW229154   3.698   6.317   1.306
 9419SOL     OW29155   3.755   5.452   5.977
 9419SOL    HW129156   3.669   5.426   6.020
 9419SOL    HW229157   3.827   5.456   6.046
 9420SOL     OW29158   6.677   3.011   5.119
 9420SOL    HW129159   6.598   2.991   5.061
 9420SOL    HW229160   6.700   2.929   5.172
 9421SOL     OW29161   2.145   6.900   4.591
 9421SOL    HW129162   2.198   6.815   4.588
 9421SOL    HW229163   2.076   6.899   4.518
 9422SOL     OW29164   4.839   6.233   3.224
 9422SOL    HW129165   4.837   6.332   3.229
 9422SOL    HW229166   4.859   6.204   3.130
 9423SOL     OW29167   3.752   0.526   3.989
 9423SOL    HW129168   3.760   0.427   3.987
 9423SOL    HW229169   3.678   0.555   3.928
 9424SOL     OW29170   4.849   0.460   4.941
 9424SOL    HW129171   4.926   0.469   4.877
 9424SOL    HW229172   4.883   0.463   5.035
 9425SOL     OW29173   6.076   3.138   6.940
 9425SOL    HW129174   6.022   3.056   6.958
 9425SOL    HW229175   6.065   3.165   6.845
 9426SOL     OW29176   3.411   2.271   0.215
 9426SOL    HW129177   3.389   2.285   0.118
 9426SOL    HW229178   3.418   2.360   0.260
 9427SOL     OW29179   3.092   5.558   4.216
 9427SOL    HW129180   3.113   5.655   4.202
 9427SOL    HW229181   3.074   5.541   4.313
 9428SOL     OW29182   5.857   0.661   1.313
 9428SOL    HW129183   5.923   0.713   1.258
 9428SOL    HW229184   5.799   0.606   1.252
 9429SOL     OW29185   2.124   3.246   2.118
 9429SOL    HW129186   2.029   3.272   2.100
 9429SOL    HW229187   2.185   3.301   2.061
 9430SOL     OW29188   0.732   4.296   2.555
 9430SOL    HW129189   0.639   4.267   2.533
 9430SOL    HW229190   0.743   4.299   2.654
 9431SOL     OW29191   6.110   4.359   1.868
 9431SOL    HW129192   6.057   4.288   1.915
 9431SOL    HW229193   6.145   4.424   1.935
 9432SOL     OW29194   4.002   0.416   3.386
 9432SOL    HW129195   3.954   0.458   3.308
 9432SOL    HW229196   3.935   0.390   3.455
 9433SOL     OW29197   3.335   5.131   3.114
 9433SOL    HW129198   3.239   5.113   3.094
 9433SOL    HW229199   3.392   5.065   3.066
 9434SOL     OW29200   5.183   5.077   3.600
 9434SOL    HW129201   5.241   5.131   3.539
 9434SOL    HW229202   5.125   5.017   3.545
 9435SOL     OW29203   0.778   2.816   4.595
 9435SOL    HW129204   0.845   2.817   4.669
 9435SOL    HW229205   0.686   2.827   4.632
 9436SOL     OW29206   1.087   2.801   1.882
 9436SOL    HW129207   1.148   2.740   1.932
 9436SOL    HW229208   1.006   2.820   1.938
 9437SOL     OW29209   2.446   6.280   3.280
 9437SOL    HW129210   2.544   6.265   3.287
 9437SOL    HW229211   2.397   6.204   3.323
 9438SOL     OW29212   0.118   0.054   1.736
 9438SOL    HW129213   0.138   7.022   1.658
 9438SOL    HW229214   0.174   0.026   1.815
 9439SOL     OW29215   0.601   3.387   1.665
 9439SOL    HW129216   0.520   3.439   1.637
 9439SOL    HW229217   0.602   3.377   1.764
 9440SOL     OW29218   3.711   5.100   3.426
 9440SOL    HW129219   3.615   5.078   3.415
 9440SOL    HW229220   3.749   5.132   3.338
 9441SOL     OW29221   1.374   3.318   5.171
 9441SOL    HW129222   1.314   3.383   5.217
 9441SOL    HW229223   1.319   3.250   5.123
 9442SOL     OW29224   4.572   3.284   0.433
 9442SOL    HW129225   4.544   3.197   0.473
 9442SOL    HW229226   4.658   3.272   0.384
 9443SOL     OW29227   2.754   5.488   1.004
 9443SOL    HW129228   2.672   5.467   1.057
 9443SOL    HW229229   2.786   5.405   0.959
 9444SOL     OW29230   1.626   3.956   6.775
 9444SOL    HW129231   1.630   4.021   6.699
 9444SOL    HW229232   1.535   3.916   6.780
 9445SOL     OW29233   5.919   3.560   3.354
 9445SOL    HW129234   5.871   3.544   3.440
 9445SOL    HW229235   5.853   3.582   3.283
 9446SOL     OW29236   6.041   6.205   4.288
 9446SOL    HW129237   5.995   6.293   4.283
 9446SOL    HW229238   5.973   6.131   4.285
 9447SOL     OW29239   6.119   3.708   4.575
 9447SOL    HW129240   6.198   3.663   4.533
 9447SOL    HW229241   6.101   3.668   4.664
 9448SOL     OW29242   0.013   6.462   0.097
 9448SOL    HW129243   7.022   6.557   0.071
 9448SOL    HW229244   6.957   6.407   0.082
 9449SOL     OW29245   6.606   5.670   0.341
 9449SOL    HW129246   6.548   5.589   0.353
 9449SOL    HW229247   6.681   5.648   0.279
 9450SOL     OW29248   3.093   5.548   5.466
 9450SOL    HW129249   3.010   5.542   5.522
 9450SOL    HW229250   3.075   5.606   5.387
 9451SOL     OW29251   4.044   6.375   5.946
 9451SOL    HW129252   4.025   6.447   5.879
 9451SOL    HW229253   4.015   6.404   6.037
 9452SOL     OW29254   1.821   4.015   0.429
 9452SOL    HW129255   1.902   4.060   0.392
 9452SOL    HW229256   1.821   3.918   0.401
 9453SOL     OW29257   2.113   4.737   3.063
 9453SOL    HW129258   2.168   4.692   3.133
 9453SOL    HW229259   2.030   4.773   3.104
 9454SOL     OW29260   3.082   3.631   6.676
 9454SOL    HW129261   3.057   3.660   6.768
 9454SOL    HW229262   3.181   3.636   6.664
 9455SOL     OW29263   3.416   1.813   3.252
 9455SOL    HW129264   3.451   1.728   3.291
 9455SOL    HW229265   3.330   1.795   3.204
 9456SOL     OW29266   1.291   3.649   1.265
 9456SOL    HW129267   1.390   3.659   1.272
 9456SOL    HW229268   1.251   3.651   1.356
 9457SOL     OW29269   2.118   3.845   5.133
 9457SOL    HW129270   2.045   3.806   5.077
 9457SOL    HW229271   2.166   3.916   5.081
 9458SOL     OW29272   1.808   3.302   0.110
 9458SOL    HW129273   1.800   3.391   0.067
 9458SOL    HW229274   1.717   3.267   0.132
 9459SOL     OW29275   5.157   4.678   3.395
 9459SOL    HW129276   5.166   4.732   3.312
 9459SOL    HW229277   5.186   4.584   3.377
 9460SOL     OW29278   0.572   2.230   3.969
 9460SOL    HW129279   0.620   2.266   4.050
 9460SOL    HW229280   0.533   2.305   3.917
 9461SOL     OW29281   6.203   1.314   2.217
 9461SOL    HW129282   6.301   1.329   2.231
 9461SOL    HW229283   6.174   1.232   2.266
 9462SOL     OW29284   2.137   3.347   2.671
 9462SOL    HW129285   2.039   3.365   2.664
 9462SOL    HW229286   2.179   3.358   2.581
 9463SOL     OW29287   6.901   0.918   1.960
 9463SOL    HW129288   6.901   0.947   1.864
 9463SOL    HW229289   6.985   0.948   2.004
 9464SOL     OW29290   6.230   0.512   1.320
 9464SOL    HW129291   6.323   0.541   1.346
 9464SOL    HW229292   6.177   0.494   1.403
 9465SOL     OW29293   1.616   5.406   2.908
 9465SOL    HW129294   1.692   5.351   2.872
 9465SOL    HW229295   1.611   5.493   2.859
 9466SOL     OW29296   4.660   4.745   6.020
 9466SOL    HW129297   4.647   4.842   5.997
 9466SOL    HW229298   4.754   4.730   6.051
 9467SOL     OW29299   0.939   2.416   1.542
 9467SOL    HW129300   0.878   2.362   1.600
 9467SOL    HW229301   0.939   2.379   1.449
 9468SOL     OW29302   6.150   2.588   5.739
 9468SOL    HW129303   6.142   2.491   5.759
 9468SOL    HW229304   6.231   2.626   5.783
 9469SOL     OW29305   6.498   6.270   1.570
 9469SOL    HW129306   6.526   6.342   1.632
 9469SOL    HW229307   6.409   6.233   1.600
 9470SOL     OW29308   4.248   3.834   5.237
 9470SOL    HW129309   4.280   3.739   5.235
 9470SOL    HW229310   4.319   3.895   5.204
 9471SOL     OW29311   6.305   1.585   4.509
 9471SOL    HW129312   6.384   1.532   4.478
 9471SOL    HW229313   6.336   1.674   4.542
 9472SOL     OW29314   5.784   3.549   5.001
 9472SOL    HW129315   5.853   3.572   5.069
 9472SOL    HW229316   5.693   3.559   5.041
 9473SOL     OW29317   2.679   5.450   5.575
 9473SOL    HW129318   2.734   5.421   5.653
 9473SOL    HW229319   2.691   5.549   5.562
 9474SOL     OW29320   0.209   3.143   0.219
 9474SOL    HW129321   0.158   3.085   0.155
 9474SOL    HW229322   0.157   3.226   0.237
 9475SOL     OW29323   3.651   3.602   6.651
 9475SOL    HW129324   3.704   3.547   6.586
 9475SOL    HW229325   3.574   3.645   6.604
 9476SOL     OW29326   3.081   3.670   4.980
 9476SOL    HW129327   3.172   3.702   5.006
 9476SOL    HW229328   3.029   3.648   5.063
 9477SOL     OW29329   0.523   3.724   1.983
 9477SOL    HW129330   0.604   3.700   1.930
 9477SOL    HW229331   0.506   3.655   2.052
 9478SOL     OW29332   5.370   3.153   7.010
 9478SOL    HW129333   5.365   3.065   6.962
 9478SOL    HW229334   5.282   3.199   7.005
 9479SOL     OW29335   4.560   6.086   6.679
 9479SOL    HW129336   4.608   5.999   6.694
 9479SOL    HW229337   4.544   6.131   6.766
 9480SOL     OW29338   4.786   3.898   1.111
 9480SOL    HW129339   4.730   3.865   1.035
 9480SOL    HW229340   4.773   3.838   1.190
 9481SOL     OW29341   5.160   3.586   2.286
 9481SOL    HW129342   5.143   3.684   2.298
 9481SOL    HW229343   5.163   3.541   2.375
 9482SOL     OW29344   6.689   0.812   3.275
 9482SOL    HW129345   6.730   0.878   3.212
 9482SOL    HW229346   6.747   0.802   3.356
 9483SOL     OW29347   0.839   1.713   1.892
 9483SOL    HW129348   0.841   1.658   1.808
 9483SOL    HW229349   0.927   1.705   1.939
 9484SOL     OW29350   3.185   0.929   3.927
 9484SOL    HW129351   3.156   0.924   4.022
 9484SOL    HW229352   3.142   0.856   3.874
 9485SOL     OW29353   0.409   0.093   1.554
 9485SOL    HW129354   0.480   0.024   1.542
 9485SOL    HW229355   0.319   0.052   1.536
 9486SOL     OW29356   3.139   6.173   1.226
 9486SOL    HW129357   3.081   6.120   1.287
 9486SOL    HW229358   3.183   6.247   1.277
 9487SOL     OW29359   3.161   3.248   3.297
 9487SOL    HW129360   3.173   3.167   3.240
 9487SOL    HW229361   3.144   3.328   3.238
 9488SOL     OW29362   1.246   6.326   0.508
 9488SOL    HW129363   1.277   6.316   0.603
 9488SOL    HW229364   1.278   6.413   0.471
 9489SOL     OW29365   4.438   4.461   1.490
 9489SOL    HW129366   4.522   4.500   1.454
 9489SOL    HW229367   4.459   4.386   1.552
 9490SOL     OW29368   0.188   5.644   1.087
 9490SOL    HW129369   0.162   5.662   1.181
 9490SOL    HW229370   0.122   5.581   1.046
 9491SOL     OW29371   6.464   4.208   3.960
 9491SOL    HW129372   6.478   4.255   4.047
 9491SOL    HW229373   6.447   4.111   3.976
 9492SOL     OW29374   3.336   2.899   2.905
 9492SOL    HW129375   3.281   2.981   2.889
 9492SOL    HW229376   3.326   2.871   3.001
 9493SOL     OW29377   3.845   5.353   3.852
 9493SOL    HW129378   3.894   5.290   3.791
 9493SOL    HW229379   3.758   5.379   3.810
 9494SOL     OW29380   4.838   4.660   1.778
 9494SOL    HW129381   4.856   4.640   1.682
 9494SOL    HW229382   4.751   4.617   1.805
 9495SOL     OW29383   6.474   1.805   3.350
 9495SOL    HW129384   6.540   1.792   3.424
 9495SOL    HW229385   6.489   1.736   3.279
 9496SOL     OW29386   6.256   5.000   1.312
 9496SOL    HW129387   6.303   5.046   1.237
 9496SOL    HW229388   6.239   4.904   1.287
 9497SOL     OW29389   5.780   5.953   6.698
 9497SOL    HW129390   5.810   5.929   6.790
 9497SOL    HW229391   5.772   6.052   6.689
 9498SOL     OW29392   5.274   6.487   4.684
 9498SOL    HW129393   5.177   6.506   4.699
 9498SOL    HW229394   5.320   6.572   4.659
 9499SOL     OW29395   1.664   4.996   6.371
 9499SOL    HW129396   1.627   5.061   6.437
 9499SOL    HW229397   1.649   5.030   6.278
 9500SOL     OW29398   5.469   0.472   0.639
 9500SOL    HW129399   5.438   0.401   0.701
 9500SOL    HW229400   5.542   0.526   0.682
 9501SOL     OW29401   2.988   1.444   4.957
 9501SOL    HW129402   3.071   1.411   5.002
 9501SOL    HW229403   2.976   1.396   4.870
 9502SOL     OW29404   6.705   2.441   4.888
 9502SOL    HW129405   6.744   2.363   4.839
 9502SOL    HW229406   6.626   2.477   4.837
 9503SOL     OW29407   0.275   1.634   1.569
 9503SOL    HW129408   0.316   1.652   1.659
 9503SOL    HW229409   0.333   1.674   1.498
 9504SOL     OW29410   6.758   2.479   1.052
 9504SOL    HW129411   6.802   2.394   1.081
 9504SOL    HW229412   6.659   2.471   1.061
 9505SOL     OW29413   5.560   4.780   3.358
 9505SOL    HW129414   5.652   4.747   3.377
 9505SOL    HW229415   5.516   4.720   3.291
 9506SOL     OW29416   0.574   2.370   6.248
 9506SOL    HW129417   0.625   2.446   6.206
 9506SOL    HW229418   0.580   2.377   6.348
 9507SOL     OW29419   1.110   2.032   3.040
 9507SOL    HW129420   1.053   1.972   2.985
 9507SOL    HW229421   1.101   2.007   3.136
 9508SOL     OW29422   6.958   3.646   1.109
 9508SOL    HW129423   6.874   3.624   1.159
 9508SOL    HW229424   6.935   3.676   1.016
 9509SOL     OW29425   0.541   0.821   5.035
 9509SOL    HW129426   0.460   0.877   5.054
 9509SOL    HW229427   0.617   0.850   5.092
 9510SOL     OW29428   1.517   3.790   2.439
 9510SOL    HW129429   1.449   3.785   2.512
 9510SOL    HW229430   1.521   3.883   2.403
 9511SOL     OW29431   0.406   1.087   0.221
 9511SOL    HW129432   0.445   1.004   0.260
 9511SOL    HW229433   0.308   1.092   0.243
 9512SOL     OW29434   5.647   1.492   1.475
 9512SOL    HW129435   5.565   1.493   1.531
 9512SOL    HW229436   5.661   1.582   1.434
 9513SOL     OW29437   2.133   3.213   6.486
 9513SOL    HW129438   2.213   3.157   6.465
 9513SOL    HW229439   2.101   3.193   6.578
 9514SOL     OW29440   2.066   4.648   6.346
 9514SOL    HW129441   2.108   4.673   6.258
 9514SOL    HW229442   2.047   4.550   6.347
 9515SOL     OW29443   1.393   6.088   1.663
 9515SOL    HW129444   1.316   6.127   1.713
 9515SOL    HW229445   1.416   6.146   1.585
 9516SOL     OW29446   5.420   3.897   5.097
 9516SOL    HW129447   5.503   3.896   5.152
 9516SOL    HW229448   5.443   3.882   5.001
 9517SOL     OW29449   0.856   4.690   1.109
 9517SOL    HW129450   0.791   4.643   1.168
 9517SOL    HW229451   0.931   4.629   1.085
 9518SOL     OW29452   1.491   1.570   0.023
 9518SOL    HW129453   1.471   1.574   6.952
 9518SOL    HW229454   1.406   1.567   0.074
 9519SOL     OW29455   3.469   4.057   4.259
 9519SOL    HW129456   3.392   4.013   4.306
 9519SOL    HW229457   3.436   4.105   4.178
 9520SOL     OW29458   1.051   1.233   3.514
 9520SOL    HW129459   1.118   1.284   3.460
 9520SOL    HW229460   1.039   1.142   3.474
 9521SOL     OW29461   5.016   5.069   1.312
 9521SOL    HW129462   4.932   5.019   1.336
 9521SOL    HW229463   5.001   5.167   1.324
 9522SOL     OW29464   4.011   4.993   1.441
 9522SOL    HW129465   3.928   4.996   1.385
 9522SOL    HW229466   4.085   5.041   1.394
 9523SOL     OW29467   2.689   5.007   4.624
 9523SOL    HW129468   2.687   4.908   4.636
 9523SOL    HW229469   2.768   5.033   4.568
 9524SOL     OW29470   3.035   3.297   0.396
 9524SOL    HW129471   2.994   3.208   0.378
 9524SOL    HW229472   3.020   3.322   0.492
 9525SOL     OW29473   2.137   2.101   6.012
 9525SOL    HW129474   2.190   2.017   6.021
 9525SOL    HW229475   2.089   2.120   6.097
 9526SOL     OW29476   6.201   4.736   1.286
 9526SOL    HW129477   6.177   4.663   1.351
 9526SOL    HW229478   6.290   4.715   1.245
 9527SOL     OW29479   0.717   1.144   4.442
 9527SOL    HW129480   0.760   1.060   4.409
 9527SOL    HW229481   0.767   1.223   4.406
 9528SOL     OW29482   6.886   1.822   1.028
 9528SOL    HW129483   6.985   1.810   1.026
 9528SOL    HW229484   6.857   1.845   1.122
 9529SOL     OW29485   6.336   3.543   6.415
 9529SOL    HW129486   6.404   3.577   6.350
 9529SOL    HW229487   6.263   3.495   6.365
 9530SOL     OW29488   1.829   2.891   3.365
 9530SOL    HW129489   1.856   2.807   3.318
 9530SOL    HW229490   1.818   2.964   3.297
 9531SOL     OW29491   5.223   4.746   2.541
 9531SOL    HW129492   5.162   4.688   2.595
 9531SOL    HW229493   5.309   4.697   2.524
 9532SOL     OW29494   0.581   6.095   1.527
 9532SOL    HW129495   0.504   6.044   1.566
 9532SOL    HW229496   0.551   6.187   1.501
 9533SOL     OW29497   0.279   5.566   5.399
 9533SOL    HW129498   0.268   5.661   5.428
 9533SOL    HW229499   0.355   5.525   5.449
 9534SOL     OW29500   6.655   3.899   5.454
 9534SOL    HW129501   6.654   3.982   5.399
 9534SOL    HW229502   6.609   3.825   5.404
 9535SOL     OW29503   1.696   0.351   5.890
 9535SOL    HW129504   1.639   0.354   5.808
 9535SOL    HW229505   1.792   0.364   5.864
 9536SOL     OW29506   2.968   4.117   5.633
 9536SOL    HW129507   2.979   4.019   5.617
 9536SOL    HW229508   3.049   4.166   5.602
 9537SOL     OW29509   2.801   0.173   4.721
 9537SOL    HW129510   2.799   0.096   4.785
 9537SOL    HW229511   2.885   0.168   4.665
 9538SOL     OW29512   5.604   1.031   3.454
 9538SOL    HW129513   5.668   1.077   3.515
 9538SOL    HW229514   5.522   1.087   3.443
 9539SOL     OW29515   3.503   3.196   4.816
 9539SOL    HW129516   3.502   3.104   4.778
 9539SOL    HW229517   3.596   3.233   4.813
 9540SOL     OW29518   6.418   4.359   4.454
 9540SOL    HW129519   6.447   4.339   4.360
 9540SOL    HW229520   6.382   4.452   4.459
 9541SOL     OW29521   3.034   0.439   5.818
 9541SOL    HW129522   2.983   0.517   5.784
 9541SOL    HW229523   3.132   0.452   5.800
 9542SOL     OW29524   4.720   4.143   4.658
 9542SOL    HW129525   4.789   4.124   4.588
 9542SOL    HW229526   4.678   4.057   4.687
 9543SOL     OW29527   3.585   0.195   6.096
 9543SOL    HW129528   3.508   0.185   6.159
 9543SOL    HW229529   3.551   0.194   6.002
 9544SOL     OW29530   6.931   2.266   2.921
 9544SOL    HW129531   6.938   2.237   2.825
 9544SOL    HW229532   6.965   2.193   2.980
 9545SOL     OW29533   5.509   5.796   4.833
 9545SOL    HW129534   5.528   5.810   4.736
 9545SOL    HW229535   5.430   5.735   4.843
 9546SOL     OW29536   4.031   1.885   5.006
 9546SOL    HW129537   4.115   1.933   4.984
 9546SOL    HW229538   4.052   1.805   5.063
 9547SOL     OW29539   3.061   5.809   3.842
 9547SOL    HW129540   3.052   5.722   3.891
 9547SOL    HW229541   2.988   5.818   3.774
 9548SOL     OW29542   6.258   4.819   6.210
 9548SOL    HW129543   6.196   4.859   6.277
 9548SOL    HW229544   6.218   4.736   6.171
 9549SOL     OW29545   2.617   3.058   1.035
 9549SOL    HW129546   2.623   3.147   1.079
 9549SOL    HW229547   2.560   2.996   1.090
 9550SOL     OW29548   6.781   1.148   0.358
 9550SOL    HW129549   6.715   1.088   0.404
 9550SOL    HW229550   6.872   1.106   0.362
 9551SOL     OW29551   5.947   1.510   5.709
 9551SOL    HW129552   5.948   1.413   5.687
 9551SOL    HW229553   5.945   1.563   5.624
 9552SOL     OW29554   1.785   6.847   4.176
 9552SOL    HW129555   1.745   6.853   4.084
 9552SOL    HW229556   1.777   6.936   4.222
 9553SOL     OW29557   6.206   2.809   6.664
 9553SOL    HW129558   6.229   2.732   6.605
 9553SOL    HW229559   6.237   2.790   6.757
 9554SOL     OW29560   2.471   0.097   1.651
 9554SOL    HW129561   2.560   0.128   1.684
 9554SOL    HW229562   2.413   0.073   1.728
 9555SOL     OW29563   0.960   0.520   2.860
 9555SOL    HW129564   0.862   0.523   2.843
 9555SOL    HW229565   0.990   0.607   2.899
 9556SOL     OW29566   1.558   3.634   1.745
 9556SOL    HW129567   1.477   3.605   1.695
 9556SOL    HW229568   1.635   3.573   1.724
 9557SOL     OW29569   0.090   6.020   2.107
 9557SOL    HW129570   0.169   5.990   2.054
 9557SOL    HW229571   0.119   6.085   2.178
 9558SOL     OW29572   5.905   5.983   4.914
 9558SOL    HW129573   5.984   5.993   4.854
 9558SOL    HW229574   5.921   6.034   4.999
 9559SOL     OW29575   0.539   4.381   1.134
 9559SOL    HW129576   0.453   4.418   1.099
 9559SOL    HW229577   0.543   4.283   1.115
 9560SOL     OW29578   1.853   1.707   3.278
 9560SOL    HW129579   1.858   1.732   3.375
 9560SOL    HW229580   1.764   1.664   3.260
 9561SOL     OW29581   1.981   0.145   0.594
 9561SOL    HW129582   2.066   0.197   0.588
 9561SOL    HW229583   1.921   0.186   0.661
 9562SOL     OW29584   2.364   0.408   5.233
 9562SOL    HW129585   2.334   0.433   5.325
 9562SOL    HW229586   2.307   0.454   5.165
 9563SOL     OW29587   6.646   6.355   0.959
 9563SOL    HW129588   6.554   6.380   0.988
 9563SOL    HW229589   6.712   6.383   1.029
 9564SOL     OW29590   2.918   6.903   0.491
 9564SOL    HW129591   2.855   6.960   0.544
 9564SOL    HW229592   2.928   6.942   0.399
 9565SOL     OW29593   3.462   0.115   4.554
 9565SOL    HW129594   3.515   0.117   4.470
 9565SOL    HW229595   3.513   0.161   4.627
 9566SOL     OW29596   1.951   4.842   0.110
 9566SOL    HW129597   1.914   4.839   0.017
 9566SOL    HW229598   2.018   4.769   0.122
 9567SOL     OW29599   5.353   4.991   0.856
 9567SOL    HW129600   5.300   4.956   0.779
 9567SOL    HW229601   5.311   4.961   0.942
 9568SOL     OW29602   4.238   2.232   6.711
 9568SOL    HW129603   4.301   2.160   6.681
 9568SOL    HW229604   4.235   2.234   6.811
 9569SOL     OW29605   0.191   1.594   2.494
 9569SOL    HW129606   0.158   1.577   2.588
 9569SOL    HW229607   0.228   1.686   2.488
 9570SOL     OW29608   0.859   3.124   2.179
 9570SOL    HW129609   0.771   3.143   2.224
 9570SOL    HW229610   0.895   3.209   2.141
 9571SOL     OW29611   4.118   4.141   5.821
 9571SOL    HW129612   4.105   4.077   5.746
 9571SOL    HW229613   4.035   4.196   5.832
 9572SOL     OW29614   2.322   5.203   1.204
 9572SOL    HW129615   2.319   5.264   1.283
 9572SOL    HW229616   2.378   5.122   1.226
 9573SOL     OW29617   0.670   2.048   6.805
 9573SOL    HW129618   0.636   2.126   6.752
 9573SOL    HW229619   0.599   1.977   6.809
 9574SOL     OW29620   3.937   3.017   3.490
 9574SOL    HW129621   4.010   2.992   3.427
 9574SOL    HW229622   3.970   3.086   3.554
 9575SOL     OW29623   0.145   1.314   1.516
 9575SOL    HW129624   0.122   1.217   1.522
 9575SOL    HW229625   0.165   1.337   1.421
 9576SOL     OW29626   2.114   0.546   2.005
 9576SOL    HW129627   2.049   0.561   1.930
 9576SOL    HW229628   2.207   0.560   1.972
 9577SOL     OW29629   1.338   0.560   5.936
 9577SOL    HW129630   1.264   0.583   5.999
 9577SOL    HW229631   1.422   0.546   5.988
 9578SOL     OW29632   0.597   4.037   3.855
 9578SOL    HW129633   0.674   3.975   3.868
 9578SOL    HW229634   0.605   4.114   3.918
 9579SOL     OW29635   1.511   5.046   2.743
 9579SOL    HW129636   1.601   5.024   2.780
 9579SOL    HW229637   1.448   4.971   2.761
 9580SOL     OW29638   4.737   3.131   0.721
 9580SOL    HW129639   4.674   3.056   0.697
 9580SOL    HW229640   4.821   3.121   0.669
 9581SOL     OW29641   0.394   5.662   6.127
 9581SOL    HW129642   0.371   5.635   6.221
 9581SOL    HW229643   0.419   5.580   6.075
 9582SOL     OW29644   5.040   5.336   6.194
 9582SOL    HW129645   5.077   5.417   6.238
 9582SOL    HW229646   4.974   5.291   6.255
 9583SOL     OW29647   3.903   4.421   0.915
 9583SOL    HW129648   3.993   4.444   0.877
 9583SOL    HW229649   3.890   4.469   1.002
 9584SOL     OW29650   6.775   5.515   0.110
 9584SOL    HW129651   6.807   5.517   0.015
 9584SOL    HW229652   6.723   5.430   0.125
 9585SOL     OW29653   6.676   0.765   4.712
 9585SOL    HW129654   6.579   0.742   4.722
 9585SOL    HW229655   6.720   0.761   4.801
 9586SOL     OW29656   5.652   4.529   2.692
 9586SOL    HW129657   5.746   4.508   2.663
 9586SOL    HW229658   5.621   4.460   2.758
 9587SOL     OW29659   6.581   1.178   1.977
 9587SOL    HW129660   6.650   1.214   1.915
 9587SOL    HW229661   6.529   1.253   2.016
 9588SOL     OW29662   6.818   1.283   1.800
 9588SOL    HW129663   6.909   1.312   1.832
 9588SOL    HW229664   6.769   1.363   1.766
 9589SOL     OW29665   2.331   4.970   5.847
 9589SOL    HW129666   2.254   5.022   5.883
 9589SOL    HW229667   2.297   4.892   5.794
 9590SOL     OW29668   6.758   3.425   1.714
 9590SOL    HW129669   6.810   3.507   1.737
 9590SOL    HW229670   6.682   3.415   1.778
 9591SOL     OW29671   3.552   6.442   6.270
 9591SOL    HW129672   3.508   6.363   6.312
 9591SOL    HW229673   3.562   6.515   6.337
 9592SOL     OW29674   3.986   3.941   0.950
 9592SOL    HW129675   3.970   4.028   0.903
 9592SOL    HW229676   4.074   3.945   0.998
 9593SOL     OW29677   0.244   1.405   5.067
 9593SOL    HW129678   0.330   1.377   5.024
 9593SOL    HW229679   0.244   1.376   5.163
 9594SOL     OW29680   1.156   6.427   3.115
 9594SOL    HW129681   1.096   6.359   3.158
 9594SOL    HW229682   1.195   6.389   3.031
 9595SOL     OW29683   1.268   4.246   5.277
 9595SOL    HW129684   1.209   4.233   5.197
 9595SOL    HW229685   1.300   4.341   5.280
 9596SOL     OW29686   0.154   5.442   0.032
 9596SOL    HW129687   0.254   5.449   0.043
 9596SOL    HW229688   0.111   5.522   0.073
 9597SOL     OW29689   0.709   4.547   1.274
 9597SOL    HW129690   0.756   4.521   1.359
 9597SOL    HW229691   0.643   4.475   1.250
 9598SOL     OW29692   1.206   3.255   4.249
 9598SOL    HW129693   1.271   3.330   4.238
 9598SOL    HW229694   1.235   3.198   4.327
 9599SOL     OW29695   3.644   6.637   5.213
 9599SOL    HW129696   3.678   6.542   5.210
 9599SOL    HW229697   3.717   6.698   5.183
 9600SOL     OW29698   2.324   0.068   6.758
 9600SOL    HW129699   2.275   7.008   6.763
 9600SOL    HW229700   2.306   0.120   6.842
 9601SOL     OW29701   5.729   3.676   1.594
 9601SOL    HW129702   5.635   3.644   1.609
 9601SOL    HW229703   5.736   3.712   1.501
 9602SOL     OW29704   7.025   5.016   6.561
 9602SOL    HW129705   0.055   4.984   6.636
 9602SOL    HW229706   6.978   4.938   6.520
 9603SOL     OW29707   3.796   1.843   4.434
 9603SOL    HW129708   3.824   1.779   4.362
 9603SOL    HW229709   3.698   1.860   4.427
 9604SOL     OW29710   3.940   0.583   0.353
 9604SOL    HW129711   3.919   0.606   0.449
 9604SOL    HW229712   3.904   0.493   0.332
 9605SOL     OW29713   0.520   5.074   3.533
 9605SOL    HW129714   0.497   4.992   3.585
 9605SOL    HW229715   0.599   5.120   3.575
 9606SOL     OW29716   2.175   6.642   6.310
 9606SOL    HW129717   2.218   6.700   6.241
 9606SOL    HW229718   2.146   6.556   6.269
 9607SOL     OW29719   1.415   1.416   0.739
 9607SOL    HW129720   1.412   1.316   0.746
 9607SOL    HW229721   1.443   1.455   0.827
 9608SOL     OW29722   6.812   6.602   2.229
 9608SOL    HW129723   6.787   6.606   2.326
 9608SOL    HW229724   6.908   6.578   2.220
 9609SOL     OW29725   2.418   4.349   6.262
 9609SOL    HW129726   2.375   4.357   6.352
 9609SOL    HW229727   2.405   4.256   6.227
 9610SOL     OW29728   1.867   5.068   3.858
 9610SOL    HW129729   1.846   5.119   3.775
 9610SOL    HW229730   1.858   5.127   3.938
 9611SOL     OW29731   7.020   6.684   6.556
 9611SOL    HW129732   7.006   6.662   6.459
 9611SOL    HW229733   0.089   6.670   6.579
 9612SOL     OW29734   0.792   3.754   1.835
 9612SOL    HW129735   0.832   3.844   1.819
 9612SOL    HW229736   0.788   3.703   1.749
 9613SOL     OW29737   4.618   6.234   3.846
 9613SOL    HW129738   4.560   6.296   3.899
 9613SOL    HW229739   4.680   6.286   3.789
 9614SOL     OW29740   4.029   2.562   0.499
 9614SOL    HW129741   3.951   2.500   0.502
 9614SOL    HW229742   4.003   2.650   0.538
 9615SOL     OW29743   0.586   6.762   1.144
 9615SOL    HW129744   0.503   6.723   1.185
 9615SOL    HW229745   0.629   6.694   1.086
 9616SOL     OW29746   4.595   3.482   1.011
 9616SOL    HW129747   4.502   3.457   1.036
 9616SOL    HW229748   4.651   3.399   1.005
 9617SOL     OW29749   1.630   3.244   4.015
 9617SOL    HW129750   1.687   3.165   3.991
 9617SOL    HW229751   1.685   3.308   4.069
 9618SOL     OW29752   3.672   7.007   5.423
 9618SOL    HW129753   3.604   0.053   5.421
 9618SOL    HW229754   3.758   0.015   5.457
 9619SOL     OW29755   0.593   6.828   0.145
 9619SOL    HW129756   0.670   6.765   0.140
 9619SOL    HW229757   0.626   6.922   0.138
 9620SOL     OW29758   4.516   2.679   7.020
 9620SOL    HW129759   4.447   2.743   6.985
 9620SOL    HW229760   4.472   2.616   0.057
 9621SOL     OW29761   0.894   1.032   2.470
 9621SOL    HW129762   0.834   1.023   2.550
 9621SOL    HW229763   0.979   1.077   2.498
 9622SOL     OW29764   6.206   0.611   0.009
 9622SOL    HW129765   6.173   0.529   0.056
 9622SOL    HW229766   6.302   0.598   7.010
 9623SOL     OW29767   4.068   4.954   5.456
 9623SOL    HW129768   3.994   4.952   5.389
 9623SOL    HW229769   4.135   4.883   5.434
 9624SOL     OW29770   5.831   4.648   3.598
 9624SOL    HW129771   5.838   4.689   3.690
 9624SOL    HW229772   5.895   4.572   3.591
 9625SOL     OW29773   5.147   5.456   6.869
 9625SOL    HW129774   5.062   5.407   6.848
 9625SOL    HW229775   5.132   5.554   6.861
 9626SOL     OW29776   2.419   6.416   0.236
 9626SOL    HW129777   2.434   6.491   0.300
 9626SOL    HW229778   2.348   6.356   0.271
 9627SOL     OW29779   0.047   4.028   3.348
 9627SOL    HW129780   6.992   3.971   3.345
 9627SOL    HW229781   0.037   4.104   3.283
 9628SOL     OW29782   6.613   4.622   6.920
 9628SOL    HW129783   6.537   4.563   6.892
 9628SOL    HW229784   6.695   4.598   6.868
 9629SOL     OW29785   0.147   6.631   2.818
 9629SOL    HW129786   0.135   6.681   2.903
 9629SOL    HW229787   0.187   6.692   2.749
 9630SOL     OW29788   5.850   6.346   4.884
 9630SOL    HW129789   5.824   6.435   4.846
 9630SOL    HW229790   5.816   6.273   4.825
 9631SOL     OW29791   5.850   1.056   6.899
 9631SOL    HW129792   5.853   1.046   6.998
 9631SOL    HW229793   5.933   1.017   6.859
 9632SOL     OW29794   2.278   5.443   2.331
 9632SOL    HW129795   2.243   5.531   2.301
 9632SOL    HW229796   2.358   5.456   2.390
 9633SOL     OW29797   5.316   4.909   0.078
 9633SOL    HW129798   5.227   4.936   0.041
 9633SOL    HW229799   5.389   4.940   0.017
 9634SOL     OW29800   0.816   6.485   4.565
 9634SOL    HW129801   0.785   6.547   4.493
 9634SOL    HW229802   0.766   6.504   4.649
 9635SOL     OW29803   2.341   4.622   5.567
 9635SOL    HW129804   2.427   4.630   5.617
 9635SOL    HW229805   2.361   4.612   5.469
 9636SOL     OW29806   3.937   1.927   6.182
 9636SOL    HW129807   3.869   1.999   6.169
 9636SOL    HW229808   3.949   1.910   6.280
 9637SOL     OW29809   2.158   2.093   0.299
 9637SOL    HW129810   2.165   2.191   0.315
 9637SOL    HW229811   2.248   2.051   0.306
 9638SOL     OW29812   6.794   3.763   6.647
 9638SOL    HW129813   6.777   3.668   6.671
 9638SOL    HW229814   6.823   3.813   6.729
 9639SOL     OW29815   4.969   1.864   2.063
 9639SOL    HW129816   4.912   1.945   2.045
 9639SOL    HW229817   4.918   1.782   2.036
 9640SOL     OW29818   3.001   1.383   3.000
 9640SOL    HW129819   3.009   1.384   2.900
 9640SOL    HW229820   2.930   1.318   3.026
 9641SOL     OW29821   5.192   6.128   1.157
 9641SOL    HW129822   5.271   6.109   1.215
 9641SOL    HW229823   5.108   6.107   1.206
 9642SOL     OW29824   2.088   5.882   4.889
 9642SOL    HW129825   2.107   5.902   4.793
 9642SOL    HW229826   1.991   5.863   4.901
 9643SOL     OW29827   6.089   4.638   3.847
 9643SOL    HW129828   5.995   4.661   3.871
 9643SOL    HW229829   6.105   4.660   3.751
 9644SOL     OW29830   0.064   5.031   4.690
 9644SOL    HW129831   0.090   5.084   4.609
 9644SOL    HW229832   0.122   4.949   4.696
 9645SOL     OW29833   3.095   4.885   3.436
 9645SOL    HW129834   3.118   4.978   3.463
 9645SOL    HW229835   3.173   4.824   3.456
 9646SOL     OW29836   2.772   4.768   2.109
 9646SOL    HW129837   2.798   4.692   2.049
 9646SOL    HW229838   2.741   4.733   2.197
 9647SOL     OW29839   0.864   5.286   1.653
 9647SOL    HW129840   0.840   5.285   1.750
 9647SOL    HW229841   0.850   5.194   1.615
 9648SOL     OW29842   3.684   2.377   6.991
 9648SOL    HW129843   3.777   2.342   6.996
 9648SOL    HW229844   3.686   2.476   6.980
 9649SOL     OW29845   2.570   4.964   6.901
 9649SOL    HW129846   2.622   5.017   6.969
 9649SOL    HW229847   2.595   4.868   6.908
 9650SOL     OW29848   4.831   4.563   3.211
 9650SOL    HW129849   4.849   4.525   3.121
 9650SOL    HW229850   4.882   4.512   3.280
 9651SOL     OW29851   6.005   0.789   0.413
 9651SOL    HW129852   5.994   0.765   0.510
 9651SOL    HW229853   6.062   0.871   0.406
 9652SOL     OW29854   2.489   4.416   1.189
 9652SOL    HW129855   2.450   4.400   1.099
 9652SOL    HW229856   2.421   4.462   1.247
 9653SOL     OW29857   4.250   5.385   5.542
 9653SOL    HW129858   4.180   5.321   5.573
 9653SOL    HW229859   4.272   5.366   5.446
 9654SOL     OW29860   3.777   3.245   2.183
 9654SOL    HW129861   3.877   3.239   2.185
 9654SOL    HW229862   3.750   3.331   2.140
 9655SOL     OW29863   6.943   1.375   6.706
 9655SOL    HW129864   6.918   1.282   6.679
 9655SOL    HW229865   6.969   1.377   6.802
 9656SOL     OW29866   4.490   1.992   1.142
 9656SOL    HW129867   4.394   1.966   1.144
 9656SOL    HW229868   4.545   1.915   1.175
 9657SOL     OW29869   6.375   2.245   3.843
 9657SOL    HW129870   6.466   2.285   3.858
 9657SOL    HW229871   6.340   2.277   3.755
 9658SOL     OW29872   5.562   1.786   2.694
 9658SOL    HW129873   5.563   1.882   2.721
 9658SOL    HW229874   5.476   1.744   2.722
 9659SOL     OW29875   6.956   2.942   0.344
 9659SOL    HW129876   7.003   2.890   0.416
 9659SOL    HW229877   6.873   2.894   0.317
 9660SOL     OW29878   0.040   6.532   2.221
 9660SOL    HW129879   0.057   6.611   2.161
 9660SOL    HW229880   0.111   6.528   2.292
 9661SOL     OW29881   3.529   6.282   1.486
 9661SOL    HW129882   3.522   6.203   1.426
 9661SOL    HW229883   3.511   6.254   1.581
 9662SOL     OW29884   4.345   2.769   5.313
 9662SOL    HW129885   4.280   2.750   5.239
 9662SOL    HW229886   4.406   2.691   5.324
 9663SOL     OW29887   6.443   6.686   3.376
 9663SOL    HW129888   6.355   6.721   3.409
 9663SOL    HW229889   6.436   6.668   3.278
 9664SOL     OW29890   5.259   6.303   4.485
 9664SOL    HW129891   5.336   6.296   4.422
 9664SOL    HW229892   5.287   6.355   4.566
 9665SOL     OW29893   5.528   6.485   0.067
 9665SOL    HW129894   5.561   6.404   0.116
 9665SOL    HW229895   5.428   6.485   0.068
 9666SOL     OW29896   6.608   3.956   1.925
 9666SOL    HW129897   6.638   4.051   1.916
 9666SOL    HW229898   6.562   3.944   2.013
 9667SOL     OW29899   3.841   3.708   5.548
 9667SOL    HW129900   3.832   3.748   5.639
 9667SOL    HW229901   3.832   3.608   5.554
 9668SOL     OW29902   6.959   0.797   6.296
 9668SOL    HW129903   6.961   0.783   6.395
 9668SOL    HW229904   6.884   0.744   6.257
 9669SOL     OW29905   1.970   0.262   2.363
 9669SOL    HW129906   1.885   0.218   2.391
 9669SOL    HW229907   1.961   0.295   2.269
 9670SOL     OW29908   6.408   4.488   6.817
 9670SOL    HW129909   6.362   4.556   6.873
 9670SOL    HW229910   6.431   4.408   6.872
 9671SOL     OW29911   6.428   4.541   0.162
 9671SOL    HW129912   6.366   4.556   0.085
 9671SOL    HW229913   6.442   4.443   0.175
 9672SOL     OW29914   1.520   5.794   3.469
 9672SOL    HW129915   1.475   5.862   3.527
 9672SOL    HW229916   1.486   5.703   3.494
 9673SOL     OW29917   5.276   3.924   0.868
 9673SOL    HW129918   5.305   3.902   0.775
 9673SOL    HW229919   5.215   4.003   0.866
 9674SOL     OW29920   2.126   6.912   3.042
 9674SOL    HW129921   2.056   6.937   3.110
 9674SOL    HW229922   2.087   6.849   2.975
 9675SOL     OW29923   5.683   2.603   0.712
 9675SOL    HW129924   5.656   2.630   0.619
 9675SOL    HW229925   5.690   2.503   0.716
 9676SOL     OW29926   1.610   3.922   5.490
 9676SOL    HW129927   1.559   3.973   5.421
 9676SOL    HW229928   1.546   3.868   5.545
 9677SOL     OW29929   0.422   5.429   5.153
 9677SOL    HW129930   0.388   5.381   5.234
 9677SOL    HW229931   0.449   5.362   5.083
 9678SOL     OW29932   3.167   3.949   3.118
 9678SOL    HW129933   3.093   3.920   3.057
 9678SOL    HW229934   3.239   3.994   3.065
 9679SOL     OW29935   2.781   1.211   3.064
 9679SOL    HW129936   2.771   1.217   3.164
 9679SOL    HW229937   2.803   1.117   3.038
 9680SOL     OW29938   4.564   1.145   2.825
 9680SOL    HW129939   4.494   1.124   2.893
 9680SOL    HW229940   4.524   1.142   2.734
 9681SOL     OW29941   3.179   1.520   0.355
 9681SOL    HW129942   3.250   1.460   0.390
 9681SOL    HW229943   3.209   1.562   0.269
 9682SOL     OW29944   5.349   4.699   3.657
 9682SOL    HW129945   5.434   4.677   3.609
 9682SOL    HW229946   5.365   4.776   3.719
 9683SOL     OW29947   3.082   5.398   0.258
 9683SOL    HW129948   3.123   5.339   0.188
 9683SOL    HW229949   3.154   5.451   0.304
 9684SOL     OW29950   0.421   3.234   5.452
 9684SOL    HW129951   0.364   3.312   5.425
 9684SOL    HW229952   0.398   3.207   5.545
 9685SOL     OW29953   3.259   5.052   0.920
 9685SOL    HW129954   3.254   5.105   1.005
 9685SOL    HW229955   3.200   4.972   0.928
 9686SOL     OW29956   6.665   1.479   6.840
 9686SOL    HW129957   6.759   1.472   6.805
 9686SOL    HW229958   6.667   1.485   6.939
 9687SOL     OW29959   1.654   0.815   3.943
 9687SOL    HW129960   1.742   0.785   3.981
 9687SOL    HW229961   1.580   0.770   3.992
 9688SOL     OW29962   0.543   3.206   2.879
 9688SOL    HW129963   0.593   3.193   2.965
 9688SOL    HW229964   0.446   3.220   2.899
 9689SOL     OW29965   1.115   4.958   6.558
 9689SOL    HW129966   1.060   4.876   6.571
 9689SOL    HW229967   1.164   4.980   6.643
 9690SOL     OW29968   5.497   5.129   0.283
 9690SOL    HW129969   5.415   5.074   0.293
 9690SOL    HW229970   5.536   5.116   0.192
 9691SOL     OW29971   3.327   5.334   0.879
 9691SOL    HW129972   3.268   5.344   0.799
 9691SOL    HW229973   3.342   5.237   0.898
 9692SOL     OW29974   3.913   5.318   2.779
 9692SOL    HW129975   3.910   5.259   2.699
 9692SOL    HW229976   3.840   5.291   2.843
 9693SOL     OW29977   6.170   5.176   1.966
 9693SOL    HW129978   6.262   5.195   1.933
 9693SOL    HW229979   6.171   5.095   2.023
 9694SOL     OW29980   2.443   0.957   0.518
 9694SOL    HW129981   2.414   0.958   0.614
 9694SOL    HW229982   2.529   1.007   0.509
 9695SOL     OW29983   0.033   3.319   2.688
 9695SOL    HW129984   0.081   3.266   2.618
 9695SOL    HW229985   6.972   3.348   2.653
 9696SOL     OW29986   5.591   3.675   1.087
 9696SOL    HW129987   5.528   3.749   1.064
 9696SOL    HW229988   5.620   3.629   1.003
 9697SOL     OW29989   0.731   5.437   6.811
 9697SOL    HW129990   0.801   5.431   6.740
 9697SOL    HW229991   0.666   5.509   6.787
 9698SOL     OW29992   4.466   1.550   5.838
 9698SOL    HW129993   4.463   1.637   5.887
 9698SOL    HW229994   4.518   1.562   5.753
 9699SOL     OW29995   0.162   4.936   6.765
 9699SOL    HW129996   0.190   5.029   6.788
 9699SOL    HW229997   0.103   4.901   6.838
 9700SOL     OW29998   4.624   5.463   4.867
 9700SOL    HW129999   4.603   5.376   4.821
 9700SOL    HW230000   4.565   5.474   4.947
 9701SOL     OW30001   4.313   5.087   5.469
 9701SOL    HW130002   4.222   5.048   5.479
 9701SOL    HW230003   4.377   5.017   5.437
 9702SOL     OW30004   4.511   0.356   6.799
 9702SOL    HW130005   4.512   0.330   6.895
 9702SOL    HW230006   4.603   0.343   6.760
 9703SOL     OW30007   4.604   4.453   3.379
 9703SOL    HW130008   4.691   4.473   3.334
 9703SOL    HW230009   4.621   4.398   3.461
 9704SOL     OW30010   3.527   0.962   2.958
 9704SOL    HW130011   3.430   0.975   2.975
 9704SOL    HW230012   3.577   0.965   3.045
 9705SOL     OW30013   6.004   4.403   6.201
 9705SOL    HW130014   5.925   4.346   6.180
 9705SOL    HW230015   5.995   4.441   6.293
 9706SOL     OW30016   0.841   3.692   0.506
 9706SOL    HW130017   0.834   3.618   0.573
 9706SOL    HW230018   0.775   3.678   0.433
 9707SOL     OW30019   7.014   4.805   2.224
 9707SOL    HW130020   6.932   4.753   2.245
 9707SOL    HW230021   7.022   4.883   2.286
 9708SOL     OW30022   1.424   2.053   2.708
 9708SOL    HW130023   1.344   2.101   2.743
 9708SOL    HW230024   1.507   2.096   2.744
 9709SOL     OW30025   6.100   6.478   3.517
 9709SOL    HW130026   6.002   6.463   3.531
 9709SOL    HW230027   6.146   6.390   3.507
 9710SOL     OW30028   6.744   0.696   1.894
 9710SOL    HW130029   6.715   0.689   1.990
 9710SOL    HW230030   6.798   0.779   1.882
 9711SOL     OW30031   2.268   5.396   5.760
 9711SOL    HW130032   2.267   5.473   5.697
 9711SOL    HW230033   2.324   5.323   5.722
 9712SOL     OW30034   5.751   3.677   0.038
 9712SOL    HW130035   5.656   3.661   0.013
 9712SOL    HW230036   5.789   3.750   7.008
 9713SOL     OW30037   1.085   4.735   3.464
 9713SOL    HW130038   1.069   4.639   3.439
 9713SOL    HW230039   1.136   4.739   3.550
 9714SOL     OW30040   3.457   6.987   6.972
 9714SOL    HW130041   3.552   7.006   6.950
 9714SOL    HW230042   3.440   6.888   6.964
 9715SOL     OW30043   5.310   3.829   6.466
 9715SOL    HW130044   5.338   3.745   6.513
 9715SOL    HW230045   5.220   3.816   6.425
 9716SOL     OW30046   4.078   3.708   0.215
 9716SOL    HW130047   4.025   3.640   0.164
 9716SOL    HW230048   4.141   3.754   0.152
 9717SOL     OW30049   5.542   6.442   6.585
 9717SOL    HW130050   5.511   6.519   6.530
 9717SOL    HW230051   5.524   6.460   6.681
 9718SOL     OW30052   4.757   2.608   0.570
 9718SOL    HW130053   4.732   2.513   0.590
 9718SOL    HW230054   4.704   2.641   0.492
 9719SOL     OW30055   6.706   1.699   5.659
 9719SOL    HW130056   6.746   1.623   5.608
 9719SOL    HW230057   6.611   1.677   5.682
 9720SOL     OW30058   6.932   5.245   2.211
 9720SOL    HW130059   6.991   5.312   2.165
 9720SOL    HW230060   6.863   5.292   2.266
 9721SOL     OW30061   0.151   1.734   0.908
 9721SOL    HW130062   0.185   1.728   0.814
 9721SOL    HW230063   0.180   1.820   0.948
 9722SOL     OW30064   6.337   0.740   4.216
 9722SOL    HW130065   6.413   0.721   4.278
 9722SOL    HW230066   6.255   0.693   4.248
 9723SOL     OW30067   1.758   0.001   2.658
 9723SOL    HW130068   1.753   0.068   2.585
 9723SOL    HW230069   1.759   0.048   2.747
 9724SOL     OW30070   1.667   4.690   0.500
 9724SOL    HW130071   1.701   4.739   0.420
 9724SOL    HW230072   1.744   4.655   0.553
 9725SOL     OW30073   3.645   4.739   6.409
 9725SOL    HW130074   3.607   4.662   6.359
 9725SOL    HW230075   3.736   4.761   6.372
 9726SOL     OW30076   5.051   1.210   4.085
 9726SOL    HW130077   5.056   1.242   4.179
 9726SOL    HW230078   5.088   1.117   4.079
 9727SOL     OW30079   1.183   4.098   6.076
 9727SOL    HW130080   1.283   4.090   6.078
 9727SOL    HW230081   1.144   4.017   6.031
 9728SOL     OW30082   0.255   0.694   5.761
 9728SOL    HW130083   0.216   0.616   5.812
 9728SOL    HW230084   0.220   0.779   5.800
 9729SOL     OW30085   1.066   3.817   3.737
 9729SOL    HW130086   1.085   3.723   3.764
 9729SOL    HW230087   1.048   3.821   3.639
 9730SOL     OW30088   1.378   3.543   3.750
 9730SOL    HW130089   1.288   3.552   3.792
 9730SOL    HW230090   1.447   3.531   3.820
 9731SOL     OW30091   4.970   4.565   1.060
 9731SOL    HW130092   4.950   4.482   1.113
 9731SOL    HW230093   5.027   4.626   1.115
 9732SOL     OW30094   6.400   6.023   3.593
 9732SOL    HW130095   6.309   5.983   3.581
 9732SOL    HW230096   6.452   6.012   3.508
 9733SOL     OW30097   5.861   5.027   0.775
 9733SOL    HW130098   5.821   4.976   0.699
 9733SOL    HW230099   5.893   4.964   0.845
 9734SOL     OW30100   6.445   1.842   2.255
 9734SOL    HW130101   6.408   1.782   2.326
 9734SOL    HW230102   6.425   1.937   2.277
 9735SOL     OW30103   2.546   4.517   3.601
 9735SOL    HW130104   2.604   4.527   3.521
 9735SOL    HW230105   2.597   4.546   3.683
 9736SOL     OW30106   6.473   1.646   6.683
 9736SOL    HW130107   6.527   1.579   6.734
 9736SOL    HW230108   6.508   1.652   6.590
 9737SOL     OW30109   5.710   2.606   3.518
 9737SOL    HW130110   5.749   2.631   3.429
 9737SOL    HW230111   5.618   2.571   3.505
 9738SOL     OW30112   1.397   6.844   1.160
 9738SOL    HW130113   1.303   6.810   1.152
 9738SOL    HW230114   1.450   6.810   1.082
 9739SOL     OW30115   6.265   4.884   2.087
 9739SOL    HW130116   6.219   4.884   2.176
 9739SOL    HW230117   6.197   4.879   2.014
 9740SOL     OW30118   6.332   1.591   3.018
 9740SOL    HW130119   6.313   1.503   2.974
 9740SOL    HW230120   6.310   1.665   2.954
 9741SOL     OW30121   4.002   1.270   2.941
 9741SOL    HW130122   4.096   1.265   2.906
 9741SOL    HW230123   3.940   1.224   2.877
 9742SOL     OW30124   4.397   0.077   0.617
 9742SOL    HW130125   4.314   0.022   0.607
 9742SOL    HW230126   4.394   0.128   0.702
 9743SOL     OW30127   0.251   1.950   5.335
 9743SOL    HW130128   0.243   1.886   5.412
 9743SOL    HW230129   0.271   2.041   5.369
 9744SOL     OW30130   0.592   6.994   2.653
 9744SOL    HW130131   0.585   6.946   2.566
 9744SOL    HW230132   0.546   0.055   2.647
 9745SOL     OW30133   5.771   2.295   5.126
 9745SOL    HW130134   5.695   2.237   5.156
 9745SOL    HW230135   5.856   2.242   5.131
 9746SOL     OW30136   6.349   0.582   6.009
 9746SOL    HW130137   6.376   0.676   5.988
 9746SOL    HW230138   6.277   0.553   5.946
 9747SOL     OW30139   2.230   1.426   1.591
 9747SOL    HW130140   2.326   1.398   1.586
 9747SOL    HW230141   2.192   1.435   1.499
 9748SOL     OW30142   0.596   1.441   3.255
 9748SOL    HW130143   0.666   1.496   3.300
 9748SOL    HW230144   0.549   1.386   3.324
 9749SOL     OW30145   2.383   1.383   5.121
 9749SOL    HW130146   2.445   1.342   5.188
 9749SOL    HW230147   2.359   1.316   5.051
 9750SOL     OW30148   5.562   4.568   3.580
 9750SOL    HW130149   5.557   4.478   3.624
 9750SOL    HW230150   5.655   4.604   3.590
 9751SOL     OW30151   0.621   1.361   1.071
 9751SOL    HW130152   0.610   1.262   1.059
 9751SOL    HW230153   0.537   1.408   1.044
 9752SOL     OW30154   4.764   1.748   5.583
 9752SOL    HW130155   4.817   1.761   5.499
 9752SOL    HW230156   4.692   1.680   5.566
 9753SOL     OW30157   5.673   5.865   5.916
 9753SOL    HW130158   5.642   5.953   5.881
 9753SOL    HW230159   5.768   5.849   5.888
 9754SOL     OW30160   0.931   1.162   6.200
 9754SOL    HW130161   0.957   1.255   6.173
 9754SOL    HW230162   0.998   1.126   6.265
 9755SOL     OW30163   4.051   3.395   4.634
 9755SOL    HW130164   4.107   3.391   4.717
 9755SOL    HW230165   4.038   3.491   4.608
 9756SOL     OW30166   6.461   3.575   0.633
 9756SOL    HW130167   6.462   3.675   0.638
 9756SOL    HW230168   6.549   3.543   0.599
 9757SOL     OW30169   5.949   3.823   3.874
 9757SOL    HW130170   5.983   3.884   3.947
 9757SOL    HW230171   6.009   3.743   3.867
 9758SOL     OW30172   2.599   6.751   6.727
 9758SOL    HW130173   2.524   6.744   6.661
 9758SOL    HW230174   2.686   6.752   6.679
 9759SOL     OW30175   1.913   6.983   6.874
 9759SOL    HW130176   1.999   6.941   6.843
 9759SOL    HW230177   1.933   0.027   6.940
 9760SOL     OW30178   4.503   2.482   5.064
 9760SOL    HW130179   4.536   2.475   5.158
 9760SOL    HW230180   4.405   2.463   5.062
 9761SOL     OW30181   5.674   0.851   2.389
 9761SOL    HW130182   5.766   0.832   2.356
 9761SOL    HW230183   5.628   0.764   2.411
 9762SOL     OW30184   3.459   1.523   4.074
 9762SOL    HW130185   3.535   1.470   4.112
 9762SOL    HW230186   3.478   1.621   4.084
 9763SOL     OW30187   5.118   2.438   1.927
 9763SOL    HW130188   5.057   2.487   1.989
 9763SOL    HW230189   5.199   2.493   1.909
 9764SOL     OW30190   0.438   2.659   2.854
 9764SOL    HW130191   0.455   2.654   2.756
 9764SOL    HW230192   0.433   2.755   2.882
 9765SOL     OW30193   6.698   1.452   3.124
 9765SOL    HW130194   6.772   1.442   3.058
 9765SOL    HW230195   6.692   1.369   3.180
 9766SOL     OW30196   2.482   0.157   3.037
 9766SOL    HW130197   2.503   0.060   3.022
 9766SOL    HW230198   2.406   0.184   2.978
 9767SOL     OW30199   5.030   1.411   5.393
 9767SOL    HW130200   4.965   1.376   5.460
 9767SOL    HW230201   5.010   1.374   5.303
 9768SOL     OW30202   5.762   1.824   3.046
 9768SOL    HW130203   5.714   1.785   3.124
 9768SOL    HW230204   5.719   1.911   3.020
 9769SOL     OW30205   2.819   0.764   2.795
 9769SOL    HW130206   2.911   0.723   2.792
 9769SOL    HW230207   2.819   0.849   2.743
 9770SOL     OW30208   5.695   6.736   6.732
 9770SOL    HW130209   5.743   6.654   6.761
 9770SOL    HW230210   5.735   6.770   6.646
 9771SOL     OW30211   2.890   5.289   0.869
 9771SOL    HW130212   2.842   5.236   0.799
 9771SOL    HW230213   2.967   5.337   0.828
 9772SOL     OW30214   1.194   6.066   2.681
 9772SOL    HW130215   1.098   6.047   2.660
 9772SOL    HW230216   1.202   6.158   2.720
 9773SOL     OW30217   5.672   5.543   4.363
 9773SOL    HW130218   5.611   5.500   4.430
 9773SOL    HW230219   5.694   5.478   4.291
 9774SOL     OW30220   0.160   5.026   1.895
 9774SOL    HW130221   0.213   5.111   1.892
 9774SOL    HW230222   0.063   5.047   1.901
 9775SOL     OW30223   2.168   0.624   3.573
 9775SOL    HW130224   2.256   0.605   3.530
 9775SOL    HW230225   2.158   0.723   3.585
 9776SOL     OW30226   1.319   4.687   4.138
 9776SOL    HW130227   1.237   4.742   4.155
 9776SOL    HW230228   1.310   4.598   4.183
 9777SOL     OW30229   5.843   4.647   5.983
 9777SOL    HW130230   5.788   4.605   5.911
 9777SOL    HW230231   5.938   4.618   5.973
 9778SOL     OW30232   0.131   0.873   3.695
 9778SOL    HW130233   0.089   0.944   3.639
 9778SOL    HW230234   0.145   0.790   3.640
 9779SOL     OW30235   1.838   1.279   5.006
 9779SOL    HW130236   1.763   1.308   4.948
 9779SOL    HW230237   1.865   1.353   5.067
 9780SOL     OW30238   2.822   1.599   1.206
 9780SOL    HW130239   2.896   1.627   1.267
 9780SOL    HW230240   2.734   1.628   1.244
 9781SOL     OW30241   1.839   3.769   4.299
 9781SOL    HW130242   1.821   3.860   4.338
 9781SOL    HW230243   1.772   3.749   4.228
 9782SOL     OW30244   6.705   0.781   1.409
 9782SOL    HW130245   6.619   0.774   1.360
 9782SOL    HW230246   6.708   0.712   1.481
 9783SOL     OW30247   4.799   1.928   2.927
 9783SOL    HW130248   4.841   1.949   3.016
 9783SOL    HW230249   4.745   1.845   2.935
 9784SOL     OW30250   4.054   1.406   4.654
 9784SOL    HW130251   4.037   1.380   4.559
 9784SOL    HW230252   4.109   1.335   4.698
 9785SOL     OW30253   0.880   3.377   6.056
 9785SOL    HW130254   0.861   3.475   6.046
 9785SOL    HW230255   0.975   3.359   6.028
 9786SOL     OW30256   2.305   4.471   0.039
 9786SOL    HW130257   2.349   4.398   7.014
 9786SOL    HW230258   2.368   4.503   0.110
 9787SOL     OW30259   4.666   3.635   1.603
 9787SOL    HW130260   4.568   3.634   1.623
 9787SOL    HW230261   4.709   3.712   1.650
 9788SOL     OW30262   0.376   0.471   3.485
 9788SOL    HW130263   0.428   0.394   3.522
 9788SOL    HW230264   0.439   0.546   3.461
 9789SOL     OW30265   1.302   5.233   0.695
 9789SOL    HW130266   1.329   5.234   0.599
 9789SOL    HW230267   1.291   5.327   0.727
 9790SOL     OW30268   5.868   4.243   5.823
 9790SOL    HW130269   5.913   4.320   5.778
 9790SOL    HW230270   5.798   4.278   5.887
 9791SOL     OW30271   0.451   0.944   3.114
 9791SOL    HW130272   0.397   0.872   3.159
 9791SOL    HW230273   0.547   0.918   3.114
 9792SOL     OW30274   5.267   5.476   1.944
 9792SOL    HW130275   5.233   5.401   1.888
 9792SOL    HW230276   5.277   5.558   1.887
 9793SOL     OW30277   5.245   5.780   3.453
 9793SOL    HW130278   5.250   5.767   3.354
 9793SOL    HW230279   5.193   5.863   3.473
 9794SOL     OW30280   0.023   3.909   0.671
 9794SOL    HW130281   0.035   3.884   0.575
 9794SOL    HW230282   6.969   3.968   0.681
 9795SOL     OW30283   2.117   2.036   4.202
 9795SOL    HW130284   2.062   2.116   4.178
 9795SOL    HW230285   2.214   2.060   4.200
 9796SOL     OW30286   4.668   2.349   1.365
 9796SOL    HW130287   4.596   2.373   1.430
 9796SOL    HW230288   4.672   2.250   1.355
 9797SOL     OW30289   2.658   5.301   6.878
 9797SOL    HW130290   2.645   5.266   6.785
 9797SOL    HW230291   2.729   5.372   6.877
 9798SOL     OW30292   2.664   0.428   1.382
 9798SOL    HW130293   2.619   0.418   1.471
 9798SOL    HW230294   2.763   0.418   1.394
 9799SOL     OW30295   3.572   4.116   3.577
 9799SOL    HW130296   3.545   4.117   3.480
 9799SOL    HW230297   3.561   4.023   3.613
 9800SOL     OW30298   3.604   6.108   4.714
 9800SOL    HW130299   3.595   6.118   4.615
 9800SOL    HW230300   3.549   6.178   4.759
 9801SOL     OW30301   4.651   3.721   0.237
 9801SOL    HW130302   4.696   3.634   0.220
 9801SOL    HW230303   4.660   3.779   0.156
 9802SOL     OW30304   1.057   3.189   1.711
 9802SOL    HW130305   1.102   3.154   1.792
 9802SOL    HW230306   1.121   3.191   1.634
 9803SOL     OW30307   0.153   2.306   6.775
 9803SOL    HW130308   0.053   2.304   6.767
 9803SOL    HW230309   0.182   2.240   6.844
 9804SOL     OW30310   0.739   6.504   3.229
 9804SOL    HW130311   0.665   6.476   3.290
 9804SOL    HW230312   0.706   6.571   3.163
 9805SOL     OW30313   0.883   0.280   5.455
 9805SOL    HW130314   0.847   0.245   5.541
 9805SOL    HW230315   0.908   0.376   5.466
 9806SOL     OW30316   1.304   1.171   0.875
 9806SOL    HW130317   1.352   1.093   0.834
 9806SOL    HW230318   1.275   1.147   0.967
 9807SOL     OW30319   2.464   2.983   0.074
 9807SOL    HW130320   2.461   3.064   0.133
 9807SOL    HW230321   2.377   2.935   0.078
 9808SOL     OW30322   4.490   0.864   5.472
 9808SOL    HW130323   4.560   0.797   5.446
 9808SOL    HW230324   4.505   0.949   5.422
 9809SOL     OW30325   0.884   2.105   6.960
 9809SOL    HW130326   0.853   2.135   0.023
 9809SOL    HW230327   0.805   2.079   6.905
 9810SOL     OW30328   2.347   2.653   3.829
 9810SOL    HW130329   2.356   2.554   3.826
 9810SOL    HW230330   2.344   2.684   3.925
 9811SOL     OW30331   5.766   5.198   3.868
 9811SOL    HW130332   5.746   5.169   3.962
 9811SOL    HW230333   5.845   5.259   3.868
 9812SOL     OW30334   3.228   2.416   5.626
 9812SOL    HW130335   3.176   2.382   5.704
 9812SOL    HW230336   3.224   2.516   5.625
 9813SOL     OW30337   5.831   0.695   6.425
 9813SOL    HW130338   5.733   0.682   6.438
 9813SOL    HW230339   5.850   0.711   6.328
 9814SOL     OW30340   0.671   0.546   0.469
 9814SOL    HW130341   0.735   0.473   0.444
 9814SOL    HW230342   0.643   0.595   0.386
 9815SOL     OW30343   5.780   4.240   2.783
 9815SOL    HW130344   5.862   4.212   2.833
 9815SOL    HW230345   5.702   4.188   2.816
 9816SOL     OW30346   0.099   1.521   6.195
 9816SOL    HW130347   0.122   1.526   6.098
 9816SOL    HW230348   0.109   1.612   6.236
 9817SOL     OW30349   2.539   6.178   2.607
 9817SOL    HW130350   2.446   6.208   2.629
 9817SOL    HW230351   2.536   6.087   2.567
 9818SOL     OW30352   1.635   0.788   4.545
 9818SOL    HW130353   1.611   0.806   4.640
 9818SOL    HW230354   1.668   0.872   4.502
 9819SOL     OW30355   4.987   3.067   4.078
 9819SOL    HW130356   5.048   2.989   4.068
 9819SOL    HW230357   5.028   3.134   4.141
 9820SOL     OW30358   3.843   3.265   6.113
 9820SOL    HW130359   3.873   3.360   6.108
 9820SOL    HW230360   3.913   3.210   6.159
 9821SOL     OW30361   5.121   0.815   0.956
 9821SOL    HW130362   5.177   0.832   1.038
 9821SOL    HW230363   5.033   0.860   0.966
 9822SOL     OW30364   2.574   5.840   3.434
 9822SOL    HW130365   2.611   5.774   3.499
 9822SOL    HW230366   2.597   5.812   3.341
 9823SOL     OW30367   2.289   0.537   1.595
 9823SOL    HW130368   2.365   0.538   1.660
 9823SOL    HW230369   2.234   0.619   1.607
 9824SOL     OW30370   1.404   5.229   4.354
 9824SOL    HW130371   1.400   5.302   4.421
 9824SOL    HW230372   1.398   5.267   4.262
 9825SOL     OW30373   5.276   6.462   3.984
 9825SOL    HW130374   5.178   6.482   3.980
 9825SOL    HW230375   5.326   6.532   3.933
 9826SOL     OW30376   3.836   6.116   5.339
 9826SOL    HW130377   3.839   6.041   5.272
 9826SOL    HW230378   3.773   6.091   5.413
 9827SOL     OW30379   1.813   3.493   2.966
 9827SOL    HW130380   1.833   3.443   3.050
 9827SOL    HW230381   1.898   3.508   2.915
 9828SOL     OW30382   3.320   2.625   5.315
 9828SOL    HW130383   3.299   2.538   5.271
 9828SOL    HW230384   3.265   2.698   5.274
 9829SOL     OW30385   4.798   5.827   6.436
 9829SOL    HW130386   4.774   5.747   6.381
 9829SOL    HW230387   4.733   5.901   6.418
 9830SOL     OW30388   5.557   1.564   1.960
 9830SOL    HW130389   5.519   1.484   1.915
 9830SOL    HW230390   5.654   1.548   1.982
 9831SOL     OW30391   1.050   4.995   2.934
 9831SOL    HW130392   1.102   5.078   2.912
 9831SOL    HW230393   0.960   4.999   2.892
 9832SOL     OW30394   5.156   5.499   2.201
 9832SOL    HW130395   5.185   5.521   2.108
 9832SOL    HW230396   5.075   5.552   2.225
 9833SOL     OW30397   3.336   3.659   3.531
 9833SOL    HW130398   3.383   3.608   3.460
 9833SOL    HW230399   3.287   3.595   3.591
 9834SOL     OW30400   2.446   4.441   5.007
 9834SOL    HW130401   2.429   4.488   4.920
 9834SOL    HW230402   2.484   4.506   5.073
 9835SOL     OW30403   3.492   3.285   4.457
 9835SOL    HW130404   3.559   3.236   4.402
 9835SOL    HW230405   3.538   3.355   4.512
 9836SOL     OW30406   0.455   3.921   4.247
 9836SOL    HW130407   0.435   4.008   4.201
 9836SOL    HW230408   0.435   3.845   4.185
 9837SOL     OW30409   4.542   0.786   2.886
 9837SOL    HW130410   4.578   0.869   2.844
 9837SOL    HW230411   4.612   0.715   2.884
 9838SOL     OW30412   1.751   6.941   0.257
 9838SOL    HW130413   1.748   6.892   0.171
 9838SOL    HW230414   1.844   6.974   0.274
 9839SOL     OW30415   4.505   6.693   3.423
 9839SOL    HW130416   4.526   6.743   3.340
 9839SOL    HW230417   4.461   6.606   3.400
 9840SOL     OW30418   5.378   2.020   0.875
 9840SOL    HW130419   5.346   2.075   0.952
 9840SOL    HW230420   5.377   1.923   0.902
 9841SOL     OW30421   1.057   4.350   4.265
 9841SOL    HW130422   1.143   4.398   4.284
 9841SOL    HW230423   1.063   4.256   4.298
 9842SOL     OW30424   3.411   3.511   1.306
 9842SOL    HW130425   3.404   3.574   1.383
 9842SOL    HW230426   3.406   3.562   1.220
 9843SOL     OW30427   6.283   0.109   1.859
 9843SOL    HW130428   6.358   0.173   1.843
 9843SOL    HW230429   6.207   0.157   1.903
 9844SOL     OW30430   6.152   1.357   3.783
 9844SOL    HW130431   6.110   1.355   3.873
 9844SOL    HW230432   6.082   1.350   3.713
 9845SOL     OW30433   1.652   1.740   3.696
 9845SOL    HW130434   1.698   1.652   3.684
 9845SOL    HW230435   1.559   1.733   3.658
 9846SOL     OW30436   4.438   2.217   0.995
 9846SOL    HW130437   4.448   2.137   1.054
 9846SOL    HW230438   4.529   2.246   0.964
 9847SOL     OW30439   3.959   3.627   2.347
 9847SOL    HW130440   3.864   3.601   2.331
 9847SOL    HW230441   3.994   3.576   2.426
 9848SOL     OW30442   4.388   4.743   6.089
 9848SOL    HW130443   4.483   4.720   6.067
 9848SOL    HW230444   4.378   4.843   6.095
 9849SOL     OW30445   0.953   0.090   6.377
 9849SOL    HW130446   0.966   7.022   6.351
 9849SOL    HW230447   1.002   0.150   6.313
 9850SOL     OW30448   6.625   0.734   4.072
 9850SOL    HW130449   6.669   0.691   4.151
 9850SOL    HW230450   6.564   0.806   4.103
 9851SOL     OW30451   1.837   0.258   4.485
 9851SOL    HW130452   1.935   0.269   4.502
 9851SOL    HW230453   1.807   0.326   4.419
 9852SOL     OW30454   1.521   1.619   4.804
 9852SOL    HW130455   1.565   1.612   4.714
 9852SOL    HW230456   1.584   1.665   4.867
 9853SOL     OW30457   6.830   3.321   5.124
 9853SOL    HW130458   6.922   3.304   5.159
 9853SOL    HW230459   6.801   3.245   5.066
 9854SOL     OW30460   0.084   5.847   3.923
 9854SOL    HW130461   0.082   5.757   3.881
 9854SOL    HW230462   0.079   5.917   3.851
 9855SOL     OW30463   2.305   3.526   0.453
 9855SOL    HW130464   2.218   3.480   0.470
 9855SOL    HW230465   2.294   3.625   0.468
 9856SOL     OW30466   5.334   4.357   3.769
 9856SOL    HW130467   5.333   4.457   3.776
 9856SOL    HW230468   5.424   4.326   3.738
 9857SOL     OW30469   5.618   2.390   3.172
 9857SOL    HW130470   5.518   2.389   3.176
 9857SOL    HW230471   5.650   2.485   3.166
 9858SOL     OW30472   0.087   6.777   1.269
 9858SOL    HW130473   0.107   6.862   1.221
 9858SOL    HW230474   7.020   6.777   1.302
 9859SOL     OW30475   6.906   5.368   3.759
 9859SOL    HW130476   6.867   5.309   3.830
 9859SOL    HW230477   6.850   5.363   3.676
 9860SOL     OW30478   1.903   2.298   4.786
 9860SOL    HW130479   1.851   2.376   4.819
 9860SOL    HW230480   1.996   2.302   4.823
 9861SOL     OW30481   2.585   0.221   3.325
 9861SOL    HW130482   2.567   0.139   3.379
 9861SOL    HW230483   2.537   0.216   3.238
 9862SOL     OW30484   2.303   4.045   0.195
 9862SOL    HW130485   2.389   4.055   0.245
 9862SOL    HW230486   2.262   3.957   0.218
 9863SOL     OW30487   3.099   6.022   1.674
 9863SOL    HW130488   3.048   6.047   1.756
 9863SOL    HW230489   3.172   5.958   1.698
 9864SOL     OW30490   3.495   0.759   4.806
 9864SOL    HW130491   3.405   0.792   4.833
 9864SOL    HW230492   3.566   0.815   4.850
 9865SOL     OW30493   1.244   6.444   4.159
 9865SOL    HW130494   1.339   6.411   4.158
 9865SOL    HW230495   1.243   6.542   4.136
 9866SOL     OW30496   5.936   4.505   5.677
 9866SOL    HW130497   6.035   4.498   5.668
 9866SOL    HW230498   5.898   4.548   5.595
 9867SOL     OW30499   6.643   1.461   2.431
 9867SOL    HW130500   6.737   1.435   2.454
 9867SOL    HW230501   6.626   1.555   2.461
 9868SOL     OW30502   0.948   3.154   4.642
 9868SOL    HW130503   0.859   3.131   4.681
 9868SOL    HW230504   0.978   3.242   4.680
 9869SOL     OW30505   0.265   2.246   1.194
 9869SOL    HW130506   0.353   2.259   1.149
 9869SOL    HW230507   0.278   2.202   1.283
 9870SOL     OW30508   4.353   5.931   2.757
 9870SOL    HW130509   4.262   5.937   2.799
 9870SOL    HW230510   4.421   5.969   2.819
 9871SOL     OW30511   6.408   3.602   5.523
 9871SOL    HW130512   6.427   3.656   5.605
 9871SOL    HW230513   6.470   3.524   5.519
 9872SOL     OW30514   3.130   5.245   4.630
 9872SOL    HW130515   3.177   5.170   4.676
 9872SOL    HW230516   3.100   5.312   4.698
 9873SOL     OW30517   2.203   2.364   0.380
 9873SOL    HW130518   2.237   2.441   0.435
 9873SOL    HW230519   2.156   2.400   0.299
 9874SOL     OW30520   0.339   3.211   5.704
 9874SOL    HW130521   0.429   3.219   5.745
 9874SOL    HW230522   0.271   3.190   5.774
 9875SOL     OW30523   6.297   5.898   2.868
 9875SOL    HW130524   6.244   5.910   2.952
 9875SOL    HW230525   6.236   5.869   2.794
 9876SOL     OW30526   5.211   0.942   4.005
 9876SOL    HW130527   5.237   1.010   3.936
 9876SOL    HW230528   5.291   0.918   4.059
 9877SOL     OW30529   0.282   4.584   4.338
 9877SOL    HW130530   0.210   4.577   4.407
 9877SOL    HW230531   0.287   4.678   4.305
 9878SOL     OW30532   2.532   3.791   5.615
 9878SOL    HW130533   2.611   3.780   5.555
 9878SOL    HW230534   2.558   3.842   5.696
 9879SOL     OW30535   6.211   4.563   5.588
 9879SOL    HW130536   6.231   4.488   5.526
 9879SOL    HW230537   6.285   4.571   5.655
 9880SOL     OW30538   2.405   0.917   0.806
 9880SOL    HW130539   2.475   0.849   0.783
 9880SOL    HW230540   2.406   0.935   0.904
 9881SOL     OW30541   6.721   1.744   4.626
 9881SOL    HW130542   6.751   1.748   4.531
 9881SOL    HW230543   6.633   1.696   4.631
 9882SOL     OW30544   3.264   4.042   5.758
 9882SOL    HW130545   3.175   4.072   5.793
 9882SOL    HW230546   3.269   3.942   5.760
 9883SOL     OW30547   0.936   6.757   1.397
 9883SOL    HW130548   0.971   6.846   1.425
 9883SOL    HW230549   0.846   6.768   1.354
 9884SOL     OW30550   4.215   1.980   1.174
 9884SOL    HW130551   4.138   1.937   1.221
 9884SOL    HW230552   4.251   2.053   1.231
 9885SOL     OW30553   0.714   3.121   4.798
 9885SOL    HW130554   0.661   3.173   4.865
 9885SOL    HW230555   0.680   3.027   4.795
 9886SOL     OW30556   6.872   6.175   2.224
 9886SOL    HW130557   6.869   6.208   2.130
 9886SOL    HW230558   6.967   6.155   2.250
 9887SOL     OW30559   3.797   0.171   6.999
 9887SOL    HW130560   3.864   0.219   6.942
 9887SOL    HW230561   3.770   0.086   6.955
 9888SOL     OW30562   5.711   5.774   3.489
 9888SOL    HW130563   5.660   5.857   3.511
 9888SOL    HW230564   5.754   5.738   3.572
 9889SOL     OW30565   0.744   4.711   1.907
 9889SOL    HW130566   0.814   4.659   1.857
 9889SOL    HW230567   0.654   4.695   1.866
 9890SOL     OW30568   0.432   3.012   0.740
 9890SOL    HW130569   0.373   3.089   0.717
 9890SOL    HW230570   0.528   3.042   0.737
 9891SOL     OW30571   6.215   4.712   1.633
 9891SOL    HW130572   6.128   4.685   1.675
 9891SOL    HW230573   6.257   4.632   1.589
 9892SOL     OW30574   1.919   5.457   3.080
 9892SOL    HW130575   1.914   5.373   3.027
 9892SOL    HW230576   1.857   5.525   3.041
 9893SOL     OW30577   6.353   0.120   2.284
 9893SOL    HW130578   6.270   0.073   2.254
 9893SOL    HW230579   6.415   0.054   2.328
 9894SOL     OW30580   2.788   1.449   5.976
 9894SOL    HW130581   2.694   1.429   6.004
 9894SOL    HW230582   2.852   1.397   6.033
 9895SOL     OW30583   6.382   2.278   5.487
 9895SOL    HW130584   6.366   2.281   5.388
 9895SOL    HW230585   6.477   2.252   5.505
 9896SOL     OW30586   5.063   1.823   0.764
 9896SOL    HW130587   5.107   1.782   0.685
 9896SOL    HW230588   5.073   1.923   0.760
 9897SOL     OW30589   4.840   0.641   2.777
 9897SOL    HW130590   4.916   0.658   2.840
 9897SOL    HW230591   4.774   0.580   2.821
 9898SOL     OW30592   0.031   5.089   5.020
 9898SOL    HW130593   6.977   5.095   4.962
 9898SOL    HW230594   0.020   5.147   5.101
 9899SOL     OW30595   6.744   5.034   2.546
 9899SOL    HW130596   6.722   5.115   2.600
 9899SOL    HW230597   6.730   4.952   2.602
 9900SOL     OW30598   1.761   2.427   2.805
 9900SOL    HW130599   1.851   2.465   2.827
 9900SOL    HW230600   1.710   2.493   2.749
 9901SOL     OW30601   1.937   1.209   6.860
 9901SOL    HW130602   2.024   1.259   6.863
 9901SOL    HW230603   1.950   1.117   6.895
 9902SOL     OW30604   4.050   3.843   1.426
 9902SOL    HW130605   4.005   3.764   1.468
 9902SOL    HW230606   4.136   3.861   1.473
 9903SOL     OW30607   4.856   6.632   2.250
 9903SOL    HW130608   4.835   6.618   2.153
 9903SOL    HW230609   4.771   6.646   2.301
 9904SOL     OW30610   6.954   3.833   0.071
 9904SOL    HW130611   6.946   3.912   0.133
 9904SOL    HW230612   6.897   3.848   7.018
 9905SOL     OW30613   1.512   6.200   0.013
 9905SOL    HW130614   1.443   6.211   6.969
 9905SOL    HW230615   1.521   6.103   0.036
 9906SOL     OW30616   2.308   3.623   6.858
 9906SOL    HW130617   2.253   3.569   6.921
 9906SOL    HW230618   2.305   3.582   6.767
 9907SOL     OW30619   1.784   6.990   3.791
 9907SOL    HW130620   1.750   0.029   3.724
 9907SOL    HW230621   1.884   6.993   3.793
 9908SOL     OW30622   0.487   3.911   5.712
 9908SOL    HW130623   0.470   3.970   5.633
 9908SOL    HW230624   0.402   3.901   5.765
 9909SOL     OW30625   3.172   0.278   3.469
 9909SOL    HW130626   3.142   0.185   3.492
 9909SOL    HW230627   3.202   0.281   3.374
 9910SOL     OW30628   1.273   5.427   1.454
 9910SOL    HW130629   1.293   5.519   1.420
 9910SOL    HW230630   1.356   5.385   1.489
 9911SOL     OW30631   4.516   5.451   2.464
 9911SOL    HW130632   4.421   5.452   2.496
 9911SOL    HW230633   4.551   5.545   2.462
 9912SOL     OW30634   4.207   0.856   1.452
 9912SOL    HW130635   4.116   0.828   1.422
 9912SOL    HW230636   4.246   0.920   1.386
 9913SOL     OW30637   6.441   3.216   2.356
 9913SOL    HW130638   6.474   3.251   2.443
 9913SOL    HW230639   6.410   3.121   2.368
 9914SOL     OW30640   0.731   0.620   5.822
 9914SOL    HW130641   0.755   0.553   5.752
 9914SOL    HW230642   0.812   0.642   5.877
 9915SOL     OW30643   4.793   2.871   4.094
 9915SOL    HW130644   4.838   2.796   4.046
 9915SOL    HW230645   4.847   2.955   4.082
 9916SOL     OW30646   2.102   2.239   3.451
 9916SOL    HW130647   2.119   2.335   3.473
 9916SOL    HW230648   2.114   2.183   3.533
 9917SOL     OW30649   3.198   3.709   4.667
 9917SOL    HW130650   3.292   3.675   4.675
 9917SOL    HW230651   3.135   3.643   4.709
 9918SOL     OW30652   0.777   2.381   1.214
 9918SOL    HW130653   0.756   2.296   1.263
 9918SOL    HW230654   0.854   2.367   1.153
 9919SOL     OW30655   2.583   6.263   1.342
 9919SOL    HW130656   2.643   6.244   1.264
 9919SOL    HW230657   2.488   6.261   1.312
 9920SOL     OW30658   3.445   0.678   3.168
 9920SOL    HW130659   3.354   0.706   3.136
 9920SOL    HW230660   3.436   0.606   3.237
 9921SOL     OW30661   5.036   6.142   4.489
 9921SOL    HW130662   5.059   6.056   4.535
 9921SOL    HW230663   5.115   6.203   4.491
 9922SOL     OW30664   4.864   4.456   0.777
 9922SOL    HW130665   4.808   4.430   0.856
 9922SOL    HW230666   4.942   4.394   0.769
 9923SOL     OW30667   6.821   3.187   7.022
 9923SOL    HW130668   6.764   3.174   0.076
 9923SOL    HW230669   6.771   3.241   6.955
 9924SOL     OW30670   5.381   2.236   3.463
 9924SOL    HW130671   5.417   2.262   3.373
 9924SOL    HW230672   5.437   2.162   3.501
 9925SOL     OW30673   2.014   4.532   4.763
 9925SOL    HW130674   2.000   4.483   4.849
 9925SOL    HW230675   2.111   4.530   4.738
 9926SOL     OW30676   3.297   2.484   0.935
 9926SOL    HW130677   3.296   2.572   0.888
 9926SOL    HW230678   3.210   2.438   0.922
 9927SOL     OW30679   0.940   2.053   0.900
 9927SOL    HW130680   0.858   2.012   0.939
 9927SOL    HW230681   0.940   2.152   0.918
 9928SOL     OW30682   5.588   3.721   2.743
 9928SOL    HW130683   5.671   3.667   2.757
 9928SOL    HW230684   5.533   3.680   2.670
 9929SOL     OW30685   3.431   4.538   5.429
 9929SOL    HW130686   3.410   4.617   5.371
 9929SOL    HW230687   3.397   4.454   5.385
 9930SOL     OW30688   0.631   0.340   6.091
 9930SOL    HW130689   0.579   0.400   6.031
 9930SOL    HW230690   0.599   0.246   6.079
 9931SOL     OW30691   6.737   5.552   5.256
 9931SOL    HW130692   6.807   5.520   5.320
 9931SOL    HW230693   6.647   5.522   5.287
 9932SOL     OW30694   1.330   1.631   6.504
 9932SOL    HW130695   1.369   1.615   6.414
 9932SOL    HW230696   1.231   1.646   6.495
 9933SOL     OW30697   1.581   0.958   4.232
 9933SOL    HW130698   1.632   0.997   4.155
 9933SOL    HW230699   1.556   0.864   4.211
 9934SOL     OW30700   6.296   1.832   6.804
 9934SOL    HW130701   6.334   1.921   6.779
 9934SOL    HW230702   6.345   1.760   6.755
 9935SOL     OW30703   2.361   0.736   0.419
 9935SOL    HW130704   2.409   0.819   0.447
 9935SOL    HW230705   2.347   0.736   0.320
 9936SOL     OW30706   6.808   5.199   6.682
 9936SOL    HW130707   6.841   5.117   6.635
 9936SOL    HW230708   6.886   5.256   6.708
 9937SOL     OW30709   1.404   0.802   3.342
 9937SOL    HW130710   1.490   0.786   3.389
 9937SOL    HW230711   1.394   0.900   3.324
 9938SOL     OW30712   5.595   0.261   4.077
 9938SOL    HW130713   5.504   0.283   4.110
 9938SOL    HW230714   5.658   0.336   4.101
 9939SOL     OW30715   2.249   3.133   1.172
 9939SOL    HW130716   2.227   3.074   1.250
 9939SOL    HW230717   2.325   3.094   1.120
 9940SOL     OW30718   0.903   0.724   4.122
 9940SOL    HW130719   0.875   0.765   4.035
 9940SOL    HW230720   0.997   0.690   4.113
 9941SOL     OW30721   3.225   5.649   5.898
 9941SOL    HW130722   3.185   5.637   5.989
 9941SOL    HW230723   3.279   5.568   5.875
 9942SOL     OW30724   4.631   5.230   1.976
 9942SOL    HW130725   4.600   5.300   2.040
 9942SOL    HW230726   4.560   5.160   1.965
 9943SOL     OW30727   1.276   4.076   6.591
 9943SOL    HW130728   1.262   4.129   6.507
 9943SOL    HW230729   1.335   3.998   6.572
 9944SOL     OW30730   6.780   5.636   6.451
 9944SOL    HW130731   6.766   5.719   6.506
 9944SOL    HW230732   6.757   5.556   6.506
 9945SOL     OW30733   5.390   3.978   6.699
 9945SOL    HW130734   5.348   3.946   6.614
 9945SOL    HW230735   5.474   3.927   6.717
 9946SOL     OW30736   6.171   0.138   3.078
 9946SOL    HW130737   6.087   0.186   3.053
 9946SOL    HW230738   6.149   0.044   3.104
 9947SOL     OW30739   2.185   1.462   3.918
 9947SOL    HW130740   2.155   1.398   3.848
 9947SOL    HW230741   2.268   1.428   3.962
 9948SOL     OW30742   6.667   5.415   5.586
 9948SOL    HW130743   6.660   5.459   5.676
 9948SOL    HW230744   6.761   5.420   5.554
 9949SOL     OW30745   6.962   5.166   4.299
 9949SOL    HW130746   0.014   5.186   4.358
 9949SOL    HW230747   6.950   5.068   4.291
 9950SOL     OW30748   6.962   5.755   5.944
 9950SOL    HW130749   7.003   5.677   5.991
 9950SOL    HW230750   0.006   5.819   5.917
 9951SOL     OW30751   1.917   2.129   2.510
 9951SOL    HW130752   1.886   2.221   2.486
 9951SOL    HW230753   1.838   2.070   2.527
 9952SOL     OW30754   1.701   4.219   1.001
 9952SOL    HW130755   1.620   4.244   0.947
 9952SOL    HW230756   1.776   4.195   0.940
 9953SOL     OW30757   5.574   2.707   3.990
 9953SOL    HW130758   5.549   2.663   3.904
 9953SOL    HW230759   5.603   2.801   3.973
 9954SOL     OW30760   1.141   0.083   4.882
 9954SOL    HW130761   1.067   0.018   4.867
 9954SOL    HW230762   1.228   0.034   4.889
 9955SOL     OW30763   4.284   3.945   6.484
 9955SOL    HW130764   4.245   3.914   6.398
 9955SOL    HW230765   4.214   3.993   6.538
 9956SOL     OW30766   0.650   3.617   2.482
 9956SOL    HW130767   0.652   3.578   2.574
 9956SOL    HW230768   0.652   3.717   2.487
 9957SOL     OW30769   5.650   6.860   2.228
 9957SOL    HW130770   5.737   6.838   2.272
 9957SOL    HW230771   5.667   6.891   2.134
 9958SOL     OW30772   3.323   6.187   5.759
 9958SOL    HW130773   3.397   6.188   5.827
 9958SOL    HW230774   3.248   6.130   5.793
 9959SOL     OW30775   4.015   3.457   2.559
 9959SOL    HW130776   3.989   3.375   2.611
 9959SOL    HW230777   4.053   3.525   2.622
 9960SOL     OW30778   0.733   6.388   1.386
 9960SOL    HW130779   0.776   6.347   1.466
 9960SOL    HW230780   0.679   6.467   1.413
 9961SOL     OW30781   2.460   4.429   2.810
 9961SOL    HW130782   2.548   4.419   2.764
 9961SOL    HW230783   2.469   4.497   2.884
 9962SOL     OW30784   3.785   0.818   2.116
 9962SOL    HW130785   3.838   0.776   2.041
 9962SOL    HW230786   3.707   0.760   2.137
 9963SOL     OW30787   2.745   3.448   6.276
 9963SOL    HW130788   2.792   3.467   6.190
 9963SOL    HW230789   2.647   3.436   6.258
 9964SOL     OW30790   3.863   4.828   6.086
 9964SOL    HW130791   3.881   4.762   6.159
 9964SOL    HW230792   3.938   4.825   6.019
 9965SOL     OW30793   3.324   5.060   5.040
 9965SOL    HW130794   3.321   5.154   5.005
 9965SOL    HW230795   3.417   5.024   5.031
 9966SOL     OW30796   2.507   5.288   1.651
 9966SOL    HW130797   2.577   5.328   1.591
 9966SOL    HW230798   2.510   5.333   1.740
 9967SOL     OW30799   6.277   5.160   2.804
 9967SOL    HW130800   6.303   5.218   2.881
 9967SOL    HW230801   6.211   5.208   2.746
 9968SOL     OW30802   4.136   5.702   6.306
 9968SOL    HW130803   4.201   5.681   6.233
 9968SOL    HW230804   4.116   5.800   6.305
 9969SOL     OW30805   1.804   2.649   4.629
 9969SOL    HW130806   1.832   2.562   4.589
 9969SOL    HW230807   1.883   2.710   4.636
 9970SOL     OW30808   6.944   4.592   1.668
 9970SOL    HW130809   6.871   4.624   1.606
 9970SOL    HW230810   6.986   4.671   1.712
 9971SOL     OW30811   2.487   3.992   1.087
 9971SOL    HW130812   2.478   3.906   1.138
 9971SOL    HW230813   2.536   3.975   1.002
 9972SOL     OW30814   3.132   4.581   0.612
 9972SOL    HW130815   3.052   4.596   0.670
 9972SOL    HW230816   3.120   4.631   0.526
 9973SOL     OW30817   3.970   2.168   4.834
 9973SOL    HW130818   3.899   2.166   4.904
 9973SOL    HW230819   3.946   2.104   4.760
 9974SOL     OW30820   6.865   3.193   2.851
 9974SOL    HW130821   6.773   3.229   2.833
 9974SOL    HW230822   6.932   3.248   2.801
 9975SOL     OW30823   0.355   4.735   6.662
 9975SOL    HW130824   0.364   4.719   6.564
 9975SOL    HW230825   0.315   4.826   6.677
 9976SOL     OW30826   0.195   4.884   5.079
 9976SOL    HW130827   0.132   4.959   5.057
 9976SOL    HW230828   0.190   4.864   5.177
 9977SOL     OW30829   6.312   5.345   6.420
 9977SOL    HW130830   6.354   5.435   6.426
 9977SOL    HW230831   6.230   5.350   6.364
 9978SOL     OW30832   6.248   1.562   5.574
 9978SOL    HW130833   6.149   1.557   5.581
 9978SOL    HW230834   6.285   1.611   5.652
 9979SOL     OW30835   6.752   4.017   6.219
 9979SOL    HW130836   6.683   4.009   6.147
 9979SOL    HW230837   6.825   3.951   6.202
 9980SOL     OW30838   1.786   0.260   0.748
 9980SOL    HW130839   1.779   0.219   0.839
 9980SOL    HW230840   1.732   0.206   0.684
 9981SOL     OW30841   3.109   1.892   0.470
 9981SOL    HW130842   3.158   1.910   0.384
 9981SOL    HW230843   3.171   1.904   0.547
 9982SOL     OW30844   1.064   1.564   3.885
 9982SOL    HW130845   1.128   1.492   3.913
 9982SOL    HW230846   0.984   1.562   3.944
 9983SOL     OW30847   0.734   1.101   1.919
 9983SOL    HW130848   0.815   1.050   1.890
 9983SOL    HW230849   0.658   1.080   1.858
 9984SOL     OW30850   0.505   6.918   0.426
 9984SOL    HW130851   0.480   6.846   0.491
 9984SOL    HW230852   0.535   6.876   0.340
 9985SOL     OW30853   3.134   6.549   1.075
 9985SOL    HW130854   3.214   6.569   1.131
 9985SOL    HW230855   3.057   6.603   1.106
 9986SOL     OW30856   6.050   4.699   0.247
 9986SOL    HW130857   6.108   4.762   0.194
 9986SOL    HW230858   5.955   4.728   0.239
 9987SOL     OW30859   6.669   2.197   2.882
 9987SOL    HW130860   6.754   2.248   2.894
 9987SOL    HW230861   6.622   2.228   2.799
 9988SOL     OW30862   6.822   5.515   4.514
 9988SOL    HW130863   6.873   5.437   4.550
 9988SOL    HW230864   6.878   5.567   4.450
 9989SOL     OW30865   5.981   3.712   2.688
 9989SOL    HW130866   5.967   3.810   2.697
 9989SOL    HW230867   5.902   3.663   2.725
 9990SOL     OW30868   2.288   6.799   3.811
 9990SOL    HW130869   2.310   6.770   3.718
 9990SOL    HW230870   2.318   6.729   3.875
 9991SOL     OW30871   1.876   3.162   4.274
 9991SOL    HW130872   1.963   3.161   4.325
 9991SOL    HW230873   1.894   3.145   4.177
 9992SOL     OW30874   4.314   3.823   0.646
 9992SOL    HW130875   4.310   3.736   0.695
 9992SOL    HW230876   4.376   3.815   0.568
 9993SOL     OW30877   3.636   6.617   3.045
 9993SOL    HW130878   3.659   6.546   3.112
 9993SOL    HW230879   3.713   6.680   3.036
 9994SOL     OW30880   6.906   4.018   2.888
 9994SOL    HW130881   6.977   3.948   2.885
 9994SOL    HW230882   6.859   4.022   2.800
 9995SOL     OW30883   3.211   6.905   3.823
 9995SOL    HW130884   3.125   6.932   3.865
 9995SOL    HW230885   3.270   6.862   3.892
 9996SOL     OW30886   2.930   2.991   1.464
 9996SOL    HW130887   2.952   3.051   1.388
 9996SOL    HW230888   2.948   2.896   1.439
 9997SOL     OW30889   5.030   1.220   1.441
 9997SOL    HW130890   4.954   1.246   1.501
 9997SOL    HW230891   5.077   1.140   1.479
 9998SOL     OW30892   5.511   3.878   2.412
 9998SOL    HW130893   5.501   3.967   2.367
 9998SOL    HW230894   5.449   3.872   2.490
 9999SOL     OW30895   0.227   5.843   5.075
 9999SOL    HW130896   0.228   5.747   5.050
 9999SOL    HW230897   0.213   5.899   4.994
10000SOL     OW30898   5.863   1.931   6.566
10000SOL    HW130899   5.930   1.988   6.518
10000SOL    HW230900   5.905   1.844   6.590
10001SOL     OW30901   3.986   0.688   1.441
10001SOL    HW130902   3.895   0.727   1.423
10001SOL    HW230903   3.979   0.588   1.443
10002SOL     OW30904   1.365   1.026   1.539
10002SOL    HW130905   1.395   1.119   1.558
10002SOL    HW230906   1.301   0.996   1.609
10003SOL     OW30907   2.951   2.208   2.382
10003SOL    HW130908   2.939   2.279   2.312
10003SOL    HW230909   3.042   2.167   2.373
10004SOL     OW30910   5.568   3.190   5.428
10004SOL    HW130911   5.635   3.252   5.388
10004SOL    HW230912   5.493   3.177   5.363
10005SOL     OW30913   3.500   6.094   2.625
10005SOL    HW130914   3.443   6.092   2.543
10005SOL    HW230915   3.597   6.097   2.599
10006SOL     OW30916   5.887   0.474   5.680
10006SOL    HW130917   5.925   0.509   5.595
10006SOL    HW230918   5.934   0.390   5.706
10007SOL     OW30919   0.858   3.007   4.152
10007SOL    HW130920   0.917   2.948   4.097
10007SOL    HW230921   0.823   2.957   4.230
10008SOL     OW30922   3.989   1.275   3.440
10008SOL    HW130923   3.980   1.179   3.413
10008SOL    HW230924   3.973   1.333   3.360
10009SOL     OW30925   1.894   4.628   1.586
10009SOL    HW130926   1.866   4.563   1.657
10009SOL    HW230927   1.990   4.652   1.599
10010SOL     OW30928   2.245   5.672   0.315
10010SOL    HW130929   2.191   5.706   0.237
10010SOL    HW230930   2.289   5.586   0.290
10011SOL     OW30931   0.687   3.486   6.564
10011SOL    HW130932   0.777   3.507   6.603
10011SOL    HW230933   0.632   3.437   6.631
10012SOL     OW30934   5.681   6.480   2.153
10012SOL    HW130935   5.644   6.485   2.246
10012SOL    HW230936   5.633   6.409   2.101
10013SOL     OW30937   2.057   1.622   4.093
10013SOL    HW130938   2.120   1.571   4.034
10013SOL    HW230939   2.055   1.579   4.183
10014SOL     OW30940   0.625   1.829   1.583
10014SOL    HW130941   0.545   1.839   1.525
10014SOL    HW230942   0.597   1.836   1.679
10015SOL     OW30943   4.321   4.936   6.630
10015SOL    HW130944   4.361   4.939   6.721
10015SOL    HW230945   4.222   4.925   6.637
10016SOL     OW30946   1.355   0.490   4.580
10016SOL    HW130947   1.368   0.501   4.678
10016SOL    HW230948   1.284   0.552   4.548
10017SOL     OW30949   1.820   1.690   2.697
10017SOL    HW130950   1.843   1.718   2.604
10017SOL    HW230951   1.824   1.769   2.758
10018SOL     OW30952   6.721   4.556   6.363
10018SOL    HW130953   6.740   4.459   6.349
10018SOL    HW230954   6.729   4.578   6.461
10019SOL     OW30955   0.647   2.145   3.241
10019SOL    HW130956   0.569   2.208   3.239
10019SOL    HW230957   0.702   2.163   3.323
10020SOL     OW30958   0.083   1.056   1.519
10020SOL    HW130959   0.134   1.030   1.437
10020SOL    HW230960   0.132   1.026   1.600
10021SOL     OW30961   0.900   1.905   2.880
10021SOL    HW130962   0.862   1.930   2.791
10021SOL    HW230963   0.954   1.821   2.870
10022SOL     OW30964   4.135   6.815   1.104
10022SOL    HW130965   4.073   6.882   1.144
10022SOL    HW230966   4.146   6.833   1.007
10023SOL     OW30967   2.276   4.811   4.870
10023SOL    HW130968   2.223   4.861   4.802
10023SOL    HW230969   2.362   4.858   4.886
10024SOL     OW30970   1.622   6.316   1.899
10024SOL    HW130971   1.637   6.291   1.804
10024SOL    HW230972   1.554   6.390   1.904
10025SOL     OW30973   2.351   2.513   1.937
10025SOL    HW130974   2.346   2.480   2.031
10025SOL    HW230975   2.391   2.442   1.879
10026SOL     OW30976   4.678   6.795   2.926
10026SOL    HW130977   4.686   6.795   3.025
10026SOL    HW230978   4.761   6.756   2.885
10027SOL     OW30979   0.826   3.344   4.988
10027SOL    HW130980   0.864   3.344   4.896
10027SOL    HW230981   0.728   3.327   4.984
10028SOL     OW30982   0.973   1.437   1.776
10028SOL    HW130983   0.922   1.407   1.856
10028SOL    HW230984   0.912   1.445   1.698
10029SOL     OW30985   2.326   1.656   3.827
10029SOL    HW130986   2.299   1.571   3.873
10029SOL    HW230987   2.376   1.633   3.744
10030SOL     OW30988   2.898   0.401   4.289
10030SOL    HW130989   2.821   0.426   4.230
10030SOL    HW230990   2.870   0.407   4.384
10031SOL     OW30991   5.641   4.692   4.043
10031SOL    HW130992   5.650   4.622   4.113
10031SOL    HW230993   5.556   4.743   4.057
10032SOL     OW30994   3.698   0.788   5.142
10032SOL    HW130995   3.788   0.768   5.182
10032SOL    HW230996   3.631   0.800   5.215
10033SOL     OW30997   4.581   2.421   4.115
10033SOL    HW130998   4.646   2.345   4.114
10033SOL    HW230999   4.507   2.401   4.178
10034SOL     OW31000   3.495   0.273   4.172
10034SOL    HW131001   3.500   0.226   4.084
10034SOL    HW231002   3.549   0.223   4.240
10035SOL     OW31003   0.116   4.634   2.034
10035SOL    HW131004   0.158   4.690   1.963
10035SOL    HW231005   0.070   4.692   2.100
10036SOL     OW31006   6.017   0.841   1.149
10036SOL    HW131007   6.095   0.851   1.211
10036SOL    HW231008   6.043   0.869   1.057
10037SOL     OW31009   6.252   1.567   0.231
10037SOL    HW131010   6.292   1.475   0.229
10037SOL    HW231011   6.317   1.632   0.192
10038SOL     OW31012   4.414   0.731   6.622
10038SOL    HW131013   4.357   0.655   6.651
10038SOL    HW231014   4.362   0.790   6.560
10039SOL     OW31015   4.117   7.024   5.354
10039SOL    HW131016   4.117   6.944   5.294
10039SOL    HW231017   4.169   0.071   5.311
10040SOL     OW31018   4.318   5.983   6.127
10040SOL    HW131019   4.238   6.042   6.124
10040SOL    HW231020   4.390   6.022   6.070
10041SOL     OW31021   4.442   5.596   0.009
10041SOL    HW131022   4.396   5.617   6.950
10041SOL    HW231023   4.501   5.517   7.025
10042SOL     OW31024   1.303   1.914   5.295
10042SOL    HW131025   1.356   1.832   5.271
10042SOL    HW231026   1.360   1.974   5.351
10043SOL     OW31027   0.318   2.433   4.252
10043SOL    HW131028   0.339   2.340   4.280
10043SOL    HW231029   0.230   2.460   4.291
10044SOL     OW31030   3.031   1.757   4.933
10044SOL    HW131031   3.030   1.657   4.942
10044SOL    HW231032   2.987   1.798   5.013
10045SOL     OW31033   5.088   0.023   3.648
10045SOL    HW131034   4.992   0.043   3.626
10045SOL    HW231035   5.147   0.081   3.593
10046SOL     OW31036   2.101   3.442   1.401
10046SOL    HW131037   2.067   3.512   1.338
10046SOL    HW231038   2.032   3.371   1.413
10047SOL     OW31039   6.083   3.647   4.839
10047SOL    HW131040   6.145   3.576   4.873
10047SOL    HW231041   6.104   3.734   4.886
10048SOL     OW31042   6.354   0.977   2.439
10048SOL    HW131043   6.440   1.000   2.486
10048SOL    HW231044   6.278   0.982   2.504
10049SOL     OW31045   0.246   0.000   6.899
10049SOL    HW131046   0.231   6.929   6.904
10049SOL    HW231047   0.342   0.018   6.880
10050SOL     OW31048   5.805   2.595   4.177
10050SOL    HW131049   5.755   2.604   4.263
10050SOL    HW231050   5.754   2.536   4.115
10051SOL     OW31051   5.370   2.506   4.975
10051SOL    HW131052   5.461   2.463   4.978
10051SOL    HW231053   5.350   2.532   4.881
10052SOL     OW31054   2.413   2.104   2.937
10052SOL    HW131055   2.378   2.133   3.027
10052SOL    HW231056   2.427   2.005   2.937
10053SOL     OW31057   3.382   6.027   2.304
10053SOL    HW131058   3.394   6.120   2.339
10053SOL    HW231059   3.293   6.021   2.257
10054SOL     OW31060   5.359   5.199   6.512
10054SOL    HW131061   5.400   5.126   6.568
10054SOL    HW231062   5.260   5.191   6.516
10055SOL     OW31063   5.985   2.329   4.676
10055SOL    HW131064   6.018   2.324   4.582
10055SOL    HW231065   5.924   2.408   4.687
10056SOL     OW31066   5.578   4.123   3.255
10056SOL    HW131067   5.609   4.213   3.288
10056SOL    HW231068   5.600   4.054   3.323
10057SOL     OW31069   4.186   1.632   4.805
10057SOL    HW131070   4.149   1.700   4.869
10057SOL    HW231071   4.177   1.666   4.712
10058SOL     OW31072   0.437   3.905   4.528
10058SOL    HW131073   0.502   3.836   4.560
10058SOL    HW231074   0.428   3.899   4.428
10059SOL     OW31075   5.400   0.381   1.433
10059SOL    HW131076   5.312   0.419   1.460
10059SOL    HW231077   5.468   0.455   1.428
10060SOL     OW31078   1.437   1.586   1.254
10060SOL    HW131079   1.404   1.624   1.341
10060SOL    HW231080   1.521   1.634   1.226
10061SOL     OW31081   4.513   1.671   3.851
10061SOL    HW131082   4.604   1.711   3.836
10061SOL    HW231083   4.484   1.690   3.945
10062SOL     OW31084   5.956   0.334   4.167
10062SOL    HW131085   5.910   0.289   4.243
10062SOL    HW231086   5.976   0.267   4.095
10063SOL     OW31087   2.126   0.451   3.779
10063SOL    HW131088   2.149   0.485   3.688
10063SOL    HW231089   2.068   0.369   3.770
10064SOL     OW31090   5.070   6.805   6.859
10064SOL    HW131091   5.024   6.831   6.774
10064SOL    HW231092   5.116   6.885   6.897
10065SOL     OW31093   2.216   0.226   1.793
10065SOL    HW131094   2.119   0.245   1.778
10065SOL    HW231095   2.239   0.245   1.888
10066SOL     OW31096   0.781   2.402   3.819
10066SOL    HW131097   0.774   2.309   3.855
10066SOL    HW231098   0.733   2.465   3.880
10067SOL     OW31099   6.719   4.101   5.261
10067SOL    HW131100   6.730   4.055   5.173
10067SOL    HW231101   6.775   4.183   5.263
10068SOL     OW31102   0.320   3.336   3.108
10068SOL    HW131103   0.322   3.262   3.175
10068SOL    HW231104   0.392   3.403   3.131
10069SOL     OW31105   2.272   5.203   2.453
10069SOL    HW131106   2.290   5.279   2.390
10069SOL    HW231107   2.288   5.234   2.547
10070SOL     OW31108   6.545   6.668   4.940
10070SOL    HW131109   6.522   6.629   4.851
10070SOL    HW231110   6.638   6.707   4.936
10071SOL     OW31111   6.237   5.833   4.579
10071SOL    HW131112   6.156   5.780   4.556
10071SOL    HW231113   6.235   5.858   4.676
10072SOL     OW31114   6.773   6.546   3.815
10072SOL    HW131115   6.851   6.487   3.796
10072SOL    HW231116   6.693   6.489   3.838
10073SOL     OW31117   6.188   4.389   5.378
10073SOL    HW131118   6.226   4.328   5.309
10073SOL    HW231119   6.089   4.380   5.381
10074SOL     OW31120   1.706   0.552   5.413
10074SOL    HW131121   1.803   0.562   5.392
10074SOL    HW231122   1.653   0.621   5.365
10075SOL     OW31123   1.791   2.575   3.048
10075SOL    HW131124   1.745   2.511   2.986
10075SOL    HW231125   1.837   2.523   3.121
10076SOL     OW31126   0.053   0.550   4.455
10076SOL    HW131127   7.026   0.588   4.381
10076SOL    HW231128   0.069   0.453   4.438
10077SOL     OW31129   4.025   2.720   6.283
10077SOL    HW131130   4.102   2.779   6.308
10077SOL    HW231131   3.942   2.775   6.278
10078SOL     OW31132   0.646   6.045   3.583
10078SOL    HW131133   0.641   5.959   3.633
10078SOL    HW231134   0.554   6.077   3.561
10079SOL     OW31135   6.373   3.939   3.428
10079SOL    HW131136   6.304   3.935   3.355
10079SOL    HW231137   6.340   3.999   3.501
10080SOL     OW31138   4.288   1.080   5.609
10080SOL    HW131139   4.388   1.083   5.614
10080SOL    HW231140   4.254   1.007   5.669
10081SOL     OW31141   6.802   0.390   1.057
10081SOL    HW131142   6.744   0.311   1.077
10081SOL    HW231143   6.864   0.407   1.134
10082SOL     OW31144   0.653   5.294   1.843
10082SOL    HW131145   0.677   5.222   1.908
10082SOL    HW231146   0.570   5.268   1.794
10083SOL     OW31147   3.972   1.001   3.526
10083SOL    HW131148   4.054   0.976   3.579
10083SOL    HW231149   3.949   0.928   3.463
10084SOL     OW31150   1.796   1.089   5.446
10084SOL    HW131151   1.789   1.182   5.481
10084SOL    HW231152   1.708   1.042   5.457
10085SOL     OW31153   2.584   5.978   1.106
10085SOL    HW131154   2.604   5.884   1.135
10085SOL    HW231155   2.486   5.996   1.115
10086SOL     OW31156   4.232   5.936   2.110
10086SOL    HW131157   4.231   5.844   2.149
10086SOL    HW231158   4.237   5.930   2.010
10087SOL     OW31159   6.747   6.990   3.919
10087SOL    HW131160   6.845   7.007   3.906
10087SOL    HW231161   6.734   6.909   3.976
10088SOL     OW31162   6.583   0.049   1.718
10088SOL    HW131163   6.484   0.054   1.733
10088SOL    HW231164   6.601   0.044   1.619
10089SOL     OW31165   3.075   1.692   2.617
10089SOL    HW131166   3.031   1.692   2.528
10089SOL    HW231167   3.106   1.784   2.639
10090SOL     OW31168   1.142   4.641   1.792
10090SOL    HW131169   1.131   4.741   1.795
10090SOL    HW231170   1.088   4.605   1.716
10091SOL     OW31171   0.508   4.035   6.519
10091SOL    HW131172   0.538   4.109   6.459
10091SOL    HW231173   0.461   4.073   6.598
10092SOL     OW31174   2.345   2.262   5.642
10092SOL    HW131175   2.421   2.261   5.576
10092SOL    HW231176   2.291   2.179   5.631
10093SOL     OW31177   6.204   3.265   4.719
10093SOL    HW131178   6.236   3.346   4.769
10093SOL    HW231179   6.104   3.265   4.716
10094SOL     OW31180   3.623   5.764   1.370
10094SOL    HW131181   3.715   5.797   1.346
10094SOL    HW231182   3.565   5.767   1.289
10095SOL     OW31183   5.859   1.975   5.428
10095SOL    HW131184   5.939   1.988   5.486
10095SOL    HW231185   5.777   2.003   5.478
10096SOL     OW31186   4.479   5.451   2.936
10096SOL    HW131187   4.413   5.496   2.876
10096SOL    HW231188   4.456   5.354   2.944
10097SOL     OW31189   0.994   1.189   0.152
10097SOL    HW131190   1.027   1.265   0.096
10097SOL    HW231191   1.040   1.192   0.241
10098SOL     OW31192   2.462   6.950   5.207
10098SOL    HW131193   2.499   0.009   5.172
10098SOL    HW231194   2.475   6.945   5.306
10099SOL     OW31195   0.383   5.282   1.185
10099SOL    HW131196   0.451   5.312   1.251
10099SOL    HW231197   0.401   5.188   1.158
10100SOL     OW31198   4.794   6.587   4.897
10100SOL    HW131199   4.891   6.589   4.922
10100SOL    HW231200   4.780   6.519   4.825
10101SOL     OW31201   6.263   3.977   2.033
10101SOL    HW131202   6.244   4.058   2.089
10101SOL    HW231203   6.193   3.908   2.050
10102SOL     OW31204   0.465   1.397   2.563
10102SOL    HW131205   0.419   1.365   2.480
10102SOL    HW231206   0.467   1.497   2.563
10103SOL     OW31207   2.609   0.624   5.722
10103SOL    HW131208   2.562   0.596   5.806
10103SOL    HW231209   2.603   0.552   5.654
10104SOL     OW31210   2.219   1.732   4.490
10104SOL    HW131211   2.133   1.766   4.453
10104SOL    HW231212   2.271   1.686   4.418
10105SOL     OW31213   1.640   0.933   6.896
10105SOL    HW131214   1.615   0.973   6.984
10105SOL    HW231215   1.677   0.841   6.910
10106SOL     OW31216   3.683   6.268   0.056
10106SOL    HW131217   3.692   6.316   0.143
10106SOL    HW231218   3.587   6.246   0.040
10107SOL     OW31219   5.939   1.220   5.623
10107SOL    HW131220   5.886   1.143   5.659
10107SOL    HW231221   6.018   1.185   5.571
10108SOL     OW31222   6.465   0.518   6.990
10108SOL    HW131223   6.513   0.433   6.968
10108SOL    HW231224   6.521   0.596   6.961
10109SOL     OW31225   5.618   1.069   0.436
10109SOL    HW131226   5.579   0.983   0.469
10109SOL    HW231227   5.675   1.051   0.356
10110SOL     OW31228   4.138   4.877   4.793
10110SOL    HW131229   4.169   4.862   4.887
10110SOL    HW231230   4.042   4.907   4.793
10111SOL     OW31231   5.857   3.828   3.621
10111SOL    HW131232   5.840   3.734   3.592
10111SOL    HW231233   5.875   3.830   3.719
10112SOL     OW31234   5.741   3.951   3.403
10112SOL    HW131235   5.815   4.019   3.401
10112SOL    HW231236   5.761   3.883   3.473
10113SOL     OW31237   4.060   0.312   6.863
10113SOL    HW131238   4.043   0.410   6.878
10113SOL    HW231239   4.104   0.298   6.775
10114SOL     OW31240   4.488   1.894   1.635
10114SOL    HW131241   4.446   1.969   1.687
10114SOL    HW231242   4.564   1.929   1.581
10115SOL     OW31243   3.532   0.568   5.131
10115SOL    HW131244   3.500   0.519   5.050
10115SOL    HW231245   3.607   0.629   5.105
10116SOL     OW31246   0.338   6.752   0.134
10116SOL    HW131247   0.433   6.775   0.155
10116SOL    HW231248   0.335   6.691   0.055
10117SOL     OW31249   6.937   6.382   6.524
10117SOL    HW131250   6.852   6.413   6.479
10117SOL    HW231251   7.013   6.390   6.459
10118SOL     OW31252   2.315   4.600   2.553
10118SOL    HW131253   2.272   4.572   2.639
10118SOL    HW231254   2.321   4.521   2.492
10119SOL     OW31255   0.310   5.910   4.826
10119SOL    HW131256   0.255   5.989   4.799
10119SOL    HW231257   0.394   5.908   4.772
10120SOL     OW31258   2.144   3.136   4.352
10120SOL    HW131259   2.185   3.143   4.443
10120SOL    HW231260   2.211   3.101   4.288
10121SOL     OW31261   5.852   3.420   0.103
10121SOL    HW131262   5.824   3.515   0.094
10121SOL    HW231263   5.951   3.416   0.115
10122SOL     OW31264   5.740   2.979   2.539
10122SOL    HW131265   5.786   2.895   2.569
10122SOL    HW231266   5.773   3.056   2.592
10123SOL     OW31267   5.126   5.736   0.448
10123SOL    HW131268   5.226   5.736   0.456
10123SOL    HW231269   5.090   5.651   0.485
10124SOL     OW31270   1.347   4.648   0.579
10124SOL    HW131271   1.440   4.646   0.542
10124SOL    HW231272   1.347   4.693   0.668
10125SOL     OW31273   1.496   1.262   2.152
10125SOL    HW131274   1.434   1.257   2.231
10125SOL    HW231275   1.460   1.204   2.079
10126SOL     OW31276   6.813   0.095   6.925
10126SOL    HW131277   6.832   0.072   7.021
10126SOL    HW231278   6.893   0.139   6.885
10127SOL     OW31279   2.938   4.374   6.310
10127SOL    HW131280   3.031   4.355   6.277
10127SOL    HW231281   2.873   4.361   6.235
10128SOL     OW31282   3.098   1.059   0.112
10128SOL    HW131283   3.067   0.986   0.051
10128SOL    HW231284   3.020   1.115   0.139
10129SOL     OW31285   6.323   1.473   2.638
10129SOL    HW131286   6.405   1.416   2.635
10129SOL    HW231287   6.251   1.430   2.584
10130SOL     OW31288   1.262   2.343   1.068
10130SOL    HW131289   1.310   2.258   1.045
10130SOL    HW231290   1.247   2.346   1.166
10131SOL     OW31291   1.405   6.477   4.790
10131SOL    HW131292   1.427   6.431   4.877
10131SOL    HW231293   1.452   6.565   4.787
10132SOL     OW31294   3.405   0.568   4.098
10132SOL    HW131295   3.346   0.596   4.174
10132SOL    HW231296   3.424   0.470   4.105
10133SOL     OW31297   4.084   6.365   0.155
10133SOL    HW131298   4.050   6.458   0.170
10133SOL    HW231299   4.039   6.326   0.076
10134SOL     OW31300   6.517   6.970   2.363
10134SOL    HW131301   6.564   6.936   2.445
10134SOL    HW231302   6.498   6.893   2.302
10135SOL     OW31303   4.904   3.412   3.338
10135SOL    HW131304   4.965   3.334   3.353
10135SOL    HW231305   4.876   3.415   3.242
10136SOL     OW31306   5.225   1.486   2.256
10136SOL    HW131307   5.316   1.456   2.282
10136SOL    HW231308   5.229   1.538   2.171
10137SOL     OW31309   0.231   3.343   4.356
10137SOL    HW131310   0.248   3.403   4.279
10137SOL    HW231311   0.133   3.341   4.376
10138SOL     OW31312   5.641   3.789   0.581
10138SOL    HW131313   5.636   3.752   0.488
10138SOL    HW231314   5.716   3.854   0.587
10139SOL     OW31315   2.989   3.511   3.403
10139SOL    HW131316   2.962   3.559   3.486
10139SOL    HW231317   2.921   3.525   3.332
10140SOL     OW31318   6.586   5.919   0.061
10140SOL    HW131319   6.536   5.864   0.128
10140SOL    HW231320   6.597   6.012   0.096
10141SOL     OW31321   3.947   1.041   5.974
10141SOL    HW131322   4.002   0.976   6.027
10141SOL    HW231323   3.954   1.017   5.877
10142SOL     OW31324   6.670   0.110   5.846
10142SOL    HW131325   6.609   0.168   5.901
10142SOL    HW231326   6.622   0.080   5.764
10143SOL     OW31327   5.325   1.361   0.469
10143SOL    HW131328   5.234   1.398   0.452
10143SOL    HW231329   5.348   1.372   0.565
10144SOL     OW31330   3.752   0.708   6.077
10144SOL    HW131331   3.812   0.683   6.153
10144SOL    HW231332   3.727   0.804   6.083
10145SOL     OW31333   3.242   5.523   3.850
10145SOL    HW131334   3.190   5.526   3.764
10145SOL    HW231335   3.291   5.436   3.857
10146SOL     OW31336   4.675   4.315   4.874
10146SOL    HW131337   4.583   4.298   4.910
10146SOL    HW231338   4.686   4.268   4.787
10147SOL     OW31339   5.135   4.290   6.095
10147SOL    HW131340   5.183   4.300   6.182
10147SOL    HW231341   5.088   4.202   6.092
10148SOL     OW31342   5.045   4.699   6.130
10148SOL    HW131343   5.017   4.717   6.224
10148SOL    HW231344   5.129   4.750   6.109
10149SOL     OW31345   5.814   3.478   1.780
10149SOL    HW131346   5.882   3.417   1.739
10149SOL    HW231347   5.787   3.547   1.713
10150SOL     OW31348   3.604   3.146   1.131
10150SOL    HW131349   3.609   3.195   1.218
10150SOL    HW231350   3.550   3.199   1.066
10151SOL     OW31351   0.634   5.823   0.055
10151SOL    HW131352   0.682   5.735   0.059
10151SOL    HW231353   0.702   5.897   0.052
10152SOL     OW31354   6.689   6.449   4.199
10152SOL    HW131355   6.590   6.452   4.215
10152SOL    HW231356   6.712   6.370   4.142
10153SOL     OW31357   4.677   5.850   3.047
10153SOL    HW131358   4.774   5.850   3.072
10153SOL    HW231359   4.632   5.773   3.091
10154SOL     OW31360   4.077   6.035   4.796
10154SOL    HW131361   3.991   6.028   4.745
10154SOL    HW231362   4.148   6.071   4.736
10155SOL     OW31363   3.656   2.275   6.442
10155SOL    HW131364   3.679   2.332   6.521
10155SOL    HW231365   3.702   2.186   6.450
10156SOL     OW31366   5.118   0.602   2.177
10156SOL    HW131367   5.149   0.533   2.242
10156SOL    HW231368   5.043   0.655   2.217
10157SOL     OW31369   0.364   1.846   0.294
10157SOL    HW131370   0.406   1.834   0.204
10157SOL    HW231371   0.277   1.895   0.284
10158SOL     OW31372   6.218   5.759   0.830
10158SOL    HW131373   6.170   5.737   0.745
10158SOL    HW231374   6.253   5.853   0.825
10159SOL     OW31375   2.764   2.917   0.597
10159SOL    HW131376   2.778   2.970   0.681
10159SOL    HW231377   2.688   2.955   0.545
10160SOL     OW31378   1.354   2.777   2.218
10160SOL    HW131379   1.326   2.704   2.155
10160SOL    HW231380   1.454   2.774   2.229
10161SOL     OW31381   4.254   4.019   0.802
10161SOL    HW131382   4.297   3.947   0.748
10161SOL    HW231383   4.213   3.979   0.884
10162SOL     OW31384   4.096   4.726   0.602
10162SOL    HW131385   4.060   4.633   0.592
10162SOL    HW231386   4.106   4.768   0.512
10163SOL     OW31387   6.682   3.974   0.193
10163SOL    HW131388   6.682   4.074   0.190
10163SOL    HW231389   6.589   3.941   0.204
10164SOL     OW31390   5.939   3.510   4.064
10164SOL    HW131391   6.026   3.465   4.046
10164SOL    HW231392   5.941   3.553   4.154
10165SOL     OW31393   6.722   1.056   3.661
10165SOL    HW131394   6.701   0.994   3.736
10165SOL    HW231395   6.745   1.146   3.697
10166SOL     OW31396   3.632   1.793   2.090
10166SOL    HW131397   3.586   1.877   2.065
10166SOL    HW231398   3.590   1.716   2.043
10167SOL     OW31399   1.152   4.564   0.018
10167SOL    HW131400   1.184   4.522   0.102
10167SOL    HW231401   1.229   4.579   6.984
10168SOL     OW31402   6.396   2.691   6.038
10168SOL    HW131403   6.359   2.739   5.958
10168SOL    HW231404   6.481   2.735   6.068
10169SOL     OW31405   0.397   4.034   3.629
10169SOL    HW131406   0.459   4.058   3.703
10169SOL    HW231407   0.413   3.939   3.601
10170SOL     OW31408   6.289   5.353   5.599
10170SOL    HW131409   6.221   5.380   5.666
10170SOL    HW231410   6.309   5.255   5.608
10171SOL     OW31411   0.261   2.210   5.084
10171SOL    HW131412   0.307   2.297   5.068
10171SOL    HW231413   0.199   2.219   5.162
10172SOL     OW31414   1.082   5.614   5.238
10172SOL    HW131415   0.996   5.585   5.196
10172SOL    HW231416   1.157   5.558   5.202
10173SOL     OW31417   2.314   2.515   0.576
10173SOL    HW131418   2.263   2.571   0.641
10173SOL    HW231419   2.305   2.418   0.600
10174SOL     OW31420   4.984   4.898   3.511
10174SOL    HW131421   4.982   4.855   3.420
10174SOL    HW231422   4.916   4.971   3.515
10175SOL     OW31423   5.365   2.346   3.208
10175SOL    HW131424   5.346   2.329   3.112
10175SOL    HW231425   5.328   2.435   3.234
10176SOL     OW31426   0.553   3.274   4.994
10176SOL    HW131427   0.532   3.358   5.044
10176SOL    HW231428   0.501   3.198   5.032
10177SOL     OW31429   2.084   1.084   1.499
10177SOL    HW131430   2.021   1.007   1.514
10177SOL    HW231431   2.037   1.156   1.449
10178SOL     OW31432   6.756   0.674   0.246
10178SOL    HW131433   6.664   0.708   0.229
10178SOL    HW231434   6.808   0.674   0.160
10179SOL     OW31435   0.320   2.408   6.998
10179SOL    HW131436   0.257   2.485   6.984
10179SOL    HW231437   0.410   2.431   6.960
10180SOL     OW31438   4.153   0.855   6.135
10180SOL    HW131439   4.212   0.780   6.165
10180SOL    HW231440   4.102   0.891   6.213
10181SOL     OW31441   6.497   3.360   1.839
10181SOL    HW131442   6.468   3.273   1.878
10181SOL    HW231443   6.486   3.433   1.907
10182SOL     OW31444   4.405   0.926   1.689
10182SOL    HW131445   4.316   0.943   1.645
10182SOL    HW231446   4.445   1.014   1.717
10183SOL     OW31447   6.732   2.822   6.247
10183SOL    HW131448   6.824   2.861   6.240
10183SOL    HW231449   6.682   2.839   6.162
10184SOL     OW31450   4.272   1.527   6.309
10184SOL    HW131451   4.354   1.582   6.326
10184SOL    HW231452   4.291   1.462   6.235
10185SOL     OW31453   5.796   6.054   3.263
10185SOL    HW131454   5.709   6.007   3.282
10185SOL    HW231455   5.780   6.127   3.197
10186SOL     OW31456   5.016   4.133   4.150
10186SOL    HW131457   4.980   4.082   4.072
10186SOL    HW231458   4.941   4.153   4.214
10187SOL     OW31459   1.446   3.860   6.477
10187SOL    HW131460   1.449   3.815   6.388
10187SOL    HW231461   1.473   3.795   6.549
10188SOL     OW31462   3.897   4.153   0.375
10188SOL    HW131463   3.908   4.055   0.388
10188SOL    HW231464   3.970   4.188   0.317
10189SOL     OW31465   0.331   0.720   0.101
10189SOL    HW131466   0.263   0.708   0.173
10189SOL    HW231467   0.303   0.793   0.039
10190SOL     OW31468   3.992   3.019   1.297
10190SOL    HW131469   4.064   2.954   1.322
10190SOL    HW231470   3.921   2.971   1.246
10191SOL     OW31471   4.688   5.786   6.681
10191SOL    HW131472   4.597   5.753   6.657
10191SOL    HW231473   4.746   5.787   6.600
10192SOL     OW31474   3.899   1.537   5.554
10192SOL    HW131475   3.876   1.603   5.625
10192SOL    HW231476   3.816   1.491   5.523
10193SOL     OW31477   3.832   2.931   2.049
10193SOL    HW131478   3.767   2.922   2.124
10193SOL    HW231479   3.907   2.991   2.077
10194SOL     OW31480   4.698   0.113   5.734
10194SOL    HW131481   4.654   0.031   5.769
10194SOL    HW231482   4.707   0.107   5.635
10195SOL     OW31483   6.799   6.104   0.475
10195SOL    HW131484   6.883   6.138   0.433
10195SOL    HW231485   6.798   6.126   0.572
10196SOL     OW31486   3.890   2.141   3.726
10196SOL    HW131487   3.933   2.066   3.675
10196SOL    HW231488   3.791   2.138   3.713
10197SOL     OW31489   5.486   1.920   4.638
10197SOL    HW131490   5.460   1.919   4.735
10197SOL    HW231491   5.563   1.859   4.623
10198SOL     OW31492   2.578   6.620   2.253
10198SOL    HW131493   2.548   6.527   2.231
10198SOL    HW231494   2.605   6.625   2.349
10199SOL     OW31495   1.255   2.808   0.858
10199SOL    HW131496   1.178   2.777   0.803
10199SOL    HW231497   1.315   2.730   0.879
10200SOL     OW31498   4.638   3.114   5.331
10200SOL    HW131499   4.547   3.108   5.372
10200SOL    HW231500   4.649   3.043   5.262
10201SOL     OW31501   1.731   5.501   0.014
10201SOL    HW131502   1.690   5.490   0.104
10201SOL    HW231503   1.781   5.588   0.009
10202SOL     OW31504   3.046   4.813   0.093
10202SOL    HW131505   3.049   4.734   0.032
10202SOL    HW231506   3.110   4.883   0.061
10203SOL     OW31507   6.975   3.324   2.052
10203SOL    HW131508   6.885   3.369   2.051
10203SOL    HW231509   6.981   3.263   2.131
10204SOL     OW31510   4.647   5.368   6.304
10204SOL    HW131511   4.614   5.379   6.210
10204SOL    HW231512   4.569   5.356   6.365
10205SOL     OW31513   2.426   1.248   2.390
10205SOL    HW131514   2.369   1.166   2.394
10205SOL    HW231515   2.385   1.321   2.445
10206SOL     OW31516   6.955   0.382   6.879
10206SOL    HW131517   6.988   0.428   6.796
10206SOL    HW231518   7.021   0.314   6.909
10207SOL     OW31519   1.070   1.684   0.050
10207SOL    HW131520   0.999   1.612   0.053
10207SOL    HW231521   1.152   1.651   0.096
10208SOL     OW31522   6.406   5.549   4.007
10208SOL    HW131523   6.444   5.483   3.942
10208SOL    HW231524   6.397   5.506   4.097
10209SOL     OW31525   0.112   6.737   6.841
10209SOL    HW131526   0.024   6.783   6.855
10209SOL    HW231527   0.144   6.752   6.748
10210SOL     OW31528   4.469   6.447   0.713
10210SOL    HW131529   4.557   6.407   0.688
10210SOL    HW231530   4.409   6.376   0.750
10211SOL     OW31531   4.741   6.363   4.712
10211SOL    HW131532   4.641   6.364   4.713
10211SOL    HW231533   4.773   6.269   4.717
10212SOL     OW31534   6.905   6.996   5.770
10212SOL    HW131535   6.813   0.004   5.787
10212SOL    HW231536   6.911   6.901   5.799
10213SOL     OW31537   5.215   3.193   1.779
10213SOL    HW131538   5.156   3.232   1.708
10213SOL    HW231539   5.161   3.133   1.837
10214SOL     OW31540   0.406   1.656   1.801
10214SOL    HW131541   0.454   1.739   1.826
10214SOL    HW231542   0.354   1.622   1.879
10215SOL     OW31543   3.705   3.162   3.866
10215SOL    HW131544   3.650   3.138   3.946
10215SOL    HW231545   3.679   3.104   3.789
10216SOL     OW31546   0.519   1.266   0.779
10216SOL    HW131547   0.517   1.204   0.700
10216SOL    HW231548   0.463   1.347   0.759
10217SOL     OW31549   2.190   2.179   3.926
10217SOL    HW131550   2.239   2.239   3.864
10217SOL    HW231551   2.114   2.229   3.968
10218SOL     OW31552   0.754   0.949   1.528
10218SOL    HW131553   0.850   0.932   1.506
10218SOL    HW231554   0.696   0.898   1.464
10219SOL     OW31555   6.964   2.211   2.628
10219SOL    HW131556   6.930   2.132   2.578
10219SOL    HW231557   6.969   2.290   2.566
10220SOL     OW31558   4.461   1.412   1.720
10220SOL    HW131559   4.382   1.365   1.681
10220SOL    HW231560   4.501   1.473   1.651
10221SOL     OW31561   1.851   3.826   4.773
10221SOL    HW131562   1.947   3.835   4.747
10221SOL    HW231563   1.844   3.765   4.852
10222SOL     OW31564   3.170   4.274   5.559
10222SOL    HW131565   3.267   4.250   5.555
10222SOL    HW231566   3.153   4.351   5.497
10223SOL     OW31567   2.854   5.370   0.430
10223SOL    HW131568   2.934   5.368   0.369
10223SOL    HW231569   2.864   5.298   0.499
10224SOL     OW31570   6.534   2.005   5.359
10224SOL    HW131571   6.539   2.051   5.270
10224SOL    HW231572   6.625   1.972   5.385
10225SOL     OW31573   1.691   6.136   5.979
10225SOL    HW131574   1.660   6.043   6.000
10225SOL    HW231575   1.778   6.133   5.931
10226SOL     OW31576   2.177   0.260   6.315
10226SOL    HW131577   2.146   0.213   6.233
10226SOL    HW231578   2.098   0.279   6.374
10227SOL     OW31579   4.998   4.210   0.091
10227SOL    HW131580   5.043   4.211   0.002
10227SOL    HW231581   5.044   4.275   0.152
10228SOL     OW31582   1.261   5.924   2.081
10228SOL    HW131583   1.242   6.010   2.034
10228SOL    HW231584   1.344   5.883   2.044
10229SOL     OW31585   2.022   2.291   4.376
10229SOL    HW131586   2.102   2.349   4.396
10229SOL    HW231587   2.035   2.201   4.416
10230SOL     OW31588   6.530   0.031   3.266
10230SOL    HW131589   6.607   7.007   3.303
10230SOL    HW231590   6.498   7.015   3.181
10231SOL     OW31591   6.434   4.841   5.307
10231SOL    HW131592   6.411   4.896   5.227
10231SOL    HW231593   6.416   4.893   5.390
10232SOL     OW31594   3.019   1.548   3.982
10232SOL    HW131595   3.042   1.583   4.073
10232SOL    HW231596   3.103   1.543   3.926
10233SOL     OW31597   4.069   3.941   5.399
10233SOL    HW131598   4.153   3.915   5.352
10233SOL    HW231599   3.990   3.926   5.339
10234SOL     OW31600   5.982   1.454   0.447
10234SOL    HW131601   6.002   1.523   0.378
10234SOL    HW231602   6.036   1.472   0.529
10235SOL     OW31603   3.098   1.860   0.980
10235SOL    HW131604   3.072   1.771   1.018
10235SOL    HW231605   3.195   1.861   0.958
10236SOL     OW31606   1.688   1.223   1.457
10236SOL    HW131607   1.602   1.222   1.405
10236SOL    HW231608   1.760   1.265   1.402
10237SOL     OW31609   0.219   3.790   6.458
10237SOL    HW131610   0.220   3.759   6.553
10237SOL    HW231611   0.128   3.778   6.419
10238SOL     OW31612   3.723   3.894   2.207
10238SOL    HW131613   3.813   3.900   2.250
10238SOL    HW231614   3.708   3.975   2.150
10239SOL     OW31615   1.862   3.694   5.936
10239SOL    HW131616   1.849   3.626   6.008
10239SOL    HW231617   1.931   3.661   5.872
10240SOL     OW31618   2.195   3.944   2.864
10240SOL    HW131619   2.147   4.031   2.849
10240SOL    HW231620   2.269   3.935   2.798
10241SOL     OW31621   0.002   6.106   3.500
10241SOL    HW131622   0.076   6.151   3.449
10241SOL    HW231623   6.976   6.049   3.437
10242SOL     OW31624   0.065   1.390   1.765
10242SOL    HW131625   0.126   1.365   1.689
10242SOL    HW231626   0.009   1.468   1.738
10243SOL     OW31627   2.432   4.886   2.316
10243SOL    HW131628   2.345   4.877   2.365
10243SOL    HW231629   2.506   4.852   2.374
10244SOL     OW31630   1.922   4.529   0.938
10244SOL    HW131631   1.899   4.619   0.901
10244SOL    HW231632   1.900   4.527   1.036
10245SOL     OW31633   3.790   4.790   0.569
10245SOL    HW131634   3.747   4.880   0.578
10245SOL    HW231635   3.880   4.792   0.611
10246SOL     OW31636   2.938   3.512   3.855
10246SOL    HW131637   2.985   3.427   3.829
10246SOL    HW231638   2.953   3.530   3.952
10247SOL     OW31639   0.226   3.800   6.126
10247SOL    HW131640   0.162   3.871   6.156
10247SOL    HW231641   0.192   3.710   6.152
10248SOL     OW31642   1.747   0.038   2.968
10248SOL    HW131643   1.783   6.974   2.949
10248SOL    HW231644   1.808   0.086   3.031
10249SOL     OW31645   2.365   6.738   6.557
10249SOL    HW131646   2.331   6.645   6.541
10249SOL    HW231647   2.291   6.803   6.543
10250SOL     OW31648   6.150   2.798   2.105
10250SOL    HW131649   6.157   2.898   2.111
10250SOL    HW231650   6.072   2.773   2.048
10251SOL     OW31651   2.331   1.402   4.338
10251SOL    HW131652   2.388   1.388   4.419
10251SOL    HW231653   2.280   1.319   4.318
10252SOL     OW31654   4.112   5.313   6.530
10252SOL    HW131655   4.106   5.230   6.474
10252SOL    HW231656   4.022   5.332   6.571
10253SOL     OW31657   3.328   6.961   0.328
10253SOL    HW131658   3.279   6.893   0.383
10253SOL    HW231659   3.297   0.026   0.354
10254SOL     OW31660   4.773   0.965   5.448
10254SOL    HW131661   4.687   1.012   5.427
10254SOL    HW231662   4.807   0.919   5.365
10255SOL     OW31663   2.300   6.295   0.671
10255SOL    HW131664   2.283   6.200   0.694
10255SOL    HW231665   2.244   6.354   0.728
10256SOL     OW31666   5.350   1.242   1.518
10256SOL    HW131667   5.330   1.144   1.516
10256SOL    HW231668   5.318   1.284   1.433
10257SOL     OW31669   2.007   4.884   4.345
10257SOL    HW131670   2.070   4.914   4.417
10257SOL    HW231671   2.036   4.923   4.257
10258SOL     OW31672   3.114   1.123   4.153
10258SOL    HW131673   3.200   1.167   4.179
10258SOL    HW231674   3.066   1.179   4.086
10259SOL     OW31675   0.505   5.066   3.265
10259SOL    HW131676   0.525   5.055   3.362
10259SOL    HW231677   0.419   5.117   3.253
10260SOL     OW31678   1.152   0.928   4.070
10260SOL    HW131679   1.122   0.981   3.991
10260SOL    HW231680   1.163   0.832   4.043
10261SOL     OW31681   0.047   5.173   3.087
10261SOL    HW131682   0.022   5.136   2.998
10261SOL    HW231683   0.011   5.113   3.159
10262SOL     OW31684   2.036   0.100   5.302
10262SOL    HW131685   2.082   0.123   5.217
10262SOL    HW231686   2.022   0.001   5.307
10263SOL     OW31687   5.311   0.536   6.918
10263SOL    HW131688   5.375   0.472   6.961
10263SOL    HW231689   5.240   0.486   6.870
10264SOL     OW31690   6.150   0.299   6.880
10264SOL    HW131691   6.238   0.293   6.927
10264SOL    HW231692   6.077   0.301   6.948
10265SOL     OW31693   2.131   2.943   1.367
10265SOL    HW131694   2.124   2.848   1.398
10265SOL    HW231695   2.146   3.003   1.446
10266SOL     OW31696   4.044   3.403   3.834
10266SOL    HW131697   4.055   3.471   3.761
10266SOL    HW231698   4.058   3.446   3.923
10267SOL     OW31699   5.705   2.591   6.415
10267SOL    HW131700   5.705   2.496   6.447
10267SOL    HW231701   5.694   2.653   6.493
10268SOL     OW31702   6.394   6.024   2.464
10268SOL    HW131703   6.300   6.053   2.447
10268SOL    HW231704   6.395   5.928   2.492
10269SOL     OW31705   0.345   3.154   6.890
10269SOL    HW131706   0.332   3.189   6.983
10269SOL    HW231707   0.349   3.055   6.892
10270SOL     OW31708   4.021   4.797   2.734
10270SOL    HW131709   4.066   4.791   2.823
10270SOL    HW231710   4.061   4.730   2.672
10271SOL     OW31711   3.177   2.689   5.585
10271SOL    HW131712   3.133   2.773   5.618
10271SOL    HW231713   3.213   2.704   5.493
10272SOL     OW31714   1.314   1.438   4.760
10272SOL    HW131715   1.228   1.449   4.809
10272SOL    HW231716   1.383   1.499   4.799
10273SOL     OW31717   2.953   5.935   2.656
10273SOL    HW131718   2.956   6.028   2.621
10273SOL    HW231719   2.959   5.870   2.579
10274SOL     OW31720   0.463   5.218   4.982
10274SOL    HW131721   0.506   5.132   5.013
10274SOL    HW231722   0.471   5.225   4.883
10275SOL     OW31723   0.344   6.293   1.611
10275SOL    HW131724   0.319   6.328   1.521
10275SOL    HW231725   0.284   6.333   1.680
10276SOL     OW31726   5.516   4.990   5.366
10276SOL    HW131727   5.468   5.064   5.318
10276SOL    HW231728   5.552   5.024   5.452
10277SOL     OW31729   1.463   5.510   3.369
10277SOL    HW131730   1.562   5.496   3.364
10277SOL    HW231731   1.417   5.448   3.306
10278SOL     OW31732   0.317   1.853   4.624
10278SOL    HW131733   0.306   1.885   4.718
10278SOL    HW231734   0.278   1.761   4.616
10279SOL     OW31735   2.500   5.157   3.922
10279SOL    HW131736   2.586   5.110   3.902
10279SOL    HW231737   2.461   5.121   4.007
10280SOL     OW31738   0.259   3.249   0.694
10280SOL    HW131739   0.286   3.340   0.661
10280SOL    HW231740   0.161   3.249   0.712
10281SOL     OW31741   5.874   1.679   2.251
10281SOL    HW131742   5.793   1.704   2.306
10281SOL    HW231743   5.888   1.580   2.256
10282SOL     OW31744   5.287   3.402   4.522
10282SOL    HW131745   5.295   3.477   4.456
10282SOL    HW231746   5.373   3.351   4.524
10283SOL     OW31747   1.297   3.321   0.524
10283SOL    HW131748   1.344   3.304   0.611
10283SOL    HW231749   1.199   3.320   0.539
10284SOL     OW31750   5.013   2.849   5.199
10284SOL    HW131751   5.104   2.824   5.164
10284SOL    HW231752   4.965   2.766   5.228
10285SOL     OW31753   5.790   0.107   2.185
10285SOL    HW131754   5.791   0.036   2.114
10285SOL    HW231755   5.884   0.140   2.200
10286SOL     OW31756   3.223   1.796   3.526
10286SOL    HW131757   3.219   1.849   3.441
10286SOL    HW231758   3.147   1.821   3.585
10287SOL     OW31759   1.806   7.012   1.254
10287SOL    HW131760   1.719   0.029   1.276
10287SOL    HW231761   1.882   0.046   1.277
10288SOL     OW31762   4.766   6.529   3.193
10288SOL    HW131763   4.746   6.606   3.254
10288SOL    HW231764   4.681   6.484   3.167
10289SOL     OW31765   2.067   6.727   0.526
10289SOL    HW131766   2.099   6.769   0.610
10289SOL    HW231767   1.988   6.669   0.546
10290SOL     OW31768   3.009   3.938   2.762
10290SOL    HW131769   3.087   4.001   2.758
10290SOL    HW231770   3.004   3.886   2.676
10291SOL     OW31771   4.303   1.454   3.041
10291SOL    HW131772   4.309   1.420   2.947
10291SOL    HW231773   4.249   1.538   3.043
10292SOL     OW31774   1.562   0.933   5.046
10292SOL    HW131775   1.551   1.030   5.025
10292SOL    HW231776   1.643   0.920   5.103
10293SOL     OW31777   2.303   4.212   2.726
10293SOL    HW131778   2.370   4.277   2.761
10293SOL    HW231779   2.212   4.237   2.759
10294SOL     OW31780   6.051   2.964   3.162
10294SOL    HW131781   5.962   2.920   3.157
10294SOL    HW231782   6.075   2.980   3.258
10295SOL     OW31783   6.283   4.418   5.893
10295SOL    HW131784   6.227   4.371   5.825
10295SOL    HW231785   6.323   4.351   5.955
10296SOL     OW31786   4.801   1.641   0.501
10296SOL    HW131787   4.869   1.570   0.519
10296SOL    HW231788   4.832   1.699   0.426
10297SOL     OW31789   2.063   6.835   6.497
10297SOL    HW131790   2.081   6.797   6.407
10297SOL    HW231791   2.002   6.914   6.488
10298SOL     OW31792   2.920   4.674   1.228
10298SOL    HW131793   2.842   4.612   1.233
10298SOL    HW231794   3.005   4.621   1.227
10299SOL     OW31795   5.293   4.823   3.163
10299SOL    HW131796   5.331   4.898   3.217
10299SOL    HW231797   5.302   4.844   3.066
10300SOL     OW31798   1.447   3.615   3.485
10300SOL    HW131799   1.448   3.570   3.574
10300SOL    HW231800   1.461   3.714   3.498
10301SOL     OW31801   5.058   2.761   4.594
10301SOL    HW131802   5.020   2.828   4.659
10301SOL    HW231803   5.020   2.779   4.503
10302SOL     OW31804   2.182   6.461   4.188
10302SOL    HW131805   2.084   6.441   4.190
10302SOL    HW231806   2.233   6.379   4.216
10303SOL     OW31807   1.930   6.352   2.909
10303SOL    HW131808   1.840   6.391   2.928
10303SOL    HW231809   1.920   6.256   2.884
10304SOL     OW31810   5.098   0.239   1.847
10304SOL    HW131811   5.198   0.243   1.856
10304SOL    HW231812   5.069   0.144   1.838
10305SOL     OW31813   1.103   4.491   6.582
10305SOL    HW131814   1.174   4.492   6.512
10305SOL    HW231815   1.124   4.422   6.651
10306SOL     OW31816   4.826   6.689   6.121
10306SOL    HW131817   4.756   6.629   6.082
10306SOL    HW231818   4.797   6.719   6.212
10307SOL     OW31819   2.697   2.249   5.688
10307SOL    HW131820   2.622   2.258   5.623
10307SOL    HW231821   2.660   2.250   5.781
10308SOL     OW31822   2.858   4.780   3.612
10308SOL    HW131823   2.889   4.812   3.522
10308SOL    HW231824   2.763   4.811   3.626
10309SOL     OW31825   6.696   1.876   5.058
10309SOL    HW131826   6.722   1.969   5.083
10309SOL    HW231827   6.775   1.815   5.070
10310SOL     OW31828   3.191   4.050   1.074
10310SOL    HW131829   3.243   4.057   1.160
10310SOL    HW231830   3.093   4.045   1.095
10311SOL     OW31831   0.003   6.244   0.397
10311SOL    HW131832   0.095   6.250   0.358
10311SOL    HW231833   7.015   6.321   0.458
10312SOL     OW31834   3.442   6.313   2.350
10312SOL    HW131835   3.444   6.338   2.253
10312SOL    HW231836   3.506   6.369   2.401
10313SOL     OW31837   5.083   6.391   1.646
10313SOL    HW131838   4.997   6.344   1.667
10313SOL    HW231839   5.159   6.335   1.677
10314SOL     OW31840   6.454   0.435   1.644
10314SOL    HW131841   6.464   0.428   1.744
10314SOL    HW231842   6.448   0.344   1.605
10315SOL     OW31843   5.130   6.347   5.114
10315SOL    HW131844   5.084   6.350   5.203
10315SOL    HW231845   5.205   6.281   5.117
10316SOL     OW31846   6.502   2.054   4.279
10316SOL    HW131847   6.476   1.981   4.215
10316SOL    HW231848   6.472   2.030   4.371
10317SOL     OW31849   4.057   5.310   4.903
10317SOL    HW131850   4.092   5.384   4.845
10317SOL    HW231851   4.000   5.350   4.975
10318SOL     OW31852   4.867   5.619   6.044
10318SOL    HW131853   4.960   5.586   6.061
10318SOL    HW231854   4.870   5.711   6.005
10319SOL     OW31855   1.470   2.107   5.457
10319SOL    HW131856   1.532   2.066   5.391
10319SOL    HW231857   1.448   2.201   5.429
10320SOL     OW31858   0.312   0.709   2.965
10320SOL    HW131859   0.269   0.782   3.019
10320SOL    HW231860   0.408   0.730   2.951
10321SOL     OW31861   3.678   1.056   2.180
10321SOL    HW131862   3.728   1.125   2.233
10321SOL    HW231863   3.738   0.978   2.163
10322SOL     OW31864   6.106   5.666   6.031
10322SOL    HW131865   6.117   5.765   6.034
10322SOL    HW231866   6.032   5.643   5.967
10323SOL     OW31867   6.326   3.095   5.814
10323SOL    HW131868   6.377   3.168   5.768
10323SOL    HW231869   6.238   3.081   5.768
10324SOL     OW31870   3.227   3.084   2.673
10324SOL    HW131871   3.321   3.051   2.677
10324SOL    HW231872   3.223   3.170   2.622
10325SOL     OW31873   0.471   3.727   2.839
10325SOL    HW131874   0.453   3.672   2.758
10325SOL    HW231875   0.508   3.816   2.811
10326SOL     OW31876   4.401   3.637   0.234
10326SOL    HW131877   4.499   3.642   0.253
10326SOL    HW231878   4.351   3.634   0.321
10327SOL     OW31879   2.650   2.238   1.372
10327SOL    HW131880   2.561   2.282   1.374
10327SOL    HW231881   2.682   2.223   1.466
10328SOL     OW31882   6.196   2.443   1.079
10328SOL    HW131883   6.209   2.504   1.001
10328SOL    HW231884   6.240   2.355   1.061
10329SOL     OW31885   3.491   0.110   3.931
10329SOL    HW131886   3.416   0.121   3.865
10329SOL    HW231887   3.466   0.039   3.997
10330SOL     OW31888   4.107   0.239   2.544
10330SOL    HW131889   4.169   0.280   2.477
10330SOL    HW231890   4.017   0.227   2.503
10331SOL     OW31891   0.039   1.637   4.783
10331SOL    HW131892   0.082   1.727   4.798
10331SOL    HW231893   0.022   1.593   4.871
10332SOL     OW31894   6.133   0.958   0.916
10332SOL    HW131895   6.214   0.994   0.962
10332SOL    HW231896   6.130   0.994   0.823
10333SOL     OW31897   6.318   4.275   4.689
10333SOL    HW131898   6.372   4.287   4.606
10333SOL    HW231899   6.263   4.357   4.705
10334SOL     OW31900   4.168   6.086   3.502
10334SOL    HW131901   4.092   6.024   3.521
10334SOL    HW231902   4.220   6.101   3.586
10335SOL     OW31903   2.998   4.525   6.531
10335SOL    HW131904   2.929   4.502   6.600
10335SOL    HW231905   2.981   4.472   6.448
10336SOL     OW31906   6.562   6.858   2.614
10336SOL    HW131907   6.480   6.860   2.671
10336SOL    HW231908   6.642   6.875   2.670
10337SOL     OW31909   0.280   0.036   5.839
10337SOL    HW131910   0.197   0.027   5.894
10337SOL    HW231911   0.273   7.005   5.758
10338SOL     OW31912   2.495   6.378   2.132
10338SOL    HW131913   2.526   6.407   2.041
10338SOL    HW231914   2.399   6.403   2.143
10339SOL     OW31915   3.146   5.572   0.467
10339SOL    HW131916   3.107   5.665   0.467
10339SOL    HW231917   3.223   5.569   0.529
10340SOL     OW31918   2.223   5.689   1.053
10340SOL    HW131919   2.287   5.730   1.119
10340SOL    HW231920   2.198   5.598   1.083
10341SOL     OW31921   1.893   3.670   1.643
10341SOL    HW131922   1.852   3.761   1.652
10341SOL    HW231923   1.988   3.673   1.674
10342SOL     OW31924   0.716   6.933   4.966
10342SOL    HW131925   0.710   6.940   4.866
10342SOL    HW231926   0.808   6.901   4.990
10343SOL     OW31927   2.940   5.599   0.158
10343SOL    HW131928   2.984   5.516   0.192
10343SOL    HW231929   3.010   5.663   0.126
10344SOL     OW31930   4.338   4.534   1.845
10344SOL    HW131931   4.364   4.438   1.841
10344SOL    HW231932   4.263   4.546   1.909
10345SOL     OW31933   1.813   1.255   6.615
10345SOL    HW131934   1.856   1.228   6.702
10345SOL    HW231935   1.858   1.337   6.580
10346SOL     OW31936   6.199   0.082   1.355
10346SOL    HW131937   6.209   7.023   1.307
10346SOL    HW231938   6.102   0.108   1.357
10347SOL     OW31939   5.060   2.214   2.133
10347SOL    HW131940   5.109   2.182   2.052
10347SOL    HW231941   5.108   2.185   2.216
10348SOL     OW31942   6.565   1.577   0.321
10348SOL    HW131943   6.559   1.676   0.317
10348SOL    HW231944   6.652   1.550   0.362
10349SOL     OW31945   6.709   1.508   1.664
10349SOL    HW131946   6.775   1.583   1.657
10349SOL    HW231947   6.627   1.530   1.612
10350SOL     OW31948   1.859   6.409   5.439
10350SOL    HW131949   1.818   6.408   5.530
10350SOL    HW231950   1.875   6.316   5.409
10351SOL     OW31951   4.874   4.947   6.176
10351SOL    HW131952   4.865   5.035   6.222
10351SOL    HW231953   4.884   4.961   6.078
10352SOL     OW31954   4.798   2.306   6.560
10352SOL    HW131955   4.800   2.227   6.621
10352SOL    HW231956   4.781   2.389   6.613
10353SOL     OW31957   0.025   2.622   5.786
10353SOL    HW131958   0.078   2.663   5.713
10353SOL    HW231959   0.026   2.522   5.777
10354SOL     OW31960   5.716   2.054   2.650
10354SOL    HW131961   5.787   2.034   2.717
10354SOL    HW231962   5.752   2.039   2.558
10355SOL     OW31963   2.330   0.698   2.299
10355SOL    HW131964   2.231   0.684   2.297
10355SOL    HW231965   2.369   0.650   2.378
10356SOL     OW31966   0.248   3.898   5.835
10356SOL    HW131967   0.223   3.856   5.923
10356SOL    HW231968   0.168   3.901   5.776
10357SOL     OW31969   3.192   2.994   6.756
10357SOL    HW131970   3.116   2.955   6.705
10357SOL    HW231971   3.196   3.092   6.741
10358SOL     OW31972   6.189   2.938   3.736
10358SOL    HW131973   6.156   2.963   3.646
10358SOL    HW231974   6.285   2.909   3.730
10359SOL     OW31975   6.915   1.646   1.806
10359SOL    HW131976   6.918   1.578   1.880
10359SOL    HW231977   6.929   1.737   1.844
10360SOL     OW31978   4.628   5.544   1.771
10360SOL    HW131979   4.552   5.481   1.784
10360SOL    HW231980   4.666   5.570   1.859
10361SOL     OW31981   2.549   0.838   2.886
10361SOL    HW131982   2.648   0.828   2.880
10361SOL    HW231983   2.511   0.851   2.795
10362SOL     OW31984   0.654   5.281   3.951
10362SOL    HW131985   0.704   5.200   3.919
10362SOL    HW231986   0.644   5.346   3.875
10363SOL     OW31987   4.567   2.775   0.949
10363SOL    HW131988   4.565   2.704   1.019
10363SOL    HW231989   4.528   2.739   0.864
10364SOL     OW31990   3.636   3.642   2.414
10364SOL    HW131991   3.607   3.718   2.355
10364SOL    HW231992   3.624   3.668   2.510
10365SOL     OW31993   5.521   4.446   5.397
10365SOL    HW131994   5.533   4.431   5.495
10365SOL    HW231995   5.424   4.439   5.373
10366SOL     OW31996   4.308   0.145   4.342
10366SOL    HW131997   4.264   0.055   4.334
10366SOL    HW231998   4.391   0.146   4.285
10367SOL     OW31999   6.710   1.563   2.176
10367SOL    HW132000   6.641   1.635   2.183
10367SOL    HW232001   6.715   1.512   2.262
10368SOL     OW32002   2.310   0.993   2.395
10368SOL    HW132003   2.216   0.967   2.372
10368SOL    HW232004   2.372   0.958   2.325
10369SOL     OW32005   3.682   1.374   5.455
10369SOL    HW132006   3.746   1.312   5.500
10369SOL    HW232007   3.715   1.395   5.363
10370SOL     OW32008   5.352   1.240   5.322
10370SOL    HW132009   5.425   1.179   5.355
10370SOL    HW232010   5.302   1.278   5.399
10371SOL     OW32011   2.290   5.757   4.350
10371SOL    HW132012   2.296   5.826   4.277
10371SOL    HW232013   2.196   5.723   4.357
10372SOL     OW32014   1.752   0.758   0.816
10372SOL    HW132015   1.766   0.826   0.744
10372SOL    HW232016   1.796   0.672   0.789
10373SOL     OW32017   1.706   6.594   5.287
10373SOL    HW132018   1.614   6.555   5.295
10373SOL    HW232019   1.768   6.546   5.349
10374SOL     OW32020   3.298   1.392   3.387
10374SOL    HW132021   3.229   1.399   3.459
10374SOL    HW232022   3.334   1.299   3.383
10375SOL     OW32023   2.727   1.803   6.616
10375SOL    HW132024   2.686   1.713   6.627
10375SOL    HW232025   2.723   1.830   6.520
10376SOL     OW32026   1.190   5.556   3.837
10376SOL    HW132027   1.214   5.562   3.934
10376SOL    HW232028   1.142   5.471   3.819
10377SOL     OW32029   6.728   0.635   3.756
10377SOL    HW132030   6.630   0.616   3.753
10377SOL    HW232031   6.755   0.657   3.850
10378SOL     OW32032   6.034   0.137   5.256
10378SOL    HW132033   5.960   0.086   5.212
10378SOL    HW232034   6.009   0.234   5.260
10379SOL     OW32035   3.189   6.806   4.176
10379SOL    HW132036   3.203   6.738   4.104
10379SOL    HW232037   3.133   6.767   4.249
10380SOL     OW32038   0.483   2.416   4.651
10380SOL    HW132039   0.438   2.326   4.653
10380SOL    HW232040   0.513   2.436   4.558
10381SOL     OW32041   4.399   4.436   0.521
10381SOL    HW132042   4.493   4.464   0.536
10381SOL    HW232043   4.372   4.458   0.427
10382SOL     OW32044   2.290   4.947   0.981
10382SOL    HW132045   2.322   5.042   0.987
10382SOL    HW232046   2.192   4.946   0.963
10383SOL     OW32047   0.385   3.808   0.764
10383SOL    HW132048   0.459   3.847   0.709
10383SOL    HW232049   0.325   3.882   0.797
10384SOL     OW32050   6.718   0.472   1.393
10384SOL    HW132051   6.720   0.511   1.485
10384SOL    HW232052   6.810   0.470   1.356
10385SOL     OW32053   3.634   6.959   5.845
10385SOL    HW132054   3.573   6.883   5.869
10385SOL    HW232055   3.579   0.010   5.817
10386SOL     OW32056   6.283   1.666   5.326
10386SOL    HW132057   6.266   1.760   5.354
10386SOL    HW232058   6.282   1.606   5.406
10387SOL     OW32059   4.569   1.708   2.521
10387SOL    HW132060   4.618   1.784   2.479
10387SOL    HW232061   4.632   1.655   2.578
10388SOL     OW32062   2.222   5.699   2.282
10388SOL    HW132063   2.305   5.751   2.260
10388SOL    HW232064   2.144   5.741   2.237
10389SOL     OW32065   6.874   6.697   1.376
10389SOL    HW132066   6.793   6.746   1.345
10389SOL    HW232067   6.852   6.647   1.460
10390SOL     OW32068   1.984   2.342   1.390
10390SOL    HW132069   2.019   2.394   1.468
10390SOL    HW232070   1.947   2.405   1.322
10391SOL     OW32071   0.353   5.577   3.846
10391SOL    HW132072   0.423   5.643   3.818
10391SOL    HW232073   0.316   5.604   3.936
10392SOL     OW32074   6.955   3.822   6.187
10392SOL    HW132075   6.880   3.772   6.143
10392SOL    HW232076   6.970   3.786   6.279
10393SOL     OW32077   2.464   2.579   2.402
10393SOL    HW132078   2.472   2.599   2.500
10393SOL    HW232079   2.521   2.501   2.379
10394SOL     OW32080   2.450   6.247   4.703
10394SOL    HW132081   2.484   6.153   4.709
10394SOL    HW232082   2.520   6.310   4.735
10395SOL     OW32083   0.024   0.870   3.384
10395SOL    HW132084   0.051   0.952   3.433
10395SOL    HW232085   6.988   0.817   3.440
10396SOL     OW32086   2.545   0.347   3.929
10396SOL    HW132087   2.570   0.267   3.875
10396SOL    HW232088   2.605   0.355   4.009
10397SOL     OW32089   3.026   2.170   4.047
10397SOL    HW132090   2.930   2.151   4.066
10397SOL    HW232091   3.046   2.149   3.951
10398SOL     OW32092   4.988   2.134   0.753
10398SOL    HW132093   4.949   2.212   0.703
10398SOL    HW232094   5.070   2.102   0.706
10399SOL     OW32095   4.269   1.978   4.933
10399SOL    HW132096   4.350   1.957   4.879
10399SOL    HW232097   4.265   2.076   4.951
10400SOL     OW32098   3.959   5.648   0.930
10400SOL    HW132099   4.043   5.621   0.978
10400SOL    HW232100   3.882   5.645   0.993
10401SOL     OW32101   0.306   0.474   2.421
10401SOL    HW132102   0.341   0.499   2.511
10401SOL    HW232103   0.383   0.462   2.357
10402SOL     OW32104   0.003   2.329   5.803
10402SOL    HW132105   7.008   2.233   5.781
10402SOL    HW232106   0.061   2.367   5.732
10403SOL     OW32107   4.338   1.104   3.028
10403SOL    HW132108   4.297   1.185   3.070
10403SOL    HW232109   4.398   1.059   3.095
10404SOL     OW32110   6.990   0.019   4.457
10404SOL    HW132111   0.039   0.019   4.521
10404SOL    HW232112   7.012   0.079   4.380
10405SOL     OW32113   1.388   5.554   5.161
10405SOL    HW132114   1.377   5.649   5.130
10405SOL    HW232115   1.471   5.516   5.120
10406SOL     OW32116   2.210   3.213   5.658
10406SOL    HW132117   2.286   3.174   5.606
10406SOL    HW232118   2.243   3.293   5.709
10407SOL     OW32119   2.295   0.528   6.512
10407SOL    HW132120   2.226   0.594   6.483
10407SOL    HW232121   2.386   0.571   6.511
10408SOL     OW32122   3.836   6.635   2.012
10408SOL    HW132123   3.793   6.546   2.026
10408SOL    HW232124   3.930   6.622   1.981
10409SOL     OW32125   0.996   3.872   0.693
10409SOL    HW132126   0.933   3.821   0.635
10409SOL    HW232127   1.065   3.917   0.635
10410SOL     OW32128   5.606   2.285   1.344
10410SOL    HW132129   5.554   2.226   1.283
10410SOL    HW232130   5.557   2.371   1.358
10411SOL     OW32131   4.051   6.060   4.433
10411SOL    HW132132   4.044   5.971   4.389
10411SOL    HW232133   3.974   6.073   4.496
10412SOL     OW32134   6.653   0.998   0.541
10412SOL    HW132135   6.692   0.911   0.572
10412SOL    HW232136   6.553   0.989   0.534
10413SOL     OW32137   7.026   1.626   1.538
10413SOL    HW132138   7.007   1.672   1.625
10413SOL    HW232139   0.094   1.598   1.535
10414SOL     OW32140   3.982   6.116   5.936
10414SOL    HW132141   3.960   6.097   5.840
10414SOL    HW232142   4.005   6.213   5.946
10415SOL     OW32143   2.128   4.060   3.846
10415SOL    HW132144   2.205   4.111   3.886
10415SOL    HW232145   2.099   3.989   3.911
10416SOL     OW32146   6.219   0.471   4.912
10416SOL    HW132147   6.235   0.426   5.000
10416SOL    HW232148   6.302   0.465   4.856
10417SOL     OW32149   4.459   5.203   4.236
10417SOL    HW132150   4.524   5.181   4.164
10417SOL    HW232151   4.373   5.154   4.219
10418SOL     OW32152   6.032   4.029   5.944
10418SOL    HW132153   6.082   4.023   6.030
10418SOL    HW232154   5.984   4.116   5.939
10419SOL     OW32155   2.811   6.983   5.400
10419SOL    HW132156   2.755   0.014   5.341
10419SOL    HW232157   2.906   7.015   5.399
10420SOL     OW32158   6.853   3.687   3.917
10420SOL    HW132159   6.892   3.595   3.921
10420SOL    HW232160   6.923   3.752   3.888
10421SOL     OW32161   1.628   3.387   5.152
10421SOL    HW132162   1.538   3.343   5.150
10421SOL    HW232163   1.665   3.392   5.060
10422SOL     OW32164   6.979   3.605   5.030
10422SOL    HW132165   6.929   3.588   4.945
10422SOL    HW232166   0.031   3.544   5.035
10423SOL     OW32167   4.848   4.664   5.233
10423SOL    HW132168   4.825   4.622   5.146
10423SOL    HW232169   4.929   4.619   5.271
10424SOL     OW32170   4.047   3.086   0.555
10424SOL    HW132171   3.982   3.162   0.556
10424SOL    HW232172   4.094   3.083   0.467
10425SOL     OW32173   0.860   5.643   2.567
10425SOL    HW132174   0.958   5.655   2.585
10425SOL    HW232175   0.837   5.546   2.571
10426SOL     OW32176   5.263   4.205   5.839
10426SOL    HW132177   5.199   4.249   5.901
10426SOL    HW232178   5.213   4.164   5.763
10427SOL     OW32179   5.145   0.219   0.178
10427SOL    HW132180   5.116   0.227   0.082
10427SOL    HW232181   5.078   0.265   0.237
10428SOL     OW32182   2.939   1.727   4.502
10428SOL    HW132183   2.967   1.774   4.418
10428SOL    HW232184   2.840   1.735   4.513
10429SOL     OW32185   1.005   4.011   2.957
10429SOL    HW132186   0.936   4.061   3.009
10429SOL    HW232187   1.006   4.045   2.863
10430SOL     OW32188   3.532   6.724   4.663
10430SOL    HW132189   3.468   6.800   4.666
10430SOL    HW232190   3.486   6.641   4.694
10431SOL     OW32191   2.730   0.063   4.475
10431SOL    HW132192   2.649   0.112   4.443
10431SOL    HW232193   2.752   0.091   4.569
10432SOL     OW32194   6.939   1.755   5.173
10432SOL    HW132195   6.940   1.662   5.137
10432SOL    HW232196   7.027   1.799   5.153
10433SOL     OW32197   0.046   6.428   2.688
10433SOL    HW132198   6.974   6.440   2.691
10433SOL    HW232199   0.090   6.510   2.724
10434SOL     OW32200   3.835   6.293   4.775
10434SOL    HW132201   3.764   6.363   4.785
10434SOL    HW232202   3.825   6.224   4.847
10435SOL     OW32203   2.017   2.103   6.261
10435SOL    HW132204   1.934   2.143   6.302
10435SOL    HW232205   2.044   2.022   6.313
10436SOL     OW32206   6.337   3.920   4.482
10436SOL    HW132207   6.272   3.959   4.548
10436SOL    HW232208   6.290   3.903   4.395
10437SOL     OW32209   6.399   5.077   5.030
10437SOL    HW132210   6.329   5.009   5.012
10437SOL    HW232211   6.390   5.152   4.964
10438SOL     OW32212   0.402   6.097   6.167
10438SOL    HW132213   0.302   6.098   6.174
10438SOL    HW232214   0.441   6.147   6.244
10439SOL     OW32215   5.181   1.148   4.666
10439SOL    HW132216   5.188   1.233   4.719
10439SOL    HW232217   5.260   1.139   4.606
10440SOL     OW32218   0.213   6.923   0.371
10440SOL    HW132219   0.307   6.927   0.403
10440SOL    HW232220   0.212   6.896   0.275
10441SOL     OW32221   2.681   1.818   1.391
10441SOL    HW132222   2.607   1.751   1.385
10441SOL    HW232223   2.729   1.808   1.478
10442SOL     OW32224   4.121   6.816   5.179
10442SOL    HW132225   4.199   6.772   5.135
10442SOL    HW232226   4.036   6.777   5.143
10443SOL     OW32227   6.078   2.744   2.941
10443SOL    HW132228   6.117   2.673   3.000
10443SOL    HW232229   6.051   2.703   2.854
10444SOL     OW32230   4.214   5.638   2.079
10444SOL    HW132231   4.211   5.641   1.980
10444SOL    HW232232   4.136   5.586   2.114
10445SOL     OW32233   0.564   3.470   3.095
10445SOL    HW132234   0.632   3.530   3.137
10445SOL    HW232235   0.595   3.375   3.100
10446SOL     OW32236   1.857   3.529   6.176
10446SOL    HW132237   1.818   3.471   6.248
10446SOL    HW232238   1.897   3.611   6.216
10447SOL     OW32239   7.008   0.732   2.841
10447SOL    HW132240   7.007   0.737   2.741
10447SOL    HW232241   0.047   0.665   2.871
10448SOL     OW32242   3.528   0.650   1.885
10448SOL    HW132243   3.626   0.649   1.901
10448SOL    HW232244   3.480   0.638   1.972
10449SOL     OW32245   2.270   5.583   6.500
10449SOL    HW132246   2.368   5.566   6.488
10449SOL    HW232247   2.232   5.516   6.563
10450SOL     OW32248   0.298   1.648   6.885
10450SOL    HW132249   0.300   1.710   6.806
10450SOL    HW232250   0.356   1.569   6.868
10451SOL     OW32251   2.764   6.431   3.131
10451SOL    HW132252   2.785   6.418   3.034
10451SOL    HW232253   2.848   6.450   3.181
10452SOL     OW32254   6.196   3.250   3.133
10452SOL    HW132255   6.163   3.169   3.086
10452SOL    HW232256   6.155   3.256   3.224
10453SOL     OW32257   5.310   6.257   1.729
10453SOL    HW132258   5.293   6.166   1.766
10453SOL    HW232259   5.360   6.250   1.643
10454SOL     OW32260   5.219   2.029   0.638
10454SOL    HW132261   5.280   1.997   0.710
10454SOL    HW232262   5.228   1.970   0.558
10455SOL     OW32263   7.001   6.409   3.697
10455SOL    HW132264   7.006   6.439   3.602
10455SOL    HW232265   0.064   6.375   3.725
10456SOL     OW32266   1.179   5.224   0.982
10456SOL    HW132267   1.120   5.144   0.983
10456SOL    HW232268   1.208   5.244   0.888
10457SOL     OW32269   4.562   2.994   0.432
10457SOL    HW132270   4.471   3.035   0.438
10457SOL    HW232271   4.586   2.952   0.520
10458SOL     OW32272   6.648   0.353   6.422
10458SOL    HW132273   6.741   0.332   6.451
10458SOL    HW232274   6.592   0.271   6.428
10459SOL     OW32275   4.582   5.625   1.487
10459SOL    HW132276   4.658   5.680   1.452
10459SOL    HW232277   4.582   5.626   1.587
10460SOL     OW32278   2.108   4.212   1.888
10460SOL    HW132279   2.199   4.231   1.926
10460SOL    HW232280   2.039   4.225   1.959
10461SOL     OW32281   6.235   4.635   5.247
10461SOL    HW132282   6.228   4.553   5.303
10461SOL    HW232283   6.317   4.687   5.274
10462SOL     OW32284   6.001   2.418   3.126
10462SOL    HW132285   5.964   2.399   3.035
10462SOL    HW232286   6.066   2.494   3.120
10463SOL     OW32287   3.773   2.446   6.267
10463SOL    HW132288   3.713   2.372   6.298
10463SOL    HW232289   3.837   2.470   6.340
10464SOL     OW32290   6.039   6.343   2.235
10464SOL    HW132291   6.033   6.360   2.334
10464SOL    HW232292   6.006   6.423   2.185
10465SOL     OW32293   5.521   5.543   1.111
10465SOL    HW132294   5.532   5.604   1.033
10465SOL    HW232295   5.509   5.597   1.194
10466SOL     OW32296   4.672   4.490   5.402
10466SOL    HW132297   4.713   4.407   5.363
10466SOL    HW232298   4.708   4.570   5.355
10467SOL     OW32299   1.894   1.935   0.555
10467SOL    HW132300   1.988   1.943   0.587
10467SOL    HW232301   1.851   1.855   0.597
10468SOL     OW32302   3.697   4.889   3.111
10468SOL    HW132303   3.726   4.903   3.206
10468SOL    HW232304   3.777   4.881   3.052
10469SOL     OW32305   4.094   4.459   5.657
10469SOL    HW132306   4.151   4.475   5.738
10469SOL    HW232307   4.093   4.362   5.635
10470SOL     OW32308   2.108   1.815   3.635
10470SOL    HW132309   2.168   1.867   3.574
10470SOL    HW232310   2.139   1.826   3.729
10471SOL     OW32311   2.454   0.131   0.578
10471SOL    HW132312   2.459   0.132   0.478
10471SOL    HW232313   2.405   0.212   0.609
10472SOL     OW32314   3.007   5.840   0.530
10472SOL    HW132315   2.937   5.790   0.581
10472SOL    HW232316   2.966   5.880   0.448
10473SOL     OW32317   6.200   6.845   6.212
10473SOL    HW132318   6.152   6.923   6.253
10473SOL    HW232319   6.284   6.827   6.264
10474SOL     OW32320   4.157   0.992   4.395
10474SOL    HW132321   4.252   1.023   4.399
10474SOL    HW232322   4.099   1.057   4.444
10475SOL     OW32323   3.898   6.890   1.702
10475SOL    HW132324   3.920   6.903   1.605
10475SOL    HW232325   3.840   6.810   1.713
10476SOL     OW32326   5.855   6.466   6.025
10476SOL    HW132327   5.821   6.434   6.113
10476SOL    HW232328   5.811   6.554   6.002
10477SOL     OW32329   6.843   1.343   4.716
10477SOL    HW132330   6.850   1.442   4.705
10477SOL    HW232331   6.929   1.300   4.688
10478SOL     OW32332   6.311   7.023   0.320
10478SOL    HW132333   6.375   6.963   0.368
10478SOL    HW232334   6.272   0.061   0.385
10479SOL     OW32335   6.988   1.779   2.421
10479SOL    HW132336   0.042   1.796   2.476
10479SOL    HW232337   6.973   1.680   2.413
10480SOL     OW32338   0.679   1.019   2.302
10480SOL    HW132339   0.742   1.026   2.379
10480SOL    HW232340   0.666   1.109   2.262
10481SOL     OW32341   2.066   6.297   3.884
10481SOL    HW132342   2.089   6.325   3.791
10481SOL    HW232343   2.011   6.368   3.927
10482SOL     OW32344   6.295   5.008   4.254
10482SOL    HW132345   6.282   5.008   4.353
10482SOL    HW232346   6.299   4.914   4.221
10483SOL     OW32347   6.094   5.204   0.755
10483SOL    HW132348   6.134   5.234   0.842
10483SOL    HW232349   6.011   5.150   0.774
10484SOL     OW32350   5.611   1.780   1.808
10484SOL    HW132351   5.538   1.815   1.750
10484SOL    HW232352   5.576   1.705   1.864
10485SOL     OW32353   3.346   4.175   0.621
10485SOL    HW132354   3.397   4.093   0.648
10485SOL    HW232355   3.409   4.242   0.582
10486SOL     OW32356   0.006   0.483   0.703
10486SOL    HW132357   0.024   0.406   0.764
10486SOL    HW232358   0.037   0.459   0.611
10487SOL     OW32359   4.678   0.477   1.431
10487SOL    HW132360   4.613   0.412   1.389
10487SOL    HW232361   4.699   0.447   1.524
10488SOL     OW32362   3.528   1.235   5.912
10488SOL    HW132363   3.439   1.263   5.878
10488SOL    HW232364   3.597   1.302   5.885
10489SOL     OW32365   0.863   6.873   5.349
10489SOL    HW132366   0.946   6.928   5.339
10489SOL    HW232367   0.887   6.776   5.346
10490SOL     OW32368   5.960   1.854   0.863
10490SOL    HW132369   5.882   1.903   0.824
10490SOL    HW232370   5.949   1.846   0.962
10491SOL     OW32371   2.034   2.487   0.189
10491SOL    HW132372   1.943   2.511   0.223
10491SOL    HW232373   2.026   2.431   0.107
10492SOL     OW32374   5.680   4.546   5.766
10492SOL    HW132375   5.768   4.558   5.720
10492SOL    HW232376   5.639   4.459   5.738
10493SOL     OW32377   3.183   0.799   2.168
10493SOL    HW132378   3.200   0.872   2.102
10493SOL    HW232379   3.088   0.803   2.198
10494SOL     OW32380   5.481   4.099   5.990
10494SOL    HW132381   5.490   4.127   6.086
10494SOL    HW232382   5.394   4.132   5.954
10495SOL     OW32383   1.768   6.805   0.042
10495SOL    HW132384   1.844   6.755   0.084
10495SOL    HW232385   1.802   6.856   6.991
10496SOL     OW32386   0.464   3.819   6.337
10496SOL    HW132387   0.378   3.771   6.354
10496SOL    HW232388   0.471   3.898   6.397
10497SOL     OW32389   1.932   0.367   2.107
10497SOL    HW132390   1.884   0.335   2.026
10497SOL    HW232391   1.973   0.456   2.090
10498SOL     OW32392   3.419   5.402   1.254
10498SOL    HW132393   3.477   5.331   1.293
10498SOL    HW232394   3.349   5.360   1.197
10499SOL     OW32395   3.434   6.972   2.733
10499SOL    HW132396   3.434   6.990   2.635
10499SOL    HW232397   3.344   6.994   2.771
10500SOL     OW32398   6.522   1.704   6.391
10500SOL    HW132399   6.561   1.651   6.315
10500SOL    HW232400   6.596   1.730   6.454
10501SOL     OW32401   2.092   5.722   2.520
10501SOL    HW132402   2.154   5.673   2.460
10501SOL    HW232403   2.064   5.662   2.596
10502SOL     OW32404   2.355   0.472   1.342
10502SOL    HW132405   2.442   0.424   1.350
10502SOL    HW232406   2.322   0.497   1.433
10503SOL     OW32407   4.534   2.695   0.398
10503SOL    HW132408   4.526   2.750   0.481
10503SOL    HW232409   4.448   2.645   0.384
10504SOL     OW32410   1.613   1.871   6.082
10504SOL    HW132411   1.522   1.886   6.120
10504SOL    HW232412   1.681   1.878   6.155
10505SOL     OW32413   5.427   5.464   0.615
10505SOL    HW132414   5.394   5.429   0.702
10505SOL    HW232415   5.379   5.420   0.540
10506SOL     OW32416   0.369   4.879   0.498
10506SOL    HW132417   0.378   4.782   0.479
10506SOL    HW232418   0.460   4.922   0.497
10507SOL     OW32419   2.182   0.476   0.010
10507SOL    HW132420   2.145   0.441   0.096
10507SOL    HW232421   2.111   0.471   6.967
10508SOL     OW32422   6.099   6.674   4.764
10508SOL    HW132423   6.001   6.654   4.761
10508SOL    HW232424   6.137   6.638   4.850
10509SOL     OW32425   0.604   5.623   4.134
10509SOL    HW132426   0.532   5.554   4.134
10509SOL    HW232427   0.664   5.609   4.212
10510SOL     OW32428   4.529   6.103   5.982
10510SOL    HW132429   4.494   6.188   6.021
10510SOL    HW232430   4.628   6.097   5.996
10511SOL     OW32431   4.107   1.056   2.088
10511SOL    HW132432   4.069   1.082   1.999
10511SOL    HW232433   4.057   0.978   2.125
10512SOL     OW32434   4.335   0.381   6.048
10512SOL    HW132435   4.236   0.398   6.043
10512SOL    HW232436   4.370   0.363   5.956
10513SOL     OW32437   6.377   2.785   4.601
10513SOL    HW132438   6.320   2.709   4.634
10513SOL    HW232439   6.450   2.748   4.543
10514SOL     OW32440   0.313   4.152   0.590
10514SOL    HW132441   0.257   4.118   0.515
10514SOL    HW232442   0.285   4.108   0.675
10515SOL     OW32443   0.977   3.008   2.894
10515SOL    HW132444   0.982   3.086   2.955
10515SOL    HW232445   0.957   3.039   2.801
10516SOL     OW32446   4.036   1.062   0.572
10516SOL    HW132447   3.986   0.983   0.608
10516SOL    HW232448   4.116   1.080   0.629
10517SOL     OW32449   0.889   2.389   2.594
10517SOL    HW132450   0.900   2.434   2.505
10517SOL    HW232451   0.900   2.455   2.667
10518SOL     OW32452   0.990   5.398   6.543
10518SOL    HW132453   1.023   5.340   6.619
10518SOL    HW232454   0.956   5.484   6.579
10519SOL     OW32455   2.312   2.975   6.785
10519SOL    HW132456   2.348   2.883   6.771
10519SOL    HW232457   2.257   3.002   6.706
10520SOL     OW32458   0.885   2.522   6.837
10520SOL    HW132459   0.793   2.504   6.872
10520SOL    HW232460   0.912   2.615   6.863
10521SOL     OW32461   6.261   6.568   2.217
10521SOL    HW132462   6.319   6.623   2.157
10521SOL    HW232463   6.211   6.501   2.163
10522SOL     OW32464   0.029   0.241   5.655
10522SOL    HW132465   0.100   0.204   5.595
10522SOL    HW232466   7.003   0.166   5.693
10523SOL     OW32467   0.257   4.940   3.566
10523SOL    HW132468   0.175   4.992   3.590
10523SOL    HW232469   0.282   4.958   3.471
10524SOL     OW32470   1.424   0.573   4.835
10524SOL    HW132471   1.353   0.644   4.838
10524SOL    HW232472   1.513   0.615   4.821
10525SOL     OW32473   3.586   6.593   6.494
10525SOL    HW132474   3.603   6.689   6.514
10525SOL    HW232475   3.644   6.536   6.552
10526SOL     OW32476   1.224   6.705   4.137
10526SOL    HW132477   1.295   6.774   4.151
10526SOL    HW232478   1.137   6.740   4.173
10527SOL     OW32479   0.075   1.927   4.809
10527SOL    HW132480   0.005   1.925   4.880
10527SOL    HW232481   0.034   1.959   4.723
10528SOL     OW32482   1.737   3.110   6.236
10528SOL    HW132483   1.829   3.102   6.276
10528SOL    HW232484   1.712   3.207   6.232
10529SOL     OW32485   2.729   5.779   3.970
10529SOL    HW132486   2.801   5.769   3.902
10529SOL    HW232487   2.648   5.819   3.928
10530SOL     OW32488   2.453   0.261   6.346
10530SOL    HW132489   2.355   0.279   6.341
10530SOL    HW232490   2.469   0.189   6.413
10531SOL     OW32491   1.534   2.808   4.116
10531SOL    HW132492   1.618   2.766   4.150
10531SOL    HW232493   1.525   2.900   4.153
10532SOL     OW32494   0.968   5.347   5.486
10532SOL    HW132495   0.907   5.424   5.466
10532SOL    HW232496   0.973   5.287   5.406
10533SOL     OW32497   2.764   1.378   5.063
10533SOL    HW132498   2.746   1.407   5.157
10533SOL    HW232499   2.856   1.407   5.037
10534SOL     OW32500   6.672   5.996   1.243
10534SOL    HW132501   6.705   6.089   1.252
10534SOL    HW232502   6.645   5.960   1.332
10535SOL     OW32503   0.810   2.124   1.338
10535SOL    HW132504   0.903   2.123   1.375
10535SOL    HW232505   0.746   2.098   1.410
10536SOL     OW32506   3.824   0.394   3.141
10536SOL    HW132507   3.763   0.315   3.147
10536SOL    HW232508   3.894   0.376   3.071
10537SOL     OW32509   3.966   5.555   3.978
10537SOL    HW132510   3.941   5.482   3.915
10537SOL    HW232511   3.891   5.570   4.042
10538SOL     OW32512   5.215   1.731   0.552
10538SOL    HW132513   5.295   1.698   0.602
10538SOL    HW232514   5.204   1.678   0.468
10539SOL     OW32515   1.176   3.925   0.487
10539SOL    HW132516   1.215   3.853   0.430
10539SOL    HW232517   1.215   4.013   0.459
10540SOL     OW32518   1.810   2.498   4.936
10540SOL    HW132519   1.755   2.424   4.973
10540SOL    HW232520   1.751   2.560   4.883
10541SOL     OW32521   3.399   4.065   2.195
10541SOL    HW132522   3.418   4.111   2.282
10541SOL    HW232523   3.380   3.968   2.212
10542SOL     OW32524   6.947   0.461   5.537
10542SOL    HW132525   6.976   0.381   5.589
10542SOL    HW232526   7.026   0.519   5.517
10543SOL     OW32527   0.758   1.157   5.295
10543SOL    HW132528   0.821   1.170   5.371
10543SOL    HW232529   0.728   1.061   5.294
10544SOL     OW32530   2.199   6.678   2.214
10544SOL    HW132531   2.107   6.682   2.175
10544SOL    HW232532   2.193   6.668   2.313
10545SOL     OW32533   6.113   1.072   2.345
10545SOL    HW132534   6.043   1.046   2.413
10545SOL    HW232535   6.203   1.048   2.380
10546SOL     OW32536   1.974   0.951   6.982
10546SOL    HW132537   1.891   0.895   6.984
10546SOL    HW232538   2.054   0.891   6.990
10547SOL     OW32539   5.998   2.428   2.769
10547SOL    HW132540   6.021   2.467   2.680
10547SOL    HW232541   5.904   2.452   2.793
10548SOL     OW32542   5.422   4.690   4.698
10548SOL    HW132543   5.485   4.622   4.736
10548SOL    HW232544   5.373   4.650   4.620
10549SOL     OW32545   0.016   6.705   1.783
10549SOL    HW132546   0.042   6.729   1.877
10549SOL    HW232547   7.026   6.789   1.731
10550SOL     OW32548   4.252   5.811   3.548
10550SOL    HW132549   4.187   5.777   3.479
10550SOL    HW232550   4.335   5.756   3.545
10551SOL     OW32551   1.228   2.542   5.645
10551SOL    HW132552   1.232   2.634   5.684
10551SOL    HW232553   1.246   2.547   5.546
10552SOL     OW32554   3.206   1.405   6.785
10552SOL    HW132555   3.136   1.362   6.728
10552SOL    HW232556   3.213   1.502   6.761
10553SOL     OW32557   0.880   4.740   1.484
10553SOL    HW132558   0.965   4.709   1.441
10553SOL    HW232559   0.862   4.686   1.566
10554SOL     OW32560   5.781   4.861   0.268
10554SOL    HW132561   5.691   4.823   0.248
10554SOL    HW232562   5.791   4.950   0.224
10555SOL     OW32563   2.039   3.449   0.206
10555SOL    HW132564   2.072   3.463   0.300
10555SOL    HW232565   1.980   3.368   0.204
10556SOL     OW32566   2.053   1.646   5.502
10556SOL    HW132567   2.090   1.691   5.584
10556SOL    HW232568   2.127   1.604   5.451
10557SOL     OW32569   2.227   2.489   3.081
10557SOL    HW132570   2.197   2.563   3.141
10557SOL    HW232571   2.155   2.420   3.072
10558SOL     OW32572   3.718   1.739   3.945
10558SOL    HW132573   3.762   1.785   3.868
10558SOL    HW232574   3.732   1.640   3.936
10559SOL     OW32575   5.430   0.272   0.841
10559SOL    HW132576   5.382   0.184   0.841
10559SOL    HW232577   5.521   0.260   0.802
10560SOL     OW32578   3.543   6.120   3.049
10560SOL    HW132579   3.453   6.140   3.089
10560SOL    HW232580   3.596   6.204   3.044
10561SOL     OW32581   2.972   4.467   0.254
10561SOL    HW132582   3.054   4.439   0.204
10561SOL    HW232583   2.946   4.396   0.318
10562SOL     OW32584   4.798   5.438   0.375
10562SOL    HW132585   4.756   5.527   0.359
10562SOL    HW232586   4.834   5.402   0.289
10563SOL     OW32587   0.822   1.374   3.656
10563SOL    HW132588   0.877   1.404   3.734
10563SOL    HW232589   0.871   1.302   3.606
10564SOL     OW32590   5.781   6.655   1.260
10564SOL    HW132591   5.774   6.568   1.308
10564SOL    HW232592   5.829   6.642   1.173
10565SOL     OW32593   0.276   0.609   6.238
10565SOL    HW132594   0.223   0.688   6.209
10565SOL    HW232595   0.244   0.527   6.190
10566SOL     OW32596   3.774   2.253   0.267
10566SOL    HW132597   3.729   2.228   0.182
10566SOL    HW232598   3.871   2.271   0.250
10567SOL     OW32599   3.439   2.116   4.495
10567SOL    HW132600   3.454   2.156   4.404
10567SOL    HW232601   3.352   2.147   4.532
10568SOL     OW32602   6.389   2.752   1.623
10568SOL    HW132603   6.423   2.720   1.535
10568SOL    HW232604   6.310   2.812   1.608
10569SOL     OW32605   5.779   1.982   1.819
10569SOL    HW132606   5.860   1.940   1.860
10569SOL    HW232607   5.712   1.912   1.798
10570SOL     OW32608   1.507   5.026   3.072
10570SOL    HW132609   1.428   5.060   3.123
10570SOL    HW232610   1.514   4.927   3.083
10571SOL     OW32611   0.022   4.671   5.981
10571SOL    HW132612   7.027   4.702   5.889
10571SOL    HW232613   6.980   4.703   6.045
10572SOL     OW32614   0.011   4.026   3.624
10572SOL    HW132615   0.056   4.045   3.536
10572SOL    HW232616   6.957   3.971   3.609
10573SOL     OW32617   4.370   6.833   4.929
10573SOL    HW132618   4.466   6.848   4.955
10573SOL    HW232619   4.363   6.749   4.875
10574SOL     OW32620   1.513   0.915   3.718
10574SOL    HW132621   1.512   1.015   3.713
10574SOL    HW232622   1.573   0.886   3.792
10575SOL     OW32623   6.279   1.323   2.899
10575SOL    HW132624   6.373   1.289   2.898
10575SOL    HW232625   6.259   1.367   2.812
10576SOL     OW32626   6.916   6.211   5.132
10576SOL    HW132627   6.960   6.123   5.148
10576SOL    HW232628   6.843   6.225   5.200
10577SOL     OW32629   1.936   3.148   0.530
10577SOL    HW132630   1.925   3.124   0.627
10577SOL    HW232631   1.913   3.070   0.473
10578SOL     OW32632   5.828   1.030   2.990
10578SOL    HW132633   5.794   1.118   3.024
10578SOL    HW232634   5.765   0.994   2.922
10579SOL     OW32635   3.887   2.105   1.392
10579SOL    HW132636   3.826   2.168   1.439
10579SOL    HW232637   3.968   2.089   1.449
10580SOL     OW32638   6.668   0.354   6.826
10580SOL    HW132639   6.765   0.373   6.809
10580SOL    HW232640   6.654   0.255   6.833
10581SOL     OW32641   0.137   6.854   3.712
10581SOL    HW132642   0.039   6.875   3.720
10581SOL    HW232643   0.150   6.755   3.722
10582SOL     OW32644   5.722   4.829   6.577
10582SOL    HW132645   5.709   4.754   6.642
10582SOL    HW232646   5.696   4.798   6.486
10583SOL     OW32647   3.987   1.469   4.945
10583SOL    HW132648   4.030   1.442   4.858
10583SOL    HW232649   3.902   1.519   4.926
10584SOL     OW32650   6.481   6.379   1.245
10584SOL    HW132651   6.578   6.355   1.243
10584SOL    HW232652   6.470   6.473   1.278
10585SOL     OW32653   2.393   2.617   6.332
10585SOL    HW132654   2.363   2.711   6.351
10585SOL    HW232655   2.401   2.605   6.233
10586SOL     OW32656   6.668   5.070   5.118
10586SOL    HW132657   6.572   5.052   5.094
10586SOL    HW232658   6.691   5.165   5.096
10587SOL     OW32659   6.280   4.268   0.388
10587SOL    HW132660   6.245   4.332   0.319
10587SOL    HW232661   6.240   4.290   0.477
10588SOL     OW32662   0.318   3.075   3.666
10588SOL    HW132663   0.361   3.152   3.714
10588SOL    HW232664   0.243   3.039   3.722
10589SOL     OW32665   5.933   1.429   4.405
10589SOL    HW132666   5.939   1.462   4.311
10589SOL    HW232667   5.943   1.330   4.407
10590SOL     OW32668   0.788   0.367   1.698
10590SOL    HW132669   0.752   0.286   1.744
10590SOL    HW232670   0.764   0.448   1.751
10591SOL     OW32671   0.926   2.008   6.660
10591SOL    HW132672   1.005   2.043   6.610
10591SOL    HW232673   0.870   2.085   6.691
10592SOL     OW32674   5.923   3.809   1.721
10592SOL    HW132675   5.865   3.744   1.670
10592SOL    HW232676   6.018   3.798   1.693
10593SOL     OW32677   2.530   5.109   0.489
10593SOL    HW132678   2.571   5.019   0.476
10593SOL    HW232679   2.575   5.175   0.430
10594SOL     OW32680   4.485   0.032   2.262
10594SOL    HW132681   4.509   0.057   2.356
10594SOL    HW232682   4.388   0.051   2.247
10595SOL     OW32683   3.624   6.660   5.648
10595SOL    HW132684   3.630   6.701   5.739
10595SOL    HW232685   3.699   6.595   5.636
10596SOL     OW32686   4.406   6.961   6.653
10596SOL    HW132687   4.321   6.918   6.683
10596SOL    HW232688   4.460   6.988   6.732
10597SOL     OW32689   3.467   1.181   5.280
10597SOL    HW132690   3.544   1.231   5.318
10597SOL    HW232691   3.492   1.141   5.192
10598SOL     OW32692   2.823   2.328   0.575
10598SOL    HW132693   2.905   2.375   0.606
10598SOL    HW232694   2.826   2.318   0.475
10599SOL     OW32695   5.395   2.872   5.940
10599SOL    HW132696   5.451   2.789   5.937
10599SOL    HW232697   5.411   2.920   6.025
10600SOL     OW32698   1.991   2.261   0.808
10600SOL    HW132699   1.978   2.280   0.710
10600SOL    HW232700   2.053   2.183   0.818
10601SOL     OW32701   1.534   4.575   5.838
10601SOL    HW132702   1.585   4.637   5.897
10601SOL    HW232703   1.536   4.610   5.744
10602SOL     OW32704   3.642   1.575   2.452
10602SOL    HW132705   3.650   1.536   2.360
10602SOL    HW232706   3.730   1.616   2.479
10603SOL     OW32707   3.274   5.795   3.305
10603SOL    HW132708   3.228   5.850   3.235
10603SOL    HW232709   3.243   5.824   3.395
10604SOL     OW32710   6.079   4.814   5.564
10604SOL    HW132711   6.122   4.866   5.638
10604SOL    HW232712   6.128   4.728   5.551
10605SOL     OW32713   1.743   5.759   0.292
10605SOL    HW132714   1.824   5.735   0.345
10605SOL    HW232715   1.688   5.676   0.276
10606SOL     OW32716   6.831   0.677   2.556
10606SOL    HW132717   6.841   0.712   2.463
10606SOL    HW232718   6.834   0.577   2.555
10607SOL     OW32719   4.272   4.958   5.769
10607SOL    HW132720   4.329   4.985   5.691
10607SOL    HW232721   4.320   4.980   5.854
10608SOL     OW32722   4.983   2.180   5.548
10608SOL    HW132723   4.968   2.135   5.460
10608SOL    HW232724   4.917   2.147   5.615
10609SOL     OW32725   3.326   6.578   0.471
10609SOL    HW132726   3.284   6.665   0.498
10609SOL    HW232727   3.270   6.503   0.506
10610SOL     OW32728   1.512   2.517   5.714
10610SOL    HW132729   1.525   2.447   5.784
10610SOL    HW232730   1.416   2.522   5.689
10611SOL     OW32731   4.168   3.730   5.868
10611SOL    HW132732   4.121   3.795   5.808
10611SOL    HW232733   4.123   3.641   5.862
10612SOL     OW32734   3.062   0.813   5.586
10612SOL    HW132735   3.129   0.815   5.512
10612SOL    HW232736   3.049   0.906   5.621
10613SOL     OW32737   6.035   6.938   4.883
10613SOL    HW132738   6.069   6.995   4.808
10613SOL    HW232739   6.098   6.863   4.900
10614SOL     OW32740   6.628   2.343   3.844
10614SOL    HW132741   6.701   2.360   3.778
10614SOL    HW232742   6.624   2.245   3.864
10615SOL     OW32743   3.222   6.538   6.188
10615SOL    HW132744   3.312   6.527   6.146
10615SOL    HW232745   3.216   6.627   6.233
10616SOL     OW32746   2.750   6.204   1.140
10616SOL    HW132747   2.763   6.268   1.064
10616SOL    HW232748   2.699   6.124   1.107
10617SOL     OW32749   2.335   2.428   1.112
10617SOL    HW132750   2.275   2.507   1.129
10617SOL    HW232751   2.296   2.372   1.039
10618SOL     OW32752   0.155   3.573   6.252
10618SOL    HW132753   0.143   3.560   6.350
10618SOL    HW232754   0.238   3.526   6.222
10619SOL     OW32755   0.139   4.275   1.822
10619SOL    HW132756   0.199   4.195   1.831
10619SOL    HW232757   0.045   4.249   1.845
10620SOL     OW32758   1.303   5.272   5.244
10620SOL    HW132759   1.385   5.218   5.264
10620SOL    HW232760   1.325   5.369   5.252
10621SOL     OW32761   1.297   6.312   2.123
10621SOL    HW132762   1.343   6.248   2.184
10621SOL    HW232763   1.264   6.390   2.176
10622SOL     OW32764   5.108   1.428   1.318
10622SOL    HW132765   5.084   1.353   1.380
10622SOL    HW232766   5.031   1.445   1.256
10623SOL     OW32767   0.019   4.660   5.259
10623SOL    HW132768   6.996   4.621   5.336
10623SOL    HW232769   0.044   4.755   5.279
10624SOL     OW32770   0.430   2.640   4.763
10624SOL    HW132771   0.462   2.560   4.712
10624SOL    HW232772   0.334   2.627   4.788
10625SOL     OW32773   0.536   4.402   7.001
10625SOL    HW132774   0.555   4.432   0.067
10625SOL    HW232775   0.551   4.303   6.994
10626SOL     OW32776   2.512   3.329   0.807
10626SOL    HW132777   2.485   3.338   0.711
10626SOL    HW232778   2.573   3.251   0.818
10627SOL     OW32779   5.403   6.944   0.132
10627SOL    HW132780   5.473   6.942   0.060
10627SOL    HW232781   5.387   6.851   0.165
10628SOL     OW32782   4.689   5.665   0.316
10628SOL    HW132783   4.604   5.675   0.367
10628SOL    HW232784   4.677   5.705   0.225
10629SOL     OW32785   2.488   4.951   4.961
10629SOL    HW132786   2.520   4.860   4.935
10629SOL    HW232787   2.565   5.014   4.966
10630SOL     OW32788   6.647   1.491   3.840
10630SOL    HW132789   6.679   1.555   3.770
10630SOL    HW232790   6.726   1.445   3.881
10631SOL     OW32791   3.030   4.818   4.630
10631SOL    HW132792   2.946   4.773   4.599
10631SOL    HW232793   3.096   4.819   4.555
10632SOL     OW32794   6.413   1.863   4.080
10632SOL    HW132795   6.332   1.914   4.050
10632SOL    HW232796   6.437   1.795   4.011
10633SOL     OW32797   2.698   3.429   1.451
10633SOL    HW132798   2.791   3.425   1.487
10633SOL    HW232799   2.633   3.409   1.524
10634SOL     OW32800   3.047   5.713   0.972
10634SOL    HW132801   2.996   5.708   0.887
10634SOL    HW232802   3.007   5.783   1.031
10635SOL     OW32803   3.630   1.531   0.883
10635SOL    HW132804   3.714   1.478   0.896
10635SOL    HW232805   3.644   1.624   0.917
10636SOL     OW32806   0.836   1.642   1.609
10636SOL    HW132807   0.759   1.695   1.574
10636SOL    HW232808   0.817   1.544   1.596
10637SOL     OW32809   2.492   4.564   5.799
10637SOL    HW132810   2.545   4.498   5.745
10637SOL    HW232811   2.450   4.517   5.876
10638SOL     OW32812   0.248   5.376   2.985
10638SOL    HW132813   0.150   5.378   2.965
10638SOL    HW232814   0.281   5.282   2.978
10639SOL     OW32815   1.134   3.418   2.896
10639SOL    HW132816   1.222   3.412   2.849
10639SOL    HW232817   1.067   3.462   2.836
10640SOL     OW32818   3.482   0.206   5.439
10640SOL    HW132819   3.417   0.206   5.515
10640SOL    HW232820   3.460   0.281   5.376
10641SOL     OW32821   3.653   1.920   0.686
10641SOL    HW132822   3.683   1.837   0.638
10641SOL    HW232823   3.587   1.969   0.629
10642SOL     OW32824   0.071   3.147   1.748
10642SOL    HW132825   0.012   3.184   1.676
10642SOL    HW232826   0.117   3.222   1.795
10643SOL     OW32827   2.137   5.191   5.066
10643SOL    HW132828   2.084   5.117   5.106
10643SOL    HW232829   2.116   5.277   5.113
10644SOL     OW32830   5.062   2.769   3.374
10644SOL    HW132831   5.088   2.827   3.297
10644SOL    HW232832   4.976   2.722   3.353
10645SOL     OW32833   0.854   1.953   5.049
10645SOL    HW132834   0.947   1.932   5.079
10645SOL    HW232835   0.854   2.041   5.002
10646SOL     OW32836   6.900   0.823   6.849
10646SOL    HW132837   6.915   0.791   6.942
10646SOL    HW232838   6.923   0.920   6.843
10647SOL     OW32839   3.081   5.191   6.287
10647SOL    HW132840   3.109   5.260   6.220
10647SOL    HW232841   2.992   5.155   6.261
10648SOL     OW32842   5.252   4.534   6.009
10648SOL    HW132843   5.181   4.465   6.021
10648SOL    HW232844   5.231   4.592   5.930
10649SOL     OW32845   0.411   3.835   3.286
10649SOL    HW132846   0.388   3.785   3.203
10649SOL    HW232847   0.341   3.820   3.355
10650SOL     OW32848   1.123   5.958   3.569
10650SOL    HW132849   1.167   5.995   3.487
10650SOL    HW232850   1.129   6.024   3.643
10651SOL     OW32851   4.263   6.703   6.256
10651SOL    HW132852   4.301   6.766   6.324
10651SOL    HW232853   4.197   6.752   6.198
10652SOL     OW32854   3.673   6.760   6.182
10652SOL    HW132855   3.698   6.714   6.096
10652SOL    HW232856   3.743   6.742   6.251
10653SOL     OW32857   5.294   3.814   4.021
10653SOL    HW132858   5.309   3.890   3.958
10653SOL    HW232859   5.263   3.849   4.109
10654SOL     OW32860   4.596   1.401   0.454
10654SOL    HW132861   4.693   1.402   0.427
10654SOL    HW232862   4.580   1.473   0.522
10655SOL     OW32863   2.817   5.688   0.827
10655SOL    HW132864   2.790   5.629   0.903
10655SOL    HW232865   2.757   5.768   0.825
10656SOL     OW32866   0.030   2.187   1.768
10656SOL    HW132867   0.052   2.174   1.671
10656SOL    HW232868   0.065   2.276   1.798
10657SOL     OW32869   6.181   0.299   6.198
10657SOL    HW132870   6.181   0.312   6.099
10657SOL    HW232871   6.268   0.257   6.226
10658SOL     OW32872   6.331   4.263   5.201
10658SOL    HW132873   6.418   4.301   5.234
10658SOL    HW232874   6.331   4.262   5.101
10659SOL     OW32875   6.978   6.372   0.834
10659SOL    HW132876   6.909   6.304   0.808
10659SOL    HW232877   0.037   6.327   0.854
10660SOL     OW32878   5.656   4.142   0.043
10660SOL    HW132879   5.622   4.231   0.076
10660SOL    HW232880   5.587   4.072   0.059
10661SOL     OW32881   6.796   6.436   2.733
10661SOL    HW132882   6.744   6.350   2.739
10661SOL    HW232883   6.793   6.482   2.822
10662SOL     OW32884   5.389   0.671   2.930
10662SOL    HW132885   5.389   0.763   2.967
10662SOL    HW232886   5.379   0.605   3.004
10663SOL     OW32887   0.422   0.794   1.797
10663SOL    HW132888   0.482   0.874   1.793
10663SOL    HW232889   0.441   0.734   1.720
10664SOL     OW32890   1.040   4.769   4.633
10664SOL    HW132891   1.131   4.786   4.669
10664SOL    HW232892   1.039   4.682   4.584
10665SOL     OW32893   0.524   0.838   1.084
10665SOL    HW132894   0.520   0.912   1.016
10665SOL    HW232895   0.514   0.750   1.037
10666SOL     OW32896   2.837   4.196   0.295
10666SOL    HW132897   2.826   4.189   0.394
10666SOL    HW232898   2.888   4.117   0.261
10667SOL     OW32899   4.215   3.223   5.245
10667SOL    HW132900   4.222   3.283   5.325
10667SOL    HW232901   4.121   3.187   5.238
10668SOL     OW32902   1.617   1.362   5.283
10668SOL    HW132903   1.691   1.385   5.220
10668SOL    HW232904   1.645   1.383   5.377
10669SOL     OW32905   5.934   6.586   0.516
10669SOL    HW132906   5.987   6.670   0.507
10669SOL    HW232907   5.874   6.576   0.437
10670SOL     OW32908   4.950   4.103   4.958
10670SOL    HW132909   5.035   4.154   4.970
10670SOL    HW232910   4.932   4.091   4.861
10671SOL     OW32911   2.507   1.834   2.936
10671SOL    HW132912   2.438   1.763   2.944
10671SOL    HW232913   2.547   1.832   2.844
10672SOL     OW32914   6.648   2.571   0.634
10672SOL    HW132915   6.741   2.587   0.668
10672SOL    HW232916   6.583   2.621   0.690
10673SOL     OW32917   1.040   1.288   6.805
10673SOL    HW132918   1.008   1.370   6.757
10673SOL    HW232919   1.123   1.310   6.857
10674SOL     OW32920   3.084   4.862   0.972
10674SOL    HW132921   3.030   4.885   1.052
10674SOL    HW232922   3.126   4.772   0.985
10675SOL     OW32923   1.825   0.098   6.274
10675SOL    HW132924   1.873   0.084   6.187
10675SOL    HW232925   1.739   0.146   6.257
10676SOL     OW32926   6.111   6.700   5.801
10676SOL    HW132927   6.045   6.756   5.751
10676SOL    HW232928   6.084   6.604   5.796
10677SOL     OW32929   0.626   0.724   2.237
10677SOL    HW132930   0.555   0.715   2.167
10677SOL    HW232931   0.659   0.819   2.239
10678SOL     OW32932   3.758   5.825   2.521
10678SOL    HW132933   3.766   5.752   2.589
10678SOL    HW232934   3.841   5.828   2.465
10679SOL     OW32935   5.511   4.730   6.286
10679SOL    HW132936   5.439   4.763   6.346
10679SOL    HW232937   5.499   4.770   6.195
10680SOL     OW32938   2.589   1.405   3.759
10680SOL    HW132939   2.545   1.479   3.709
10680SOL    HW232940   2.684   1.429   3.779
10681SOL     OW32941   0.254   3.837   6.739
10681SOL    HW132942   0.237   3.934   6.757
10681SOL    HW232943   0.250   3.785   6.824
10682SOL     OW32944   1.860   1.816   3.518
10682SOL    HW132945   1.806   1.798   3.600
10682SOL    HW232946   1.952   1.847   3.545
10683SOL     OW32947   3.419   2.020   3.812
10683SOL    HW132948   3.333   2.069   3.810
10683SOL    HW232949   3.441   1.994   3.906
10684SOL     OW32950   4.875   3.531   1.140
10684SOL    HW132951   4.791   3.508   1.092
10684SOL    HW232952   4.938   3.576   1.078
10685SOL     OW32953   0.015   5.107   2.851
10685SOL    HW132954   6.951   5.070   2.836
10685SOL    HW232955   0.078   5.068   2.783
10686SOL     OW32956   2.666   4.927   6.505
10686SOL    HW132957   2.742   4.867   6.481
10686SOL    HW232958   2.695   5.023   6.497
10687SOL     OW32959   0.001   5.308   1.819
10687SOL    HW132960   0.009   5.324   1.720
10687SOL    HW232961   6.964   5.233   1.835
10688SOL     OW32962   0.165   4.417   2.953
10688SOL    HW132963   0.245   4.452   3.002
10688SOL    HW232964   0.178   4.430   2.855
10689SOL     OW32965   0.304   6.901   4.316
10689SOL    HW132966   0.271   6.966   4.385
10689SOL    HW232967   0.248   6.818   4.320
10690SOL     OW32968   6.761   5.388   3.481
10690SOL    HW132969   6.673   5.435   3.488
10690SOL    HW232970   6.750   5.304   3.428
10691SOL     OW32971   0.442   1.227   2.774
10691SOL    HW132972   0.448   1.288   2.695
10691SOL    HW232973   0.391   1.145   2.749
10692SOL     OW32974   3.590   4.855   2.534
10692SOL    HW132975   3.568   4.766   2.576
10692SOL    HW232976   3.507   4.896   2.497
10693SOL     OW32977   1.871   0.238   1.393
10693SOL    HW132978   1.917   0.295   1.324
10693SOL    HW232979   1.802   0.293   1.440
10694SOL     OW32980   4.571   6.337   1.455
10694SOL    HW132981   4.473   6.350   1.444
10694SOL    HW232982   4.588   6.270   1.527
10695SOL     OW32983   5.448   2.081   2.765
10695SOL    HW132984   5.542   2.062   2.735
10695SOL    HW232985   5.415   2.164   2.720
10696SOL     OW32986   6.799   4.261   2.995
10696SOL    HW132987   6.836   4.177   2.954
10696SOL    HW232988   6.850   4.340   2.961
10697SOL     OW32989   6.961   6.636   4.965
10697SOL    HW132990   0.031   6.617   4.973
10697SOL    HW232991   6.911   6.582   5.033
10698SOL     OW32992   3.824   6.261   3.732
10698SOL    HW132993   3.768   6.179   3.720
10698SOL    HW232994   3.877   6.278   3.649
10699SOL     OW32995   4.275   2.073   2.477
10699SOL    HW132996   4.230   2.067   2.566
10699SOL    HW232997   4.209   2.100   2.407
10700SOL     OW32998   1.426   0.184   0.435
10700SOL    HW132999   1.341   0.236   0.420
10700SOL    HW233000   1.412   0.089   0.408
10701SOL     OW33001   3.447   5.921   0.116
10701SOL    HW133002   3.398   5.901   0.201
10701SOL    HW233003   3.478   5.835   0.075
10702SOL     OW33004   6.729   2.709   2.768
10702SOL    HW133005   6.702   2.625   2.816
10702SOL    HW233006   6.829   2.715   2.764
10703SOL     OW33007   3.886   3.232   4.148
10703SOL    HW133008   3.871   3.321   4.105
10703SOL    HW233009   3.941   3.175   4.087
10704SOL     OW33010   5.568   5.670   1.577
10704SOL    HW133011   5.580   5.757   1.528
10704SOL    HW233012   5.651   5.648   1.628
10705SOL     OW33013   6.913   4.069   1.751
10705SOL    HW133014   6.837   4.124   1.787
10705SOL    HW233015   6.934   4.099   1.658
10706SOL     OW33016   4.921   6.655   1.806
10706SOL    HW133017   4.930   6.753   1.824
10706SOL    HW233018   4.947   6.636   1.711
10707SOL     OW33019   0.697   6.853   4.696
10707SOL    HW133020   0.791   6.887   4.684
10707SOL    HW233021   0.689   6.762   4.655
10708SOL     OW33022   4.685   0.790   2.606
10708SOL    HW133023   4.688   0.890   2.602
10708SOL    HW233024   4.750   0.758   2.675
10709SOL     OW33025   6.843   1.276   5.019
10709SOL    HW133026   6.835   1.282   4.920
10709SOL    HW233027   6.877   1.186   5.045
10710SOL     OW33028   0.552   6.283   4.527
10710SOL    HW133029   0.632   6.245   4.574
10710SOL    HW233030   0.579   6.315   4.436
10711SOL     OW33031   1.869   6.510   3.984
10711SOL    HW133032   1.916   6.568   3.918
10711SOL    HW233033   1.770   6.518   3.970
10712SOL     OW33034   3.592   0.677   2.251
10712SOL    HW133035   3.609   0.579   2.259
10712SOL    HW233036   3.494   0.695   2.266
10713SOL     OW33037   1.634   3.796   1.941
10713SOL    HW133038   1.612   3.729   1.871
10713SOL    HW233039   1.654   3.749   2.027
10714SOL     OW33040   6.486   2.981   4.957
10714SOL    HW133041   6.395   2.970   4.916
10714SOL    HW233042   6.556   2.962   4.888
10715SOL     OW33043   3.685   0.701   3.017
10715SOL    HW133044   3.756   0.668   3.079
10715SOL    HW233045   3.597   0.704   3.064
10716SOL     OW33046   0.074   2.971   3.375
10716SOL    HW133047   0.069   2.897   3.308
10716SOL    HW233048   0.004   3.039   3.354
10717SOL     OW33049   0.951   2.437   0.519
10717SOL    HW133050   0.979   2.420   0.424
10717SOL    HW233051   0.853   2.420   0.529
10718SOL     OW33052   6.500   4.279   0.166
10718SOL    HW133053   6.485   4.289   0.264
10718SOL    HW233054   6.597   4.258   0.149
10719SOL     OW33055   4.550   5.840   1.181
10719SOL    HW133056   4.460   5.879   1.161
10719SOL    HW233057   4.571   5.855   1.278
10720SOL     OW33058   0.693   3.825   6.630
10720SOL    HW133059   0.628   3.889   6.588
10720SOL    HW233060   0.756   3.791   6.560
10721SOL     OW33061   6.209   2.610   4.725
10721SOL    HW133062   6.110   2.598   4.729
10721SOL    HW233063   6.250   2.581   4.811
10722SOL     OW33064   6.897   3.192   0.350
10722SOL    HW133065   6.911   3.093   0.360
10722SOL    HW233066   6.800   3.210   0.334
10723SOL     OW33067   6.228   4.016   6.951
10723SOL    HW133068   6.161   3.949   6.982
10723SOL    HW233069   6.214   4.035   6.854
10724SOL     OW33070   3.205   6.970   6.440
10724SOL    HW133071   3.106   6.981   6.433
10724SOL    HW233072   3.228   6.927   6.528
10725SOL     OW33073   6.824   5.186   3.947
10725SOL    HW133074   6.921   5.204   3.961
10725SOL    HW233075   6.788   5.132   4.023
10726SOL     OW33076   5.816   6.483   5.241
10726SOL    HW133077   5.722   6.452   5.260
10726SOL    HW233078   5.837   6.562   5.299
10727SOL     OW33079   1.799   4.850   4.725
10727SOL    HW133080   1.802   4.754   4.697
10727SOL    HW233081   1.715   4.892   4.692
10728SOL     OW33082   6.113   6.808   2.307
10728SOL    HW133083   6.161   6.721   2.298
10728SOL    HW233084   6.082   6.839   2.216
10729SOL     OW33085   6.508   1.292   2.609
10729SOL    HW133086   6.529   1.194   2.610
10729SOL    HW233087   6.572   1.339   2.548
10730SOL     OW33088   2.694   6.980   1.250
10730SOL    HW133089   2.627   6.936   1.309
10730SOL    HW233090   2.648   0.013   1.185
10731SOL     OW33091   2.145   5.426   0.142
10731SOL    HW133092   2.144   5.453   0.046
10731SOL    HW233093   2.238   5.401   0.169
10732SOL     OW33094   5.768   6.797   2.814
10732SOL    HW133095   5.799   6.830   2.726
10732SOL    HW233096   5.679   6.752   2.804
10733SOL     OW33097   5.880   2.675   0.241
10733SOL    HW133098   5.864   2.769   0.210
10733SOL    HW233099   5.822   2.655   0.320
10734SOL     OW33100   1.561   0.514   6.817
10734SOL    HW133101   1.562   0.523   6.717
10734SOL    HW233102   1.481   0.461   6.845
10735SOL     OW33103   1.498   4.577   2.213
10735SOL    HW133104   1.448   4.532   2.287
10735SOL    HW233105   1.497   4.520   2.132
10736SOL     OW33106   0.453   1.127   3.710
10736SOL    HW133107   0.403   1.056   3.761
10736SOL    HW233108   0.551   1.110   3.717
10737SOL     OW33109   0.795   2.696   0.736
10737SOL    HW133110   0.786   2.734   0.828
10737SOL    HW233111   0.732   2.743   0.674
10738SOL     OW33112   2.465   0.415   2.086
10738SOL    HW133113   2.523   0.390   2.009
10738SOL    HW233114   2.468   0.514   2.100
10739SOL     OW33115   6.910   1.177   2.953
10739SOL    HW133116   6.996   1.159   2.907
10739SOL    HW233117   6.847   1.224   2.891
10740SOL     OW33118   1.179   5.501   5.847
10740SOL    HW133119   1.266   5.505   5.896
10740SOL    HW233120   1.177   5.420   5.789
10741SOL     OW33121   1.039   0.971   3.723
10741SOL    HW133122   1.078   1.063   3.726
10741SOL    HW233123   1.106   0.908   3.684
10742SOL     OW33124   5.992   6.887   2.077
10742SOL    HW133125   5.898   6.871   2.046
10742SOL    HW233126   6.039   6.944   2.010
10743SOL     OW33127   2.405   2.649   3.365
10743SOL    HW133128   2.487   2.594   3.380
10743SOL    HW233129   2.380   2.645   3.268
10744SOL     OW33130   3.283   1.545   2.697
10744SOL    HW133131   3.193   1.588   2.688
10744SOL    HW233132   3.337   1.565   2.615
10745SOL     OW33133   1.652   4.718   6.592
10745SOL    HW133134   1.692   4.810   6.591
10745SOL    HW233135   1.560   4.722   6.553
10746SOL     OW33136   1.856   5.526   1.252
10746SOL    HW133137   1.790   5.451   1.260
10746SOL    HW233138   1.892   5.528   1.158
10747SOL     OW33139   5.263   1.404   3.535
10747SOL    HW133140   5.263   1.497   3.498
10747SOL    HW233141   5.175   1.385   3.577
10748SOL     OW33142   6.021   5.885   1.011
10748SOL    HW133143   6.031   5.960   0.945
10748SOL    HW233144   6.094   5.817   0.995
10749SOL     OW33145   0.370   5.101   2.967
10749SOL    HW133146   0.302   5.072   2.900
10749SOL    HW233147   0.421   5.021   2.999
10750SOL     OW33148   4.588   4.433   4.574
10750SOL    HW133149   4.500   4.472   4.545
10750SOL    HW233150   4.573   4.340   4.609
10751SOL     OW33151   1.007   3.109   5.391
10751SOL    HW133152   1.022   3.145   5.299
10751SOL    HW233153   0.965   3.018   5.385
10752SOL     OW33154   5.848   3.635   6.785
10752SOL    HW133155   5.787   3.566   6.824
10752SOL    HW233156   5.890   3.599   6.702
10753SOL     OW33157   6.287   0.136   3.666
10753SOL    HW133158   6.349   0.070   3.708
10753SOL    HW233159   6.287   0.221   3.719
10754SOL     OW33160   2.154   2.044   2.339
10754SOL    HW133161   2.187   2.131   2.377
10754SOL    HW233162   2.068   2.019   2.384
10755SOL     OW33163   0.044   1.549   0.645
10755SOL    HW133164   0.105   1.555   0.566
10755SOL    HW233165   0.049   1.457   0.683
10756SOL     OW33166   6.266   3.421   0.751
10756SOL    HW133167   6.184   3.420   0.694
10756SOL    HW233168   6.335   3.480   0.708
10757SOL     OW33169   0.221   3.791   7.003
10757SOL    HW133170   0.250   3.728   0.047
10757SOL    HW233171   0.128   3.823   7.023
10758SOL     OW33172   0.761   5.859   5.355
10758SOL    HW133173   0.840   5.911   5.387
10758SOL    HW233174   0.771   5.763   5.382
10759SOL     OW33175   1.862   2.931   0.367
10759SOL    HW133176   1.936   2.867   0.348
10759SOL    HW233177   1.787   2.915   0.302
10760SOL     OW33178   6.931   0.018   0.988
10760SOL    HW133179   6.994   0.038   1.063
10760SOL    HW233180   6.893   6.954   1.000
10761SOL     OW33181   0.817   2.487   6.362
10761SOL    HW133182   0.877   2.541   6.304
10761SOL    HW233183   0.840   2.390   6.354
10762SOL     OW33184   4.700   1.195   4.657
10762SOL    HW133185   4.773   1.245   4.610
10762SOL    HW233186   4.621   1.255   4.668
10763SOL     OW33187   4.360   6.810   1.248
10763SOL    HW133188   4.340   6.850   1.338
10763SOL    HW233189   4.274   6.794   1.199
10764SOL     OW33190   5.259   1.931   6.164
10764SOL    HW133191   5.339   1.898   6.213
10764SOL    HW233192   5.226   2.015   6.206
10765SOL     OW33193   5.704   1.808   1.343
10765SOL    HW133194   5.667   1.885   1.291
10765SOL    HW233195   5.751   1.841   1.424
10766SOL     OW33196   2.702   3.669   0.124
10766SOL    HW133197   2.687   3.571   0.139
10766SOL    HW233198   2.623   3.708   0.076
10767SOL     OW33199   1.325   0.235   0.725
10767SOL    HW133200   1.310   0.301   0.651
10767SOL    HW233201   1.239   0.221   0.774
10768SOL     OW33202   5.375   5.720   0.494
10768SOL    HW133203   5.417   5.646   0.546
10768SOL    HW233204   5.432   5.743   0.416
10769SOL     OW33205   2.690   5.154   5.122
10769SOL    HW133206   2.708   5.055   5.123
10769SOL    HW233207   2.769   5.202   5.083
10770SOL     OW33208   5.279   0.598   4.746
10770SOL    HW133209   5.327   0.685   4.736
10770SOL    HW233210   5.335   0.535   4.799
10771SOL     OW33211   4.357   0.342   5.171
10771SOL    HW133212   4.339   0.332   5.073
10771SOL    HW233213   4.373   0.438   5.192
10772SOL     OW33214   6.562   0.193   4.052
10772SOL    HW133215   6.540   0.286   4.080
10772SOL    HW233216   6.478   0.146   4.025
10773SOL     OW33217   0.092   4.775   6.991
10773SOL    HW133218   0.164   4.808   0.025
10773SOL    HW233219   0.006   4.770   0.013
10774SOL     OW33220   1.532   2.329   0.305
10774SOL    HW133221   1.541   2.310   0.403
10774SOL    HW233222   1.602   2.278   0.254
10775SOL     OW33223   2.180   4.484   0.589
10775SOL    HW133224   2.125   4.455   0.667
10775SOL    HW233225   2.276   4.493   0.617
10776SOL     OW33226   0.878   6.339   1.148
10776SOL    HW133227   0.840   6.253   1.115
10776SOL    HW233228   0.838   6.361   1.237
10777SOL     OW33229   4.338   0.351   3.253
10777SOL    HW133230   4.295   0.374   3.166
10777SOL    HW233231   4.431   0.318   3.236
10778SOL     OW33232   6.205   6.504   4.235
10778SOL    HW133233   6.231   6.488   4.140
10778SOL    HW233234   6.246   6.433   4.293
10779SOL     OW33235   0.561   4.432   3.027
10779SOL    HW133236   0.510   4.472   3.103
10779SOL    HW233237   0.502   4.368   2.978
10780SOL     OW33238   0.889   6.607   2.866
10780SOL    HW133239   0.979   6.650   2.870
10780SOL    HW233240   0.900   6.508   2.853
10781SOL     OW33241   4.480   1.717   4.124
10781SOL    HW133242   4.484   1.812   4.094
10781SOL    HW233243   4.537   1.704   4.205
10782SOL     OW33244   6.200   2.551   3.474
10782SOL    HW133245   6.114   2.599   3.485
10782SOL    HW233246   6.192   2.459   3.515
10783SOL     OW33247   1.899   2.971   2.425
10783SOL    HW133248   1.975   3.023   2.462
10783SOL    HW233249   1.831   2.955   2.496
10784SOL     OW33250   2.220   0.033   1.474
10784SOL    HW133251   2.123   0.018   1.457
10784SOL    HW233252   2.231   0.107   1.541
10785SOL     OW33253   1.970   5.007   1.641
10785SOL    HW133254   2.029   4.998   1.562
10785SOL    HW233255   2.022   5.043   1.718
10786SOL     OW33256   5.195   3.047   1.460
10786SOL    HW133257   5.180   2.966   1.403
10786SOL    HW233258   5.255   3.023   1.537
10787SOL     OW33259   3.635   1.479   4.816
10787SOL    HW133260   3.645   1.533   4.900
10787SOL    HW233261   3.547   1.431   4.818
10788SOL     OW33262   2.208   4.166   6.986
10788SOL    HW133263   2.229   4.118   0.044
10788SOL    HW233264   2.110   4.186   6.982
10789SOL     OW33265   5.552   1.327   0.335
10789SOL    HW133266   5.462   1.343   0.376
10789SOL    HW233267   5.582   1.234   0.355
10790SOL     OW33268   0.498   0.772   5.526
10790SOL    HW133269   0.517   0.860   5.482
10790SOL    HW233270   0.504   0.698   5.459
10791SOL     OW33271   0.937   1.832   1.308
10791SOL    HW133272   0.985   1.810   1.393
10791SOL    HW233273   0.997   1.812   1.231
10792SOL     OW33274   3.103   3.189   1.674
10792SOL    HW133275   3.131   3.193   1.770
10792SOL    HW233276   3.027   3.125   1.663
10793SOL     OW33277   5.683   2.215   4.148
10793SOL    HW133278   5.602   2.270   4.128
10793SOL    HW233279   5.658   2.119   4.149
10794SOL     OW33280   3.463   3.709   2.116
10794SOL    HW133281   3.461   3.762   2.031
10794SOL    HW233282   3.445   3.613   2.095
10795SOL     OW33283   6.295   4.209   3.202
10795SOL    HW133284   6.379   4.244   3.160
10795SOL    HW233285   6.277   4.116   3.168
10796SOL     OW33286   3.223   6.861   6.712
10796SOL    HW133287   3.266   6.798   6.777
10796SOL    HW233288   3.165   6.925   6.761
10797SOL     OW33289   4.101   2.931   0.968
10797SOL    HW133290   4.094   2.847   1.022
10797SOL    HW233291   4.061   3.007   1.018
10798SOL     OW33292   1.996   6.929   0.709
10798SOL    HW133293   2.024   7.011   0.660
10798SOL    HW233294   1.927   6.952   0.777
10799SOL     OW33295   3.683   1.862   1.512
10799SOL    HW133296   3.721   1.954   1.511
10799SOL    HW233297   3.706   1.817   1.599
10800SOL     OW33298   1.960   6.407   0.056
10800SOL    HW133299   1.946   6.470   0.133
10800SOL    HW233300   2.003   6.323   0.090
10801SOL     OW33301   1.022   0.310   4.561
10801SOL    HW133302   1.058   0.399   4.534
10801SOL    HW233303   1.097   0.246   4.575
10802SOL     OW33304   2.215   3.194   4.921
10802SOL    HW133305   2.277   3.126   4.962
10802SOL    HW233306   2.199   3.267   4.988
10803SOL     OW33307   5.038   4.648   4.829
10803SOL    HW133308   5.081   4.605   4.749
10803SOL    HW233309   5.047   4.747   4.821
10804SOL     OW33310   0.043   4.308   1.265
10804SOL    HW133311   7.009   4.386   1.278
10804SOL    HW233312   0.065   4.269   1.355
10805SOL     OW33313   3.517   0.294   6.504
10805SOL    HW133314   3.529   0.360   6.429
10805SOL    HW233315   3.420   0.285   6.526
10806SOL     OW33316   5.889   4.210   0.275
10806SOL    HW133317   5.807   4.178   0.322
10806SOL    HW233318   5.942   4.132   0.241
10807SOL     OW33319   3.212   6.759   3.365
10807SOL    HW133320   3.176   6.810   3.286
10807SOL    HW233321   3.278   6.691   3.334
10808SOL     OW33322   0.140   4.047   0.378
10808SOL    HW133323   0.082   4.089   0.308
10808SOL    HW233324   0.103   3.957   0.403
10809SOL     OW33325   2.538   0.278   4.395
10809SOL    HW133326   2.541   0.241   4.303
10809SOL    HW233327   2.541   0.378   4.391
10810SOL     OW33328   1.158   1.149   5.973
10810SOL    HW133329   1.148   1.234   6.025
10810SOL    HW233330   1.237   1.156   5.913
10811SOL     OW33331   3.908   4.952   5.217
10811SOL    HW133332   3.813   4.924   5.233
10811SOL    HW233333   3.910   5.043   5.175
10812SOL     OW33334   0.377   3.317   1.989
10812SOL    HW133335   0.300   3.376   1.966
10812SOL    HW233336   0.343   3.230   2.024
10813SOL     OW33337   2.488   6.092   6.793
10813SOL    HW133338   2.525   6.181   6.817
10813SOL    HW233339   2.391   6.088   6.818
10814SOL     OW33340   1.348   0.466   5.378
10814SOL    HW133341   1.276   0.522   5.337
10814SOL    HW233342   1.425   0.523   5.403
10815SOL     OW33343   4.840   5.133   3.563
10815SOL    HW133344   4.888   5.214   3.530
10815SOL    HW233345   4.741   5.146   3.553
10816SOL     OW33346   1.601   1.417   2.389
10816SOL    HW133347   1.524   1.370   2.345
10816SOL    HW233348   1.680   1.415   2.329
10817SOL     OW33349   5.555   6.480   2.983
10817SOL    HW133350   5.526   6.401   2.929
10817SOL    HW233351   5.557   6.561   2.926
10818SOL     OW33352   5.450   2.868   5.528
10818SOL    HW133353   5.485   2.961   5.518
10818SOL    HW233354   5.500   2.821   5.600
10819SOL     OW33355   0.848   4.249   6.800
10819SOL    HW133356   0.940   4.247   6.760
10819SOL    HW233357   0.849   4.307   6.882
10820SOL     OW33358   0.131   0.195   4.185
10820SOL    HW133359   0.098   0.107   4.149
10820SOL    HW233360   0.053   0.251   4.211
10821SOL     OW33361   5.397   6.619   2.388
10821SOL    HW133362   5.491   6.584   2.394
10821SOL    HW233363   5.379   6.679   2.466
10822SOL     OW33364   1.222   2.226   2.841
10822SOL    HW133365   1.223   2.319   2.878
10822SOL    HW233366   1.174   2.165   2.904
10823SOL     OW33367   1.672   5.358   1.362
10823SOL    HW133368   1.628   5.382   1.449
10823SOL    HW233369   1.663   5.260   1.346
10824SOL     OW33370   4.699   0.155   3.840
10824SOL    HW133371   4.625   0.097   3.807
10824SOL    HW233372   4.774   0.097   3.874
10825SOL     OW33373   2.618   0.772   0.690
10825SOL    HW133374   2.574   0.689   0.654
10825SOL    HW233375   2.713   0.775   0.658
10826SOL     OW33376   0.144   3.733   3.358
10826SOL    HW133377   0.069   3.798   3.356
10826SOL    HW233378   0.108   3.640   3.360
10827SOL     OW33379   6.173   3.779   4.242
10827SOL    HW133380   6.105   3.841   4.203
10827SOL    HW233381   6.136   3.686   4.246
10828SOL     OW33382   1.126   5.752   2.583
10828SOL    HW133383   1.181   5.718   2.659
10828SOL    HW233384   1.181   5.750   2.499
10829SOL     OW33385   3.200   3.432   0.655
10829SOL    HW133386   3.292   3.405   0.626
10829SOL    HW233387   3.144   3.351   0.669
10830SOL     OW33388   5.211   2.001   2.885
10830SOL    HW133389   5.290   2.028   2.831
10830SOL    HW233390   5.241   1.951   2.966
10831SOL     OW33391   5.283   6.498   1.929
10831SOL    HW133392   5.353   6.541   1.872
10831SOL    HW233393   5.259   6.409   1.892
10832SOL     OW33394   0.367   2.547   0.807
10832SOL    HW133395   0.380   2.624   0.869
10832SOL    HW233396   0.271   2.520   0.808
10833SOL     OW33397   1.475   0.693   4.129
10833SOL    HW133398   1.494   0.681   4.227
10833SOL    HW233399   1.378   0.676   4.112
10834SOL     OW33400   0.923   2.194   6.152
10834SOL    HW133401   0.961   2.102   6.142
10834SOL    HW233402   0.833   2.188   6.197
10835SOL     OW33403   5.373   1.749   0.948
10835SOL    HW133404   5.393   1.714   0.857
10835SOL    HW233405   5.436   1.709   1.014
10836SOL     OW33406   0.043   1.293   5.545
10836SOL    HW133407   6.972   1.291   5.528
10836SOL    HW233408   0.085   1.364   5.488
10837SOL     OW33409   0.620   4.946   0.522
10837SOL    HW133410   0.684   4.997   0.465
10837SOL    HW233411   0.638   4.965   0.619
10838SOL     OW33412   5.575   6.948   4.163
10838SOL    HW133413   5.488   6.994   4.181
10838SOL    HW233414   5.643   7.016   4.136
10839SOL     OW33415   3.030   3.107   0.935
10839SOL    HW133416   3.112   3.058   0.908
10839SOL    HW233417   2.949   3.049   0.921
10840SOL     OW33418   4.080   6.075   1.870
10840SOL    HW133419   4.026   6.015   1.811
10840SOL    HW233420   4.034   6.087   1.957
10841SOL     OW33421   3.678   6.040   6.774
10841SOL    HW133422   3.625   5.978   6.715
10841SOL    HW233423   3.617   6.106   6.817
10842SOL     OW33424   6.625   3.800   0.983
10842SOL    HW133425   6.547   3.780   1.042
10842SOL    HW233426   6.650   3.896   0.992
10843SOL     OW33427   0.250   1.909   2.311
10843SOL    HW133428   0.278   1.987   2.255
10843SOL    HW233429   0.275   1.925   2.406
10844SOL     OW33430   0.645   6.671   4.409
10844SOL    HW133431   0.552   6.638   4.424
10844SOL    HW233432   0.642   6.768   4.383
10845SOL     OW33433   1.794   0.875   1.040
10845SOL    HW133434   1.719   0.937   1.063
10845SOL    HW233435   1.770   0.823   0.957
10846SOL     OW33436   4.685   2.845   0.675
10846SOL    HW133437   4.749   2.773   0.649
10846SOL    HW233438   4.626   2.812   0.748
10847SOL     OW33439   2.577   2.128   6.750
10847SOL    HW133440   2.671   2.105   6.725
10847SOL    HW233441   2.578   2.197   6.822
10848SOL     OW33442   3.040   2.565   6.294
10848SOL    HW133443   3.137   2.570   6.319
10848SOL    HW233444   3.027   2.488   6.231
10849SOL     OW33445   3.478   5.023   3.363
10849SOL    HW133446   3.491   4.924   3.361
10849SOL    HW233447   3.438   5.053   3.276
10850SOL     OW33448   4.627   6.312   6.559
10850SOL    HW133449   4.548   6.354   6.515
10850SOL    HW233450   4.597   6.239   6.620
10851SOL     OW33451   3.032   2.833   6.599
10851SOL    HW133452   3.126   2.807   6.579
10851SOL    HW233453   2.973   2.812   6.521
10852SOL     OW33454   0.540   0.077   6.040
10852SOL    HW133455   0.570   0.004   5.979
10852SOL    HW233456   0.440   0.084   6.038
10853SOL     OW33457   3.589   1.866   5.158
10853SOL    HW133458   3.532   1.922   5.218
10853SOL    HW233459   3.642   1.925   5.097
10854SOL     OW33460   6.445   0.007   6.160
10854SOL    HW133461   6.424   6.938   6.144
10854SOL    HW233462   6.434   0.059   6.075
10855SOL     OW33463   2.770   6.225   2.454
10855SOL    HW133464   2.740   6.230   2.359
10855SOL    HW233465   2.690   6.213   2.513
10856SOL     OW33466   5.915   1.078   1.378
10856SOL    HW133467   5.970   0.996   1.390
10856SOL    HW233468   5.860   1.069   1.294
10857SOL     OW33469   5.671   3.259   3.579
10857SOL    HW133470   5.625   3.227   3.663
10857SOL    HW233471   5.619   3.228   3.499
10858SOL     OW33472   1.257   2.700   6.884
10858SOL    HW133473   1.171   2.735   6.847
10858SOL    HW233474   1.288   2.623   6.827
10859SOL     OW33475   2.349   4.348   3.650
10859SOL    HW133476   2.339   4.320   3.555
10859SOL    HW233477   2.417   4.422   3.656
10860SOL     OW33478   6.849   1.296   5.929
10860SOL    HW133479   6.764   1.245   5.917
10860SOL    HW233480   6.831   1.380   5.981
10861SOL     OW33481   3.661   2.774   1.899
10861SOL    HW133482   3.708   2.719   1.830
10861SOL    HW233483   3.723   2.845   1.933
10862SOL     OW33484   2.831   1.510   6.675
10862SOL    HW133485   2.853   1.538   6.769
10862SOL    HW233486   2.913   1.475   6.630
10863SOL     OW33487   3.321   1.170   2.797
10863SOL    HW133488   3.398   1.108   2.783
10863SOL    HW233489   3.354   1.257   2.832
10864SOL     OW33490   2.741   4.905   1.072
10864SOL    HW133491   2.726   4.859   0.984
10864SOL    HW233492   2.819   4.862   1.118
10865SOL     OW33493   6.286   2.284   3.591
10865SOL    HW133494   6.373   2.242   3.565
10865SOL    HW233495   6.211   2.219   3.575
10866SOL     OW33496   6.318   3.529   1.000
10866SOL    HW133497   6.390   3.460   1.014
10866SOL    HW233498   6.281   3.520   0.908
10867SOL     OW33499   2.958   3.755   0.137
10867SOL    HW133500   2.951   3.830   0.203
10867SOL    HW233501   2.876   3.698   0.143
10868SOL     OW33502   1.436   2.026   3.071
10868SOL    HW133503   1.366   1.985   3.013
10868SOL    HW233504   1.403   2.030   3.165
10869NA      NA33505   0.432   2.452   6.067
10870NA      NA33506   4.468   4.441   5.251
10871NA      NA33507   2.347   4.397   2.162
10872NA      NA33508   5.095   4.713   3.610
10873NA      NA33509   4.185   2.265   5.235
10874NA      NA33510   3.546   4.361   1.419
10875NA      NA33511   1.142   4.544   0.433
10876NA      NA33512   4.209   4.412   1.484
10877NA      NA33513   4.994   4.657   0.835
10878NA      NA33514   3.099   0.300   5.363
10879NA      NA33515   5.743   5.459   1.192
10880NA      NA33516   1.379   0.712   5.721
10881NA      NA33517   5.052   4.934   2.065
10882NA      NA33518   3.727   2.996   0.991
   7.02741   7.02741   7.02741
